<event>
 9    2  0.1325014E-004  0.1841404E+03  0.7546771E-02  0.1196837E+00
         21   -1    0    0  501  502  0.00000000000E+00  0.00000000000E+00  0.28311320605E+02  0.28311320605E+02  0.00000000000E+00 0. -1.
          2   -1    0    0  502    0 -0.00000000000E+00 -0.00000000000E+00 -0.17445755159E+04  0.17445755159E+04  0.00000000000E+00 0. -1.
         24    2    1    2    0    0  0.69773086343E+01 -0.34806633498E+02 -0.21413393733E+03  0.23141965323E+03  0.80259131644E+02 0.  0.
         23    2    1    2    0    0  0.52314222705E+02 -0.12872308961E+03 -0.86650884180E+03  0.88247398095E+03  0.92824255644E+02 0.  0.
        -13    1    3    3    0    0  0.22392246650E+02 -0.12697733204E+02 -0.13659371895E+02  0.29141440924E+02  0.00000000000E+00 0.  1.
         14    1    3    3    0    0 -0.15414938016E+02 -0.22108900295E+02 -0.20047456543E+03  0.20227821230E+03  0.00000000000E+00 0. -1.
        -11    1    4    4    0    0  0.77937689173E+02 -0.99843153793E+02 -0.71442645623E+03  0.72556743320E+03  0.00000000000E+00 0. -1.
         11    1    4    4    0    0 -0.25623466468E+02 -0.28879935821E+02 -0.15208238557E+03  0.15690654775E+03  0.00000000000E+00 0.  1.
          1    1    1    2  501    0 -0.59291531339E+02  0.16352972311E+03 -0.63562141619E+03  0.65899320235E+03  0.00000000000E+00 0. -1.
<scales pt_clust_5="13000.00000" pt_clust_6="13000.00000" pt_clust_7="13000.00000" pt_clust_8="13000.00000" pt_clust_9="159.03248"></scales>
<clustering>
<clus scale="   80.259">  5  6 -1 -1</clus>
<clus scale="   87.759">  2  5  1 -1</clus>
<clus scale="   92.824">  7  8 -1 -1</clus>
<clus scale="  159.032">  1  9  2 -1</clus>
<clus scale="  159.032">  1  5  2 -1</clus>
</clustering>
</event>
<event>
 9    2  0.1325014E-004  0.9754083E+02  0.7546771E-02  0.1292653E+00
          2   -1    0    0  502    0 -0.00000000000E+00  0.00000000000E+00  0.62350924231E+02  0.62350924231E+02  0.00000000000E+00 0. -1.
         21   -1    0    0  501  502  0.00000000000E+00 -0.00000000000E+00 -0.46242971523E+03  0.46242971523E+03  0.00000000000E+00 0. -1.
         23    2    1    2    0    0  0.10379956223E+02  0.34577495760E+02 -0.28553470384E+02  0.10343653506E+03  0.92630823221E+02 0.  0.
         24    2    1    2    0    0  0.68961176729E+02 -0.11480591541E+02 -0.27229101900E+03  0.29220879172E+03  0.79725347624E+02 0.  0.
        -13    1    4    4    0    0  0.10447405035E+02 -0.38971783818E+02 -0.12509702154E+03  0.13144281267E+03  0.00000000000E+00 0.  1.
         14    1    4    4    0    0  0.58513771695E+02  0.27491192277E+02 -0.14719399746E+03  0.16076597905E+03  0.00000000000E+00 0. -1.
        -13    1    3    3    0    0  0.49849675321E+02  0.10622563248E+02 -0.39546128512E+01  0.51122088595E+02  0.00000000000E+00 0.  1.
         13    1    3    3    0    0 -0.39469719098E+02  0.23954932512E+02 -0.24598857533E+02  0.52314446468E+02  0.00000000000E+00 0. -1.
          1    1    1    2  501    0 -0.79341132953E+02 -0.23096904219E+02 -0.99234301614E+02  0.12913531267E+03  0.00000000000E+00 0. -1.
<scales pt_clust_5="13000.00000" pt_clust_6="13000.00000" pt_clust_7="13000.00000" pt_clust_8="13000.00000" pt_clust_9="82.63463"></scales>
<clustering>
<clus scale="   79.725">  5  6 -1 -1</clus>
<clus scale="   82.635">  2  9  1 -1</clus>
<clus scale="   85.381">  2  5  1 -1</clus>
<clus scale="   92.631">  7  8 -1 -1</clus>
<clus scale="   82.635">  2  5  1 -1</clus>
</clustering>
</event>
<event>
 9    2  0.1325014E-004  0.1477508E+03  0.7546771E-02  0.1209513E+00
         21   -1    0    0  501  502  0.00000000000E+00  0.00000000000E+00  0.29908481261E+03  0.29908481261E+03  0.00000000000E+00 0. -1.
         -3   -1    0    0    0  501 -0.00000000000E+00 -0.00000000000E+00 -0.18267273293E+03  0.18267273293E+03  0.00000000000E+00 0.  1.
         24    2    1    2    0    0 -0.86387875698E+02 -0.57929745703E+02 -0.42815569998E+02  0.13609899109E+03  0.76622724026E+02 0.  0.
         23    2    1    2    0    0 -0.28302433889E+02  0.12107440177E+03  0.14913551532E+03  0.21434608026E+03  0.90789876425E+02 0.  0.
        -13    1    3    3    0    0 -0.88003223353E+02 -0.66445117611E+02 -0.20500280938E+02  0.11215962952E+03  0.00000000000E+00 0.  1.
         14    1    3    3    0    0  0.16153476550E+01  0.85153719082E+01 -0.22315289060E+02  0.23939361575E+02  0.00000000000E+00 0. -1.
        -11    1    4    4    0    0  0.20931659355E+02  0.66497175856E+02  0.33544119194E+02  0.77364182234E+02  0.00000000000E+00 0.  1.
         11    1    4    4    0    0 -0.49234093244E+02  0.54577225917E+02  0.11559139613E+03  0.13698189802E+03  0.00000000000E+00 0. -1.
         -4    1    1    2    0  502  0.11469030959E+03 -0.63144656070E+02  0.10092134351E+02  0.13131247419E+03  0.00000000000E+00 0.  1.
<scales pt_clust_5="13000.00000" pt_clust_6="13000.00000" pt_clust_7="13000.00000" pt_clust_8="13000.00000" pt_clust_9="116.56547"></scales>
<clustering>
<clus scale="   76.623">  5  6 -1 -1</clus>
<clus scale="   90.790">  7  8 -1 -1</clus>
<clus scale="  129.189">  2  5  1 -1</clus>
<clus scale="  116.565">  1  9  2 -1</clus>
<clus scale="  116.565">  1  5  2 -1</clus>
</clustering>
</event>
<event>
 9    2  0.1325014E-004  0.1161003E+03  0.7546771E-02  0.1253721E+00
          2   -1    0    0  502    0 -0.00000000000E+00  0.00000000000E+00  0.16363085320E+04  0.16363085320E+04  0.00000000000E+00 0. -1.
         21   -1    0    0  501  502  0.00000000000E+00 -0.00000000000E+00 -0.79290953715E+02  0.79290953715E+02  0.00000000000E+00 0. -1.
         24    2    1    2    0    0  0.62292279719E+02 -0.55833746313E+02  0.12280017726E+04  0.12334834882E+04  0.80594210823E+02 0.  0.
         23    2    1    2    0    0 -0.38295585791E+02  0.16300816598E+02  0.39151041823E+03  0.40437109120E+03  0.92213357477E+02 0.  0.
        -11    1    3    3    0    0 -0.15269102193E+01 -0.29752124301E+02  0.13220464541E+03  0.13551969829E+03  0.00000000000E+00 0.  1.
         12    1    3    3    0    0  0.63819189939E+02 -0.26081622012E+02  0.10957971272E+04  0.10979637900E+04  0.00000000000E+00 0. -1.
        -13    1    4    4    0    0  0.20076776509E+02 -0.22249887115E+02  0.14843319972E+03  0.15142836329E+03  0.00000000000E+00 0. -1.
         13    1    4    4    0    0 -0.58372362300E+02  0.38550703712E+02  0.24307721852E+03  0.25294272790E+03  0.00000000000E+00 0.  1.
          1    1    1    2  501    0 -0.23996693928E+02  0.39532929715E+02 -0.62494612582E+02  0.77744906284E+02  0.00000000000E+00 0. -1.
<scales pt_clust_5="13000.00000" pt_clust_6="13000.00000" pt_clust_7="13000.00000" pt_clust_8="13000.00000" pt_clust_9="46.24601"></scales>
<clustering>
<clus scale="   46.246">  2  9  1 -1</clus>
<clus scale="   80.594">  5  6 -1 -1</clus>
<clus scale="   92.213">  7  8 -1 -1</clus>
<clus scale="  107.105">  1  5  2 -1</clus>
<clus scale="   46.246">  2  5  1 -1</clus>
</clustering>
</event>
<event>
 9    2  0.1325014E-004  0.2464314E+03  0.7546771E-02  0.1115581E+00
         21   -1    0    0  501  502  0.00000000000E+00  0.00000000000E+00  0.82116367902E+03  0.82116367902E+03  0.00000000000E+00 0. -1.
          2   -1    0    0  502    0 -0.00000000000E+00 -0.00000000000E+00 -0.76744174976E+02  0.76744174976E+02  0.00000000000E+00 0. -1.
         24    2    1    2    0    0  0.39684347696E+02  0.10462081808E+03  0.85728748983E+02  0.16262507865E+03  0.81099536235E+02 0.  0.
         23    2    1    2    0    0  0.50368558021E+02  0.15093183225E+02  0.72448047326E+02  0.13020304480E+03  0.94547964007E+02 0.  0.
        -11    1    3    3    0    0 -0.17994602108E+02  0.42611326486E+02  0.56535931857E+02  0.73046850999E+02  0.00000000000E+00 0.  1.
         12    1    3    3    0    0  0.57678949804E+02  0.62009491593E+02  0.29192817126E+02  0.89578227655E+02  0.00000000000E+00 0. -1.
        -13    1    4    4    0    0  0.73319967277E+02 -0.89796216567E+00  0.71194348074E+02  0.10220205054E+03  0.00000000000E+00 0.  1.
         13    1    4    4    0    0 -0.22951409256E+02  0.15991145390E+02  0.12536992515E+01  0.28000994260E+02  0.00000000000E+00 0. -1.
          1    1    1    2  501    0 -0.90052905716E+02 -0.11971400130E+03  0.58624270774E+03  0.60507973054E+03  0.00000000000E+00 0. -1.
<scales pt_clust_5="13000.00000" pt_clust_6="13000.00000" pt_clust_7="13000.00000" pt_clust_8="13000.00000" pt_clust_9="149.80310"></scales>
<clustering>
<clus scale="   81.100">  5  6 -1 -1</clus>
<clus scale="   94.548">  7  8 -1 -1</clus>
<clus scale="  106.569">  5  7 -1 -1</clus>
<clus scale="  149.803">  1  9  2 -1</clus>
<clus scale="  149.803">  1  5  2 -1</clus>
</clustering>
</event>
<event>
 9    2  0.1325014E-004  0.1456125E+03  0.7546771E-02  0.1211666E+00
         21   -1    0    0  501  502  0.00000000000E+00  0.00000000000E+00  0.23343177072E+03  0.23343177072E+03  0.00000000000E+00 0.  1.
          4   -1    0    0  502    0 -0.00000000000E+00 -0.00000000000E+00 -0.15816669717E+03  0.15816669717E+03  0.00000000000E+00 0. -1.
         23    2    1    2    0    0 -0.42026555240E+02  0.86049850365E+02 -0.85137299022E+02  0.16829131837E+03  0.10909995445E+03 0.  0.
         24    2    1    2    0    0  0.22830395653E+02 -0.98472712604E+02  0.13420532361E+03  0.18853495627E+03  0.85535131719E+02 0.  0.
        -13    1    4    4    0    0 -0.30738423077E+02 -0.44814484905E+02  0.39317496303E+02  0.67074989572E+02  0.00000000000E+00 0.  1.
         14    1    4    4    0    0  0.53568818729E+02 -0.53658227699E+02  0.94887827310E+02  0.12145996670E+03  0.00000000000E+00 0. -1.
        -11    1    3    3    0    0 -0.35913796481E+02 -0.12831301012E+02 -0.73704432078E+00  0.38144282634E+02  0.00000000000E+00 0.  1.
         11    1    3    3    0    0 -0.61127587587E+01  0.98881151377E+02 -0.84400254701E+02  0.13014703574E+03  0.00000000000E+00 0. -1.
          3    1    1    2  501    0  0.19196159587E+02  0.12422862240E+02  0.26197048956E+02  0.34772193245E+02  0.00000000000E+00 0. -1.
<scales pt_clust_5="13000.00000" pt_clust_6="13000.00000" pt_clust_7="13000.00000" pt_clust_8="13000.00000" pt_clust_9="22.86526"></scales>
<clustering>
<clus scale="   22.865">  1  9  2 -1</clus>
<clus scale="   85.535">  5  6 -1 -1</clus>
<clus scale="  109.100">  7  8 -1 -1</clus>
<clus scale="  128.905">  1  5  2 -1</clus>
<clus scale="   22.865">  1  5  2 -1</clus>
</clustering>
</event>
<event>
 9    2  0.1325014E-004  0.3064683E+03  0.7546771E-02  0.1111168E+00
         21   -1    0    0  501  502  0.00000000000E+00  0.00000000000E+00  0.50185919236E+03  0.50185919236E+03  0.00000000000E+00 0.  1.
         -1   -1    0    0    0  501 -0.00000000000E+00 -0.00000000000E+00 -0.33612501047E+03  0.33612501047E+03  0.00000000000E+00 0.  1.
         24    2    1    2    0    0  0.10032855161E+03 -0.64149071684E+02 -0.82936514460E+02  0.16554156959E+03  0.79653149119E+02 0.  0.
         23    2    1    2    0    0 -0.63924752582E+00  0.31566806267E+03  0.23021249431E+03  0.40125917984E+03  0.91457107098E+02 0.  0.
        -11    1    3    3    0    0  0.26552285406E+02  0.16245655191E+02 -0.33561124412E+02  0.45774384154E+02  0.00000000000E+00 0.  1.
         12    1    3    3    0    0  0.73776266204E+02 -0.80394726874E+02 -0.49375390048E+02  0.11976718543E+03  0.00000000000E+00 0. -1.
        -13    1    4    4    0    0 -0.19744928640E+02  0.30691841739E+03  0.21322031078E+03  0.37423479003E+03  0.00000000000E+00 0.  1.
         13    1    4    4    0    0  0.19105681114E+02  0.87496452865E+01  0.16992183537E+02  0.27024389814E+02  0.00000000000E+00 0. -1.
         -2    1    1    2    0  502 -0.99689304084E+02 -0.25151899099E+03  0.18458202029E+02  0.27118345340E+03  0.00000000000E+00 0.  1.
<scales pt_clust_5="13000.00000" pt_clust_6="13000.00000" pt_clust_7="13000.00000" pt_clust_8="13000.00000" pt_clust_9="292.50389"></scales>
<clustering>
<clus scale="   79.653">  5  6 -1 -1</clus>
<clus scale="   91.457">  7  8 -1 -1</clus>
<clus scale="  143.267">  2  5  1 -1</clus>
<clus scale="  292.504">  1  9  2 -1</clus>
<clus scale="  292.504">  1  5  2 -1</clus>
</clustering>
</event>
<event>
 9    2  0.1325014E-004  0.1414247E+03  0.7546771E-02  0.1233005E+00
         21   -1    0    0  501  502  0.00000000000E+00  0.00000000000E+00  0.59982040857E+02  0.59982040857E+02  0.00000000000E+00 0.  1.
          2   -1    0    0  502    0 -0.00000000000E+00 -0.00000000000E+00 -0.52632900516E+03  0.52632900516E+03  0.00000000000E+00 0. -1.
         24    2    1    2    0    0 -0.39161249583E+02  0.87755125932E+01 -0.11437281007E+03  0.14556379094E+03  0.80604369983E+02 0.  0.
         23    2    1    2    0    0  0.57453227098E+02 -0.11165728667E+03 -0.25644014925E+03  0.29916335067E+03  0.89268904254E+02 0.  0.
        -13    1    3    3    0    0 -0.46557664057E+02 -0.90598635385E+01 -0.24011209942E+02  0.53162349578E+02  0.00000000000E+00 0.  1.
         14    1    3    3    0    0  0.73964144743E+01  0.17835376132E+02 -0.90361600125E+02  0.92401441363E+02  0.00000000000E+00 0. -1.
        -13    1    4    4    0    0  0.25181050285E+01 -0.52041410181E+02 -0.18126565476E+03  0.18860510815E+03  0.00000000000E+00 0. -1.
         13    1    4    4    0    0  0.54935122070E+02 -0.59615876488E+02 -0.75174494488E+02  0.11055824251E+03  0.00000000000E+00 0.  1.
          1    1    1    2  501    0 -0.18291977516E+02  0.10288177408E+03 -0.95534004992E+02  0.14158390441E+03  0.00000000000E+00 0. -1.
<scales pt_clust_5="13000.00000" pt_clust_6="13000.00000" pt_clust_7="13000.00000" pt_clust_8="13000.00000" pt_clust_9="109.69054"></scales>
<clustering>
<clus scale="   80.604">  5  6 -1 -1</clus>
<clus scale="   89.269">  7  8 -1 -1</clus>
<clus scale="   90.043">  2  5  1 -1</clus>
<clus scale="  109.691">  1  9  2 -1</clus>
<clus scale="  109.691">  1  5  2 -1</clus>
</clustering>
</event>
<event>
 9    2  0.1325014E-004  0.1128289E+03  0.7546771E-02  0.1261012E+00
          2   -1    0    0  502    0 -0.00000000000E+00  0.00000000000E+00  0.56785329287E+03  0.56785329287E+03  0.00000000000E+00 0. -1.
         21   -1    0    0  501  502  0.00000000000E+00 -0.00000000000E+00 -0.50495517310E+02  0.50495517310E+02  0.00000000000E+00 0.  1.
         23    2    1    2    0    0 -0.64784567900E+02 -0.38678505922E+02  0.36257637364E+03  0.38264959299E+03  0.96260153951E+02 0.  0.
         24    2    1    2    0    0  0.29237299052E+01  0.68429215921E+01  0.21312886188E+02  0.85186385843E+02  0.82140778198E+02 0.  0.
        -13    1    4    4    0    0 -0.15380351440E+02  0.39289840065E+02 -0.14799797350E+00  0.42193229862E+02  0.00000000000E+00 0.  1.
         14    1    4    4    0    0  0.18304081345E+02 -0.32446918473E+02  0.21460884161E+02  0.42993155982E+02  0.00000000000E+00 0. -1.
        -11    1    3    3    0    0  0.18770615112E+02  0.14009590265E+02  0.63444782430E+02  0.67630207959E+02  0.00000000000E+00 0.  1.
         11    1    3    3    0    0 -0.83555183012E+02 -0.52688096187E+02  0.29913159121E+03  0.31501938503E+03  0.00000000000E+00 0. -1.
          1    1    1    2  501    0  0.61860837995E+02  0.31835584330E+02  0.13346851574E+03  0.15051283135E+03  0.00000000000E+00 0. -1.
<scales pt_clust_5="13000.00000" pt_clust_6="13000.00000" pt_clust_7="13000.00000" pt_clust_8="13000.00000" pt_clust_9="69.57207"></scales>
<clustering>
<clus scale="   69.572">  2  9  1 -1</clus>
<clus scale="   82.141">  5  6 -1 -1</clus>
<clus scale="   96.260">  7  8 -1 -1</clus>
<clus scale="  101.052">  2  5  1 -1</clus>
<clus scale="   69.572">  2  5  1 -1</clus>
</clustering>
</event>
<event>
 9    2  0.1325014E-004  0.9601756E+02  0.7546771E-02  0.1296866E+00
         21   -1    0    0  501  502  0.00000000000E+00  0.00000000000E+00  0.61611031967E+02  0.61611031967E+02  0.00000000000E+00 0. -1.
          2   -1    0    0  502    0 -0.00000000000E+00 -0.00000000000E+00 -0.28750013034E+03  0.28750013034E+03  0.00000000000E+00 0. -1.
         24    2    1    2    0    0 -0.19278877549E+02  0.52606573427E+01 -0.13642602998E+03  0.15752135040E+03  0.76168002066E+02 0.  0.
         23    2    1    2    0    0  0.55728323348E+02 -0.22353844578E+02 -0.10250063996E+03  0.14927294268E+03  0.90391868183E+02 0.  0.
        -11    1    3    3    0    0 -0.79040579900E+01 -0.33098710157E+02 -0.36599322338E+02  0.49975085216E+02  0.00000000000E+00 0.  1.
         12    1    3    3    0    0 -0.11374819559E+02  0.38359367500E+02 -0.99826707644E+02  0.10754626518E+03  0.00000000000E+00 0. -1.
        -13    1    4    4    0    0 -0.24275756627E+02  0.30879494588E+01 -0.20584776762E+02  0.31977817718E+02  0.00000000000E+00 0.  1.
         13    1    4    4    0    0  0.80004079975E+02 -0.25441794037E+02 -0.81915863198E+02  0.11729512496E+03  0.00000000000E+00 0. -1.
          1    1    1    2  501    0 -0.36449445799E+02  0.17093187235E+02  0.13037571570E+02  0.42316869229E+02  0.00000000000E+00 0. -1.
<scales pt_clust_5="13000.00000" pt_clust_6="13000.00000" pt_clust_7="13000.00000" pt_clust_8="13000.00000" pt_clust_9="40.25840"></scales>
<clustering>
<clus scale="   40.258">  1  9  2 -1</clus>
<clus scale="   76.168">  5  6 -1 -1</clus>
<clus scale="   82.766">  2  5  1 -1</clus>
<clus scale="   90.392">  7  8 -1 -1</clus>
<clus scale="   40.258">  1  5  2 -1</clus>
</clustering>
</event>
<event>
 9    2  0.1325014E-004  0.9666454E+02  0.7546771E-02  0.1293035E+00
         -1   -1    0    0    0  501 -0.00000000000E+00  0.00000000000E+00  0.75109775545E+02  0.75109775545E+02  0.00000000000E+00 0.  1.
         21   -1    0    0  501  502  0.00000000000E+00 -0.00000000000E+00 -0.27722981263E+03  0.27722981263E+03  0.00000000000E+00 0. -1.
         23    2    1    2    0    0  0.48866656689E+02 -0.30302873621E+02 -0.15385692477E+02  0.10805417535E+03  0.90181877286E+02 0.  0.
         24    2    1    2    0    0  0.64368007457E+01 -0.17397913970E+02 -0.12019258273E+03  0.14548438239E+03  0.79845655885E+02 0.  0.
        -13    1    4    4    0    0  0.10050935196E+02 -0.48732917999E+02 -0.64286146838E+02  0.81293463884E+02  0.00000000000E+00 0.  1.
         14    1    4    4    0    0 -0.36141344502E+01  0.31335004030E+02 -0.55906435888E+02  0.64190918509E+02  0.00000000000E+00 0. -1.
        -13    1    3    3    0    0  0.72801044577E+02 -0.65319209790E+01 -0.80757534800E+01  0.73538261317E+02  0.00000000000E+00 0. -1.
         13    1    3    3    0    0 -0.23934387888E+02 -0.23770952642E+02 -0.73099389968E+01  0.34515914029E+02  0.00000000000E+00 0.  1.
         -2    1    1    2    0  502 -0.55303457435E+02  0.47700787591E+02 -0.66541761887E+02  0.98801030441E+02  0.00000000000E+00 0.  1.
<scales pt_clust_5="13000.00000" pt_clust_6="13000.00000" pt_clust_7="13000.00000" pt_clust_8="13000.00000" pt_clust_9="73.03313"></scales>
<clustering>
<clus scale="   73.033">  2  9  1 -1</clus>
<clus scale="   79.846">  5  6 -1 -1</clus>
<clus scale="   87.101">  2  5  1 -1</clus>
<clus scale="   90.182">  7  8 -1 -1</clus>
<clus scale="   73.033">  2  5  1 -1</clus>
</clustering>
</event>
<event>
 9    2  0.1325014E-004  0.1466661E+03  0.7546771E-02  0.1206658E+00
         21   -1    0    0  501  502  0.00000000000E+00  0.00000000000E+00  0.31360081852E+03  0.31360081852E+03  0.00000000000E+00 0. -1.
          4   -1    0    0  502    0 -0.00000000000E+00 -0.00000000000E+00 -0.12466293300E+03  0.12466293300E+03  0.00000000000E+00 0. -1.
         24    2    1    2    0    0  0.12591825795E+02  0.11236422113E+03 -0.28835255705E+02  0.14156421617E+03  0.80154120668E+02 0.  0.
         23    2    1    2    0    0  0.25712151605E+02 -0.12620993070E+03  0.19263646264E+03  0.24883774507E+03  0.90671689555E+02 0.  0.
        -13    1    3    3    0    0 -0.30213453673E+02  0.35596384940E+02  0.58857357790E+01  0.47059507959E+02  0.00000000000E+00 0.  1.
         14    1    3    3    0    0  0.42805279469E+02  0.76767836192E+02 -0.34720991484E+02  0.94504708209E+02  0.00000000000E+00 0. -1.
        -11    1    4    4    0    0  0.35836349686E+02 -0.36140271386E+02  0.21639705333E+02  0.55304972847E+02  0.00000000000E+00 0.  1.
         11    1    4    4    0    0 -0.10124198082E+02 -0.90069659317E+02  0.17099675731E+03  0.19353277223E+03  0.00000000000E+00 0. -1.
          3    1    1    2  501    0 -0.38303977400E+02  0.13845709571E+02  0.25136678593E+02  0.47861790281E+02  0.00000000000E+00 0. -1.
<scales pt_clust_5="13000.00000" pt_clust_6="13000.00000" pt_clust_7="13000.00000" pt_clust_8="13000.00000" pt_clust_9="40.72958"></scales>
<clustering>
<clus scale="   40.730">  1  9  2 -1</clus>
<clus scale="   80.154">  5  6 -1 -1</clus>
<clus scale="   90.672">  7  8 -1 -1</clus>
<clus scale="  140.408">  2  5  1 -1</clus>
<clus scale="   40.730">  1  5  2 -1</clus>
</clustering>
</event>
<event>
 9    2  0.1325014E-004  0.1456561E+03  0.7546771E-02  0.1217363E+00
         21   -1    0    0  501  502  0.00000000000E+00  0.00000000000E+00  0.23458372577E+03  0.23458372577E+03  0.00000000000E+00 0. -1.
         -1   -1    0    0    0  501 -0.00000000000E+00 -0.00000000000E+00 -0.19694334084E+03  0.19694334084E+03  0.00000000000E+00 0.  1.
         24    2    1    2    0    0 -0.66121783291E+02  0.44060929511E+02  0.78042230309E+02  0.13827237173E+03  0.81946344259E+02 0.  0.
         23    2    1    2    0    0 -0.73647527078E+02  0.15838686844E+02  0.17583409147E+02  0.13051037423E+03  0.10511402980E+03 0.  0.
        -13    1    3    3    0    0 -0.26482716779E+02 -0.17086819242E+02  0.26220332509E-01  0.31516572899E+02  0.00000000000E+00 0.  1.
         14    1    3    3    0    0 -0.39639066512E+02  0.61147748753E+02  0.78016009976E+02  0.10675579883E+03  0.00000000000E+00 0. -1.
        -11    1    4    4    0    0 -0.98434987660E+02  0.59446695178E+01  0.11791685477E+00  0.98614399535E+02  0.00000000000E+00 0.  1.
         11    1    4    4    0    0  0.24787460582E+02  0.98940173265E+01  0.17465492292E+02  0.31895974699E+02  0.00000000000E+00 0. -1.
         -2    1    1    2    0  502  0.13976931037E+03 -0.59899616355E+02 -0.57985254528E+02  0.16274432065E+03  0.00000000000E+00 0.  1.
<scales pt_clust_5="13000.00000" pt_clust_6="13000.00000" pt_clust_7="13000.00000" pt_clust_8="13000.00000" pt_clust_9="100.83036"></scales>
<clustering>
<clus scale="   81.946">  5  6 -1 -1</clus>
<clus scale="  105.114">  7  8 -1 -1</clus>
<clus scale="  114.143">  2  5  1 -1</clus>
<clus scale="  100.830">  1  9  2 -1</clus>
<clus scale="  100.830">  1  5  2 -1</clus>
</clustering>
</event>
<event>
 9    2  0.1325014E-004  0.9629307E+02  0.7546771E-02  0.1292685E+00
          4   -1    0    0  502    0 -0.00000000000E+00  0.00000000000E+00  0.12480865536E+03  0.12480865536E+03  0.00000000000E+00 0. -1.
         21   -1    0    0  501  502  0.00000000000E+00 -0.00000000000E+00 -0.19299379828E+03  0.19299379828E+03  0.00000000000E+00 0. -1.
         24    2    1    2    0    0 -0.43775697912E+02  0.65508872572E+01  0.53920203334E+02  0.10840120853E+03  0.82971126488E+02 0.  0.
         23    2    1    2    0    0 -0.21749899987E+02 -0.32701174874E+02 -0.64203630305E+02  0.11813213624E+03  0.91053119012E+02 0.  0.
        -11    1    3    3    0    0 -0.11259410938E+02  0.16863073658E+02 -0.19068634351E+02  0.27834338575E+02  0.00000000000E+00 0.  1.
         12    1    3    3    0    0 -0.32516286974E+02 -0.10312186401E+02  0.72988837686E+02  0.80566869951E+02  0.00000000000E+00 0. -1.
        -13    1    4    4    0    0 -0.36013635859E+02  0.12390717896E+02 -0.59445294855E+02  0.70599255932E+02  0.00000000000E+00 0. -1.
         13    1    4    4    0    0  0.14263735872E+02 -0.45091892770E+02 -0.47583354508E+01  0.47532880313E+02  0.00000000000E+00 0.  1.
          3    1    1    2  501    0  0.65525597899E+02  0.26150287617E+02 -0.57901715949E+02  0.91269108861E+02  0.00000000000E+00 0. -1.
<scales pt_clust_5="13000.00000" pt_clust_6="13000.00000" pt_clust_7="13000.00000" pt_clust_8="13000.00000" pt_clust_9="70.55099"></scales>
<clustering>
<clus scale="   70.551">  2  9  1 -1</clus>
<clus scale="   82.971">  5  6 -1 -1</clus>
<clus scale="   88.690">  1  5  2 -1</clus>
<clus scale="   91.053">  7  8 -1 -1</clus>
<clus scale="   70.551">  2  5  1 -1</clus>
</clustering>
</event>
<event>
 9    2  0.1325014E-004  0.2424971E+03  0.7546771E-02  0.1152140E+00
         -1   -1    0    0    0  501 -0.00000000000E+00  0.00000000000E+00  0.11043333677E+03  0.11043333677E+03  0.00000000000E+00 0.  1.
         21   -1    0    0  501  502  0.00000000000E+00 -0.00000000000E+00 -0.79736546916E+03  0.79736546916E+03  0.00000000000E+00 0.  1.
         23    2    1    2    0    0  0.41602511871E+02  0.36155070645E+02 -0.20575584730E+03  0.23145799145E+03  0.90550400232E+02 0.  0.
         24    2    1    2    0    0 -0.13071804547E+03 -0.22129207305E+03 -0.28789370475E+03  0.39424961672E+03  0.80576584956E+02 0.  0.
        -11    1    4    4    0    0 -0.11038832677E+03 -0.15973754740E+03 -0.16292614781E+03  0.25346912312E+03  0.00000000000E+00 0.  1.
         12    1    4    4    0    0 -0.20329718701E+02 -0.61554525653E+02 -0.12496755694E+03  0.14078049360E+03  0.00000000000E+00 0. -1.
        -11    1    3    3    0    0  0.60751968419E+02  0.43033402150E+02 -0.19437315004E+03  0.20814321229E+03  0.00000000000E+00 0.  1.
         11    1    3    3    0    0 -0.19149456548E+02 -0.68783315049E+01 -0.11382697260E+02  0.23314779160E+02  0.00000000000E+00 0. -1.
         -2    1    1    2    0  502  0.89115533596E+02  0.18513700241E+03 -0.19328258035E+03  0.28209119776E+03  0.00000000000E+00 0.  1.
<scales pt_clust_5="13000.00000" pt_clust_6="13000.00000" pt_clust_7="13000.00000" pt_clust_8="13000.00000" pt_clust_9="228.71872"></scales>
<clustering>
<clus scale="   80.577">  5  6 -1 -1</clus>
<clus scale="   90.550">  7  8 -1 -1</clus>
<clus scale="  106.006">  1  7  2 -1</clus>
<clus scale="  228.719">  2  9  1 -1</clus>
<clus scale="  228.719">  2  5  1 -1</clus>
</clustering>
</event>
<event>
 9    2  0.1325014E-004  0.2183391E+03  0.7546771E-02  0.1136226E+00
          2   -1    0    0  502    0 -0.00000000000E+00  0.00000000000E+00  0.83677122323E+03  0.83677122323E+03  0.00000000000E+00 0. -1.
         21   -1    0    0  501  502  0.00000000000E+00 -0.00000000000E+00 -0.14206388032E+03  0.14206388032E+03  0.00000000000E+00 0. -1.
         24    2    1    2    0    0 -0.55408509480E+01  0.20305319441E+03  0.34834257850E+03  0.41117345865E+03  0.80372634079E+02 0.  0.
         23    2    1    2    0    0  0.90727818202E+02 -0.16898824139E+03  0.46979744051E+01  0.21389132987E+03  0.94545583207E+02 0.  0.
        -11    1    3    3    0    0 -0.42839880291E+02  0.11852862424E+03  0.20436947204E+03  0.24010658302E+03  0.00000000000E+00 0.  1.
         12    1    3    3    0    0  0.37299029343E+02  0.84524570174E+02  0.14397310646E+03  0.17106687563E+03  0.00000000000E+00 0. -1.
        -13    1    4    4    0    0  0.59823853308E+02 -0.26066519183E+02 -0.13192350117E+02  0.66576234112E+02  0.00000000000E+00 0.  1.
         13    1    4    4    0    0  0.30903964894E+02 -0.14292172221E+03  0.17890324522E+02  0.14731509576E+03  0.00000000000E+00 0. -1.
          1    1    1    2  501    0 -0.85186967254E+02 -0.34064953019E+02  0.34166679000E+03  0.35377031504E+03  0.00000000000E+00 0. -1.
<scales pt_clust_5="13000.00000" pt_clust_6="13000.00000" pt_clust_7="13000.00000" pt_clust_8="13000.00000" pt_clust_9="91.74557"></scales>
<clustering>
<clus scale="   80.373">  5  6 -1 -1</clus>
<clus scale="   91.746">  2  9  1 -1</clus>
<clus scale="   94.546">  7  8 -1 -1</clus>
<clus scale="  212.586">  1  5  2 -1</clus>
<clus scale="   91.746">  2  5  1 -1</clus>
</clustering>
</event>
<event>
 9    2  0.1325014E-004  0.1135291E+03  0.7546771E-02  0.1254245E+00
         21   -1    0    0  501  502  0.00000000000E+00  0.00000000000E+00  0.56805996071E+02  0.56805996071E+02  0.00000000000E+00 0. -1.
          2   -1    0    0  502    0 -0.00000000000E+00 -0.00000000000E+00 -0.67383220433E+03  0.67383220433E+03  0.00000000000E+00 0. -1.
         24    2    1    2    0    0 -0.75461525834E+02 -0.53328048038E+01 -0.38309495768E+03  0.40104164492E+03  0.91377095986E+02 0.  0.
         23    2    1    2    0    0  0.20213198281E+02  0.90667242441E+02 -0.13574853783E+03  0.18826648427E+03  0.91583193555E+02 0.  0.
        -13    1    3    3    0    0 -0.77105077145E+02 -0.60057401121E+01 -0.15773487611E+03  0.17567456554E+03  0.00000000000E+00 0.  1.
         14    1    3    3    0    0  0.16435513113E+01  0.67293530833E+00 -0.22536008157E+03  0.22536707938E+03  0.00000000000E+00 0. -1.
        -13    1    4    4    0    0 -0.21784754193E+02  0.17879412370E+02 -0.86248640288E+02  0.90736303945E+02  0.00000000000E+00 0.  1.
         13    1    4    4    0    0  0.41997952474E+02  0.72787830071E+02 -0.49499897537E+02  0.97530180327E+02  0.00000000000E+00 0. -1.
          1    1    1    2  501    0  0.55248327553E+02 -0.85334437637E+02 -0.98182712747E+02  0.14133007120E+03  0.00000000000E+00 0. -1.
<scales pt_clust_5="13000.00000" pt_clust_6="13000.00000" pt_clust_7="13000.00000" pt_clust_8="13000.00000" pt_clust_9="101.65798"></scales>
<clustering>
<clus scale="   91.377">  5  6 -1 -1</clus>
<clus scale="   91.583">  7  8 -1 -1</clus>
<clus scale="  101.658">  1  9  2 -1</clus>
<clus scale="  113.363">  2  5  1 -1</clus>
<clus scale="  101.658">  1  5  2 -1</clus>
</clustering>
</event>
<event>
 9    2  0.1325014E-004  0.9921999E+02  0.7546771E-02  0.1289514E+00
          4   -1    0    0  502    0 -0.00000000000E+00  0.00000000000E+00  0.24424223981E+03  0.24424223981E+03  0.00000000000E+00 0. -1.
         21   -1    0    0  501  502  0.00000000000E+00 -0.00000000000E+00 -0.10626213440E+03  0.10626213440E+03  0.00000000000E+00 0. -1.
         24    2    1    2    0    0  0.22453370044E+02  0.25585026649E+02  0.12726215980E+03  0.15394621056E+03  0.79655702959E+02 0.  0.
         23    2    1    2    0    0  0.96901514712E+01 -0.39659395149E+02  0.72607341542E+02  0.12541330331E+03  0.93754487578E+02 0.  0.
        -13    1    3    3    0    0 -0.20583932372E+01  0.32774209170E+02  0.10580561781E+02  0.34501218197E+02  0.00000000000E+00 0.  1.
         14    1    3    3    0    0  0.24511763281E+02 -0.71891825209E+01  0.11668159802E+03  0.11944499236E+03  0.00000000000E+00 0. -1.
        -13    1    4    4    0    0 -0.36399060760E+02 -0.30595914574E+02  0.12568100036E+02  0.49182911172E+02  0.00000000000E+00 0.  1.
         13    1    4    4    0    0  0.46089212231E+02 -0.90634805752E+01  0.60039241506E+02  0.76230392133E+02  0.00000000000E+00 0. -1.
          3    1    1    2  501    0 -0.32143521515E+02  0.14074368500E+02 -0.61889395939E+02  0.71144860346E+02  0.00000000000E+00 0. -1.
<scales pt_clust_5="13000.00000" pt_clust_6="13000.00000" pt_clust_7="13000.00000" pt_clust_8="13000.00000" pt_clust_9="35.08980"></scales>
<clustering>
<clus scale="   35.090">  2  9  1 -1</clus>
<clus scale="   79.656">  5  6 -1 -1</clus>
<clus scale="   86.022">  1  5  2 -1</clus>
<clus scale="   93.754">  7  8 -1 -1</clus>
<clus scale="   35.090">  2  5  1 -1</clus>
</clustering>
</event>
<event>
 9    2  0.1325014E-004  0.8857641E+02  0.7546771E-02  0.1309772E+00
          2   -1    0    0  502    0 -0.00000000000E+00  0.00000000000E+00  0.15846265394E+03  0.15846265394E+03  0.00000000000E+00 0. -1.
         21   -1    0    0  501  502  0.00000000000E+00 -0.00000000000E+00 -0.12345727824E+03  0.12345727824E+03  0.00000000000E+00 0.  1.
         24    2    1    2    0    0  0.24759485695E+02  0.70939531865E+01 -0.25974699555E+02  0.88289843432E+02  0.80355803354E+02 0.  0.
         23    2    1    2    0    0 -0.17178861148E+02  0.16706161435E+02 -0.33981232709E+02  0.95438636294E+02  0.85904598369E+02 0.  0.
        -11    1    3    3    0    0 -0.30920568403E+01 -0.34326062713E+02 -0.11047880424E+02  0.36192472404E+02  0.00000000000E+00 0.  1.
         12    1    3    3    0    0  0.27851542535E+02  0.41420015899E+02 -0.14926819132E+02  0.52097371028E+02  0.00000000000E+00 0. -1.
        -13    1    4    4    0    0  0.24425096802E+02  0.30573987451E+02  0.12996902725E+01  0.39154096303E+02  0.00000000000E+00 0.  1.
         13    1    4    4    0    0 -0.41603957950E+02 -0.13867826017E+02 -0.35280922982E+02  0.56284539991E+02  0.00000000000E+00 0. -1.
          1    1    1    2  501    0 -0.75806245470E+01 -0.23800114621E+02  0.94961307969E+02  0.98191452457E+02  0.00000000000E+00 0. -1.
<scales pt_clust_5="13000.00000" pt_clust_6="13000.00000" pt_clust_7="13000.00000" pt_clust_8="13000.00000" pt_clust_9="24.97823"></scales>
<clustering>
<clus scale="   24.978">  2  9  1 -1</clus>
<clus scale="   80.356">  5  6 -1 -1</clus>
<clus scale="   83.206">  1  5  2 -1</clus>
<clus scale="   85.905">  7  8 -1 -1</clus>
<clus scale="   24.978">  2  5  1 -1</clus>
</clustering>
</event>
<event>
 9    2  0.1325014E-004  0.2070702E+03  0.7546771E-02  0.1144833E+00
          2   -1    0    0  502    0 -0.00000000000E+00  0.00000000000E+00  0.15334066850E+04  0.15334066850E+04  0.00000000000E+00 0. -1.
         21   -1    0    0  501  502  0.00000000000E+00 -0.00000000000E+00 -0.63458133556E+02  0.63458133556E+02  0.00000000000E+00 0. -1.
         23    2    1    2    0    0  0.38296962804E+02  0.23975308594E+03  0.58787364100E+03  0.64267954109E+03  0.92159509409E+02 0.  0.
         24    2    1    2    0    0 -0.54932854272E+01 -0.12101403512E+03  0.14104855626E+03  0.20298949670E+03  0.81458379980E+02 0.  0.
        -13    1    4    4    0    0  0.20680558938E+02 -0.49124676186E+02  0.14711680426E+02  0.55293334764E+02  0.00000000000E+00 0.  1.
         14    1    4    4    0    0 -0.26173844365E+02 -0.71889358934E+02  0.12633687583E+03  0.14769616194E+03  0.00000000000E+00 0. -1.
        -11    1    3    3    0    0  0.11687350455E+02  0.48212866982E+02  0.47246991051E+02  0.68508049649E+02  0.00000000000E+00 0. -1.
         11    1    3    3    0    0  0.26609612349E+02  0.19154021896E+03  0.54062664995E+03  0.57417149144E+03  0.00000000000E+00 0.  1.
          1    1    1    2  501    0 -0.32803677377E+02 -0.11873905082E+03  0.74102635417E+03  0.75119578075E+03  0.00000000000E+00 0. -1.
<scales pt_clust_5="13000.00000" pt_clust_6="13000.00000" pt_clust_7="13000.00000" pt_clust_8="13000.00000" pt_clust_9="123.18709"></scales>
<clustering>
<clus scale="   81.458">  5  6 -1 -1</clus>
<clus scale="   92.160">  7  8 -1 -1</clus>
<clus scale="  123.187">  2  9  1 -1</clus>
<clus scale="  202.534">  2  5  1 -1</clus>
<clus scale="  123.187">  2  5  1 -1</clus>
</clustering>
</event>
<event>
 9    2  0.1325014E-004  0.1207412E+03  0.7546771E-02  0.1245351E+00
         21   -1    0    0  501  502  0.00000000000E+00  0.00000000000E+00  0.10212911296E+03  0.10212911296E+03  0.00000000000E+00 0.  1.
          2   -1    0    0  502    0 -0.00000000000E+00 -0.00000000000E+00 -0.55791288620E+03  0.55791288620E+03  0.00000000000E+00 0. -1.
         23    2    1    2    0    0 -0.84839239746E+02 -0.76063553396E+01 -0.40099370494E+03  0.41947453943E+03  0.88923476010E+02 0.  0.
         24    2    1    2    0    0  0.47438718054E+02  0.32553029323E+01  0.67110871939E+02  0.11298387963E+03  0.77462629410E+02 0.  0.
        -13    1    4    4    0    0  0.66338347939E+02  0.15805145746E+02  0.49603968040E+02  0.84327532186E+02  0.00000000000E+00 0.  1.
         14    1    4    4    0    0 -0.18899629885E+02 -0.12549842813E+02  0.17506903900E+02  0.28656347440E+02  0.00000000000E+00 0. -1.
        -13    1    3    3    0    0  0.22050112976E+01 -0.31412985081E+02 -0.78149700851E+02  0.84255643429E+02  0.00000000000E+00 0.  1.
         13    1    3    3    0    0 -0.87044251044E+02  0.23806629742E+02 -0.32284400409E+03  0.33521889600E+03  0.00000000000E+00 0. -1.
          1    1    1    2  501    0  0.37400521692E+02  0.43510524073E+01 -0.12190094023E+03  0.12758358009E+03  0.00000000000E+00 0. -1.
<scales pt_clust_5="13000.00000" pt_clust_6="13000.00000" pt_clust_7="13000.00000" pt_clust_8="13000.00000" pt_clust_9="37.65278"></scales>
<clustering>
<clus scale="   37.653">  1  9  2 -1</clus>
<clus scale="   77.463">  5  6 -1 -1</clus>
<clus scale="   88.923">  7  8 -1 -1</clus>
<clus scale="  112.568">  1  5  2 -1</clus>
<clus scale="   37.653">  1  5  2 -1</clus>
</clustering>
</event>
<event>
 9    2  0.1325014E-004  0.2129556E+03  0.7546771E-02  0.1149497E+00
         -1   -1    0    0    0  501 -0.00000000000E+00  0.00000000000E+00  0.13285207508E+03  0.13285207508E+03  0.00000000000E+00 0.  1.
         21   -1    0    0  501  502  0.00000000000E+00 -0.00000000000E+00 -0.97448977516E+03  0.97448977516E+03  0.00000000000E+00 0. -1.
         24    2    1    2    0    0 -0.54834113606E+02 -0.12875122534E+03 -0.89456479829E+02  0.18912167950E+03  0.90448271587E+02 0.  0.
         23    2    1    2    0    0 -0.18068467130E+03  0.15276246276E+02 -0.55491102820E+03  0.59071261725E+03  0.90193308077E+02 0.  0.
        -11    1    3    3    0    0 -0.44931550174E+02 -0.42667271545E+02  0.34747967482E+01  0.62059765344E+02  0.00000000000E+00 0.  1.
         12    1    3    3    0    0 -0.99025634327E+01 -0.86083953795E+02 -0.92931276577E+02  0.12706191416E+03  0.00000000000E+00 0. -1.
        -13    1    4    4    0    0 -0.20216946865E+02  0.35387019756E+02 -0.10682755893E+03  0.11433762921E+03  0.00000000000E+00 0.  1.
         13    1    4    4    0    0 -0.16046772443E+03 -0.20110773480E+02 -0.44808346927E+03  0.47637498804E+03  0.00000000000E+00 0. -1.
         -2    1    1    2    0  502  0.23551878490E+03  0.11347497906E+03 -0.19727019205E+03  0.32750755348E+03  0.00000000000E+00 0.  1.
<scales pt_clust_5="13000.00000" pt_clust_6="13000.00000" pt_clust_7="13000.00000" pt_clust_8="13000.00000" pt_clust_9="192.91264"></scales>
<clustering>
<clus scale="   90.193">  7  8 -1 -1</clus>
<clus scale="   90.448">  5  6 -1 -1</clus>
<clus scale="  166.627">  1  5  2 -1</clus>
<clus scale="  192.913">  2  9  1 -1</clus>
<clus scale="  192.913">  2  5  1 -1</clus>
</clustering>
</event>
<event>
 9    2  0.1325014E-004  0.1006754E+03  0.7546771E-02  0.1281702E+00
          2   -1    0    0  502    0 -0.00000000000E+00  0.00000000000E+00  0.59591894419E+03  0.59591894419E+03  0.00000000000E+00 0. -1.
         21   -1    0    0  501  502  0.00000000000E+00 -0.00000000000E+00 -0.29762848773E+02  0.29762848773E+02  0.00000000000E+00 0.  1.
         23    2    1    2    0    0  0.37248722132E+02 -0.34803639920E+02  0.44275165235E+03  0.45471752729E+03  0.90223296945E+02 0.  0.
         24    2    1    2    0    0 -0.95359235954E+01  0.27976519523E+02  0.99575206323E+02  0.13378307017E+03  0.84315293186E+02 0.  0.
        -13    1    4    4    0    0 -0.40124595251E+02 -0.13348472743E+01  0.22996493157E+02  0.46266658176E+02  0.00000000000E+00 0.  1.
         14    1    4    4    0    0  0.30588671656E+02  0.29311366797E+02  0.76578713166E+02  0.87516411989E+02  0.00000000000E+00 0. -1.
        -13    1    3    3    0    0 -0.22430535068E+02 -0.32137463512E+02  0.11312652063E+03  0.11972282629E+03  0.00000000000E+00 0. -1.
         13    1    3    3    0    0  0.59679257201E+02 -0.26661764080E+01  0.32962513172E+03  0.33499470100E+03  0.00000000000E+00 0.  1.
          1    1    1    2  501    0 -0.27712798537E+02  0.68271203973E+01  0.23829236741E+02  0.37181195507E+02  0.00000000000E+00 0. -1.
<scales pt_clust_5="13000.00000" pt_clust_6="13000.00000" pt_clust_7="13000.00000" pt_clust_8="13000.00000" pt_clust_9="28.54135"></scales>
<clustering>
<clus scale="   28.541">  2  9  1 -1</clus>
<clus scale="   84.315">  5  6 -1 -1</clus>
<clus scale="   90.223">  7  8 -1 -1</clus>
<clus scale="   95.417">  2  5  1 -1</clus>
<clus scale="   28.541">  2  5  1 -1</clus>
</clustering>
</event>
<event>
 9    2  0.1325014E-004  0.8875863E+02  0.7546771E-02  0.1312847E+00
         -1   -1    0    0    0  501 -0.00000000000E+00  0.00000000000E+00  0.19541668652E+03  0.19541668652E+03  0.00000000000E+00 0.  1.
         21   -1    0    0  501  502  0.00000000000E+00 -0.00000000000E+00 -0.12054883869E+03  0.12054883869E+03  0.00000000000E+00 0.  1.
         23    2    1    2    0    0 -0.16448778564E+02  0.73495697882E+01  0.11531306707E+03  0.14520773561E+03  0.86392155613E+02 0.  0.
         24    2    1    2    0    0 -0.67318105339E+01 -0.41163860724E+02  0.28231873690E+02  0.90774734668E+02  0.75519752775E+02 0.  0.
        -11    1    4    4    0    0  0.27668821478E+02 -0.38215930036E+02  0.30488335330E+02  0.56174367657E+02  0.00000000000E+00 0.  1.
         12    1    4    4    0    0 -0.34400632012E+02 -0.29479306880E+01 -0.22564616398E+01  0.34600367011E+02  0.00000000000E+00 0. -1.
        -11    1    3    3    0    0  0.34186849100E+02  0.72060223965E+01  0.65175022244E+02  0.73948975210E+02  0.00000000000E+00 0.  1.
         11    1    3    3    0    0 -0.50635627663E+02  0.14354739167E+00  0.50138044827E+02  0.71258760400E+02  0.00000000000E+00 0. -1.
         -2    1    1    2    0  502  0.23180589097E+02  0.33814290936E+02 -0.68677092934E+02  0.79983054932E+02  0.00000000000E+00 0.  1.
<scales pt_clust_5="13000.00000" pt_clust_6="13000.00000" pt_clust_7="13000.00000" pt_clust_8="13000.00000" pt_clust_9="40.99690"></scales>
<clustering>
<clus scale="   40.997">  2  9  1 -1</clus>
<clus scale="   75.520">  5  6 -1 -1</clus>
<clus scale="   78.216">  2  5  1 -1</clus>
<clus scale="   86.392">  7  8 -1 -1</clus>
<clus scale="   40.997">  2  5  1 -1</clus>
</clustering>
</event>
<event>
 9    2  0.1325014E-004  0.1019632E+03  0.7546771E-02  0.1281274E+00
         -3   -1    0    0    0  501 -0.00000000000E+00  0.00000000000E+00  0.73510544797E+02  0.73510544797E+02  0.00000000000E+00 0.  1.
         21   -1    0    0  501  502  0.00000000000E+00 -0.00000000000E+00 -0.18847150725E+03  0.18847150725E+03  0.00000000000E+00 0. -1.
         24    2    1    2    0    0  0.29654817308E+02  0.98931242078E+00 -0.49721852842E+02  0.99755922314E+02  0.81231733073E+02 0.  0.
         23    2    1    2    0    0 -0.60225192241E+02 -0.19943646228E+02 -0.57198952903E+02  0.12536885482E+03  0.91764953775E+02 0.  0.
        -13    1    3    3    0    0 -0.59170437138E+01 -0.33166670470E+02 -0.67820371152E+01  0.34366196528E+02  0.00000000000E+00 0.  1.
         14    1    3    3    0    0  0.35571861022E+02  0.34155982890E+02 -0.42939815727E+02  0.65389725786E+02  0.00000000000E+00 0. -1.
        -13    1    4    4    0    0 -0.85427267102E+01 -0.45687895383E+02 -0.48151613307E+02  0.66924881982E+02  0.00000000000E+00 0. -1.
         13    1    4    4    0    0 -0.51682465530E+02  0.25744249155E+02 -0.90473395956E+01  0.58443972842E+02  0.00000000000E+00 0.  1.
         -4    1    1    2    0  502  0.30570374933E+02  0.18954333808E+02 -0.80401567052E+01  0.36857274906E+02  0.00000000000E+00 0.  1.
<scales pt_clust_5="13000.00000" pt_clust_6="13000.00000" pt_clust_7="13000.00000" pt_clust_8="13000.00000" pt_clust_9="35.96965"></scales>
<clustering>
<clus scale="   35.970">  2  9  1 -1</clus>
<clus scale="   81.232">  5  6 -1 -1</clus>
<clus scale="   91.765">  7  8 -1 -1</clus>
<clus scale="   92.597">  1  5  2 -1</clus>
<clus scale="   35.970">  2  5  1 -1</clus>
</clustering>
</event>
<event>
 9    2  0.1325014E-004  0.1576649E+03  0.7546771E-02  0.1193036E+00
          2   -1    0    0  502    0 -0.00000000000E+00  0.00000000000E+00  0.47927315523E+03  0.47927315523E+03  0.00000000000E+00 0. -1.
         21   -1    0    0  501  502  0.00000000000E+00 -0.00000000000E+00 -0.89598052894E+02  0.89598052894E+02  0.00000000000E+00 0.  1.
         23    2    1    2    0    0 -0.12455491472E+03 -0.37401286178E+02  0.31027860726E+03  0.34900990363E+03  0.92856425302E+02 0.  0.
         24    2    1    2    0    0  0.12621237558E+03 -0.12583805964E+02  0.41298273723E+02  0.15699055547E+03  0.82780258347E+02 0.  0.
        -13    1    4    4    0    0  0.90845995934E+02 -0.28442802405E+02 -0.65427294505E+01  0.95419051004E+02  0.00000000000E+00 0.  1.
         14    1    4    4    0    0  0.35366379645E+02  0.15858996442E+02  0.47841003173E+02  0.61571504464E+02  0.00000000000E+00 0. -1.
        -13    1    3    3    0    0  0.58052571910E+01 -0.22837089472E+02  0.86192637650E+02  0.89355494804E+02  0.00000000000E+00 0.  1.
         13    1    3    3    0    0 -0.13036017191E+03 -0.14564196705E+02  0.22408596961E+03  0.25965440882E+03  0.00000000000E+00 0. -1.
          1    1    1    2  501    0 -0.16574608552E+01  0.49985092141E+02  0.38098221359E+02  0.62870749030E+02  0.00000000000E+00 0. -1.
<scales pt_clust_5="13000.00000" pt_clust_6="13000.00000" pt_clust_7="13000.00000" pt_clust_8="13000.00000" pt_clust_9="50.01256"></scales>
<clustering>
<clus scale="   50.013">  2  9  1 -1</clus>
<clus scale="   82.780">  5  6 -1 -1</clus>
<clus scale="   92.856">  7  8 -1 -1</clus>
<clus scale="  151.949">  2  5  1 -1</clus>
<clus scale="   50.013">  2  5  1 -1</clus>
</clustering>
</event>
<event>
 9    2  0.1325014E-004  0.1016895E+03  0.7546771E-02  0.1280936E+00
         21   -1    0    0  501  502  0.00000000000E+00  0.00000000000E+00  0.63869395921E+03  0.63869395921E+03  0.00000000000E+00 0.  1.
          2   -1    0    0  502    0 -0.00000000000E+00 -0.00000000000E+00 -0.39025406929E+02  0.39025406929E+02  0.00000000000E+00 0. -1.
         24    2    1    2    0    0  0.30377966238E+02 -0.61102520900E+01  0.14540372566E+03  0.16918784639E+03  0.80759692418E+02 0.  0.
         23    2    1    2    0    0 -0.94499096204E+02 -0.24103291709E+01  0.40987190077E+03  0.43007865824E+03  0.89648136382E+02 0.  0.
        -13    1    3    3    0    0  0.54213642186E+02  0.51521729408E+01  0.66251311663E+02  0.85760714678E+02  0.00000000000E+00 0.  1.
         14    1    3    3    0    0 -0.23835675947E+02 -0.11262425031E+02  0.79152413992E+02  0.83427131715E+02  0.00000000000E+00 0. -1.
        -13    1    4    4    0    0 -0.83041680620E+02  0.35414858202E+02  0.30144746655E+03  0.31467555989E+03  0.00000000000E+00 0.  1.
         13    1    4    4    0    0 -0.11457415584E+02 -0.37825187373E+02  0.10842443422E+03  0.11540309835E+03  0.00000000000E+00 0. -1.
          1    1    1    2  501    0  0.64121129966E+02  0.85205812609E+01  0.44392925853E+02  0.78452861509E+02  0.00000000000E+00 0. -1.
<scales pt_clust_5="13000.00000" pt_clust_6="13000.00000" pt_clust_7="13000.00000" pt_clust_8="13000.00000" pt_clust_9="64.68480"></scales>
<clustering>
<clus scale="   64.685">  1  9  2 -1</clus>
<clus scale="   80.760">  5  6 -1 -1</clus>
<clus scale="   89.648">  7  8 -1 -1</clus>
<clus scale="   93.947">  2  5  1 -1</clus>
<clus scale="   64.685">  1  5  2 -1</clus>
</clustering>
</event>
<event>
 9    2  0.1325014E-004  0.9299599E+02  0.7546771E-02  0.1301038E+00
         21   -1    0    0  501  502  0.00000000000E+00  0.00000000000E+00  0.21799960107E+03  0.21799960107E+03  0.00000000000E+00 0. -1.
          4   -1    0    0  502    0 -0.00000000000E+00 -0.00000000000E+00 -0.13303304539E+03  0.13303304539E+03  0.00000000000E+00 0. -1.
         23    2    1    2    0    0  0.68460445415E+01  0.18077818572E+02 -0.75965166322E+02  0.11963364603E+03  0.90376030657E+02 0.  0.
         24    2    1    2    0    0 -0.30345440755E+02 -0.15548330958E+02  0.22708283129E+02  0.91169406600E+02  0.81446904219E+02 0.  0.
        -13    1    4    4    0    0  0.68129453012E+01 -0.19927256268E+02  0.43525462758E+02  0.48352638752E+02  0.00000000000E+00 0.  1.
         14    1    4    4    0    0 -0.37158386056E+02  0.43789253103E+01 -0.20817179629E+02  0.42816767847E+02  0.00000000000E+00 0. -1.
        -11    1    3    3    0    0 -0.31240373043E+02  0.31928009028E+02 -0.62713095466E+02  0.76995396040E+02  0.00000000000E+00 0. -1.
         11    1    3    3    0    0  0.38086417585E+02 -0.13850190455E+02 -0.13252070856E+02  0.42638249988E+02  0.00000000000E+00 0.  1.
          3    1    1    2  501    0  0.23499396214E+02 -0.25294876149E+01  0.13822343887E+03  0.14022959382E+03  0.00000000000E+00 0. -1.
<scales pt_clust_5="13000.00000" pt_clust_6="13000.00000" pt_clust_7="13000.00000" pt_clust_8="13000.00000" pt_clust_9="23.63514"></scales>
<clustering>
<clus scale="   23.635">  1  9  2 -1</clus>
<clus scale="   81.447">  5  6 -1 -1</clus>
<clus scale="   84.345">  1  5  2 -1</clus>
<clus scale="   90.376">  7  8 -1 -1</clus>
<clus scale="   23.635">  1  5  2 -1</clus>
</clustering>
</event>
<event>
 9    2  0.1325014E-004  0.3005705E+03  0.7546771E-02  0.1111850E+00
         21   -1    0    0  501  502  0.00000000000E+00  0.00000000000E+00  0.59558421143E+03  0.59558421143E+03  0.00000000000E+00 0.  1.
         -1   -1    0    0    0  501 -0.00000000000E+00 -0.00000000000E+00 -0.27533181944E+03  0.27533181944E+03  0.00000000000E+00 0.  1.
         23    2    1    2    0    0  0.15871888910E+02  0.11947872512E+03 -0.45989304244E+02  0.15618386438E+03  0.88041471898E+02 0.  0.
         24    2    1    2    0    0  0.20086317816E+03  0.12313989234E+03  0.39837900427E+02  0.25388802717E+03  0.85805725930E+02 0.  0.
        -11    1    4    4    0    0  0.41313975244E+02  0.28415750920E+02  0.46267158924E+02  0.68227189930E+02  0.00000000000E+00 0.  1.
         12    1    4    4    0    0  0.15954920292E+03  0.94724141419E+02 -0.64292584973E+01  0.18566083724E+03  0.00000000000E+00 0. -1.
        -13    1    3    3    0    0  0.43649669227E+02  0.99660864403E+02 -0.53502408049E+02  0.12124392432E+03  0.00000000000E+00 0.  1.
         13    1    3    3    0    0 -0.27777780316E+02  0.19817860718E+02  0.75131038052E+01  0.34939940062E+02  0.00000000000E+00 0. -1.
         -2    1    1    2    0  502 -0.21673506707E+03 -0.24261861746E+03  0.32640379580E+03  0.46084413933E+03  0.00000000000E+00 0.  1.
<scales pt_clust_5="13000.00000" pt_clust_6="13000.00000" pt_clust_7="13000.00000" pt_clust_8="13000.00000" pt_clust_9="288.06246"></scales>
<clustering>
<clus scale="   85.806">  5  6 -1 -1</clus>
<clus scale="   88.041">  7  8 -1 -1</clus>
<clus scale="  149.259">  2  7  1 -1</clus>
<clus scale="  288.062">  1  9  2 -1</clus>
<clus scale="  288.062">  1  5  2 -1</clus>
</clustering>
</event>
<event>
 9    2  0.1325014E-004  0.1305403E+03  0.7546771E-02  0.1240174E+00
          2   -1    0    0  502    0 -0.00000000000E+00  0.00000000000E+00  0.70756286505E+03  0.70756286505E+03  0.00000000000E+00 0. -1.
         21   -1    0    0  501  502  0.00000000000E+00 -0.00000000000E+00 -0.78879428282E+02  0.78879428282E+02  0.00000000000E+00 0. -1.
         23    2    1    2    0    0 -0.29571214138E+02  0.23382663494E+02  0.15863406331E+03  0.18693914031E+03  0.91434514710E+02 0.  0.
         24    2    1    2    0    0  0.10257819800E+02 -0.12281516380E+03  0.47582266501E+03  0.49804794018E+03  0.80347712171E+02 0.  0.
        -13    1    4    4    0    0 -0.33370465571E+02 -0.31690456599E+02  0.14186731501E+03  0.14914492308E+03  0.00000000000E+00 0.  1.
         14    1    4    4    0    0  0.43628285372E+02 -0.91124707205E+02  0.33395534999E+03  0.34890301709E+03  0.00000000000E+00 0. -1.
        -11    1    3    3    0    0 -0.40858374910E+02 -0.54142966337E+01  0.14892201010E+03  0.15452018153E+03  0.00000000000E+00 0. -1.
         11    1    3    3    0    0  0.11287160773E+02  0.28796960128E+02  0.97120532136E+01  0.32418958783E+02  0.00000000000E+00 0.  1.
          1    1    1    2  501    0  0.19313394337E+02  0.99432500310E+02 -0.57732915473E+01  0.10145521285E+03  0.00000000000E+00 0. -1.
<scales pt_clust_5="13000.00000" pt_clust_6="13000.00000" pt_clust_7="13000.00000" pt_clust_8="13000.00000" pt_clust_9="102.88346"></scales>
<clustering>
<clus scale="   80.348">  5  6 -1 -1</clus>
<clus scale="   91.435">  7  8 -1 -1</clus>
<clus scale="   98.901">  1  7  2 -1</clus>
<clus scale="  102.883">  2  9  1 -1</clus>
<clus scale="  102.883">  2  5  1 -1</clus>
</clustering>
</event>
<event>
 9    2  0.1325014E-004  0.1301928E+03  0.7546771E-02  0.1230082E+00
         21   -1    0    0  501  502  0.00000000000E+00  0.00000000000E+00  0.10917352453E+03  0.10917352453E+03  0.00000000000E+00 0. -1.
          2   -1    0    0  502    0 -0.00000000000E+00 -0.00000000000E+00 -0.84857996874E+03  0.84857996874E+03  0.00000000000E+00 0. -1.
         23    2    1    2    0    0  0.98079440186E+02  0.11777059284E+02 -0.62236834149E+03  0.63681739345E+03  0.91846417457E+02 0.  0.
         24    2    1    2    0    0 -0.77122530656E+02 -0.18973951666E+02 -0.20285082951E+03  0.23230872597E+03  0.80690703015E+02 0.  0.
        -11    1    4    4    0    0 -0.31436345628E+02  0.20860541132E+02 -0.27247259876E+02  0.46538362385E+02  0.00000000000E+00 0.  1.
         12    1    4    4    0    0 -0.45686185028E+02 -0.39834492798E+02 -0.17560356964E+03  0.18577036359E+03  0.00000000000E+00 0. -1.
        -13    1    3    3    0    0  0.79363047961E+02  0.43235735139E+02 -0.52645785463E+03  0.53415886670E+03  0.00000000000E+00 0. -1.
         13    1    3    3    0    0  0.18716392225E+02 -0.31458675856E+02 -0.95910486860E+02  0.10265852675E+03  0.00000000000E+00 0.  1.
          1    1    1    2  501    0 -0.20956909531E+02  0.71968923822E+01  0.85812726787E+02  0.88627373851E+02  0.00000000000E+00 0. -1.
<scales pt_clust_5="13000.00000" pt_clust_6="13000.00000" pt_clust_7="13000.00000" pt_clust_8="13000.00000" pt_clust_9="22.15823"></scales>
<clustering>
<clus scale="   22.158">  1  9  2 -1</clus>
<clus scale="   80.691">  5  6 -1 -1</clus>
<clus scale="   91.846">  7  8 -1 -1</clus>
<clus scale="  122.578">  1  5  2 -1</clus>
<clus scale="   22.158">  1  5  2 -1</clus>
</clustering>
</event>
<event>
 9    2  0.1325014E-004  0.2120156E+03  0.7546771E-02  0.1141251E+00
         -1   -1    0    0    0  501 -0.00000000000E+00  0.00000000000E+00  0.10753822774E+04  0.10753822774E+04  0.00000000000E+00 0.  1.
         21   -1    0    0  501  502  0.00000000000E+00 -0.00000000000E+00 -0.13794871987E+03  0.13794871987E+03  0.00000000000E+00 0.  1.
         23    2    1    2    0    0  0.15587649791E+03 -0.85763388850E+02  0.76602599201E+03  0.79213142531E+03  0.94992278960E+02 0.  0.
         24    2    1    2    0    0 -0.25264978595E+03  0.72207887420E+02  0.17099969719E+03  0.32348065237E+03  0.79705349079E+02 0.  0.
        -11    1    4    4    0    0 -0.22079066856E+03  0.82343030146E+02  0.12538936902E+03  0.26692955588E+03  0.00000000000E+00 0.  1.
         12    1    4    4    0    0 -0.31859117388E+02 -0.10135142727E+02  0.45610328163E+02  0.56551096488E+02  0.00000000000E+00 0. -1.
        -11    1    3    3    0    0  0.94639742864E+02 -0.10111359564E+03  0.51725894479E+03  0.53547871677E+03  0.00000000000E+00 0. -1.
         11    1    3    3    0    0  0.61236755044E+02  0.15350206787E+02  0.24876704722E+03  0.25665270853E+03  0.00000000000E+00 0.  1.
         -2    1    1    2    0  502  0.96773288041E+02  0.13555501430E+02  0.40786837194E+00  0.97718919631E+02  0.00000000000E+00 0.  1.
<scales pt_clust_5="13000.00000" pt_clust_6="13000.00000" pt_clust_7="13000.00000" pt_clust_8="13000.00000" pt_clust_9="97.71807"></scales>
<clustering>
<clus scale="   79.705">  5  6 -1 -1</clus>
<clus scale="   94.992">  7  8 -1 -1</clus>
<clus scale="   97.718">  2  9  1 -1</clus>
<clus scale="  205.621">  2  5  1 -1</clus>
<clus scale="   97.718">  2  5  1 -1</clus>
</clustering>
</event>
<event>
 9    2  0.1633188E-004  0.9514468E+02  0.7546771E-02  0.1300906E+00
         21   -1    0    0  501  502  0.00000000000E+00  0.00000000000E+00  0.38286440668E+03  0.38286440668E+03  0.00000000000E+00 0.  1.
         -1   -1    0    0    0  501 -0.00000000000E+00 -0.00000000000E+00 -0.83106277339E+02  0.83106277339E+02  0.00000000000E+00 0.  1.
         23    2    1    2    0    0 -0.17605182777E+02 -0.17959421347E+02 -0.45672544043E+02  0.10608950809E+03  0.92393285314E+02 0.  0.
         24    2    1    2    0    0  0.22491984420E+00  0.59279464486E+01  0.22060167997E+03  0.23327506421E+03  0.75610602695E+02 0.  0.
        -11    1    4    4    0    0 -0.30173256428E+02  0.10218764773E+02  0.45748963824E+02  0.55747791418E+02  0.00000000000E+00 0.  1.
         12    1    4    4    0    0  0.30398176272E+02 -0.42908183247E+01  0.17485271614E+03  0.17752727279E+03  0.00000000000E+00 0. -1.
        -11    1    3    3    0    0 -0.78284450572E+00  0.34024167602E+02 -0.37839910928E+02  0.50893179165E+02  0.00000000000E+00 0. -1.
         11    1    3    3    0    0 -0.16822338272E+02 -0.51983588949E+02 -0.78326331147E+01  0.55196328922E+02  0.00000000000E+00 0.  1.
         -2    1    1    2    0  502  0.17380262933E+02  0.12031474898E+02  0.12482899341E+03  0.12660611172E+03  0.00000000000E+00 0.  1.
<scales pt_clust_5="13000.00000" pt_clust_6="13000.00000" pt_clust_7="13000.00000" pt_clust_8="13000.00000" pt_clust_9="21.13835"></scales>
<clustering>
<clus scale="   21.138">  1  9  2 -1</clus>
<clus scale="   75.611">  5  6 -1 -1</clus>
<clus scale="   78.949">  1  5  2 -1</clus>
<clus scale="   92.393">  7  8 -1 -1</clus>
<clus scale="   21.138">  1  5  2 -1</clus>
</clustering>
</event>
<event>
 9    2  0.1325014E-004  0.4877119E+03  0.7546771E-02  0.1017037E+00
         21   -1    0    0  501  502  0.00000000000E+00  0.00000000000E+00  0.10656266797E+04  0.10656266797E+04  0.00000000000E+00 0. -1.
          2   -1    0    0  502    0 -0.00000000000E+00 -0.00000000000E+00 -0.22331840737E+03  0.22331840737E+03  0.00000000000E+00 0. -1.
         24    2    1    2    0    0 -0.24946566444E+02  0.33653180885E+03  0.19159544840E+03  0.39604734020E+03  0.79175060980E+02 0.  0.
         23    2    1    2    0    0 -0.48373182214E+02  0.96160562816E+02  0.48006633267E+02  0.14734209753E+03  0.88420802229E+02 0.  0.
        -11    1    3    3    0    0 -0.20282640371E+02  0.70521325706E+02  0.10303457106E+02  0.74099960243E+02  0.00000000000E+00 0.  1.
         12    1    3    3    0    0 -0.46639260734E+01  0.26601048314E+03  0.18129199130E+03  0.32194737995E+03  0.00000000000E+00 0. -1.
        -11    1    4    4    0    0 -0.32175735433E+02  0.57764962847E+02 -0.18676484076E+02  0.68708659868E+02  0.00000000000E+00 0.  1.
         11    1    4    4    0    0 -0.16197446781E+02  0.38395599969E+02  0.66683117343E+02  0.78633437657E+02  0.00000000000E+00 0. -1.
          1    1    1    2  501    0  0.73319748658E+02 -0.43269237167E+03  0.60270619069E+03  0.74555564939E+03  0.00000000000E+00 0. -1.
<scales pt_clust_5="13000.00000" pt_clust_6="13000.00000" pt_clust_7="13000.00000" pt_clust_8="13000.00000" pt_clust_9="438.86043"></scales>
<clustering>
<clus scale="   79.175">  5  6 -1 -1</clus>
<clus scale="   88.421">  7  8 -1 -1</clus>
<clus scale="  103.166">  5  7 -1 -1</clus>
<clus scale="  438.860">  1  9  2 -1</clus>
<clus scale="  438.860">  1  5  2 -1</clus>
</clustering>
</event>
<event>
 9    2  0.1325014E-004  0.1245687E+03  0.7546771E-02  0.1238108E+00
          4   -1    0    0  502    0 -0.00000000000E+00  0.00000000000E+00  0.11413451089E+03  0.11413451089E+03  0.00000000000E+00 0. -1.
         21   -1    0    0  501  502  0.00000000000E+00 -0.00000000000E+00 -0.41996535229E+03  0.41996535229E+03  0.00000000000E+00 0. -1.
         23    2    1    2    0    0  0.51211889420E+02  0.73362308758E+02  0.60273801690E+02  0.14210611113E+03  0.92501511803E+02 0.  0.
         24    2    1    2    0    0 -0.29681882891E+02 -0.37948849790E+02 -0.22949393294E+03  0.24923472297E+03  0.84435493156E+02 0.  0.
        -11    1    4    4    0    0 -0.30654162148E+02 -0.57690732727E+02 -0.10859820903E+03  0.12673385224E+03  0.00000000000E+00 0.  1.
         12    1    4    4    0    0  0.97227925734E+00  0.19741882937E+02 -0.12089572392E+03  0.12250087073E+03  0.00000000000E+00 0. -1.
        -11    1    3    3    0    0 -0.22558543910E+02  0.64972329442E+01 -0.36931587033E+01  0.23764287502E+02  0.00000000000E+00 0.  1.
         11    1    3    3    0    0  0.73770433330E+02  0.66865075814E+02  0.63966960393E+02  0.11834182363E+03  0.00000000000E+00 0. -1.
          3    1    1    2  501    0 -0.21530006529E+02 -0.35413458968E+02 -0.13661071015E+03  0.14275902908E+03  0.00000000000E+00 0. -1.
<scales pt_clust_5="13000.00000" pt_clust_6="13000.00000" pt_clust_7="13000.00000" pt_clust_8="13000.00000" pt_clust_9="41.44459"></scales>
<clustering>
<clus scale="   41.445">  2  9  1 -1</clus>
<clus scale="   84.435">  5  6 -1 -1</clus>
<clus scale="   92.502">  7  8 -1 -1</clus>
<clus scale="  118.702">  2  5  1 -1</clus>
<clus scale="   41.445">  2  5  1 -1</clus>
</clustering>
</event>
<event>
 9    2  0.1325014E-004  0.1069041E+03  0.7546771E-02  0.1268856E+00
          2   -1    0    0  502    0 -0.00000000000E+00  0.00000000000E+00  0.46168216645E+03  0.46168216645E+03  0.00000000000E+00 0. -1.
         21   -1    0    0  501  502  0.00000000000E+00 -0.00000000000E+00 -0.77188139043E+02  0.77188139043E+02  0.00000000000E+00 0. -1.
         24    2    1    2    0    0  0.11186201103E+02 -0.57677185504E+02  0.31741669293E+03  0.33293304270E+03  0.81481685983E+02 0.  0.
         23    2    1    2    0    0 -0.78625001662E+01  0.83202673481E+02 -0.13055234318E+02  0.12177179418E+03  0.87598098904E+02 0.  0.
        -13    1    3    3    0    0  0.36219515055E+02 -0.41092884827E+02  0.10524057378E+03  0.11864255907E+03  0.00000000000E+00 0.  1.
         14    1    3    3    0    0 -0.25033313952E+02 -0.16584300677E+02  0.21217611915E+03  0.21429048363E+03  0.00000000000E+00 0. -1.
        -11    1    4    4    0    0 -0.22058289774E+02 -0.11763541919E+02 -0.12887023051E+01  0.25032175691E+02  0.00000000000E+00 0.  1.
         11    1    4    4    0    0  0.14195789607E+02  0.94966215399E+02 -0.11766532013E+02  0.96739618489E+02  0.00000000000E+00 0. -1.
          1    1    1    2  501    0 -0.33237009372E+01 -0.25525487977E+02  0.80132568802E+02  0.84165468615E+02  0.00000000000E+00 0. -1.
<scales pt_clust_5="13000.00000" pt_clust_6="13000.00000" pt_clust_7="13000.00000" pt_clust_8="13000.00000" pt_clust_9="25.74098"></scales>
<clustering>
<clus scale="   25.741">  2  9  1 -1</clus>
<clus scale="   81.482">  5  6 -1 -1</clus>
<clus scale="   87.598">  7  8 -1 -1</clus>
<clus scale="  101.953">  1  5  2 -1</clus>
<clus scale="   25.741">  2  5  1 -1</clus>
</clustering>
</event>
<event>
 9    2  0.1325014E-004  0.1656714E+03  0.7546771E-02  0.1207632E+00
          2   -1    0    0  502    0 -0.00000000000E+00  0.00000000000E+00  0.43293328089E+03  0.43293328089E+03  0.00000000000E+00 0. -1.
         21   -1    0    0  501  502  0.00000000000E+00 -0.00000000000E+00 -0.10393809806E+03  0.10393809806E+03  0.00000000000E+00 0.  1.
         24    2    1    2    0    0  0.18538890154E+02  0.59479497553E+02  0.13863666080E+03  0.16829076185E+03  0.72250645178E+02 0.  0.
         23    2    1    2    0    0  0.53782658447E+02  0.96305416510E+02  0.83096348590E+02  0.16608488950E+03  0.92259849195E+02 0.  0.
        -11    1    3    3    0    0 -0.26494951000E+02  0.99235361023E+01  0.45559371513E+02  0.53629425971E+02  0.00000000000E+00 0.  1.
         12    1    3    3    0    0  0.45033841154E+02  0.49555961450E+02  0.93077289283E+02  0.11466133588E+03  0.00000000000E+00 0. -1.
        -11    1    4    4    0    0  0.66061093684E+02  0.63081697377E+02  0.19665942566E+02  0.93435100148E+02  0.00000000000E+00 0.  1.
         11    1    4    4    0    0 -0.12278435238E+02  0.33223719133E+02  0.63430406024E+02  0.72649789355E+02  0.00000000000E+00 0. -1.
          1    1    1    2  501    0 -0.72321548600E+02 -0.15578491406E+03  0.10726217345E+03  0.20249572759E+03  0.00000000000E+00 0. -1.
<scales pt_clust_5="13000.00000" pt_clust_6="13000.00000" pt_clust_7="13000.00000" pt_clust_8="13000.00000" pt_clust_9="137.60510"></scales>
<clustering>
<clus scale="   72.251">  5  6 -1 -1</clus>
<clus scale="   92.260">  7  8 -1 -1</clus>
<clus scale="   95.403">  1  5  2 -1</clus>
<clus scale="  137.605">  2  9  1 -1</clus>
<clus scale="  137.605">  2  5  1 -1</clus>
</clustering>
</event>
<event>
 9    2  0.1325014E-004  0.9798537E+02  0.7546771E-02  0.1292200E+00
          2   -1    0    0  502    0 -0.00000000000E+00  0.00000000000E+00  0.31812288232E+03  0.31812288232E+03  0.00000000000E+00 0. -1.
         21   -1    0    0  501  502  0.00000000000E+00 -0.00000000000E+00 -0.54378812344E+02  0.54378812344E+02  0.00000000000E+00 0.  1.
         24    2    1    2    0    0 -0.24740416714E+02 -0.10790884114E+02  0.14388643361E+03  0.16514427501E+03  0.76425090061E+02 0.  0.
         23    2    1    2    0    0  0.43798026525E+02  0.58607009803E+02  0.71435462270E+02  0.13668719034E+03  0.90704542376E+02 0.  0.
        -11    1    3    3    0    0  0.26699992562E+02 -0.80422676175E+01  0.35528225486E+02  0.45164393912E+02  0.00000000000E+00 0.  1.
         12    1    3    3    0    0 -0.51440409276E+02 -0.27486164967E+01  0.10835820813E+03  0.11997988110E+03  0.00000000000E+00 0. -1.
        -13    1    4    4    0    0 -0.18585152103E+02  0.49422825940E+02  0.39923271126E+02  0.66195854704E+02  0.00000000000E+00 0.  1.
         13    1    4    4    0    0  0.62383178628E+02  0.91841838631E+01  0.31512191145E+02  0.70491335636E+02  0.00000000000E+00 0. -1.
          1    1    1    2  501    0 -0.19057609812E+02 -0.47816125689E+02  0.48422174087E+02  0.70670229312E+02  0.00000000000E+00 0. -1.
<scales pt_clust_5="13000.00000" pt_clust_6="13000.00000" pt_clust_7="13000.00000" pt_clust_8="13000.00000" pt_clust_9="51.47402"></scales>
<clustering>
<clus scale="   51.474">  2  9  1 -1</clus>
<clus scale="   76.425">  5  6 -1 -1</clus>
<clus scale="   84.939">  1  5  2 -1</clus>
<clus scale="   90.705">  7  8 -1 -1</clus>
<clus scale="   51.474">  2  5  1 -1</clus>
</clustering>
</event>
<event>
 9    2  0.1325014E-004  0.2033058E+03  0.7546771E-02  0.1147926E+00
          2   -1    0    0  502    0 -0.00000000000E+00  0.00000000000E+00  0.23675036268E+03  0.23675036268E+03  0.00000000000E+00 0. -1.
         21   -1    0    0  501  502  0.00000000000E+00 -0.00000000000E+00 -0.26734542689E+03  0.26734542689E+03  0.00000000000E+00 0. -1.
         24    2    1    2    0    0 -0.14501681999E+03  0.10264647840E+03  0.33588482083E+00  0.19502462147E+03  0.80425820183E+02 0.  0.
         23    2    1    2    0    0  0.18952101032E+03 -0.48692717813E+02 -0.72544304412E+02  0.22768749293E+03  0.91047922612E+02 0.  0.
        -11    1    3    3    0    0 -0.76753695145E+02  0.79653094071E+01  0.10420341164E+02  0.77866291695E+02  0.00000000000E+00 0.  1.
         12    1    3    3    0    0 -0.68263124845E+02  0.94681168993E+02 -0.10084456343E+02  0.11715832977E+03  0.00000000000E+00 0. -1.
        -13    1    4    4    0    0  0.87866930059E+02 -0.25690679910E+02 -0.82177404901E+02  0.12301924365E+03  0.00000000000E+00 0.  1.
         13    1    4    4    0    0  0.10165408026E+03 -0.23002037903E+02  0.96331004888E+01  0.10466824928E+03  0.00000000000E+00 0. -1.
          1    1    1    2  501    0 -0.44504190332E+02 -0.53953760586E+02  0.41613355379E+02  0.81383675171E+02  0.00000000000E+00 0. -1.
<scales pt_clust_5="13000.00000" pt_clust_6="13000.00000" pt_clust_7="13000.00000" pt_clust_8="13000.00000" pt_clust_9="69.94023"></scales>
<clustering>
<clus scale="   69.940">  2  9  1 -1</clus>
<clus scale="   80.426">  5  6 -1 -1</clus>
<clus scale="   91.048">  7  8 -1 -1</clus>
<clus scale="  198.776">  1  5  2 -1</clus>
<clus scale="   69.940">  2  5  1 -1</clus>
</clustering>
</event>
<event>
 9    2  0.1325014E-004  0.1306261E+03  0.7546771E-02  0.1242940E+00
         -1   -1    0    0    0  501 -0.00000000000E+00  0.00000000000E+00  0.26103412136E+03  0.26103412136E+03  0.00000000000E+00 0.  1.
         21   -1    0    0  501  502  0.00000000000E+00 -0.00000000000E+00 -0.22579920641E+03  0.22579920641E+03  0.00000000000E+00 0.  1.
         23    2    1    2    0    0  0.84501874551E+01 -0.27808281581E+02 -0.31459373849E+02  0.98487265541E+02  0.88686769466E+02 0.  0.
         24    2    1    2    0    0 -0.27625771084E+02 -0.74862234678E+02  0.19322978233E+03  0.22427239268E+03  0.81196181742E+02 0.  0.
        -13    1    4    4    0    0 -0.30270693104E+02 -0.20263523156E+02  0.15062570770E+03  0.15496783231E+03  0.00000000000E+00 0.  1.
         14    1    4    4    0    0  0.26449220201E+01 -0.54598711522E+02  0.42604074629E+02  0.69304560365E+02  0.00000000000E+00 0. -1.
        -11    1    3    3    0    0 -0.39281781360E+02 -0.21978167532E+02 -0.18656504382E+02  0.48725387127E+02  0.00000000000E+00 0.  1.
         11    1    3    3    0    0  0.47731968815E+02 -0.58301140488E+01 -0.12802869467E+02  0.49761878415E+02  0.00000000000E+00 0. -1.
         -2    1    1    2    0  502  0.19175583629E+02  0.10267051626E+03 -0.12653549353E+03  0.16407366955E+03  0.00000000000E+00 0.  1.
<scales pt_clust_5="13000.00000" pt_clust_6="13000.00000" pt_clust_7="13000.00000" pt_clust_8="13000.00000" pt_clust_9="102.32480"></scales>
<clustering>
<clus scale="   81.196">  5  6 -1 -1</clus>
<clus scale="   88.687">  7  8 -1 -1</clus>
<clus scale="   93.328">  1  7  2 -1</clus>
<clus scale="  102.325">  2  9  1 -1</clus>
<clus scale="  102.325">  2  5  1 -1</clus>
</clustering>
</event>
<event>
 9    2  0.1325014E-004  0.1844780E+03  0.7546771E-02  0.1164959E+00
         21   -1    0    0  501  502  0.00000000000E+00  0.00000000000E+00  0.12109787195E+03  0.12109787195E+03  0.00000000000E+00 0.  1.
          2   -1    0    0  502    0 -0.00000000000E+00 -0.00000000000E+00 -0.76667583482E+03  0.76667583482E+03  0.00000000000E+00 0. -1.
         23    2    1    2    0    0 -0.12391518046E+03 -0.10434307857E+03 -0.62526586805E+03  0.65261035475E+03  0.93276038597E+02 0.  0.
         24    2    1    2    0    0  0.13222583209E+03  0.69951599488E+02 -0.61538617750E+02  0.18083594681E+03  0.80856299953E+02 0.  0.
        -13    1    4    4    0    0  0.78812741198E+02 -0.75555625025E+00 -0.13261033202E+02  0.79924176830E+02  0.00000000000E+00 0.  1.
         14    1    4    4    0    0  0.53413090893E+02  0.70707155738E+02 -0.48277584547E+02  0.10091176998E+03  0.00000000000E+00 0. -1.
        -11    1    3    3    0    0 -0.31338729933E+02 -0.31302569857E+02 -0.56729084150E+02  0.71973299646E+02  0.00000000000E+00 0.  1.
         11    1    3    3    0    0 -0.92576450529E+02 -0.73040508716E+02 -0.56853678390E+03  0.58063705510E+03  0.00000000000E+00 0. -1.
          1    1    1    2  501    0 -0.83106516282E+01  0.34391479085E+02  0.41226522927E+02  0.54327405210E+02  0.00000000000E+00 0. -1.
<scales pt_clust_5="13000.00000" pt_clust_6="13000.00000" pt_clust_7="13000.00000" pt_clust_8="13000.00000" pt_clust_9="35.38136"></scales>
<clustering>
<clus scale="   35.381">  1  9  2 -1</clus>
<clus scale="   80.856">  5  6 -1 -1</clus>
<clus scale="   93.276">  7  8 -1 -1</clus>
<clus scale="  178.520">  1  5  2 -1</clus>
<clus scale="   35.381">  1  5  2 -1</clus>
</clustering>
</event>
<event>
 9    2  0.1325014E-004  0.1125883E+03  0.7546771E-02  0.1262012E+00
          2   -1    0    0  502    0 -0.00000000000E+00  0.00000000000E+00  0.64378226299E+03  0.64378226299E+03  0.00000000000E+00 0. -1.
         21   -1    0    0  501  502  0.00000000000E+00 -0.00000000000E+00 -0.10165899565E+03  0.10165899565E+03  0.00000000000E+00 0.  1.
         23    2    1    2    0    0 -0.55249819088E+02 -0.31800723319E+02  0.56579744470E+03  0.57691699798E+03  0.92965830380E+02 0.  0.
         24    2    1    2    0    0  0.28642045868E+02  0.69917189885E+02  0.13981236690E+02  0.10870144874E+03  0.76887903774E+02 0.  0.
        -11    1    4    4    0    0  0.39649561233E+02  0.49511060536E+02 -0.20928200589E+02  0.66793879969E+02  0.00000000000E+00 0.  1.
         12    1    4    4    0    0 -0.11007515365E+02  0.20406129349E+02  0.34909437279E+02  0.41907568775E+02  0.00000000000E+00 0. -1.
        -11    1    3    3    0    0 -0.72823237492E+02  0.30877155976E+01  0.33510124388E+03  0.34293673113E+03  0.00000000000E+00 0. -1.
         11    1    3    3    0    0  0.17573418404E+02 -0.34888438917E+02  0.23069620081E+03  0.23398026684E+03  0.00000000000E+00 0.  1.
          1    1    1    2  501    0  0.26607773220E+02 -0.38116466566E+02 -0.37655414041E+02  0.59822811919E+02  0.00000000000E+00 0. -1.
<scales pt_clust_5="13000.00000" pt_clust_6="13000.00000" pt_clust_7="13000.00000" pt_clust_8="13000.00000" pt_clust_9="46.48482"></scales>
<clustering>
<clus scale="   46.485">  2  9  1 -1</clus>
<clus scale="   76.888">  5  6 -1 -1</clus>
<clus scale="   92.966">  7  8 -1 -1</clus>
<clus scale="   99.726">  2  5  1 -1</clus>
<clus scale="   46.485">  2  5  1 -1</clus>
</clustering>
</event>
<event>
 9    2  0.1325014E-004  0.1527882E+03  0.7546771E-02  0.1199880E+00
         21   -1    0    0  501  502  0.00000000000E+00  0.00000000000E+00  0.10247738955E+03  0.10247738955E+03  0.00000000000E+00 0.  1.
         -3   -1    0    0    0  501 -0.00000000000E+00 -0.00000000000E+00 -0.39601647557E+03  0.39601647557E+03  0.00000000000E+00 0.  1.
         23    2    1    2    0    0 -0.51550736648E+02 -0.11949793833E+03 -0.25797252205E+03  0.30309971102E+03  0.91555321944E+02 0.  0.
         24    2    1    2    0    0  0.70482081470E+01  0.11111750441E+03 -0.55955088349E+02  0.14573130438E+03  0.75563642968E+02 0.  0.
        -13    1    4    4    0    0 -0.19447754518E+02  0.75097375915E+02 -0.47065183371E+01  0.77717323294E+02  0.00000000000E+00 0.  1.
         14    1    4    4    0    0  0.26495962665E+02  0.36020128494E+02 -0.51248570011E+02  0.68013981081E+02  0.00000000000E+00 0. -1.
        -11    1    3    3    0    0 -0.31808723091E+02 -0.35355948658E+02 -0.18172924915E+03  0.18784929590E+03  0.00000000000E+00 0. -1.
         11    1    3    3    0    0 -0.19742013556E+02 -0.84141989675E+02 -0.76243272893E+02  0.11525041513E+03  0.00000000000E+00 0.  1.
         -4    1    1    2    0  502  0.44502528501E+02  0.83804339238E+01  0.20388524385E+02  0.49662849720E+02  0.00000000000E+00 0.  1.
<scales pt_clust_5="13000.00000" pt_clust_6="13000.00000" pt_clust_7="13000.00000" pt_clust_8="13000.00000" pt_clust_9="45.28473"></scales>
<clustering>
<clus scale="   45.285">  1  9  2 -1</clus>
<clus scale="   75.564">  5  6 -1 -1</clus>
<clus scale="   91.555">  7  8 -1 -1</clus>
<clus scale="  143.777">  1  5  2 -1</clus>
<clus scale="   45.285">  1  5  2 -1</clus>
</clustering>
</event>
<event>
 9    2  0.1325014E-004  0.1296312E+03  0.7546771E-02  0.1243878E+00
         21   -1    0    0  501  502  0.00000000000E+00  0.00000000000E+00  0.38989724560E+02  0.38989724560E+02  0.00000000000E+00 0. -1.
          2   -1    0    0  502    0 -0.00000000000E+00 -0.00000000000E+00 -0.11485632516E+04  0.11485632516E+04  0.00000000000E+00 0. -1.
         24    2    1    2    0    0 -0.46973581496E+02 -0.11446986666E+02 -0.62445299002E+02  0.11260256725E+03  0.80264387633E+02 0.  0.
         23    2    1    2    0    0 -0.60006538161E+02  0.24983779558E+02 -0.37131066922E+03  0.39058401320E+03  0.10227064305E+03 0.  0.
        -11    1    3    3    0    0 -0.25641830945E+02 -0.41562756879E+02 -0.57384036904E+02  0.75351801206E+02  0.00000000000E+00 0.  1.
         12    1    3    3    0    0 -0.21331750551E+02  0.30115770213E+02 -0.50612620983E+01  0.37250766047E+02  0.00000000000E+00 0. -1.
        -13    1    4    4    0    0 -0.20009656773E+02  0.58342839726E+02 -0.26652299723E+03  0.27356677679E+03  0.00000000000E+00 0.  1.
         13    1    4    4    0    0 -0.39996881388E+02 -0.33359060169E+02 -0.10478767199E+03  0.11701723641E+03  0.00000000000E+00 0. -1.
          1    1    1    2  501    0  0.10698011966E+03 -0.13536792891E+02 -0.67581755880E+03  0.68436639569E+03  0.00000000000E+00 0. -1.
<scales pt_clust_5="13000.00000" pt_clust_6="13000.00000" pt_clust_7="13000.00000" pt_clust_8="13000.00000" pt_clust_9="79.65529"></scales>
<clustering>
<clus scale="   80.264">  5  6 -1 -1</clus>
<clus scale="   93.701">  2  5  1 -1</clus>
<clus scale="   79.655">  1  9  2 -1</clus>
<clus scale="  102.271">  7  8 -1 -1</clus>
<clus scale="   79.655">  1  5  2 -1</clus>
</clustering>
</event>
<event>
 9    2  0.1325014E-004  0.1249699E+03  0.7546771E-02  0.1238129E+00
         21   -1    0    0  501  502  0.00000000000E+00  0.00000000000E+00  0.11341025637E+04  0.11341025637E+04  0.00000000000E+00 0. -1.
         -3   -1    0    0    0  501 -0.00000000000E+00 -0.00000000000E+00 -0.30755370910E+02  0.30755370910E+02  0.00000000000E+00 0.  1.
         23    2    1    2    0    0 -0.80744948041E+02  0.59376057955E+01  0.42394864733E+03  0.44110585397E+03  0.91032505409E+02 0.  0.
         24    2    1    2    0    0  0.93450891245E+02  0.10305561827E+02  0.68968819309E+03  0.70070520811E+03  0.80490442323E+02 0.  0.
        -13    1    4    4    0    0  0.42937022313E+02 -0.16877380674E+02  0.12735533131E+03  0.13545410395E+03  0.00000000000E+00 0.  1.
         14    1    4    4    0    0  0.50513868933E+02  0.27182942501E+02  0.56233286178E+03  0.56525110416E+03  0.00000000000E+00 0. -1.
        -11    1    3    3    0    0 -0.27302842228E+02 -0.40926165375E+02  0.13987971232E+03  0.14827923026E+03  0.00000000000E+00 0. -1.
         11    1    3    3    0    0 -0.53442105813E+02  0.46863771170E+02  0.28406893500E+03  0.29282662371E+03  0.00000000000E+00 0.  1.
         -4    1    1    2    0  502 -0.12705943205E+02 -0.16243167623E+02 -0.10289647596E+02  0.23046872560E+02  0.00000000000E+00 0.  1.
<scales pt_clust_5="13000.00000" pt_clust_6="13000.00000" pt_clust_7="13000.00000" pt_clust_8="13000.00000" pt_clust_9="20.62236"></scales>
<clustering>
<clus scale="   20.622">  1  9  2 -1</clus>
<clus scale="   80.490">  5  6 -1 -1</clus>
<clus scale="   91.033">  7  8 -1 -1</clus>
<clus scale="  117.513">  1  5  2 -1</clus>
<clus scale="   20.622">  1  5  2 -1</clus>
</clustering>
</event>
<event>
 9    2  0.1325014E-004  0.9329682E+02  0.7546771E-02  0.1295651E+00
          2   -1    0    0  502    0 -0.00000000000E+00  0.00000000000E+00  0.34185742034E+03  0.34185742034E+03  0.00000000000E+00 0. -1.
         21   -1    0    0  501  502  0.00000000000E+00 -0.00000000000E+00 -0.83287998954E+02  0.83287998954E+02  0.00000000000E+00 0. -1.
         24    2    1    2    0    0  0.52547456553E-02 -0.54807510355E+02  0.20660191519E+03  0.22885014948E+03  0.81756812192E+02 0.  0.
         23    2    1    2    0    0 -0.22417883438E+02  0.22259815615E+02  0.10027014870E+03  0.13388674772E+03  0.82906559480E+02 0.  0.
        -11    1    3    3    0    0  0.18539984662E+02 -0.45677849774E+02  0.47652535290E+02  0.68563555267E+02  0.00000000000E+00 0.  1.
         12    1    3    3    0    0 -0.18534729916E+02 -0.91296605813E+01  0.15894937990E+03  0.16028659421E+03  0.00000000000E+00 0. -1.
        -13    1    4    4    0    0  0.27194666511E+02  0.26050889509E+02  0.32063728374E+02  0.49459896968E+02  0.00000000000E+00 0.  1.
         13    1    4    4    0    0 -0.49612549949E+02 -0.37910738940E+01  0.68206420328E+02  0.84426850750E+02  0.00000000000E+00 0. -1.
          1    1    1    2  501    0  0.22412628693E+02  0.32547694740E+02 -0.48302642500E+02  0.62408522097E+02  0.00000000000E+00 0. -1.
<scales pt_clust_5="13000.00000" pt_clust_6="13000.00000" pt_clust_7="13000.00000" pt_clust_8="13000.00000" pt_clust_9="39.51808"></scales>
<clustering>
<clus scale="   39.518">  2  9  1 -1</clus>
<clus scale="   81.757">  5  6 -1 -1</clus>
<clus scale="   82.907">  7  8 -1 -1</clus>
<clus scale="   92.277">  1  5  2 -1</clus>
<clus scale="   39.518">  2  5  1 -1</clus>
</clustering>
</event>
<event>
 9    2  0.1325014E-004  0.1111317E+03  0.7546771E-02  0.1261327E+00
         21   -1    0    0  501  502  0.00000000000E+00  0.00000000000E+00  0.30373317564E+02  0.30373317564E+02  0.00000000000E+00 0. -1.
          2   -1    0    0  502    0 -0.00000000000E+00 -0.00000000000E+00 -0.54316041502E+03  0.54316041502E+03  0.00000000000E+00 0. -1.
         24    2    1    2    0    0  0.62495988375E+02 -0.82858143923E+01 -0.32470493956E+03  0.34117959266E+03  0.83640979148E+02 0.  0.
         23    2    1    2    0    0 -0.60208853049E+02  0.30964362862E+02 -0.15272261113E+03  0.19028461299E+03  0.91105105438E+02 0.  0.
        -13    1    3    3    0    0  0.10299550990E+02  0.30594066898E+02 -0.55377535183E+02  0.64099524826E+02  0.00000000000E+00 0.  1.
         14    1    3    3    0    0  0.52196437385E+02 -0.38879881291E+02 -0.26932740437E+03  0.27708006784E+03  0.00000000000E+00 0. -1.
        -13    1    4    4    0    0 -0.56177502333E+02 -0.12128751901E+02 -0.41360739405E+02  0.70807691356E+02  0.00000000000E+00 0.  1.
         13    1    4    4    0    0 -0.40313507164E+01  0.43093114763E+02 -0.11136187173E+03  0.11947692164E+03  0.00000000000E+00 0. -1.
          1    1    1    2  501    0 -0.22871353257E+01 -0.22678548470E+02 -0.35359546765E+02  0.42069526930E+02  0.00000000000E+00 0. -1.
<scales pt_clust_5="13000.00000" pt_clust_6="13000.00000" pt_clust_7="13000.00000" pt_clust_8="13000.00000" pt_clust_9="22.79359"></scales>
<clustering>
<clus scale="   22.794">  1  9  2 -1</clus>
<clus scale="   83.641">  5  6 -1 -1</clus>
<clus scale="   91.105">  7  8 -1 -1</clus>
<clus scale="  105.100">  2  5  1 -1</clus>
<clus scale="   22.794">  1  5  2 -1</clus>
</clustering>
</event>
<event>
 9    2  0.1325014E-004  0.1952742E+03  0.7546771E-02  0.1153961E+00
          2   -1    0    0  502    0 -0.00000000000E+00  0.00000000000E+00  0.49305095559E+03  0.49305095559E+03  0.00000000000E+00 0. -1.
         21   -1    0    0  501  502  0.00000000000E+00 -0.00000000000E+00 -0.12826808869E+03  0.12826808869E+03  0.00000000000E+00 0.  1.
         24    2    1    2    0    0  0.11167391373E+03 -0.13496666925E+03  0.25387194952E+03  0.32063903074E+03  0.87586280110E+02 0.  0.
         23    2    1    2    0    0 -0.86366650672E+02  0.14980804435E+03  0.15425056882E+03  0.24834408550E+03  0.89330276613E+02 0.  0.
        -13    1    3    3    0    0  0.78774316060E+02 -0.10145343383E+03  0.10938232946E+03  0.16870887975E+03  0.00000000000E+00 0.  1.
         14    1    3    3    0    0  0.32899597670E+02 -0.33513235411E+02  0.14448962006E+03  0.15193015099E+03  0.00000000000E+00 0. -1.
        -11    1    4    4    0    0 -0.34705557984E+02  0.13371761336E+02  0.71563714507E+02  0.80651379345E+02  0.00000000000E+00 0. -1.
         11    1    4    4    0    0 -0.51661092688E+02  0.13643628301E+03  0.82686854314E+02  0.16769270615E+03  0.00000000000E+00 0.  1.
          1    1    1    2  501    0 -0.25307263058E+02 -0.14841375104E+02 -0.43339651438E+02  0.52335928054E+02  0.00000000000E+00 0. -1.
<scales pt_clust_5="13000.00000" pt_clust_6="13000.00000" pt_clust_7="13000.00000" pt_clust_8="13000.00000" pt_clust_9="29.33810"></scales>
<clustering>
<clus scale="   29.338">  2  9  1 -1</clus>
<clus scale="   87.586">  5  6 -1 -1</clus>
<clus scale="   89.330">  7  8 -1 -1</clus>
<clus scale="  194.483">  1  5  2 -1</clus>
<clus scale="   29.338">  2  5  1 -1</clus>
</clustering>
</event>
<event>
 9    2  0.2872849E-004  0.9758419E+02  0.7546771E-02  0.1290665E+00
          2   -1    0    0  502    0 -0.00000000000E+00  0.00000000000E+00  0.73295327888E+03  0.73295327888E+03  0.00000000000E+00 0. -1.
         21   -1    0    0  501  502  0.00000000000E+00 -0.00000000000E+00 -0.16998787618E+03  0.16998787618E+03  0.00000000000E+00 0. -1.
         24    2    1    2    0    0  0.24581832192E+02  0.35750142747E+01  0.70199418873E+03  0.70757702053E+03  0.85160740794E+02 0.  0.
         23    2    1    2    0    0  0.67532365663E+00 -0.42986693321E+01 -0.59263337995E+02  0.11169230952E+03  0.94573221138E+02 0.  0.
        -13    1    3    3    0    0 -0.25871405086E+02  0.11534894297E+02  0.11795316275E+03  0.12130676812E+03  0.00000000000E+00 0.  1.
         14    1    3    3    0    0  0.50453237278E+02 -0.79598800222E+01  0.58404102598E+03  0.58627025242E+03  0.00000000000E+00 0. -1.
        -13    1    4    4    0    0 -0.23833018630E+02  0.32624097308E+02 -0.53441509036E+02  0.66995069895E+02  0.00000000000E+00 0.  1.
         13    1    4    4    0    0  0.24508342287E+02 -0.36922766640E+02 -0.58218289598E+01  0.44697239629E+02  0.00000000000E+00 0. -1.
          1    1    1    2  501    0 -0.25257155849E+02  0.72365505742E+00 -0.79765448035E+02  0.83671824998E+02  0.00000000000E+00 0. -1.
<scales pt_clust_5="13000.00000" pt_clust_6="13000.00000" pt_clust_7="13000.00000" pt_clust_8="13000.00000" pt_clust_9="25.26752"></scales>
<clustering>
<clus scale="   25.268">  2  9  1 -1</clus>
<clus scale="   85.161">  5  6 -1 -1</clus>
<clus scale="   88.493">  1  5  2 -1</clus>
<clus scale="   94.573">  7  8 -1 -1</clus>
<clus scale="   25.268">  2  5  1 -1</clus>
</clustering>
</event>
<event>
 9    2  0.1325014E-004  0.1439747E+03  0.7546771E-02  0.1224649E+00
         21   -1    0    0  501  502  0.00000000000E+00  0.00000000000E+00  0.94370645718E+02  0.94370645718E+02  0.00000000000E+00 0.  1.
          2   -1    0    0  502    0 -0.00000000000E+00 -0.00000000000E+00 -0.89973024083E+03  0.89973024083E+03  0.00000000000E+00 0. -1.
         23    2    1    2    0    0  0.34700013897E+02  0.23749295636E+02 -0.48088938907E+03  0.49147386824E+03  0.92324637203E+02 0.  0.
         24    2    1    2    0    0  0.84693356255E+02 -0.78807585042E+02  0.10272180921E+02  0.14299017690E+03  0.83409069860E+02 0.  0.
        -11    1    4    4    0    0  0.42019848925E+02 -0.43730515891E+02  0.46938231458E+02  0.76689134147E+02  0.00000000000E+00 0.  1.
         12    1    4    4    0    0  0.42673507331E+02 -0.35077069151E+02 -0.36666050537E+02  0.66301042753E+02  0.00000000000E+00 0. -1.
        -13    1    3    3    0    0  0.40638530618E+02 -0.27934089231E+02 -0.24559563005E+03  0.25049753893E+03  0.00000000000E+00 0.  1.
         13    1    3    3    0    0 -0.59385167212E+01  0.51683384867E+02 -0.23529375902E+03  0.24097632930E+03  0.00000000000E+00 0. -1.
          1    1    1    2  501    0 -0.11939337015E+03  0.55058289407E+02 -0.33474238697E+03  0.35963684141E+03  0.00000000000E+00 0. -1.
<scales pt_clust_5="13000.00000" pt_clust_6="13000.00000" pt_clust_7="13000.00000" pt_clust_8="13000.00000" pt_clust_9="117.35264"></scales>
<clustering>
<clus scale="   83.409">  5  6 -1 -1</clus>
<clus scale="   92.325">  7  8 -1 -1</clus>
<clus scale="  101.449">  2  7  1 -1</clus>
<clus scale="  117.353">  1  9  2 -1</clus>
<clus scale="  117.353">  1  5  2 -1</clus>
</clustering>
</event>
<event>
 9    2  0.1325014E-004  0.1698536E+03  0.7546771E-02  0.1203105E+00
          2   -1    0    0  502    0 -0.00000000000E+00  0.00000000000E+00  0.64389950058E+03  0.64389950058E+03  0.00000000000E+00 0. -1.
         21   -1    0    0  501  502  0.00000000000E+00 -0.00000000000E+00 -0.15663770328E+03  0.15663770328E+03  0.00000000000E+00 0. -1.
         24    2    1    2    0    0  0.18018985670E+02 -0.19871463192E+02  0.40800377894E+03  0.41951188175E+03  0.93827375563E+02 0.  0.
         23    2    1    2    0    0 -0.13620407244E+03  0.53861151496E+02  0.15073035780E+03  0.23878851622E+03  0.11334787922E+03 0.  0.
        -11    1    3    3    0    0  0.51793785316E+02  0.84419729557E+01  0.19100419491E+03  0.19808196682E+03  0.00000000000E+00 0.  1.
         12    1    3    3    0    0 -0.33774799646E+02 -0.28313436148E+02  0.21699958402E+03  0.22142991492E+03  0.00000000000E+00 0. -1.
        -13    1    4    4    0    0  0.14648541581E+02  0.26287201729E+02  0.13433240559E+02  0.32955252952E+02  0.00000000000E+00 0.  1.
         13    1    4    4    0    0 -0.15085261403E+03  0.27573949767E+02  0.13729711724E+03  0.20583326327E+03  0.00000000000E+00 0. -1.
          1    1    1    2  501    0  0.11818508677E+03 -0.33989688304E+02 -0.71472339433E+02  0.14223680589E+03  0.00000000000E+00 0. -1.
<scales pt_clust_5="13000.00000" pt_clust_6="13000.00000" pt_clust_7="13000.00000" pt_clust_8="13000.00000" pt_clust_9="126.50102"></scales>
<clustering>
<clus scale="   93.827">  5  6 -1 -1</clus>
<clus scale="   97.587">  1  5  2 -1</clus>
<clus scale="  113.348">  7  8 -1 -1</clus>
<clus scale="  126.501">  2  9  1 -1</clus>
<clus scale="  126.501">  2  5  1 -1</clus>
</clustering>
</event>
<event>
 9    2  0.1325014E-004  0.9606150E+02  0.7546771E-02  0.1293818E+00
         -3   -1    0    0    0  501 -0.00000000000E+00  0.00000000000E+00  0.15450090840E+03  0.15450090840E+03  0.00000000000E+00 0.  1.
         21   -1    0    0  501  502  0.00000000000E+00 -0.00000000000E+00 -0.15680806152E+03  0.15680806152E+03  0.00000000000E+00 0. -1.
         23    2    1    2    0    0 -0.72888711234E+01  0.29011697685E+02  0.77856716291E+02  0.12292759750E+03  0.90303486701E+02 0.  0.
         24    2    1    2    0    0 -0.20897658909E+02 -0.52573607987E+02 -0.10484747987E+03  0.14412163093E+03  0.81100888175E+02 0.  0.
        -11    1    4    4    0    0  0.15748804905E+02 -0.55808974105E+02 -0.43122896393E+02  0.72265141251E+02  0.00000000000E+00 0.  1.
         12    1    4    4    0    0 -0.36646463814E+02  0.32353661187E+01 -0.61724583473E+02  0.71856489678E+02  0.00000000000E+00 0. -1.
        -13    1    3    3    0    0  0.11131231381E+02  0.52288860210E+02  0.18515270058E+02  0.56576005863E+02  0.00000000000E+00 0.  1.
         13    1    3    3    0    0 -0.18420102504E+02 -0.23277162526E+02  0.59341446233E+02  0.66351591635E+02  0.00000000000E+00 0. -1.
         -4    1    1    2    0  502  0.28186530032E+02  0.23561910302E+02  0.24683610456E+02  0.44259741498E+02  0.00000000000E+00 0.  1.
<scales pt_clust_5="13000.00000" pt_clust_6="13000.00000" pt_clust_7="13000.00000" pt_clust_8="13000.00000" pt_clust_9="36.73752"></scales>
<clustering>
<clus scale="   36.738">  2  9  1 -1</clus>
<clus scale="   81.101">  5  6 -1 -1</clus>
<clus scale="   87.467">  2  5  1 -1</clus>
<clus scale="   90.303">  7  8 -1 -1</clus>
<clus scale="   36.738">  2  5  1 -1</clus>
</clustering>
</event>
<event>
 9    2  0.1325014E-004  0.9767387E+02  0.7546771E-02  0.1288761E+00
         21   -1    0    0  501  502  0.00000000000E+00  0.00000000000E+00  0.23647227684E+02  0.23647227684E+02  0.00000000000E+00 0.  1.
         -3   -1    0    0    0  501 -0.00000000000E+00 -0.00000000000E+00 -0.99966271126E+03  0.99966271126E+03  0.00000000000E+00 0.  1.
         24    2    1    2    0    0  0.38223556032E+02  0.45869434148E+02 -0.32790589762E+03  0.34332247940E+03  0.82358982157E+02 0.  0.
         23    2    1    2    0    0  0.49442266259E+02 -0.30807580803E+02 -0.24476458180E+03  0.26695072001E+03  0.89215142687E+02 0.  0.
        -13    1    3    3    0    0  0.38178134657E+02  0.60076863324E+02 -0.31832475765E+03  0.32618622106E+03  0.00000000000E+00 0.  1.
         14    1    3    3    0    0  0.45421374860E-01 -0.14207429175E+02 -0.95811399653E+01  0.17136258340E+02  0.00000000000E+00 0. -1.
        -13    1    4    4    0    0  0.72787773332E+02 -0.68740212057E+01 -0.16913148704E+03  0.18425735270E+03  0.00000000000E+00 0.  1.
         13    1    4    4    0    0 -0.23345507072E+02 -0.23933559597E+02 -0.75633094756E+02  0.82693367315E+02  0.00000000000E+00 0. -1.
         -4    1    1    2    0  502 -0.87665822291E+02 -0.15061853346E+02 -0.40334500416E+03  0.41303673953E+03  0.00000000000E+00 0.  1.
<scales pt_clust_5="13000.00000" pt_clust_6="13000.00000" pt_clust_7="13000.00000" pt_clust_8="13000.00000" pt_clust_9="88.95034"></scales>
<clustering>
<clus scale="   82.359">  5  6 -1 -1</clus>
<clus scale="   88.950">  1  9  2 -1</clus>
<clus scale="   89.215">  7  8 -1 -1</clus>
<clus scale="   91.454">  2  5  1 -1</clus>
<clus scale="   88.950">  1  5  2 -1</clus>
</clustering>
</event>
<event>
 9    2  0.1325014E-004  0.1118562E+03  0.7546771E-02  0.1262042E+00
         21   -1    0    0  501  502  0.00000000000E+00  0.00000000000E+00  0.55209815849E+02  0.55209815849E+02  0.00000000000E+00 0.  1.
          2   -1    0    0  502    0 -0.00000000000E+00 -0.00000000000E+00 -0.34436938297E+03  0.34436938297E+03  0.00000000000E+00 0. -1.
         24    2    1    2    0    0  0.50741449778E+02  0.51866672448E+02 -0.21060853715E+03  0.23644961198E+03  0.79294493193E+02 0.  0.
         23    2    1    2    0    0 -0.29420578664E+02 -0.36789365684E+02 -0.87585571115E+02  0.13549758260E+03  0.92028988621E+02 0.  0.
        -13    1    3    3    0    0  0.60027885449E+02  0.65698840258E+02 -0.19103012553E+03  0.21074200698E+03  0.00000000000E+00 0.  1.
         14    1    3    3    0    0 -0.92864356714E+01 -0.13832167811E+02 -0.19578411614E+02  0.25707605006E+02  0.00000000000E+00 0. -1.
        -11    1    4    4    0    0  0.32990735360E+02 -0.18175072370E+02 -0.39197726881E+02  0.54361601042E+02  0.00000000000E+00 0. -1.
         11    1    4    4    0    0 -0.62411314024E+02 -0.18614293314E+02 -0.48387844234E+02  0.81135981558E+02  0.00000000000E+00 0.  1.
          1    1    1    2  501    0 -0.21320871114E+02 -0.15077306763E+02  0.90345411450E+01  0.27632004234E+02  0.00000000000E+00 0. -1.
<scales pt_clust_5="13000.00000" pt_clust_6="13000.00000" pt_clust_7="13000.00000" pt_clust_8="13000.00000" pt_clust_9="26.11331"></scales>
<clustering>
<clus scale="   26.113">  1  9  2 -1</clus>
<clus scale="   79.294">  5  6 -1 -1</clus>
<clus scale="   92.029">  7  8 -1 -1</clus>
<clus scale="  101.637">  2  5  1 -1</clus>
<clus scale="   26.113">  1  5  2 -1</clus>
</clustering>
</event>
<event>
 9    2  0.1325014E-004  0.1284729E+03  0.7546771E-02  0.1245295E+00
         21   -1    0    0  501  502  0.00000000000E+00  0.00000000000E+00  0.80297450008E+02  0.80297450008E+02  0.00000000000E+00 0. -1.
          2   -1    0    0  502    0 -0.00000000000E+00 -0.00000000000E+00 -0.50964264999E+03  0.50964264999E+03  0.00000000000E+00 0. -1.
         23    2    1    2    0    0  0.12333807366E+01  0.24371481218E+02 -0.44441449571E+02  0.10356795091E+03  0.90309399792E+02 0.  0.
         24    2    1    2    0    0  0.76934559501E+02 -0.84006112626E+02 -0.35844125701E+03  0.38455476500E+03  0.80164076493E+02 0.  0.
        -13    1    4    4    0    0 -0.61489410990E+01 -0.27566811600E+02 -0.30464328556E+02  0.41542916277E+02  0.00000000000E+00 0.  1.
         14    1    4    4    0    0  0.83083500600E+02 -0.56439301026E+02 -0.32797692845E+03  0.34301184873E+03  0.00000000000E+00 0. -1.
        -11    1    3    3    0    0 -0.23790134629E+02  0.46677735235E+02 -0.46406388602E+02  0.69988101670E+02  0.00000000000E+00 0.  1.
         11    1    3    3    0    0  0.25023515366E+02 -0.22306254017E+02  0.19649390304E+01  0.33579849239E+02  0.00000000000E+00 0. -1.
          1    1    1    2  501    0 -0.78167940238E+02  0.59634631409E+02 -0.26462493404E+02  0.10181738408E+03  0.00000000000E+00 0. -1.
<scales pt_clust_5="13000.00000" pt_clust_6="13000.00000" pt_clust_7="13000.00000" pt_clust_8="13000.00000" pt_clust_9="100.39425"></scales>
<clustering>
<clus scale="   80.164">  5  6 -1 -1</clus>
<clus scale="   90.309">  7  8 -1 -1</clus>
<clus scale="   93.548">  2  7  1 -1</clus>
<clus scale="  100.394">  1  9  2 -1</clus>
<clus scale="  100.394">  1  5  2 -1</clus>
</clustering>
</event>
<event>
 9    2  0.1325014E-004  0.1978626E+03  0.7546771E-02  0.1153502E+00
         21   -1    0    0  501  502  0.00000000000E+00  0.00000000000E+00  0.12518325163E+03  0.12518325163E+03  0.00000000000E+00 0. -1.
          2   -1    0    0  502    0 -0.00000000000E+00 -0.00000000000E+00 -0.96032869202E+03  0.96032869202E+03  0.00000000000E+00 0. -1.
         24    2    1    2    0    0  0.15068737012E+03 -0.26247879334E+02 -0.18522677574E+03  0.25345579208E+03  0.80840864699E+02 0.  0.
         23    2    1    2    0    0 -0.21250492577E+03 -0.12750843132E+03 -0.15224530309E+03  0.30751712723E+03  0.99856936120E+02 0.  0.
        -13    1    3    3    0    0  0.69112396131E+02 -0.36773798198E+02 -0.13786787171E+03  0.15854458547E+03  0.00000000000E+00 0.  1.
         14    1    3    3    0    0  0.81574973986E+02  0.10525918864E+02 -0.47358904030E+02  0.94911206608E+02  0.00000000000E+00 0. -1.
        -11    1    4    4    0    0 -0.17497236978E+03 -0.13756797019E+03 -0.10429812138E+03  0.24580149457E+03  0.00000000000E+00 0. -1.
         11    1    4    4    0    0 -0.37532555991E+02  0.10059538864E+02 -0.47947181702E+02  0.61715632659E+02  0.00000000000E+00 0.  1.
          1    1    1    2  501    0  0.61817555653E+02  0.15375631066E+03 -0.49767336156E+03  0.52453902435E+03  0.00000000000E+00 0. -1.
<scales pt_clust_5="13000.00000" pt_clust_6="13000.00000" pt_clust_7="13000.00000" pt_clust_8="13000.00000" pt_clust_9="165.71796"></scales>
<clustering>
<clus scale="   80.841">  5  6 -1 -1</clus>
<clus scale="   99.857">  7  8 -1 -1</clus>
<clus scale="  165.718">  1  9  2 -1</clus>
<clus scale="  188.980">  2  5  1 -1</clus>
<clus scale="  165.718">  1  5  2 -1</clus>
</clustering>
</event>
<event>
 9    2  0.1325014E-004  0.1367347E+03  0.7546771E-02  0.1221472E+00
          2   -1    0    0  502    0 -0.00000000000E+00  0.00000000000E+00  0.15315341257E+03  0.15315341257E+03  0.00000000000E+00 0. -1.
         21   -1    0    0  501  502  0.00000000000E+00 -0.00000000000E+00 -0.16780003169E+03  0.16780003169E+03  0.00000000000E+00 0. -1.
         24    2    1    2    0    0  0.85161375051E+02 -0.76397642222E+02  0.30550486515E+02  0.14243892357E+03  0.79160944817E+02 0.  0.
         23    2    1    2    0    0 -0.75001647721E+02  0.29969539152E+02 -0.24930821356E+02  0.12684720905E+03  0.94579322008E+02 0.  0.
        -13    1    3    3    0    0  0.18826034162E+02  0.11203264138E+02 -0.11551354357E+02  0.24766236636E+02  0.00000000000E+00 0.  1.
         14    1    3    3    0    0  0.66335340889E+02 -0.87600906360E+02  0.42101840872E+02  0.11767268694E+03  0.00000000000E+00 0. -1.
        -11    1    4    4    0    0 -0.72319033755E+02 -0.15640950332E+02 -0.31999722668E+02  0.80614292910E+02  0.00000000000E+00 0. -1.
         11    1    4    4    0    0 -0.26826139652E+01  0.45610489484E+02  0.70689013122E+01  0.46232916135E+02  0.00000000000E+00 0.  1.
          1    1    1    2  501    0 -0.10159727330E+02  0.46428103070E+02 -0.20266284282E+02  0.51667311645E+02  0.00000000000E+00 0. -1.
<scales pt_clust_5="13000.00000" pt_clust_6="13000.00000" pt_clust_7="13000.00000" pt_clust_8="13000.00000" pt_clust_9="47.52672"></scales>
<clustering>
<clus scale="   47.527">  2  9  1 -1</clus>
<clus scale="   79.161">  5  6 -1 -1</clus>
<clus scale="   94.579">  7  8 -1 -1</clus>
<clus scale="  126.561">  1  5  2 -1</clus>
<clus scale="   47.527">  2  5  1 -1</clus>
</clustering>
</event>
<event>
 9    2  0.1325014E-004  0.1142014E+03  0.7546771E-02  0.1256577E+00
         21   -1    0    0  501  502  0.00000000000E+00  0.00000000000E+00  0.24593417060E+03  0.24593417060E+03  0.00000000000E+00 0. -1.
          2   -1    0    0  502    0 -0.00000000000E+00 -0.00000000000E+00 -0.11543229930E+03  0.11543229930E+03  0.00000000000E+00 0. -1.
         23    2    1    2    0    0  0.68553182704E+01 -0.70510672551E+02 -0.33957631429E+02  0.11847790473E+03  0.88685640580E+02 0.  0.
         24    2    1    2    0    0 -0.34699535732E+02  0.69162563041E+02  0.42869144306E+02  0.11814349269E+03  0.78310940643E+02 0.  0.
        -13    1    4    4    0    0 -0.12465159292E+02  0.54387764474E+02 -0.12045992242E+02  0.57083404328E+02  0.00000000000E+00 0.  1.
         14    1    4    4    0    0 -0.22234376440E+02  0.14774798568E+02  0.54915136548E+02  0.61060088360E+02  0.00000000000E+00 0. -1.
        -11    1    3    3    0    0 -0.12083030783E+02  0.18546179844E+02 -0.10253670631E+02  0.24394634269E+02  0.00000000000E+00 0.  1.
         11    1    3    3    0    0  0.18938349053E+02 -0.89056852395E+02 -0.23703960798E+02  0.94083270462E+02  0.00000000000E+00 0. -1.
          1    1    1    2  501    0  0.27844217462E+02  0.13481095092E+01  0.12159035842E+03  0.12474507247E+03  0.00000000000E+00 0. -1.
<scales pt_clust_5="13000.00000" pt_clust_6="13000.00000" pt_clust_7="13000.00000" pt_clust_8="13000.00000" pt_clust_9="27.87683"></scales>
<clustering>
<clus scale="   27.877">  1  9  2 -1</clus>
<clus scale="   78.311">  5  6 -1 -1</clus>
<clus scale="   88.686">  7  8 -1 -1</clus>
<clus scale="  106.346">  1  5  2 -1</clus>
<clus scale="   27.877">  1  5  2 -1</clus>
</clustering>
</event>
<event>
 9    2  0.1325014E-004  0.1632706E+03  0.7546771E-02  0.1197017E+00
         21   -1    0    0  501  502  0.00000000000E+00  0.00000000000E+00  0.15571334039E+03  0.15571334039E+03  0.00000000000E+00 0.  1.
         -1   -1    0    0    0  501 -0.00000000000E+00 -0.00000000000E+00 -0.39428479692E+03  0.39428479692E+03  0.00000000000E+00 0.  1.
         23    2    1    2    0    0  0.30340192251E+02 -0.81082466502E+02 -0.18908778800E+03  0.22689286710E+03  0.90726445595E+02 0.  0.
         24    2    1    2    0    0 -0.14521967875E+03 -0.13179340577E+02 -0.49926439102E+02  0.17450250868E+03  0.81829249656E+02 0.  0.
        -13    1    4    4    0    0 -0.89364952683E+02 -0.42146895012E+02 -0.85006471079E+01  0.99170139299E+02  0.00000000000E+00 0.  1.
         14    1    4    4    0    0 -0.55854726063E+02  0.28967554435E+02 -0.41425791994E+02  0.75332369377E+02  0.00000000000E+00 0. -1.
        -11    1    3    3    0    0  0.16044326136E+02 -0.53094387723E+02 -0.18738221700E+03  0.19541885696E+03  0.00000000000E+00 0.  1.
         11    1    3    3    0    0  0.14295866115E+02 -0.27988078780E+02 -0.17055710005E+01  0.31474010139E+02  0.00000000000E+00 0. -1.
         -2    1    1    2    0  502  0.11487948650E+03  0.94261807080E+02  0.44277056445E+00  0.14860276154E+03  0.00000000000E+00 0.  1.
<scales pt_clust_5="13000.00000" pt_clust_6="13000.00000" pt_clust_7="13000.00000" pt_clust_8="13000.00000" pt_clust_9="141.28428"></scales>
<clustering>
<clus scale="   81.829">  5  6 -1 -1</clus>
<clus scale="   90.726">  7  8 -1 -1</clus>
<clus scale="  125.404">  2  7  1 -1</clus>
<clus scale="  141.284">  1  9  2 -1</clus>
<clus scale="  141.284">  1  5  2 -1</clus>
</clustering>
</event>
<event>
 9    2  0.1325014E-004  0.2430051E+03  0.7546771E-02  0.1129446E+00
          2   -1    0    0  502    0 -0.00000000000E+00  0.00000000000E+00  0.28997548511E+04  0.28997548511E+04  0.00000000000E+00 0. -1.
         21   -1    0    0  501  502  0.00000000000E+00 -0.00000000000E+00 -0.44751507616E+02  0.44751507616E+02  0.00000000000E+00 0. -1.
         23    2    1    2    0    0 -0.15692162275E+03  0.92046193473E+01  0.73983300341E+03  0.76188648968E+03  0.91700760769E+02 0.  0.
         24    2    1    2    0    0  0.47929637514E+02 -0.22716658399E+03  0.15168025426E+04  0.15365311043E+04  0.79598832637E+02 0.  0.
        -11    1    4    4    0    0  0.30929497893E+02 -0.39486902133E+02  0.19430039999E+03  0.20067011416E+03  0.00000000000E+00 0.  1.
         12    1    4    4    0    0  0.17000139621E+02 -0.18767968186E+03  0.13225021426E+04  0.13358609901E+04  0.00000000000E+00 0. -1.
        -11    1    3    3    0    0 -0.11520092039E+03  0.32172559525E+02  0.64236001529E+03  0.65340088375E+03  0.00000000000E+00 0.  1.
         11    1    3    3    0    0 -0.41720702360E+02 -0.22967940178E+02  0.97472988118E+02  0.10848560593E+03  0.00000000000E+00 0. -1.
          1    1    1    2  501    0  0.10899198524E+03  0.21796196465E+03  0.59836779748E+03  0.64608876476E+03  0.00000000000E+00 0. -1.
<scales pt_clust_5="13000.00000" pt_clust_6="13000.00000" pt_clust_7="13000.00000" pt_clust_8="13000.00000" pt_clust_9="229.59858"></scales>
<clustering>
<clus scale="   79.599">  5  6 -1 -1</clus>
<clus scale="   91.701">  7  8 -1 -1</clus>
<clus scale="  181.984">  1  7  2 -1</clus>
<clus scale="  229.599">  2  9  1 -1</clus>
<clus scale="  229.599">  2  5  1 -1</clus>
</clustering>
</event>
<event>
 9    2  0.1325014E-004  0.1241858E+03  0.7546771E-02  0.1239750E+00
          2   -1    0    0  502    0 -0.00000000000E+00  0.00000000000E+00  0.72073072214E+03  0.72073072214E+03  0.00000000000E+00 0. -1.
         21   -1    0    0  501  502  0.00000000000E+00 -0.00000000000E+00 -0.54184799887E+02  0.54184799887E+02  0.00000000000E+00 0.  1.
         24    2    1    2    0    0 -0.94509867061E+02 -0.72953049778E+00  0.51712546546E+03  0.53176976148E+03  0.80172844660E+02 0.  0.
         23    2    1    2    0    0  0.59756803860E+02  0.25331206974E+01  0.17035072770E+03  0.20253659187E+03  0.91784575575E+02 0.  0.
        -13    1    3    3    0    0 -0.10178020931E+03  0.12634295266E+02  0.37299508170E+03  0.38683868395E+03  0.00000000000E+00 0.  1.
         14    1    3    3    0    0  0.72703422488E+01 -0.13363825764E+02  0.14413038375E+03  0.14493107754E+03  0.00000000000E+00 0. -1.
        -13    1    4    4    0    0  0.54694124170E+00 -0.28456351396E+02  0.12430171877E+02  0.31057563529E+02  0.00000000000E+00 0.  1.
         13    1    4    4    0    0  0.59209862619E+02  0.30989472093E+02  0.15792055582E+03  0.17147902835E+03  0.00000000000E+00 0. -1.
          1    1    1    2  501    0  0.34753063200E+02 -0.18035901996E+01 -0.20930270903E+02  0.40609168663E+02  0.00000000000E+00 0. -1.
<scales pt_clust_5="13000.00000" pt_clust_6="13000.00000" pt_clust_7="13000.00000" pt_clust_8="13000.00000" pt_clust_9="34.79983"></scales>
<clustering>
<clus scale="   34.800">  2  9  1 -1</clus>
<clus scale="   80.173">  5  6 -1 -1</clus>
<clus scale="   91.785">  7  8 -1 -1</clus>
<clus scale="  115.868">  1  5  2 -1</clus>
<clus scale="   34.800">  2  5  1 -1</clus>
</clustering>
</event>
<event>
 9    2  0.1325014E-004  0.9970694E+02  0.7546771E-02  0.1290606E+00
         21   -1    0    0  501  502  0.00000000000E+00  0.00000000000E+00  0.67287286684E+02  0.67287286684E+02  0.00000000000E+00 0.  1.
          2   -1    0    0  502    0 -0.00000000000E+00 -0.00000000000E+00 -0.22473884166E+03  0.22473884166E+03  0.00000000000E+00 0. -1.
         24    2    1    2    0    0 -0.44032638580E+02 -0.13728836998E+02 -0.13574640636E+03  0.16036487054E+03  0.71850195811E+02 0.  0.
         23    2    1    2    0    0  0.24118319120E+02  0.40529933021E+00  0.73114527910E+01  0.94030686021E+02  0.90589486073E+02 0.  0.
        -11    1    3    3    0    0 -0.51864586568E+02 -0.19782342500E+02 -0.13921694913E+03  0.14987539938E+03  0.00000000000E+00 0.  1.
         12    1    3    3    0    0  0.78319479884E+01  0.60535055024E+01  0.34705427667E+01  0.10489471162E+02  0.00000000000E+00 0. -1.
        -13    1    4    4    0    0 -0.31984417097E+01  0.31378318223E+02 -0.26076357417E+02  0.40924385151E+02  0.00000000000E+00 0. -1.
         13    1    4    4    0    0  0.27316760829E+02 -0.30973018893E+02  0.33387810208E+02  0.53106300869E+02  0.00000000000E+00 0.  1.
          1    1    1    2  501    0  0.19914319461E+02  0.13323537667E+02 -0.29016601412E+02  0.37630571787E+02  0.00000000000E+00 0. -1.
<scales pt_clust_5="13000.00000" pt_clust_6="13000.00000" pt_clust_7="13000.00000" pt_clust_8="13000.00000" pt_clust_9="23.96033"></scales>
<clustering>
<clus scale="   23.960">  1  9  2 -1</clus>
<clus scale="   71.850">  5  6 -1 -1</clus>
<clus scale="   83.051">  2  5  1 -1</clus>
<clus scale="   90.589">  7  8 -1 -1</clus>
<clus scale="   23.960">  1  5  2 -1</clus>
</clustering>
</event>
<event>
 9    2  0.1325014E-004  0.1305956E+03  0.7546771E-02  0.1229636E+00
         21   -1    0    0  501  502  0.00000000000E+00  0.00000000000E+00  0.18197163791E+03  0.18197163791E+03  0.00000000000E+00 0. -1.
          2   -1    0    0  502    0 -0.00000000000E+00 -0.00000000000E+00 -0.19306520231E+03  0.19306520231E+03  0.00000000000E+00 0. -1.
         24    2    1    2    0    0 -0.31277782741E+02  0.83398394022E+02 -0.10972383563E+03  0.16244081200E+03  0.80088110731E+02 0.  0.
         23    2    1    2    0    0  0.55427079978E+02 -0.99875913927E+02  0.10778219457E+03  0.18196181661E+03  0.91900717408E+02 0.  0.
        -13    1    3    3    0    0 -0.14391740316E+02  0.96544710823E+02 -0.82448674204E+02  0.12777240412E+03  0.00000000000E+00 0.  1.
         14    1    3    3    0    0 -0.16886042426E+02 -0.13146316801E+02 -0.27275161426E+02  0.34668407882E+02  0.00000000000E+00 0. -1.
        -13    1    4    4    0    0  0.71264794599E+02 -0.36041942124E+02  0.48607223788E+02  0.93489864401E+02  0.00000000000E+00 0.  1.
         13    1    4    4    0    0 -0.15837714622E+02 -0.63833971803E+02  0.59174970786E+02  0.88471952211E+02  0.00000000000E+00 0. -1.
          1    1    1    2  501    0 -0.24149297236E+02  0.16477519905E+02 -0.91519233481E+01  0.30634211597E+02  0.00000000000E+00 0. -1.
<scales pt_clust_5="13000.00000" pt_clust_6="13000.00000" pt_clust_7="13000.00000" pt_clust_8="13000.00000" pt_clust_9="29.23522"></scales>
<clustering>
<clus scale="   29.235">  1  9  2 -1</clus>
<clus scale="   80.088">  5  6 -1 -1</clus>
<clus scale="   91.901">  7  8 -1 -1</clus>
<clus scale="  122.571">  2  5  1 -1</clus>
<clus scale="   29.235">  1  5  2 -1</clus>
</clustering>
</event>
<event>
 9    2  0.1555615E-004  0.1288687E+03  0.7546771E-02  0.1246648E+00
         21   -1    0    0  501  502  0.00000000000E+00  0.00000000000E+00  0.25552933613E+03  0.25552933613E+03  0.00000000000E+00 0.  1.
          4   -1    0    0  502    0 -0.00000000000E+00 -0.00000000000E+00 -0.21738404576E+03  0.21738404576E+03  0.00000000000E+00 0. -1.
         23    2    1    2    0    0 -0.39640780467E+01 -0.41478235893E+02 -0.17678334537E+03  0.21874914038E+03  0.12191258036E+03 0.  0.
         24    2    1    2    0    0 -0.22536888410E+02  0.43439542200E+02  0.10362246366E+03  0.13972992896E+03  0.79949564763E+02 0.  0.
        -11    1    4    4    0    0  0.10441319397E+02  0.57093125928E+02  0.63447371819E+02  0.85989622454E+02  0.00000000000E+00 0.  1.
         12    1    4    4    0    0 -0.32978207807E+02 -0.13653583728E+02  0.40175091840E+02  0.53740306503E+02  0.00000000000E+00 0. -1.
        -11    1    3    3    0    0  0.41715148756E+02 -0.35870285287E+02 -0.25534550735E+02  0.60653477094E+02  0.00000000000E+00 0.  1.
         11    1    3    3    0    0 -0.45679226802E+02 -0.56079506051E+01 -0.15124879464E+03  0.15809566329E+03  0.00000000000E+00 0. -1.
          3    1    1    2  501    0  0.26500966457E+02 -0.19613063076E+01  0.11130617208E+03  0.11443431255E+03  0.00000000000E+00 0. -1.
<scales pt_clust_5="13000.00000" pt_clust_6="13000.00000" pt_clust_7="13000.00000" pt_clust_8="13000.00000" pt_clust_9="26.57344"></scales>
<clustering>
<clus scale="   26.573">  1  9  2 -1</clus>
<clus scale="   79.950">  5  6 -1 -1</clus>
<clus scale="   90.202">  1  5  2 -1</clus>
<clus scale="  121.913">  7  8 -1 -1</clus>
<clus scale="   26.573">  1  5  2 -1</clus>
</clustering>
</event>
<event>
 9    2  0.1325014E-004  0.1907766E+03  0.7546771E-02  0.1159551E+00
         21   -1    0    0  501  502  0.00000000000E+00  0.00000000000E+00  0.34770577805E+03  0.34770577805E+03  0.00000000000E+00 0.  1.
         -3   -1    0    0    0  501 -0.00000000000E+00 -0.00000000000E+00 -0.21530886702E+03  0.21530886702E+03  0.00000000000E+00 0.  1.
         24    2    1    2    0    0 -0.16844062062E+03  0.23782827286E+02  0.44194817778E+02  0.19388180373E+03  0.81848068712E+02 0.  0.
         23    2    1    2    0    0  0.15495914778E+03  0.45345972643E+02  0.17489982457E+03  0.25743218017E+03  0.98044806271E+02 0.  0.
        -13    1    3    3    0    0 -0.90744491490E+02  0.30205657493E+02 -0.13914904592E+02  0.96646619445E+02  0.00000000000E+00 0.  1.
         14    1    3    3    0    0 -0.77696129128E+02 -0.64228302070E+01  0.58109722369E+02  0.97235184286E+02  0.00000000000E+00 0. -1.
        -13    1    4    4    0    0  0.47214570140E+02  0.11220856825E+02  0.12461471387E+03  0.13373088714E+03  0.00000000000E+00 0.  1.
         13    1    4    4    0    0  0.10774457764E+03  0.34125115817E+02  0.50285110704E+02  0.12370129303E+03  0.00000000000E+00 0. -1.
         -4    1    1    2    0  502  0.13481472840E+02 -0.69128799929E+02 -0.86697731320E+02  0.11170066117E+03  0.00000000000E+00 0.  1.
<scales pt_clust_5="13000.00000" pt_clust_6="13000.00000" pt_clust_7="13000.00000" pt_clust_8="13000.00000" pt_clust_9="70.43114"></scales>
<clustering>
<clus scale="   70.431">  1  9  2 -1</clus>
<clus scale="   81.848">  5  6 -1 -1</clus>
<clus scale="   98.045">  7  8 -1 -1</clus>
<clus scale="  182.981">  2  5  1 -1</clus>
<clus scale="   70.431">  1  5  2 -1</clus>
</clustering>
</event>
<event>
 9    2  0.1325014E-004  0.2675282E+03  0.7546771E-02  0.1147625E+00
         21   -1    0    0  501  502  0.00000000000E+00  0.00000000000E+00  0.43334671034E+03  0.43334671034E+03  0.00000000000E+00 0.  1.
         -1   -1    0    0    0  501 -0.00000000000E+00 -0.00000000000E+00 -0.72229561082E+03  0.72229561082E+03  0.00000000000E+00 0.  1.
         24    2    1    2    0    0 -0.29451968534E+01  0.28592078454E+02 -0.44503979474E+03  0.45363052692E+03  0.83030445748E+02 0.  0.
         23    2    1    2    0    0 -0.23328393025E+03 -0.11255070879E+03 -0.14498334307E+03  0.31022237569E+03  0.90159294863E+02 0.  0.
        -13    1    3    3    0    0 -0.58027351917E+00 -0.29360981765E+02 -0.12764014643E+03  0.13097484853E+03  0.00000000000E+00 0.  1.
         14    1    3    3    0    0 -0.23649233343E+01  0.57953060220E+02 -0.31739964830E+03  0.32265567839E+03  0.00000000000E+00 0. -1.
        -11    1    4    4    0    0 -0.59094532075E+02 -0.65273966629E+02 -0.18904804698E+02  0.90056904685E+02  0.00000000000E+00 0. -1.
         11    1    4    4    0    0 -0.17418939817E+03 -0.47276742162E+02 -0.12607853838E+03  0.22016547101E+03  0.00000000000E+00 0.  1.
         -2    1    1    2    0  502  0.23622912710E+03  0.83958630338E+02  0.30107423733E+03  0.39178941854E+03  0.00000000000E+00 0.  1.
<scales pt_clust_5="13000.00000" pt_clust_6="13000.00000" pt_clust_7="13000.00000" pt_clust_8="13000.00000" pt_clust_9="251.87822"></scales>
<clustering>
<clus scale="   83.030">  5  6 -1 -1</clus>
<clus scale="   87.865">  2  5  1 -1</clus>
<clus scale="   90.159">  7  8 -1 -1</clus>
<clus scale="  251.878">  1  9  2 -1</clus>
<clus scale="  251.878">  1  5  2 -1</clus>
</clustering>
</event>
<event>
 9    2  0.1325014E-004  0.8921151E+02  0.7546771E-02  0.1307176E+00
          2   -1    0    0  502    0 -0.00000000000E+00  0.00000000000E+00  0.41996257493E+03  0.41996257493E+03  0.00000000000E+00 0. -1.
         21   -1    0    0  501  502  0.00000000000E+00 -0.00000000000E+00 -0.91465718560E+02  0.91465718560E+02  0.00000000000E+00 0.  1.
         24    2    1    2    0    0  0.33732842921E+01  0.23379640687E+01  0.37401541508E+03  0.38363446042E+03  0.85270296030E+02 0.  0.
         23    2    1    2    0    0 -0.16888891079E+02  0.18548958064E+02 -0.44956004896E+02  0.10290906644E+03  0.89106313429E+02 0.  0.
        -11    1    3    3    0    0 -0.34033415016E+02 -0.21899527942E+02  0.19478130274E+03  0.19894124398E+03  0.00000000000E+00 0.  1.
         12    1    3    3    0    0  0.37406699308E+02  0.24237492011E+02  0.17923411234E+03  0.18469321644E+03  0.00000000000E+00 0. -1.
        -11    1    4    4    0    0 -0.38882910696E+02 -0.19378502280E+02 -0.39519837692E+02  0.58730100170E+02  0.00000000000E+00 0.  1.
         11    1    4    4    0    0  0.21994019618E+02  0.37927460344E+02 -0.54361672048E+01  0.44178966273E+02  0.00000000000E+00 0. -1.
          1    1    1    2  501    0  0.13515606787E+02 -0.20886922133E+02 -0.56255381333E+00  0.24884766621E+02  0.00000000000E+00 0. -1.
<scales pt_clust_5="13000.00000" pt_clust_6="13000.00000" pt_clust_7="13000.00000" pt_clust_8="13000.00000" pt_clust_9="24.87841"></scales>
<clustering>
<clus scale="   24.878">  2  9  1 -1</clus>
<clus scale="   85.270">  5  6 -1 -1</clus>
<clus scale="   85.380">  1  5  2 -1</clus>
<clus scale="   89.106">  7  8 -1 -1</clus>
<clus scale="   24.878">  2  5  1 -1</clus>
</clustering>
</event>
<event>
 9    2  0.1898495E-004  0.8406198E+02  0.7546771E-02  0.1318799E+00
         -3   -1    0    0    0  501 -0.00000000000E+00  0.00000000000E+00  0.26581638284E+03  0.26581638284E+03  0.00000000000E+00 0.  1.
         21   -1    0    0  501  502  0.00000000000E+00 -0.00000000000E+00 -0.19287594465E+03  0.19287594465E+03  0.00000000000E+00 0.  1.
         23    2    1    2    0    0 -0.18356581398E+02 -0.77232834314E+01  0.23231549115E+03  0.24716605951E+03  0.81999758265E+02 0.  0.
         24    2    1    2    0    0 -0.51077987300E+01  0.21662265619E+02 -0.47123193352E+02  0.96004182025E+02  0.80627937186E+02 0.  0.
        -13    1    4    4    0    0  0.71297606322E+00  0.38880295997E+02  0.64623576523E+01  0.39420144826E+02  0.00000000000E+00 0.  1.
         14    1    4    4    0    0 -0.58207747932E+01 -0.17218030378E+02 -0.53585551005E+02  0.56584037199E+02  0.00000000000E+00 0. -1.
        -13    1    3    3    0    0 -0.31436830973E+02 -0.26879752239E+02  0.21300580520E+03  0.21698448901E+03  0.00000000000E+00 0.  1.
         13    1    3    3    0    0  0.13080249576E+02  0.19156468807E+02  0.19309685953E+02  0.30181570498E+02  0.00000000000E+00 0. -1.
         -4    1    1    2    0  502  0.23464380128E+02 -0.13938982188E+02 -0.11225185961E+03  0.11552208596E+03  0.00000000000E+00 0.  1.
<scales pt_clust_5="13000.00000" pt_clust_6="13000.00000" pt_clust_7="13000.00000" pt_clust_8="13000.00000" pt_clust_9="27.29235"></scales>
<clustering>
<clus scale="   27.292">  2  9  1 -1</clus>
<clus scale="   80.628">  5  6 -1 -1</clus>
<clus scale="   82.000">  7  8 -1 -1</clus>
<clus scale="   82.724">  2  5  1 -1</clus>
<clus scale="   27.292">  2  5  1 -1</clus>
</clustering>
</event>
<event>
 9    2  0.1325014E-004  0.1056144E+03  0.7546771E-02  0.1282532E+00
         21   -1    0    0  501  502  0.00000000000E+00  0.00000000000E+00  0.22228417774E+03  0.22228417774E+03  0.00000000000E+00 0.  1.
          2   -1    0    0  502    0 -0.00000000000E+00 -0.00000000000E+00 -0.81431146218E+02  0.81431146218E+02  0.00000000000E+00 0. -1.
         24    2    1    2    0    0 -0.10889298823E+02  0.14734309625E+01 -0.31731415421E+02  0.86992084580E+02  0.80249562162E+02 0.  0.
         23    2    1    2    0    0  0.28551814107E+02  0.10640944071E+02  0.15122588450E+03  0.18647574827E+03  0.10476402422E+03 0.  0.
        -13    1    3    3    0    0 -0.96295626072E+01 -0.24161218581E+02  0.17585401544E+02  0.31396485580E+02  0.00000000000E+00 0.  1.
         14    1    3    3    0    0 -0.12597362160E+01  0.25634649543E+02 -0.49316816965E+02  0.55595599000E+02  0.00000000000E+00 0. -1.
        -13    1    4    4    0    0  0.44641895765E+02  0.31014313524E+02  0.15102984317E+03  0.16051417392E+03  0.00000000000E+00 0. -1.
         13    1    4    4    0    0 -0.16090081658E+02 -0.20373369454E+02  0.19604133054E+00  0.25961574352E+02  0.00000000000E+00 0.  1.
          1    1    1    2  501    0 -0.17662515284E+02 -0.12114375033E+02  0.21358562444E+02  0.30247491107E+02  0.00000000000E+00 0. -1.
<scales pt_clust_5="13000.00000" pt_clust_6="13000.00000" pt_clust_7="13000.00000" pt_clust_8="13000.00000" pt_clust_9="21.41781"></scales>
<clustering>
<clus scale="   21.418">  1  9  2 -1</clus>
<clus scale="   80.250">  5  6 -1 -1</clus>
<clus scale="   81.357">  2  5  1 -1</clus>
<clus scale="  104.764">  7  8 -1 -1</clus>
<clus scale="   21.418">  1  5  2 -1</clus>
</clustering>
</event>
<event>
 9    2  0.1325014E-004  0.9666036E+02  0.7546771E-02  0.1294627E+00
         -1   -1    0    0    0  501 -0.00000000000E+00  0.00000000000E+00  0.22549249255E+03  0.22549249255E+03  0.00000000000E+00 0.  1.
         21   -1    0    0  501  502  0.00000000000E+00 -0.00000000000E+00 -0.81422055587E+02  0.81422055587E+02  0.00000000000E+00 0.  1.
         24    2    1    2    0    0 -0.40573941376E+02  0.71551526851E+00  0.92957877568E+02  0.13006783666E+03  0.81423083033E+02 0.  0.
         23    2    1    2    0    0 -0.22468556758E+02  0.47903597247E+01  0.19466121866E+01  0.96709569057E+02  0.93921072498E+02 0.  0.
        -11    1    3    3    0    0 -0.76461898961E+01 -0.18483394078E+02 -0.84644053002E+01  0.21719719926E+02  0.00000000000E+00 0.  1.
         12    1    3    3    0    0 -0.32927751480E+02  0.19198909346E+02  0.10142228287E+03  0.10834811673E+03  0.00000000000E+00 0. -1.
        -11    1    4    4    0    0  0.80175284619E+01  0.18793614086E+02  0.40646244215E+02  0.45492833082E+02  0.00000000000E+00 0. -1.
         11    1    4    4    0    0 -0.30486085220E+02 -0.14003254361E+02 -0.38699632029E+02  0.51216735975E+02  0.00000000000E+00 0.  1.
         -2    1    1    2    0  502  0.63042498134E+02 -0.55058749932E+01  0.49165947208E+02  0.80137142420E+02  0.00000000000E+00 0.  1.
<scales pt_clust_5="13000.00000" pt_clust_6="13000.00000" pt_clust_7="13000.00000" pt_clust_8="13000.00000" pt_clust_9="63.28250"></scales>
<clustering>
<clus scale="   63.283">  2  9  1 -1</clus>
<clus scale="   81.423">  5  6 -1 -1</clus>
<clus scale="   84.568">  1  5  2 -1</clus>
<clus scale="   93.921">  7  8 -1 -1</clus>
<clus scale="   63.283">  2  5  1 -1</clus>
</clustering>
</event>
<event>
 9    2  0.1325014E-004  0.1649737E+03  0.7546771E-02  0.1185895E+00
         21   -1    0    0  501  502  0.00000000000E+00  0.00000000000E+00  0.13803565898E+03  0.13803565898E+03  0.00000000000E+00 0.  1.
         -1   -1    0    0    0  501 -0.00000000000E+00 -0.00000000000E+00 -0.31939632699E+03  0.31939632699E+03  0.00000000000E+00 0.  1.
         23    2    1    2    0    0 -0.47901328933E+02 -0.13498003337E+03 -0.22754643045E+03  0.28440820836E+03  0.92717335210E+02 0.  0.
         24    2    1    2    0    0  0.37875539620E+02  0.10732168073E+03  0.46509630587E+02  0.14360259795E+03  0.74202835156E+02 0.  0.
        -11    1    4    4    0    0  0.30213534182E+02  0.68321116081E+02  0.65683496069E+02  0.99473384411E+02  0.00000000000E+00 0.  1.
         12    1    4    4    0    0  0.76620054376E+01  0.39000564644E+02 -0.19173865483E+02  0.44129213537E+02  0.00000000000E+00 0. -1.
        -13    1    3    3    0    0 -0.39656306757E+02 -0.34434526734E+02 -0.14447312809E+03  0.15372327097E+03  0.00000000000E+00 0. -1.
         13    1    3    3    0    0 -0.82450221758E+01 -0.10054550663E+03 -0.83073302358E+02  0.13068493739E+03  0.00000000000E+00 0.  1.
         -2    1    1    2    0  502  0.10025789313E+02  0.27658352643E+02 -0.32386815195E+00  0.29421179664E+02  0.00000000000E+00 0.  1.
<scales pt_clust_5="13000.00000" pt_clust_6="13000.00000" pt_clust_7="13000.00000" pt_clust_8="13000.00000" pt_clust_9="29.41940"></scales>
<clustering>
<clus scale="   29.419">  1  9  2 -1</clus>
<clus scale="   74.203">  5  6 -1 -1</clus>
<clus scale="   92.717">  7  8 -1 -1</clus>
<clus scale="  155.325">  1  5  2 -1</clus>
<clus scale="   29.419">  1  5  2 -1</clus>
</clustering>
</event>
<event>
 9    2  0.1325014E-004  0.2532055E+03  0.7546771E-02  0.1111580E+00
         21   -1    0    0  501  502  0.00000000000E+00  0.00000000000E+00  0.16979347621E+03  0.16979347621E+03  0.00000000000E+00 0. -1.
         -1   -1    0    0    0  501 -0.00000000000E+00 -0.00000000000E+00 -0.87907289334E+03  0.87907289334E+03  0.00000000000E+00 0.  1.
         24    2    1    2    0    0 -0.19462124933E+03  0.14068309638E+03 -0.47761940371E+03  0.54064597408E+03  0.80675957914E+02 0.  0.
         23    2    1    2    0    0  0.17354590854E+03 -0.16030838805E+03 -0.32477034000E+03  0.41075832603E+03  0.86195516227E+02 0.  0.
        -13    1    3    3    0    0 -0.26587324703E+02  0.61195347915E+02 -0.10875663138E+03  0.12759216791E+03  0.00000000000E+00 0.  1.
         14    1    3    3    0    0 -0.16803392462E+03  0.79487748465E+02 -0.36886277233E+03  0.41305380617E+03  0.00000000000E+00 0. -1.
        -11    1    4    4    0    0  0.92369562304E+02 -0.80014439104E+02 -0.23732452958E+03  0.26694077779E+03  0.00000000000E+00 0.  1.
         11    1    4    4    0    0  0.81176346234E+02 -0.80293948941E+02 -0.87445810416E+02  0.14381754825E+03  0.00000000000E+00 0. -1.
         -2    1    1    2    0  502  0.21075340789E+02  0.19625291666E+02  0.93110326585E+02  0.97462069437E+02  0.00000000000E+00 0.  1.
<scales pt_clust_5="13000.00000" pt_clust_6="13000.00000" pt_clust_7="13000.00000" pt_clust_8="13000.00000" pt_clust_9="28.79795"></scales>
<clustering>
<clus scale="   28.798">  1  9  2 -1</clus>
<clus scale="   80.676">  5  6 -1 -1</clus>
<clus scale="   86.196">  7  8 -1 -1</clus>
<clus scale="  251.380">  2  5  1 -1</clus>
<clus scale="   28.798">  1  5  2 -1</clus>
</clustering>
</event>
<event>
 9    2  0.1325014E-004  0.3159074E+03  0.7546771E-02  0.1118683E+00
         21   -1    0    0  501  502  0.00000000000E+00  0.00000000000E+00  0.31492313434E+03  0.31492313434E+03  0.00000000000E+00 0. -1.
          2   -1    0    0  502    0 -0.00000000000E+00 -0.00000000000E+00 -0.12955073904E+04  0.12955073904E+04  0.00000000000E+00 0. -1.
         23    2    1    2    0    0  0.40414482688E+02 -0.44072650162E+02 -0.56982095331E+02  0.12228873926E+03  0.90176757856E+02 0.  0.
         24    2    1    2    0    0  0.21584959132E+03  0.19660828062E+03 -0.10990385341E+04  0.11421413299E+04  0.10656104395E+03 0.  0.
        -13    1    4    4    0    0  0.13483082176E+03  0.11437762655E+03 -0.46098894837E+03  0.49373312880E+03  0.00000000000E+00 0.  1.
         14    1    4    4    0    0  0.81018769560E+02  0.82230654074E+02 -0.63804958569E+03  0.64840820113E+03  0.00000000000E+00 0. -1.
        -11    1    3    3    0    0  0.55304603792E+02 -0.33146571385E+01 -0.56158341179E+02  0.78888183123E+02  0.00000000000E+00 0. -1.
         11    1    3    3    0    0 -0.14890121104E+02 -0.40757993024E+02 -0.82375415243E+00  0.43400556134E+02  0.00000000000E+00 0.  1.
          1    1    1    2  501    0 -0.25626407401E+03 -0.15253563046E+03  0.17543637331E+03  0.34600045558E+03  0.00000000000E+00 0. -1.
<scales pt_clust_5="13000.00000" pt_clust_6="13000.00000" pt_clust_7="13000.00000" pt_clust_8="13000.00000" pt_clust_9="297.39242"></scales>
<clustering>
<clus scale="   90.177">  7  8 -1 -1</clus>
<clus scale="  106.561">  5  6 -1 -1</clus>
<clus scale="  108.202">  2  7  1 -1</clus>
<clus scale="  297.392">  1  9  2 -1</clus>
<clus scale="  297.392">  1  5  2 -1</clus>
</clustering>
</event>
<event>
 9    2  0.1325014E-004  0.1076269E+03  0.7546771E-02  0.1270394E+00
         21   -1    0    0  501  502  0.00000000000E+00  0.00000000000E+00  0.62006502188E+02  0.62006502188E+02  0.00000000000E+00 0. -1.
          2   -1    0    0  502    0 -0.00000000000E+00 -0.00000000000E+00 -0.36704807042E+03  0.36704807042E+03  0.00000000000E+00 0. -1.
         24    2    1    2    0    0  0.10879528163E+02 -0.61476199392E+02 -0.24685498295E+03  0.26714833624E+03  0.80827988491E+02 0.  0.
         23    2    1    2    0    0 -0.32355276845E+02  0.15336277731E+02 -0.34311970384E+02  0.10569149285E+03  0.93334425560E+02 0.  0.
        -13    1    3    3    0    0 -0.23973180312E+02 -0.47543389980E+01 -0.13325860719E+03  0.13548126625E+03  0.00000000000E+00 0.  1.
         14    1    3    3    0    0  0.34852708475E+02 -0.56721860393E+02 -0.11359637576E+03  0.13166706999E+03  0.00000000000E+00 0. -1.
        -11    1    4    4    0    0 -0.53007590991E+02  0.26799091276E+02 -0.49745154580E+02  0.77476295731E+02  0.00000000000E+00 0.  1.
         11    1    4    4    0    0  0.20652314147E+02 -0.11462813545E+02  0.15433184196E+02  0.28215197118E+02  0.00000000000E+00 0. -1.
          1    1    1    2  501    0  0.21475748682E+02  0.46139921660E+02 -0.23874614893E+02  0.56214743516E+02  0.00000000000E+00 0. -1.
<scales pt_clust_5="13000.00000" pt_clust_6="13000.00000" pt_clust_7="13000.00000" pt_clust_8="13000.00000" pt_clust_9="50.89303"></scales>
<clustering>
<clus scale="   50.893">  1  9  2 -1</clus>
<clus scale="   80.828">  5  6 -1 -1</clus>
<clus scale="   93.334">  7  8 -1 -1</clus>
<clus scale="   96.981">  2  5  1 -1</clus>
<clus scale="   50.893">  1  5  2 -1</clus>
</clustering>
</event>
<event>
 9    2  0.1325014E-004  0.2583887E+03  0.7546771E-02  0.1108660E+00
         21   -1    0    0  501  502  0.00000000000E+00  0.00000000000E+00  0.15557453694E+03  0.15557453694E+03  0.00000000000E+00 0. -1.
         -1   -1    0    0    0  501 -0.00000000000E+00 -0.00000000000E+00 -0.51142661117E+03  0.51142661117E+03  0.00000000000E+00 0.  1.
         23    2    1    2    0    0 -0.14957651518E+03 -0.19811064268E+03 -0.20191732261E+03  0.33270149605E+03  0.91097308783E+02 0.  0.
         24    2    1    2    0    0  0.17470065164E+03  0.15972843272E+03 -0.13907876730E+03  0.28608018976E+03  0.80408218240E+02 0.  0.
        -13    1    4    4    0    0  0.16510805534E+03  0.14879910894E+03 -0.14978257366E+03  0.26802362607E+03  0.00000000000E+00 0.  1.
         14    1    4    4    0    0  0.95925962940E+01  0.10929323780E+02  0.10703806357E+02  0.18056563695E+02  0.00000000000E+00 0. -1.
        -13    1    3    3    0    0 -0.68208229289E+02 -0.15833288373E+03 -0.14858883630E+03  0.22759680772E+03  0.00000000000E+00 0. -1.
         13    1    3    3    0    0 -0.81368285890E+02 -0.39777758945E+02 -0.53328486312E+02  0.10510468832E+03  0.00000000000E+00 0.  1.
         -2    1    1    2    0  502 -0.25124136456E+02  0.38382209954E+02 -0.14855984326E+02  0.48219462294E+02  0.00000000000E+00 0.  1.
<scales pt_clust_5="13000.00000" pt_clust_6="13000.00000" pt_clust_7="13000.00000" pt_clust_8="13000.00000" pt_clust_9="45.87392"></scales>
<clustering>
<clus scale="   45.874">  1  9  2 -1</clus>
<clus scale="   80.408">  5  6 -1 -1</clus>
<clus scale="   91.097">  7  8 -1 -1</clus>
<clus scale="  254.817">  1  5  2 -1</clus>
<clus scale="   45.874">  1  5  2 -1</clus>
</clustering>
</event>
<event>
 9    2  0.1325014E-004  0.1029831E+03  0.7546771E-02  0.1278873E+00
         21   -1    0    0  501  502  0.00000000000E+00  0.00000000000E+00  0.22624571594E+02  0.22624571594E+02  0.00000000000E+00 0. -1.
          2   -1    0    0  502    0 -0.00000000000E+00 -0.00000000000E+00 -0.14360203638E+04  0.14360203638E+04  0.00000000000E+00 0. -1.
         24    2    1    2    0    0  0.26377070968E+02 -0.31673715523E+02 -0.11850775166E+04  0.11887113845E+04  0.83228968933E+02 0.  0.
         23    2    1    2    0    0 -0.43972814223E+02  0.46687253953E+02 -0.21575734484E+03  0.24361258017E+03  0.93180197982E+02 0.  0.
        -11    1    3    3    0    0 -0.20429792917E+02 -0.18041921389E+02 -0.14801269761E+03  0.15050131567E+03  0.00000000000E+00 0.  1.
         12    1    3    3    0    0  0.46806863885E+02 -0.13631794134E+02 -0.10370648190E+04  0.10382100689E+04  0.00000000000E+00 0. -1.
        -13    1    4    4    0    0  0.19117270845E+02 -0.15431508026E+02 -0.45427985694E+02  0.51645942423E+02  0.00000000000E+00 0.  1.
         13    1    4    4    0    0 -0.63090085068E+02  0.62118761979E+02 -0.17032935914E+03  0.19196663775E+03  0.00000000000E+00 0. -1.
          1    1    1    2  501    0  0.17595743255E+02 -0.15013538429E+02 -0.12560930820E+02  0.26320970725E+02  0.00000000000E+00 0. -1.
<scales pt_clust_5="13000.00000" pt_clust_6="13000.00000" pt_clust_7="13000.00000" pt_clust_8="13000.00000" pt_clust_9="23.13042"></scales>
<clustering>
<clus scale="   23.130">  1  9  2 -1</clus>
<clus scale="   83.229">  5  6 -1 -1</clus>
<clus scale="   93.180">  7  8 -1 -1</clus>
<clus scale="   94.075">  2  5  1 -1</clus>
<clus scale="   23.130">  1  5  2 -1</clus>
</clustering>
</event>
<event>
 9    2  0.1364675E-004  0.1062405E+03  0.7546771E-02  0.1272521E+00
         21   -1    0    0  501  502  0.00000000000E+00  0.00000000000E+00  0.55303116520E+02  0.55303116520E+02  0.00000000000E+00 0. -1.
          2   -1    0    0  502    0 -0.00000000000E+00 -0.00000000000E+00 -0.11972169391E+04  0.11972169391E+04  0.00000000000E+00 0. -1.
         24    2    1    2    0    0 -0.18577369292E+02 -0.53194650881E+02 -0.11085374675E+04  0.11128297317E+04  0.79749015057E+02 0.  0.
         23    2    1    2    0    0  0.32029042366E+02  0.19744459717E+02 -0.32242462436E+02  0.10361888773E+03  0.91003265139E+02 0.  0.
        -11    1    3    3    0    0 -0.17762100082E+02  0.10433305969E+02 -0.90909231142E+02  0.93213917306E+02  0.00000000000E+00 0.  1.
         12    1    3    3    0    0 -0.81526921028E+00 -0.63627956850E+02 -0.10176282364E+04  0.10196158144E+04  0.00000000000E+00 0. -1.
        -13    1    4    4    0    0 -0.13424471470E+02  0.43475622365E+02 -0.56285320486E+01  0.45847863061E+02  0.00000000000E+00 0.  1.
         13    1    4    4    0    0  0.45453513835E+02 -0.23731162648E+02 -0.26613930387E+02  0.57771024668E+02  0.00000000000E+00 0. -1.
          1    1    1    2  501    0 -0.13451673074E+02  0.33450191164E+02 -0.11338926736E+01  0.36071436206E+02  0.00000000000E+00 0. -1.
<scales pt_clust_5="13000.00000" pt_clust_6="13000.00000" pt_clust_7="13000.00000" pt_clust_8="13000.00000" pt_clust_9="36.05361"></scales>
<clustering>
<clus scale="   36.054">  1  9  2 -1</clus>
<clus scale="   79.749">  5  6 -1 -1</clus>
<clus scale="   91.003">  7  8 -1 -1</clus>
<clus scale="   96.775">  2  5  1 -1</clus>
<clus scale="   36.054">  1  5  2 -1</clus>
</clustering>
</event>
<event>
 9    2  0.1325014E-004  0.1668324E+03  0.7546771E-02  0.1206236E+00
          2   -1    0    0  502    0 -0.00000000000E+00  0.00000000000E+00  0.15320733089E+04  0.15320733089E+04  0.00000000000E+00 0. -1.
         21   -1    0    0  501  502  0.00000000000E+00 -0.00000000000E+00 -0.31323621527E+02  0.31323621527E+02  0.00000000000E+00 0. -1.
         23    2    1    2    0    0  0.29279565515E+02 -0.54221290127E+01  0.25943821393E+03  0.27672240654E+03  0.91544584707E+02 0.  0.
         24    2    1    2    0    0  0.22455951463E+02  0.14312657857E+03  0.89745705603E+03  0.91267594166E+03  0.80985923586E+02 0.  0.
        -13    1    4    4    0    0 -0.16193035969E+02  0.51871749661E+02  0.16933070073E+03  0.17783638277E+03  0.00000000000E+00 0.  1.
         14    1    4    4    0    0  0.38648987432E+02  0.91254828904E+02  0.72812635530E+03  0.73483955889E+03  0.00000000000E+00 0. -1.
        -13    1    3    3    0    0  0.39723594177E+02  0.34950051982E+02  0.11919482840E+03  0.13041041823E+03  0.00000000000E+00 0.  1.
         13    1    3    3    0    0 -0.10444028662E+02 -0.40372180994E+02  0.14024338554E+03  0.14631198830E+03  0.00000000000E+00 0. -1.
          1    1    1    2  501    0 -0.51735516978E+02 -0.13770444955E+03  0.34385441746E+03  0.37399858228E+03  0.00000000000E+00 0. -1.
<scales pt_clust_5="13000.00000" pt_clust_6="13000.00000" pt_clust_7="13000.00000" pt_clust_8="13000.00000" pt_clust_9="145.85723"></scales>
<clustering>
<clus scale="   80.986">  5  6 -1 -1</clus>
<clus scale="   91.545">  7  8 -1 -1</clus>
<clus scale="   96.266">  1  7  2 -1</clus>
<clus scale="  145.857">  2  9  1 -1</clus>
<clus scale="  145.857">  2  5  1 -1</clus>
</clustering>
</event>
<event>
 9    2  0.1325014E-004  0.1136445E+03  0.7546771E-02  0.1257487E+00
          2   -1    0    0  502    0 -0.00000000000E+00  0.00000000000E+00  0.10280695856E+04  0.10280695856E+04  0.00000000000E+00 0. -1.
         21   -1    0    0  501  502  0.00000000000E+00 -0.00000000000E+00 -0.54550119859E+02  0.54550119859E+02  0.00000000000E+00 0. -1.
         24    2    1    2    0    0 -0.60865716616E+02  0.40709478108E+02  0.92589009549E+03  0.93222414424E+03  0.80046793192E+02 0.  0.
         23    2    1    2    0    0  0.34343555923E+02 -0.31811816658E+01  0.37345936431E+02  0.10330472289E+03  0.89930790351E+02 0.  0.
        -13    1    3    3    0    0  0.15023058184E+02  0.21127172386E+02  0.13548706872E+03  0.13794490016E+03  0.00000000000E+00 0.  1.
         14    1    3    3    0    0 -0.75888774800E+02  0.19582305723E+02  0.79040302677E+03  0.79427924407E+03  0.00000000000E+00 0. -1.
        -13    1    4    4    0    0  0.40687814885E+02  0.31897387054E+02  0.33214301785E-01  0.51700509516E+02  0.00000000000E+00 0. -1.
         13    1    4    4    0    0 -0.63442589625E+01 -0.35078568720E+02  0.37312722129E+02  0.51604213373E+02  0.00000000000E+00 0.  1.
          1    1    1    2  501    0  0.26522160693E+02 -0.37528296443E+02  0.10283433790E+02  0.47090838304E+02  0.00000000000E+00 0. -1.
<scales pt_clust_5="13000.00000" pt_clust_6="13000.00000" pt_clust_7="13000.00000" pt_clust_8="13000.00000" pt_clust_9="45.95430"></scales>
<clustering>
<clus scale="   45.954">  2  9  1 -1</clus>
<clus scale="   80.047">  5  6 -1 -1</clus>
<clus scale="   89.931">  7  8 -1 -1</clus>
<clus scale="  105.995">  1  5  2 -1</clus>
<clus scale="   45.954">  2  5  1 -1</clus>
</clustering>
</event>
<event>
 9    2  0.1325014E-004  0.3188143E+03  0.7546771E-02  0.1082875E+00
         21   -1    0    0  501  502  0.00000000000E+00  0.00000000000E+00  0.70748741910E+03  0.70748741910E+03  0.00000000000E+00 0. -1.
          2   -1    0    0  502    0 -0.00000000000E+00 -0.00000000000E+00 -0.43734042813E+03  0.43734042813E+03  0.00000000000E+00 0. -1.
         23    2    1    2    0    0 -0.25013508655E+03  0.12516673271E+02  0.14866182036E+03  0.30496341471E+03  0.90432952210E+02 0.  0.
         24    2    1    2    0    0  0.17002936335E+03  0.28186185228E+03  0.32797134135E+03  0.47147308911E+03  0.79784615286E+02 0.  0.
        -13    1    4    4    0    0  0.14398543694E+03  0.23558587676E+03  0.31065677494E+03  0.41562019104E+03  0.00000000000E+00 0.  1.
         14    1    4    4    0    0  0.26043926404E+02  0.46275975520E+02  0.17314566402E+02  0.55852898068E+02  0.00000000000E+00 0. -1.
        -13    1    3    3    0    0 -0.17238447889E+03  0.50487931651E+02  0.10462828790E+03  0.20787620940E+03  0.00000000000E+00 0.  1.
         13    1    3    3    0    0 -0.77750607669E+02 -0.37971258380E+02  0.44033532456E+02  0.97087205317E+02  0.00000000000E+00 0. -1.
          1    1    1    2  501    0  0.80105723206E+02 -0.29437852555E+03 -0.20648617074E+03  0.36839134341E+03  0.00000000000E+00 0. -1.
<scales pt_clust_5="13000.00000" pt_clust_6="13000.00000" pt_clust_7="13000.00000" pt_clust_8="13000.00000" pt_clust_9="308.66980"></scales>
<clustering>
<clus scale="   79.785">  5  6 -1 -1</clus>
<clus scale="   90.433">  7  8 -1 -1</clus>
<clus scale="  266.275">  2  7  1 -1</clus>
<clus scale="  308.670">  1  9  2 -1</clus>
<clus scale="  308.670">  1  5  2 -1</clus>
</clustering>
</event>
<event>
 9    2  0.1325014E-004  0.3427453E+03  0.7546771E-02  0.1066031E+00
          2   -1    0    0  502    0 -0.00000000000E+00  0.00000000000E+00  0.15513715403E+04  0.15513715403E+04  0.00000000000E+00 0. -1.
         21   -1    0    0  501  502  0.00000000000E+00 -0.00000000000E+00 -0.31930301691E+03  0.31930301691E+03  0.00000000000E+00 0. -1.
         23    2    1    2    0    0 -0.37386159028E+03  0.80178703373E+02  0.22862480803E+03  0.45557790750E+03  0.95293304041E+02 0.  0.
         24    2    1    2    0    0  0.20966979444E+03 -0.12944580794E+03 -0.11494895982E+03  0.28364255461E+03  0.80760111000E+02 0.  0.
        -11    1    4    4    0    0  0.10720892888E+03 -0.25127391272E+02 -0.70762662317E+02  0.13089115555E+03  0.00000000000E+00 0.  1.
         12    1    4    4    0    0  0.10246086556E+03 -0.10431841666E+03 -0.44186297500E+02  0.15275139906E+03  0.00000000000E+00 0. -1.
        -13    1    3    3    0    0 -0.11235192508E+03 -0.11049927603E+02  0.37071709941E+02  0.11882494539E+03  0.00000000000E+00 0.  1.
         13    1    3    3    0    0 -0.26150966520E+03  0.91228630977E+02  0.19155309809E+03  0.33675296211E+03  0.00000000000E+00 0. -1.
          1    1    1    2  501    0  0.16419179584E+03  0.49267104562E+02  0.11183926751E+04  0.11314540951E+04  0.00000000000E+00 0. -1.
<scales pt_clust_5="13000.00000" pt_clust_6="13000.00000" pt_clust_7="13000.00000" pt_clust_8="13000.00000" pt_clust_9="171.42410"></scales>
<clustering>
<clus scale="   80.760">  5  6 -1 -1</clus>
<clus scale="   95.293">  7  8 -1 -1</clus>
<clus scale="  171.424">  2  9  1 -1</clus>
<clus scale="  338.992">  2  5  1 -1</clus>
<clus scale="  171.424">  2  5  1 -1</clus>
</clustering>
</event>
<event>
 9    2  0.1325014E-004  0.2741637E+03  0.7546771E-02  0.1099294E+00
         21   -1    0    0  501  502  0.00000000000E+00  0.00000000000E+00  0.49054210540E+02  0.49054210540E+02  0.00000000000E+00 0. -1.
          2   -1    0    0  502    0 -0.00000000000E+00 -0.00000000000E+00 -0.27653489058E+04  0.27653489058E+04  0.00000000000E+00 0. -1.
         24    2    1    2    0    0 -0.18617941940E+03  0.20785293153E+03 -0.17990520374E+04  0.18220546852E+04  0.73684635269E+02 0.  0.
         23    2    1    2    0    0  0.22196991142E+03 -0.96637752060E+02 -0.70604729624E+03  0.75099131758E+03  0.82919707274E+02 0.  0.
        -11    1    3    3    0    0 -0.61376181821E+02  0.23074850281E+02 -0.39329928090E+03  0.39872773765E+03  0.00000000000E+00 0.  1.
         12    1    3    3    0    0 -0.12480323758E+03  0.18477808125E+03 -0.14057527565E+04  0.14233269476E+04  0.00000000000E+00 0. -1.
        -13    1    4    4    0    0  0.66685178655E+02  0.30755551956E+01 -0.25638857294E+03  0.26493673288E+03  0.00000000000E+00 0. -1.
         13    1    4    4    0    0  0.15528473277E+03 -0.99713307256E+02 -0.44965872330E+03  0.48605458471E+03  0.00000000000E+00 0.  1.
          1    1    1    2  501    0 -0.35790492027E+02 -0.11121517947E+03 -0.21119536161E+03  0.24135711349E+03  0.00000000000E+00 0. -1.
<scales pt_clust_5="13000.00000" pt_clust_6="13000.00000" pt_clust_7="13000.00000" pt_clust_8="13000.00000" pt_clust_9="116.83225"></scales>
<clustering>
<clus scale="   73.685">  5  6 -1 -1</clus>
<clus scale="   82.920">  7  8 -1 -1</clus>
<clus scale="  116.832">  1  9  2 -1</clus>
<clus scale="  271.513">  2  5  1 -1</clus>
<clus scale="  116.832">  1  5  2 -1</clus>
</clustering>
</event>
<event>
 9    2  0.1325014E-004  0.1052146E+03  0.7546771E-02  0.1275376E+00
          2   -1    0    0  502    0 -0.00000000000E+00  0.00000000000E+00  0.99284639231E+02  0.99284639231E+02  0.00000000000E+00 0. -1.
         21   -1    0    0  501  502  0.00000000000E+00 -0.00000000000E+00 -0.28086686262E+03  0.28086686262E+03  0.00000000000E+00 0.  1.
         24    2    1    2    0    0 -0.49966999369E+02  0.21257273248E+00  0.53540986716E+02  0.10793505236E+03  0.79288032240E+02 0.  0.
         23    2    1    2    0    0  0.59718162460E+02  0.21416417239E+02 -0.20849749745E+03  0.23655376643E+03  0.91986717045E+02 0.  0.
        -11    1    3    3    0    0 -0.26197471414E+02 -0.11746786325E+02 -0.16427337851E+02  0.33077967385E+02  0.00000000000E+00 0.  1.
         12    1    3    3    0    0 -0.23769527954E+02  0.11959359058E+02  0.69968324567E+02  0.74857084975E+02  0.00000000000E+00 0. -1.
        -11    1    4    4    0    0  0.65246699872E+01 -0.30795722408E+02 -0.10063223058E+03  0.10544094873E+03  0.00000000000E+00 0. -1.
         11    1    4    4    0    0  0.53193492473E+02  0.52212139648E+02 -0.10786526687E+03  0.13111281770E+03  0.00000000000E+00 0.  1.
          1    1    1    2  501    0 -0.97511630911E+01 -0.21628989972E+02 -0.26625712650E+02  0.35662683059E+02  0.00000000000E+00 0. -1.
<scales pt_clust_5="13000.00000" pt_clust_6="13000.00000" pt_clust_7="13000.00000" pt_clust_8="13000.00000" pt_clust_9="23.72548"></scales>
<clustering>
<clus scale="   23.725">  2  9  1 -1</clus>
<clus scale="   79.288">  5  6 -1 -1</clus>
<clus scale="   91.987">  7  8 -1 -1</clus>
<clus scale="   94.314">  1  5  2 -1</clus>
<clus scale="   23.725">  2  5  1 -1</clus>
</clustering>
</event>
<event>
 9    2  0.1325014E-004  0.1163172E+03  0.7546771E-02  0.1252671E+00
         21   -1    0    0  501  502  0.00000000000E+00  0.00000000000E+00  0.13412404539E+03  0.13412404539E+03  0.00000000000E+00 0. -1.
          2   -1    0    0  502    0 -0.00000000000E+00 -0.00000000000E+00 -0.32372914018E+03  0.32372914018E+03  0.00000000000E+00 0. -1.
         24    2    1    2    0    0  0.69557942530E+02 -0.33466032703E+02 -0.26417691314E+03  0.28621349462E+03  0.78552150525E+02 0.  0.
         23    2    1    2    0    0 -0.69153006018E+02 -0.74014821024E+01  0.45944220750E+02  0.12174122320E+03  0.88730681429E+02 0.  0.
        -11    1    3    3    0    0  0.54788054104E+02  0.11926709666E+02 -0.93853147846E+02  0.10932698952E+03  0.00000000000E+00 0.  1.
         12    1    3    3    0    0  0.14769888426E+02 -0.45392742369E+02 -0.17032376529E+03  0.17688650510E+03  0.00000000000E+00 0. -1.
        -11    1    4    4    0    0 -0.17348244762E+02  0.33917767585E+02  0.39954522211E+02  0.55206343833E+02  0.00000000000E+00 0.  1.
         11    1    4    4    0    0 -0.51804761256E+02 -0.41319249688E+02  0.59896985387E+01  0.66534879365E+02  0.00000000000E+00 0. -1.
          1    1    1    2  501    0 -0.40493651247E+00  0.40867514805E+02  0.28627597604E+02  0.49898467757E+02  0.00000000000E+00 0. -1.
<scales pt_clust_5="13000.00000" pt_clust_6="13000.00000" pt_clust_7="13000.00000" pt_clust_8="13000.00000" pt_clust_9="40.86952"></scales>
<clustering>
<clus scale="   40.870">  1  9  2 -1</clus>
<clus scale="   78.552">  5  6 -1 -1</clus>
<clus scale="   88.731">  7  8 -1 -1</clus>
<clus scale="  108.752">  2  5  1 -1</clus>
<clus scale="   40.870">  1  5  2 -1</clus>
</clustering>
</event>
<event>
 9    2  0.1325014E-004  0.9674689E+02  0.7546771E-02  0.1292415E+00
         21   -1    0    0  501  502  0.00000000000E+00  0.00000000000E+00  0.11992925587E+03  0.11992925587E+03  0.00000000000E+00 0.  1.
         -1   -1    0    0    0  501 -0.00000000000E+00 -0.00000000000E+00 -0.12271888688E+03  0.12271888688E+03  0.00000000000E+00 0.  1.
         23    2    1    2    0    0  0.18069982342E+02 -0.22092536440E+02 -0.29322169574E+02  0.99502949256E+02  0.90699740099E+02 0.  0.
         24    2    1    2    0    0 -0.41878714023E+02  0.10199177838E+02 -0.15678456489E+02  0.93244534316E+02  0.81184230398E+02 0.  0.
        -13    1    4    4    0    0 -0.61045926202E+02 -0.12189404725E+02 -0.78045965695E+01  0.62738332948E+02  0.00000000000E+00 0.  1.
         14    1    4    4    0    0  0.19167212179E+02  0.22388582564E+02 -0.78738599190E+01  0.30506201369E+02  0.00000000000E+00 0. -1.
        -13    1    3    3    0    0 -0.73665293807E+01 -0.34898291875E+02 -0.52028785452E+02  0.63080512415E+02  0.00000000000E+00 0.  1.
         13    1    3    3    0    0  0.25436511722E+02  0.12805755435E+02  0.22706615878E+02  0.36422436842E+02  0.00000000000E+00 0. -1.
         -2    1    1    2    0  502  0.23808731681E+02  0.11893358601E+02  0.42210995056E+02  0.49900659181E+02  0.00000000000E+00 0.  1.
<scales pt_clust_5="13000.00000" pt_clust_6="13000.00000" pt_clust_7="13000.00000" pt_clust_8="13000.00000" pt_clust_9="26.61405"></scales>
<clustering>
<clus scale="   26.614">  1  9  2 -1</clus>
<clus scale="   81.184">  5  6 -1 -1</clus>
<clus scale="   87.889">  1  5  2 -1</clus>
<clus scale="   90.700">  7  8 -1 -1</clus>
<clus scale="   26.614">  1  5  2 -1</clus>
</clustering>
</event>
<event>
 9    2  0.1325014E-004  0.9979760E+02  0.7546771E-02  0.1285160E+00
          2   -1    0    0  502    0 -0.00000000000E+00  0.00000000000E+00  0.42385531595E+03  0.42385531595E+03  0.00000000000E+00 0. -1.
         21   -1    0    0  501  502  0.00000000000E+00 -0.00000000000E+00 -0.78474389445E+02  0.78474389445E+02  0.00000000000E+00 0. -1.
         24    2    1    2    0    0 -0.19822888943E+02 -0.36462970513E+02  0.76498557912E+02  0.12319691926E+03  0.87194933387E+02 0.  0.
         23    2    1    2    0    0 -0.25298027094E+02  0.86974708253E+01 -0.57244894396E+01  0.99462003756E+02  0.95625750915E+02 0.  0.
        -11    1    3    3    0    0  0.23144605329E+02 -0.36728678606E+02  0.10869201654E+02  0.44752744414E+02  0.00000000000E+00 0.  1.
         12    1    3    3    0    0 -0.42967494272E+02  0.26570809271E+00  0.65629356258E+02  0.78444174849E+02  0.00000000000E+00 0. -1.
        -13    1    4    4    0    0 -0.52435518903E+02  0.12710863343E+02  0.23966756342E+02  0.59037743005E+02  0.00000000000E+00 0.  1.
         13    1    4    4    0    0  0.27137491809E+02 -0.40133925177E+01 -0.29691245781E+02  0.40424260751E+02  0.00000000000E+00 0. -1.
          1    1    1    2  501    0  0.45120916038E+02  0.27765499688E+02  0.27460685803E+03  0.27967078237E+03  0.00000000000E+00 0. -1.
<scales pt_clust_5="13000.00000" pt_clust_6="13000.00000" pt_clust_7="13000.00000" pt_clust_8="13000.00000" pt_clust_9="52.97946"></scales>
<clustering>
<clus scale="   52.979">  2  9  1 -1</clus>
<clus scale="   87.195">  5  6 -1 -1</clus>
<clus scale="   91.751">  1  5  2 -1</clus>
<clus scale="   95.626">  7  8 -1 -1</clus>
<clus scale="   52.979">  2  5  1 -1</clus>
</clustering>
</event>
<event>
 9    2  0.1325014E-004  0.9570280E+02  0.7546771E-02  0.1295839E+00
          2   -1    0    0  502    0 -0.00000000000E+00  0.00000000000E+00  0.28259617294E+03  0.28259617294E+03  0.00000000000E+00 0. -1.
         21   -1    0    0  501  502  0.00000000000E+00 -0.00000000000E+00 -0.94991361818E+02  0.94991361818E+02  0.00000000000E+00 0. -1.
         24    2    1    2    0    0 -0.32505579745E+01  0.28114334875E+02  0.22458144541E+03  0.24065061485E+03  0.81700127617E+02 0.  0.
         23    2    1    2    0    0  0.12310104776E+02  0.85919364635E+01 -0.22695838429E+02  0.96521986108E+02  0.92606871605E+02 0.  0.
        -11    1    3    3    0    0 -0.17784081484E+02 -0.25184276838E+02  0.91650986063E+02  0.96697593561E+02  0.00000000000E+00 0.  1.
         12    1    3    3    0    0  0.14533523509E+02  0.53298611713E+02  0.13293045934E+03  0.14395302129E+03  0.00000000000E+00 0. -1.
        -13    1    4    4    0    0  0.47935823816E+00 -0.39545675960E+02 -0.25189405171E+02  0.46889192830E+02  0.00000000000E+00 0.  1.
         13    1    4    4    0    0  0.11830746538E+02  0.48137612423E+02  0.24935667418E+01  0.49632793278E+02  0.00000000000E+00 0. -1.
          1    1    1    2  501    0 -0.90595468014E+01 -0.36706271338E+02 -0.14280795858E+02  0.40414933801E+02  0.00000000000E+00 0. -1.
<scales pt_clust_5="13000.00000" pt_clust_6="13000.00000" pt_clust_7="13000.00000" pt_clust_8="13000.00000" pt_clust_9="37.80775"></scales>
<clustering>
<clus scale="   37.808">  2  9  1 -1</clus>
<clus scale="   81.700">  5  6 -1 -1</clus>
<clus scale="   85.193">  1  5  2 -1</clus>
<clus scale="   92.607">  7  8 -1 -1</clus>
<clus scale="   37.808">  2  5  1 -1</clus>
</clustering>
</event>
<event>
 9    2  0.1325014E-004  0.2377057E+03  0.7546771E-02  0.1121358E+00
         21   -1    0    0  501  502  0.00000000000E+00  0.00000000000E+00  0.23465980547E+03  0.23465980547E+03  0.00000000000E+00 0. -1.
          2   -1    0    0  502    0 -0.00000000000E+00 -0.00000000000E+00 -0.10874719574E+04  0.10874719574E+04  0.00000000000E+00 0. -1.
         23    2    1    2    0    0  0.17544273069E+03  0.14255287661E+03 -0.70387706353E+03  0.74385645800E+03  0.82328823437E+02 0.  0.
         24    2    1    2    0    0 -0.12125641397E+03 -0.14909321957E+03  0.16071533571E+03  0.26385151736E+03  0.82802765827E+02 0.  0.
        -13    1    4    4    0    0 -0.64029746241E+02 -0.26219854108E+02  0.29562069167E+02  0.75240980102E+02  0.00000000000E+00 0.  1.
         14    1    4    4    0    0 -0.57226667730E+02 -0.12287336546E+03  0.13115326654E+03  0.18861053725E+03  0.00000000000E+00 0. -1.
        -13    1    3    3    0    0  0.53592055447E+02  0.13469993813E+01 -0.13871402209E+03  0.14871281968E+03  0.00000000000E+00 0. -1.
         13    1    3    3    0    0  0.12185067524E+03  0.14120587723E+03 -0.56516304145E+03  0.59514363832E+03  0.00000000000E+00 0.  1.
          1    1    1    2  501    0 -0.54186316716E+02  0.65403429622E+01 -0.30965042409E+03  0.31442378750E+03  0.00000000000E+00 0. -1.
<scales pt_clust_5="13000.00000" pt_clust_6="13000.00000" pt_clust_7="13000.00000" pt_clust_8="13000.00000" pt_clust_9="54.57963"></scales>
<clustering>
<clus scale="   54.580">  1  9  2 -1</clus>
<clus scale="   82.329">  7  8 -1 -1</clus>
<clus scale="   82.803">  5  6 -1 -1</clus>
<clus scale="  237.541">  2  7  1 -1</clus>
<clus scale="   54.580">  1  5  2 -1</clus>
</clustering>
</event>
<event>
 9    2  0.1325014E-004  0.1362569E+03  0.7546771E-02  0.1221084E+00
         21   -1    0    0  501  502  0.00000000000E+00  0.00000000000E+00  0.14663308429E+03  0.14663308429E+03  0.00000000000E+00 0.  1.
          2   -1    0    0  502    0 -0.00000000000E+00 -0.00000000000E+00 -0.31064508870E+03  0.31064508870E+03  0.00000000000E+00 0. -1.
         24    2    1    2    0    0  0.56756644728E+02  0.85790288043E+02 -0.24369725338E+03  0.27680889859E+03  0.81569141151E+02 0.  0.
         23    2    1    2    0    0 -0.64058673339E+02 -0.52554861027E+02  0.77192254668E+02  0.14634995068E+03  0.92704567501E+02 0.  0.
        -13    1    3    3    0    0  0.22743457792E+02 -0.68469941359E+01 -0.15977019789E+02  0.28625362222E+02  0.00000000000E+00 0.  1.
         14    1    3    3    0    0  0.34013186936E+02  0.92637282179E+02 -0.22772023359E+03  0.24818353636E+03  0.00000000000E+00 0. -1.
        -13    1    4    4    0    0 -0.27972642897E+02  0.21197326141E+01  0.75801096686E+02  0.80825542224E+02  0.00000000000E+00 0.  1.
         13    1    4    4    0    0 -0.36086030442E+02 -0.54674593641E+02  0.13911579820E+01  0.65524408455E+02  0.00000000000E+00 0. -1.
          1    1    1    2  501    0  0.73020286109E+01 -0.33235427016E+02  0.24929942972E+01  0.34119323723E+02  0.00000000000E+00 0. -1.
<scales pt_clust_5="13000.00000" pt_clust_6="13000.00000" pt_clust_7="13000.00000" pt_clust_8="13000.00000" pt_clust_9="34.02812"></scales>
<clustering>
<clus scale="   34.028">  1  9  2 -1</clus>
<clus scale="   81.569">  5  6 -1 -1</clus>
<clus scale="   92.705">  7  8 -1 -1</clus>
<clus scale="  128.939">  2  5  1 -1</clus>
<clus scale="   34.028">  1  5  2 -1</clus>
</clustering>
</event>
<event>
 9    2  0.1325014E-004  0.9712414E+02  0.7546771E-02  0.1292033E+00
          2   -1    0    0  502    0 -0.00000000000E+00  0.00000000000E+00  0.34750966000E+03  0.34750966000E+03  0.00000000000E+00 0. -1.
         21   -1    0    0  501  502  0.00000000000E+00 -0.00000000000E+00 -0.83437933338E+02  0.83437933338E+02  0.00000000000E+00 0.  1.
         24    2    1    2    0    0  0.41264645687E+02  0.10303022380E+02  0.22639853582E+03  0.24442380897E+03  0.81717673205E+02 0.  0.
         23    2    1    2    0    0  0.32882624216E+02  0.89642284354E+01 -0.61535578061E+01  0.98263779360E+02  0.91958032241E+02 0.  0.
        -11    1    3    3    0    0 -0.10330988026E+02  0.33058027177E+02  0.10506502864E+03  0.11062650097E+03  0.00000000000E+00 0.  1.
         12    1    3    3    0    0  0.51595633713E+02 -0.22755004797E+02  0.12133350718E+03  0.13379730800E+03  0.00000000000E+00 0. -1.
        -13    1    4    4    0    0  0.53902565385E+02  0.37983721451E+01 -0.33354530884E+02  0.63501487514E+02  0.00000000000E+00 0.  1.
         13    1    4    4    0    0 -0.21019941170E+02  0.51658562903E+01  0.27200973077E+02  0.34762291845E+02  0.00000000000E+00 0. -1.
          1    1    1    2  501    0 -0.74147269903E+02 -0.19267250815E+02  0.43826748651E+02  0.88260005016E+02  0.00000000000E+00 0. -1.
<scales pt_clust_5="13000.00000" pt_clust_6="13000.00000" pt_clust_7="13000.00000" pt_clust_8="13000.00000" pt_clust_9="76.60969"></scales>
<clustering>
<clus scale="   76.610">  2  9  1 -1</clus>
<clus scale="   81.718">  5  6 -1 -1</clus>
<clus scale="   87.491">  1  5  2 -1</clus>
<clus scale="   91.958">  7  8 -1 -1</clus>
<clus scale="   76.610">  2  5  1 -1</clus>
</clustering>
</event>
<event>
 9    2  0.1325014E-004  0.1147776E+03  0.7546771E-02  0.1255847E+00
          4   -1    0    0  502    0 -0.00000000000E+00  0.00000000000E+00  0.20640827309E+03  0.20640827309E+03  0.00000000000E+00 0. -1.
         21   -1    0    0  501  502  0.00000000000E+00 -0.00000000000E+00 -0.12022057649E+03  0.12022057649E+03  0.00000000000E+00 0.  1.
         24    2    1    2    0    0  0.33142626553E+02  0.69648121997E+02  0.14135141885E+03  0.17933175443E+03  0.78932629140E+02 0.  0.
         23    2    1    2    0    0 -0.23024656319E+02 -0.38392303205E+02 -0.54610686622E+02  0.11443974622E+03  0.90055675437E+02 0.  0.
        -11    1    3    3    0    0 -0.18898789987E+02  0.44918158269E+02  0.41315185161E+02  0.63888572766E+02  0.00000000000E+00 0.  1.
         12    1    3    3    0    0  0.52041416540E+02  0.24729963727E+02  0.10003623369E+03  0.11544318166E+03  0.00000000000E+00 0. -1.
        -13    1    4    4    0    0 -0.39350354372E+02 -0.16279035765E+02  0.10417964284E+02  0.43840522060E+02  0.00000000000E+00 0. -1.
         13    1    4    4    0    0  0.16325698053E+02 -0.22113267440E+02 -0.65028650907E+02  0.70599224164E+02  0.00000000000E+00 0.  1.
          3    1    1    2  501    0 -0.10117970234E+02 -0.31255818792E+02 -0.55303562400E+00  0.32857348926E+02  0.00000000000E+00 0. -1.
<scales pt_clust_5="13000.00000" pt_clust_6="13000.00000" pt_clust_7="13000.00000" pt_clust_8="13000.00000" pt_clust_9="32.85269"></scales>
<clustering>
<clus scale="   32.853">  2  9  1 -1</clus>
<clus scale="   78.933">  5  6 -1 -1</clus>
<clus scale="   90.056">  7  8 -1 -1</clus>
<clus scale="  106.274">  1  5  2 -1</clus>
<clus scale="   32.853">  2  5  1 -1</clus>
</clustering>
</event>
<event>
 9    2  0.1325014E-004  0.1391399E+03  0.7546771E-02  0.1219297E+00
         21   -1    0    0  501  502  0.00000000000E+00  0.00000000000E+00  0.60366596542E+02  0.60366596542E+02  0.00000000000E+00 0.  1.
          2   -1    0    0  502    0 -0.00000000000E+00 -0.00000000000E+00 -0.92626610103E+03  0.92626610103E+03  0.00000000000E+00 0. -1.
         24    2    1    2    0    0 -0.85488931361E+02  0.54452877088E+02 -0.80132499531E+03  0.81170440029E+03  0.80428925994E+02 0.  0.
         23    2    1    2    0    0  0.45876793100E+02 -0.33461294571E+02 -0.31854150793E+02  0.11942703705E+03  0.10011888871E+03 0.  0.
        -13    1    3    3    0    0 -0.10027655241E+03  0.44096534380E+02 -0.63240292548E+03  0.64182034205E+03  0.00000000000E+00 0.  1.
         14    1    3    3    0    0  0.14787621051E+02  0.10356342708E+02 -0.16892206982E+03  0.16988405824E+03  0.00000000000E+00 0. -1.
        -13    1    4    4    0    0  0.15785802512E+02  0.25360788567E+02 -0.43064295433E+02  0.52410826160E+02  0.00000000000E+00 0. -1.
         13    1    4    4    0    0  0.30090990588E+02 -0.58822083137E+02  0.11210144640E+02  0.67016210890E+02  0.00000000000E+00 0.  1.
          1    1    1    2  501    0  0.39612138261E+02 -0.20991582518E+02 -0.32720358384E+02  0.55501260229E+02  0.00000000000E+00 0. -1.
<scales pt_clust_5="13000.00000" pt_clust_6="13000.00000" pt_clust_7="13000.00000" pt_clust_8="13000.00000" pt_clust_9="44.83044"></scales>
<clustering>
<clus scale="   44.830">  1  9  2 -1</clus>
<clus scale="   80.429">  5  6 -1 -1</clus>
<clus scale="  100.119">  7  8 -1 -1</clus>
<clus scale="  125.718">  2  5  1 -1</clus>
<clus scale="   44.830">  1  5  2 -1</clus>
</clustering>
</event>
<event>
 9    2  0.1325014E-004  0.1638076E+03  0.7546771E-02  0.1185967E+00
         21   -1    0    0  501  502  0.00000000000E+00  0.00000000000E+00  0.62854060473E+02  0.62854060473E+02  0.00000000000E+00 0.  1.
          2   -1    0    0  502    0 -0.00000000000E+00 -0.00000000000E+00 -0.58841508277E+03  0.58841508277E+03  0.00000000000E+00 0. -1.
         24    2    1    2    0    0 -0.12653135441E+03  0.10702420118E+02 -0.31193179290E+03  0.34629635446E+03  0.80591539547E+02 0.  0.
         23    2    1    2    0    0  0.15812683648E+03  0.48474781401E+01 -0.17640574952E+03  0.25373158195E+03  0.90736612011E+02 0.  0.
        -11    1    3    3    0    0 -0.99949657239E+02 -0.10228517380E+02 -0.28753807095E+03  0.30458611064E+03  0.00000000000E+00 0.  1.
         12    1    3    3    0    0 -0.26581697171E+02  0.20930937497E+02 -0.24393721951E+02  0.41710243821E+02  0.00000000000E+00 0. -1.
        -13    1    4    4    0    0  0.11891208035E+03  0.93926918357E+01 -0.65659966180E+02  0.13615996721E+03  0.00000000000E+00 0. -1.
         13    1    4    4    0    0  0.39214756130E+02 -0.45452136956E+01 -0.11074578334E+03  0.11757161474E+03  0.00000000000E+00 0.  1.
          1    1    1    2  501    0 -0.31595482067E+02 -0.15549898258E+02 -0.37223479877E+02  0.51241206827E+02  0.00000000000E+00 0. -1.
<scales pt_clust_5="13000.00000" pt_clust_6="13000.00000" pt_clust_7="13000.00000" pt_clust_8="13000.00000" pt_clust_9="35.21468"></scales>
<clustering>
<clus scale="   35.215">  1  9  2 -1</clus>
<clus scale="   80.592">  5  6 -1 -1</clus>
<clus scale="   90.737">  7  8 -1 -1</clus>
<clus scale="  158.413">  2  5  1 -1</clus>
<clus scale="   35.215">  1  5  2 -1</clus>
</clustering>
</event>
<event>
 9    2  0.1325014E-004  0.9524077E+02  0.7546771E-02  0.1297236E+00
         21   -1    0    0  501  502  0.00000000000E+00  0.00000000000E+00  0.68428211944E+03  0.68428211944E+03  0.00000000000E+00 0. -1.
         -3   -1    0    0    0  501 -0.00000000000E+00 -0.00000000000E+00 -0.57405153559E+02  0.57405153559E+02  0.00000000000E+00 0.  1.
         24    2    1    2    0    0  0.19884478477E+01 -0.30582421567E+02 -0.19552733567E+01  0.86007224431E+02  0.80337918362E+02 0.  0.
         23    2    1    2    0    0 -0.44835329619E+02 -0.33531680396E+02  0.39999289219E+03  0.41419729534E+03  0.91817783105E+02 0.  0.
        -11    1    3    3    0    0 -0.80007805742E+00 -0.54043153317E+02 -0.18541042737E+02  0.57140815633E+02  0.00000000000E+00 0.  1.
         12    1    3    3    0    0  0.27885259052E+01  0.23460731750E+02  0.16585769380E+02  0.28866408798E+02  0.00000000000E+00 0. -1.
        -13    1    4    4    0    0  0.26662713222E+02  0.53025658873E+00  0.72049677908E+02  0.76826672029E+02  0.00000000000E+00 0.  1.
         13    1    4    4    0    0 -0.71498042842E+02 -0.34061936984E+02  0.32794321428E+03  0.33737062331E+03  0.00000000000E+00 0. -1.
         -4    1    1    2    0  502  0.42846881772E+02  0.64114101963E+02  0.22883934705E+03  0.24148275323E+03  0.00000000000E+00 0.  1.
<scales pt_clust_5="13000.00000" pt_clust_6="13000.00000" pt_clust_7="13000.00000" pt_clust_8="13000.00000" pt_clust_9="77.11338"></scales>
<clustering>
<clus scale="   77.113">  1  9  2 -1</clus>
<clus scale="   80.338">  5  6 -1 -1</clus>
<clus scale="   84.229">  2  5  1 -1</clus>
<clus scale="   91.818">  7  8 -1 -1</clus>
<clus scale="   77.113">  1  5  2 -1</clus>
</clustering>
</event>
<event>
 9    2  0.1325014E-004  0.1061361E+03  0.7546771E-02  0.1273813E+00
          2   -1    0    0  502    0 -0.00000000000E+00  0.00000000000E+00  0.27715931218E+03  0.27715931218E+03  0.00000000000E+00 0. -1.
         21   -1    0    0  501  502  0.00000000000E+00 -0.00000000000E+00 -0.88969368227E+02  0.88969368227E+02  0.00000000000E+00 0. -1.
         23    2    1    2    0    0 -0.39932663956E+02 -0.55071157280E+02  0.18741614196E+03  0.22000502052E+03  0.93005100773E+02 0.  0.
         24    2    1    2    0    0  0.23847813537E+02  0.65551285375E+01  0.28263298523E+02  0.88087465340E+02  0.79679982341E+02 0.  0.
        -13    1    4    4    0    0  0.49180952732E+02  0.21704394279E+02  0.15657249466E+02  0.55991037707E+02  0.00000000000E+00 0.  1.
         14    1    4    4    0    0 -0.25333139195E+02 -0.15149265741E+02  0.12606049058E+02  0.32096427633E+02  0.00000000000E+00 0. -1.
        -11    1    3    3    0    0 -0.33567483147E+02  0.53981203011E+01  0.14961095445E+02  0.37144986263E+02  0.00000000000E+00 0.  1.
         11    1    3    3    0    0 -0.63651808096E+01 -0.60469277581E+02  0.17245504652E+03  0.18286003426E+03  0.00000000000E+00 0. -1.
          1    1    1    2  501    0  0.16084850419E+02  0.48516028742E+02 -0.27489496535E+02  0.58036194548E+02  0.00000000000E+00 0. -1.
<scales pt_clust_5="13000.00000" pt_clust_6="13000.00000" pt_clust_7="13000.00000" pt_clust_8="13000.00000" pt_clust_9="51.11289"></scales>
<clustering>
<clus scale="   51.113">  2  9  1 -1</clus>
<clus scale="   79.680">  5  6 -1 -1</clus>
<clus scale="   93.005">  7  8 -1 -1</clus>
<clus scale="   94.677">  2  5  1 -1</clus>
<clus scale="   51.113">  2  5  1 -1</clus>
</clustering>
</event>
<event>
 9    2  0.1325014E-004  0.1041957E+03  0.7546771E-02  0.1276639E+00
         21   -1    0    0  501  502  0.00000000000E+00  0.00000000000E+00  0.29653594301E+02  0.29653594301E+02  0.00000000000E+00 0. -1.
         -3   -1    0    0    0  501 -0.00000000000E+00 -0.00000000000E+00 -0.75542156353E+03  0.75542156353E+03  0.00000000000E+00 0.  1.
         23    2    1    2    0    0 -0.19843989163E+02 -0.10750451158E+02 -0.24214353678E+03  0.25990197001E+03  0.91685252377E+02 0.  0.
         24    2    1    2    0    0  0.76026228713E+02 -0.41219164335E+02 -0.36751987077E+03  0.38611365302E+03  0.80832485314E+02 0.  0.
        -11    1    4    4    0    0  0.50232431311E+02 -0.40233225003E+02 -0.34760197216E+03  0.35350974611E+03  0.00000000000E+00 0.  1.
         12    1    4    4    0    0  0.25793797401E+02 -0.98593933166E+00 -0.19917898608E+02  0.32603906909E+02  0.00000000000E+00 0. -1.
        -11    1    3    3    0    0  0.71741150864E+01  0.37070979916E+02 -0.12386457767E+03  0.12949192670E+03  0.00000000000E+00 0.  1.
         11    1    3    3    0    0 -0.27018104249E+02 -0.47821431074E+02 -0.11827895912E+03  0.13041004331E+03  0.00000000000E+00 0. -1.
         -4    1    1    2    0  502 -0.56182239550E+02  0.51969615493E+02 -0.11610456168E+03  0.13905953480E+03  0.00000000000E+00 0.  1.
<scales pt_clust_5="13000.00000" pt_clust_6="13000.00000" pt_clust_7="13000.00000" pt_clust_8="13000.00000" pt_clust_9="76.53290"></scales>
<clustering>
<clus scale="   76.533">  1  9  2 -1</clus>
<clus scale="   80.832">  5  6 -1 -1</clus>
<clus scale="   91.685">  7  8 -1 -1</clus>
<clus scale="   94.786">  1  5  2 -1</clus>
<clus scale="   76.533">  1  5  2 -1</clus>
</clustering>
</event>
<event>
 9    2  0.1325014E-004  0.1323228E+03  0.7546771E-02  0.1227522E+00
         21   -1    0    0  501  502  0.00000000000E+00  0.00000000000E+00  0.42753277984E+02  0.42753277984E+02  0.00000000000E+00 0. -1.
          2   -1    0    0  502    0 -0.00000000000E+00 -0.00000000000E+00 -0.50869404550E+03  0.50869404550E+03  0.00000000000E+00 0. -1.
         23    2    1    2    0    0 -0.81718249523E+02  0.66952589471E+02 -0.28709456236E+03  0.32000137471E+03  0.93899257368E+02 0.  0.
         24    2    1    2    0    0  0.48150522961E+02 -0.62037079215E+02 -0.12814854955E+03  0.17044425379E+03  0.80387317653E+02 0.  0.
        -13    1    4    4    0    0  0.20147361734E+02  0.15187719332E+02 -0.54752168468E+02  0.60285843739E+02  0.00000000000E+00 0.  1.
         14    1    4    4    0    0  0.28003161227E+02 -0.77224798547E+02 -0.73396381087E+02  0.11015841006E+03  0.00000000000E+00 0. -1.
        -13    1    3    3    0    0 -0.51692192047E+02 -0.19278253963E+01 -0.19176075043E+03  0.19861516718E+03  0.00000000000E+00 0. -1.
         13    1    3    3    0    0 -0.30026057477E+02  0.68880414868E+02 -0.95333811938E+02  0.12138620753E+03  0.00000000000E+00 0.  1.
          1    1    1    2  501    0  0.33567726562E+02 -0.49155102563E+01 -0.50697655599E+02  0.61001694984E+02  0.00000000000E+00 0. -1.
<scales pt_clust_5="13000.00000" pt_clust_6="13000.00000" pt_clust_7="13000.00000" pt_clust_8="13000.00000" pt_clust_9="33.92572"></scales>
<clustering>
<clus scale="   33.926">  1  9  2 -1</clus>
<clus scale="   80.387">  5  6 -1 -1</clus>
<clus scale="   93.899">  7  8 -1 -1</clus>
<clus scale="  123.103">  1  5  2 -1</clus>
<clus scale="   33.926">  1  5  2 -1</clus>
</clustering>
</event>
<event>
 9    2  0.1325014E-004  0.9494767E+02  0.7546771E-02  0.1297098E+00
         21   -1    0    0  501  502  0.00000000000E+00  0.00000000000E+00  0.67380898735E+03  0.67380898735E+03  0.00000000000E+00 0. -1.
          2   -1    0    0  502    0 -0.00000000000E+00 -0.00000000000E+00 -0.44240579251E+02  0.44240579251E+02  0.00000000000E+00 0. -1.
         24    2    1    2    0    0  0.14331989317E+02  0.61236279116E+00  0.12831464651E+02  0.85722758541E+02  0.83534208207E+02 0.  0.
         23    2    1    2    0    0 -0.35431753078E+02 -0.26797131638E+02  0.40873042250E+03  0.42161953503E+03  0.93429003272E+02 0.  0.
        -11    1    3    3    0    0 -0.21338621207E+02  0.31133672185E+02  0.74056276441E+01  0.38464082200E+02  0.00000000000E+00 0.  1.
         12    1    3    3    0    0  0.35670610524E+02 -0.30521309394E+02  0.54258370071E+01  0.47258676341E+02  0.00000000000E+00 0. -1.
        -13    1    4    4    0    0  0.14063229738E+02  0.26926119734E+02  0.12454502110E+03  0.12819614907E+03  0.00000000000E+00 0.  1.
         13    1    4    4    0    0 -0.49494982817E+02 -0.53723251373E+02  0.28418540139E+03  0.29342338596E+03  0.00000000000E+00 0. -1.
          1    1    1    2  501    0  0.21099763761E+02  0.26184768847E+02  0.20800652095E+03  0.21070727303E+03  0.00000000000E+00 0. -1.
<scales pt_clust_5="13000.00000" pt_clust_6="13000.00000" pt_clust_7="13000.00000" pt_clust_8="13000.00000" pt_clust_9="33.62800"></scales>
<clustering>
<clus scale="   33.628">  1  9  2 -1</clus>
<clus scale="   83.534">  5  6 -1 -1</clus>
<clus scale="   85.229">  2  5  1 -1</clus>
<clus scale="   93.429">  7  8 -1 -1</clus>
<clus scale="   33.628">  1  5  2 -1</clus>
</clustering>
</event>
<event>
 9    2  0.1325014E-004  0.1249520E+03  0.7546771E-02  0.1241227E+00
          2   -1    0    0  502    0 -0.00000000000E+00  0.00000000000E+00  0.12675036866E+04  0.12675036866E+04  0.00000000000E+00 0. -1.
         21   -1    0    0  501  502  0.00000000000E+00 -0.00000000000E+00 -0.22668444279E+02  0.22668444279E+02  0.00000000000E+00 0. -1.
         24    2    1    2    0    0 -0.66090030413E+02  0.47048109225E+02  0.94272238989E+03  0.94950508587E+03  0.79075830681E+02 0.  0.
         23    2    1    2    0    0  0.64798178677E+02 -0.82564354658E+01  0.21503457837E+03  0.24533033304E+03  0.98387650294E+02 0.  0.
        -11    1    3    3    0    0 -0.29357354706E+02  0.24433486706E+02  0.12642239854E+03  0.13206616675E+03  0.00000000000E+00 0.  1.
         12    1    3    3    0    0 -0.36732675707E+02  0.22614622518E+02  0.81629999135E+03  0.81743891912E+03  0.00000000000E+00 0. -1.
        -11    1    4    4    0    0  0.60385184081E+01 -0.40729176020E+02  0.13354064160E+03  0.13974416784E+03  0.00000000000E+00 0.  1.
         11    1    4    4    0    0  0.58759660268E+02  0.32472740554E+02  0.81493936764E+02  0.10558616521E+03  0.00000000000E+00 0. -1.
          1    1    1    2  501    0  0.12918517361E+01 -0.38791673759E+02  0.87078274052E+02  0.95336711952E+02  0.00000000000E+00 0. -1.
<scales pt_clust_5="13000.00000" pt_clust_6="13000.00000" pt_clust_7="13000.00000" pt_clust_8="13000.00000" pt_clust_9="38.81318"></scales>
<clustering>
<clus scale="   38.813">  2  9  1 -1</clus>
<clus scale="   79.076">  5  6 -1 -1</clus>
<clus scale="   98.388">  7  8 -1 -1</clus>
<clus scale="  110.390">  1  5  2 -1</clus>
<clus scale="   38.813">  2  5  1 -1</clus>
</clustering>
</event>
<event>
 9    2  0.1325014E-004  0.1421604E+03  0.7546771E-02  0.1218850E+00
         21   -1    0    0  501  502  0.00000000000E+00  0.00000000000E+00  0.14361104502E+03  0.14361104502E+03  0.00000000000E+00 0. -1.
          2   -1    0    0  502    0 -0.00000000000E+00 -0.00000000000E+00 -0.15485574096E+04  0.15485574096E+04  0.00000000000E+00 0. -1.
         24    2    1    2    0    0 -0.86811382839E+02 -0.10883128571E+02  0.43629796878E+02  0.12673381631E+03  0.80642683140E+02 0.  0.
         23    2    1    2    0    0 -0.68952479813E+02  0.93276695921E+02 -0.39476894727E+02  0.14536005422E+03  0.78205713801E+02 0.  0.
        -11    1    3    3    0    0 -0.93879655156E+02 -0.29236048817E+02  0.29985190593E+02  0.10279711989E+03  0.00000000000E+00 0.  1.
         12    1    3    3    0    0  0.70682723163E+01  0.18352920246E+02  0.13644606285E+02  0.23936696426E+02  0.00000000000E+00 0. -1.
        -13    1    4    4    0    0 -0.33569492793E+02  0.51114127367E+02 -0.60892344123E+02  0.86298565664E+02  0.00000000000E+00 0.  1.
         13    1    4    4    0    0 -0.35382987020E+02  0.42162568555E+02  0.21415449396E+02  0.59061488556E+02  0.00000000000E+00 0. -1.
          1    1    1    2  501    0  0.15576386265E+03 -0.82393567351E+02 -0.14090992667E+04  0.14200745841E+04  0.00000000000E+00 0. -1.
<scales pt_clust_5="13000.00000" pt_clust_6="13000.00000" pt_clust_7="13000.00000" pt_clust_8="13000.00000" pt_clust_9="118.71586"></scales>
<clustering>
<clus scale="   78.206">  7  8 -1 -1</clus>
<clus scale="   80.643">  5  6 -1 -1</clus>
<clus scale="  118.987">  2  5  1 -1</clus>
<clus scale="  118.716">  1  9  2 -1</clus>
<clus scale="  118.716">  1  5  2 -1</clus>
</clustering>
</event>
<event>
 9    2  0.1325014E-004  0.2497351E+03  0.7546771E-02  0.1113674E+00
          2   -1    0    0  502    0 -0.00000000000E+00  0.00000000000E+00  0.10285479111E+04  0.10285479111E+04  0.00000000000E+00 0. -1.
         21   -1    0    0  501  502  0.00000000000E+00 -0.00000000000E+00 -0.14512515080E+03  0.14512515080E+03  0.00000000000E+00 0. -1.
         24    2    1    2    0    0  0.55204270819E+01  0.24682536493E+03  0.80946200430E+03  0.85028262801E+03  0.82453472944E+02 0.  0.
         23    2    1    2    0    0  0.20408175386E+01 -0.19693072906E+03  0.12739314433E+03  0.24989439835E+03  0.86210904893E+02 0.  0.
        -13    1    3    3    0    0  0.34600093006E+02  0.70087698754E+02  0.30904762557E+03  0.31877874274E+03  0.00000000000E+00 0.  1.
         14    1    3    3    0    0 -0.29079665924E+02  0.17673766618E+03  0.50041437872E+03  0.53150388526E+03  0.00000000000E+00 0. -1.
        -11    1    4    4    0    0 -0.31206222440E+02 -0.13792855646E+03  0.57752226576E+02  0.15275285490E+03  0.00000000000E+00 0.  1.
         11    1    4    4    0    0  0.33247039979E+02 -0.59002172599E+02  0.69640917753E+02  0.97141543452E+02  0.00000000000E+00 0. -1.
          1    1    1    2  501    0 -0.75612446205E+01 -0.49894635875E+02 -0.53432388361E+02  0.73496035507E+02  0.00000000000E+00 0. -1.
<scales pt_clust_5="13000.00000" pt_clust_6="13000.00000" pt_clust_7="13000.00000" pt_clust_8="13000.00000" pt_clust_9="50.46432"></scales>
<clustering>
<clus scale="   50.464">  2  9  1 -1</clus>
<clus scale="   82.453">  5  6 -1 -1</clus>
<clus scale="   86.211">  7  8 -1 -1</clus>
<clus scale="  248.463">  1  5  2 -1</clus>
<clus scale="   50.464">  2  5  1 -1</clus>
</clustering>
</event>
<event>
 9    2  0.1325014E-004  0.1942121E+03  0.7546771E-02  0.1155880E+00
         21   -1    0    0  501  502  0.00000000000E+00  0.00000000000E+00  0.89001631554E+03  0.89001631554E+03  0.00000000000E+00 0.  1.
          4   -1    0    0  502    0 -0.00000000000E+00 -0.00000000000E+00 -0.15523901349E+03  0.15523901349E+03  0.00000000000E+00 0. -1.
         24    2    1    2    0    0 -0.64073091419E+02  0.15378528763E+03 -0.63246893727E+02  0.19551202699E+03  0.80433248082E+02 0.  0.
         23    2    1    2    0    0  0.10690805202E+03 -0.18110368832E+03  0.54014496582E+03  0.58690718179E+03  0.92062904746E+02 0.  0.
        -11    1    3    3    0    0  0.66517692841E+01  0.66998598147E+02 -0.47631653122E+02  0.82473223335E+02  0.00000000000E+00 0.  1.
         12    1    3    3    0    0 -0.70724860703E+02  0.86786689484E+02 -0.15615240606E+02  0.11303880366E+03  0.00000000000E+00 0. -1.
        -11    1    4    4    0    0  0.11709966498E+03 -0.15235490972E+03  0.50526873514E+03  0.54057455061E+03  0.00000000000E+00 0.  1.
         11    1    4    4    0    0 -0.10191612968E+02 -0.28748778604E+02  0.34876230678E+02  0.46332631184E+02  0.00000000000E+00 0. -1.
          3    1    1    2  501    0 -0.42834960596E+02  0.27318400688E+02  0.25787922996E+03  0.26283612025E+03  0.00000000000E+00 0. -1.
<scales pt_clust_5="13000.00000" pt_clust_6="13000.00000" pt_clust_7="13000.00000" pt_clust_8="13000.00000" pt_clust_9="50.80481"></scales>
<clustering>
<clus scale="   50.805">  1  9  2 -1</clus>
<clus scale="   80.433">  5  6 -1 -1</clus>
<clus scale="   92.063">  7  8 -1 -1</clus>
<clus scale="  188.977">  2  5  1 -1</clus>
<clus scale="   50.805">  1  5  2 -1</clus>
</clustering>
</event>
<event>
 9    2  0.1325014E-004  0.1799321E+03  0.7546771E-02  0.1173318E+00
          2   -1    0    0  502    0 -0.00000000000E+00  0.00000000000E+00  0.13907114130E+04  0.13907114130E+04  0.00000000000E+00 0. -1.
         21   -1    0    0  501  502  0.00000000000E+00 -0.00000000000E+00 -0.49522520411E+02  0.49522520411E+02  0.00000000000E+00 0.  1.
         23    2    1    2    0    0 -0.74481231946E+02 -0.10375809034E+03  0.41199239541E+03  0.44156163200E+03  0.94476165035E+02 0.  0.
         24    2    1    2    0    0 -0.11593623231E+03  0.96713143877E+02  0.52561963428E+03  0.55237338113E+03  0.77754164438E+02 0.  0.
        -13    1    4    4    0    0 -0.98241703121E+02  0.88618348038E+02  0.32624922962E+03  0.35205568263E+03  0.00000000000E+00 0.  1.
         14    1    4    4    0    0 -0.17694529189E+02  0.80947958391E+01  0.19937040465E+03  0.20031769851E+03  0.00000000000E+00 0. -1.
        -11    1    3    3    0    0 -0.31586826513E+02  0.94100136213E+01  0.50101748085E+02  0.59970502138E+02  0.00000000000E+00 0. -1.
         11    1    3    3    0    0 -0.42894405433E+02 -0.11316810396E+03  0.36189064733E+03  0.38159112987E+03  0.00000000000E+00 0.  1.
          1    1    1    2  501    0  0.19041746426E+03  0.70449464617E+01  0.40357686289E+03  0.44629892026E+03  0.00000000000E+00 0. -1.
<scales pt_clust_5="13000.00000" pt_clust_6="13000.00000" pt_clust_7="13000.00000" pt_clust_8="13000.00000" pt_clust_9="162.26479"></scales>
<clustering>
<clus scale="   77.754">  5  6 -1 -1</clus>
<clus scale="   94.476">  7  8 -1 -1</clus>
<clus scale="  158.868">  1  7  2 -1</clus>
<clus scale="  162.265">  2  9  1 -1</clus>
<clus scale="  162.265">  2  5  1 -1</clus>
</clustering>
</event>
<event>
 9    2  0.1325014E-004  0.1046213E+03  0.7546771E-02  0.1275971E+00
         -1   -1    0    0    0  501 -0.00000000000E+00  0.00000000000E+00  0.25915833025E+03  0.25915833025E+03  0.00000000000E+00 0.  1.
         21   -1    0    0  501  502  0.00000000000E+00 -0.00000000000E+00 -0.63313603487E+02  0.63313603487E+02  0.00000000000E+00 0. -1.
         24    2    1    2    0    0  0.50931256715E+02  0.27376205024E+02  0.16027953437E+03  0.18864746627E+03  0.80962262078E+02 0.  0.
         23    2    1    2    0    0 -0.23192691440E+02 -0.19838043396E+02  0.39387315124E+02  0.10482687263E+03  0.92227239639E+02 0.  0.
        -11    1    3    3    0    0  0.37807147624E+02  0.17726048339E+02  0.16616157295E+03  0.17132793563E+03  0.00000000000E+00 0.  1.
         12    1    3    3    0    0  0.13124109091E+02  0.96501566849E+01 -0.58820385894E+01  0.17319530636E+02  0.00000000000E+00 0. -1.
        -11    1    4    4    0    0 -0.44986970136E+02 -0.16992579629E+02 -0.11457053261E+02  0.49435203184E+02  0.00000000000E+00 0.  1.
         11    1    4    4    0    0  0.21794278696E+02 -0.28454637669E+01  0.50844368385E+02  0.55391669449E+02  0.00000000000E+00 0. -1.
         -2    1    1    2    0  502 -0.27738565275E+02 -0.75381616282E+01 -0.38221227246E+01  0.28997594838E+02  0.00000000000E+00 0.  1.
<scales pt_clust_5="13000.00000" pt_clust_6="13000.00000" pt_clust_7="13000.00000" pt_clust_8="13000.00000" pt_clust_9="28.74460"></scales>
<clustering>
<clus scale="   28.745">  2  9  1 -1</clus>
<clus scale="   80.962">  5  6 -1 -1</clus>
<clus scale="   92.227">  7  8 -1 -1</clus>
<clus scale="   94.840">  1  5  2 -1</clus>
<clus scale="   28.745">  2  5  1 -1</clus>
</clustering>
</event>
<event>
 9    2  0.1325014E-004  0.2388385E+03  0.7546771E-02  0.1145279E+00
         21   -1    0    0  501  502  0.00000000000E+00  0.00000000000E+00  0.57309967301E+03  0.57309967301E+03  0.00000000000E+00 0.  1.
          2   -1    0    0  502    0 -0.00000000000E+00 -0.00000000000E+00 -0.19505995804E+03  0.19505995804E+03  0.00000000000E+00 0. -1.
         24    2    1    2    0    0 -0.42973650659E+02 -0.80399614073E+02 -0.41915434890E+02  0.13714939018E+03  0.93499833955E+02 0.  0.
         23    2    1    2    0    0 -0.19007324533E+03 -0.43824268361E+01  0.12360061103E+03  0.24458448749E+03  0.91637417137E+02 0.  0.
        -13    1    3    3    0    0  0.16565511569E+02 -0.53973638791E+02  0.52860269478E+01  0.56705484203E+02  0.00000000000E+00 0.  1.
         14    1    3    3    0    0 -0.59539162228E+02 -0.26425975282E+02 -0.47201461838E+02  0.80443905973E+02  0.00000000000E+00 0. -1.
        -13    1    4    4    0    0 -0.16868006098E+03 -0.29266457521E+02  0.12461846608E+03  0.21175280540E+03  0.00000000000E+00 0.  1.
         13    1    4    4    0    0 -0.21393184348E+02  0.24884030685E+02 -0.10178550532E+01  0.32831682085E+02  0.00000000000E+00 0. -1.
          1    1    1    2  501    0  0.23304689599E+03  0.84782040909E+02  0.29635453883E+03  0.38642575338E+03  0.00000000000E+00 0. -1.
<scales pt_clust_5="13000.00000" pt_clust_6="13000.00000" pt_clust_7="13000.00000" pt_clust_8="13000.00000" pt_clust_9="220.55933"></scales>
<clustering>
<clus scale="   91.637">  7  8 -1 -1</clus>
<clus scale="   93.500">  5  6 -1 -1</clus>
<clus scale="  130.587">  2  5  1 -1</clus>
<clus scale="  220.559">  1  9  2 -1</clus>
<clus scale="  220.559">  1  5  2 -1</clus>
</clustering>
</event>
<event>
 9    2  0.1767985E-004  0.1423627E+03  0.7546771E-02  0.1227355E+00
         21   -1    0    0  501  502  0.00000000000E+00  0.00000000000E+00  0.33545490699E+03  0.33545490699E+03  0.00000000000E+00 0.  1.
         -1   -1    0    0    0  501 -0.00000000000E+00 -0.00000000000E+00 -0.30250294091E+03  0.30250294091E+03  0.00000000000E+00 0.  1.
         23    2    1    2    0    0 -0.36749078239E+02  0.12965249404E+02 -0.41313676080E+02  0.10745394093E+03  0.91219170943E+02 0.  0.
         24    2    1    2    0    0 -0.27439248916E+02  0.11022756641E+03  0.26166622716E+03  0.29723241178E+03  0.83515647625E+02 0.  0.
        -11    1    4    4    0    0  0.10134912743E+02  0.77152350494E+02  0.92824008381E+02  0.12112595996E+03  0.00000000000E+00 0.  1.
         12    1    4    4    0    0 -0.37574161659E+02  0.33075215919E+02  0.16884221878E+03  0.17610645182E+03  0.00000000000E+00 0. -1.
        -13    1    3    3    0    0  0.15836085654E+02  0.35678067518E+02 -0.29598610600E+02  0.48987588838E+02  0.00000000000E+00 0.  1.
         13    1    3    3    0    0 -0.52585163893E+02 -0.22712818114E+02 -0.11715065480E+02  0.58466352097E+02  0.00000000000E+00 0. -1.
         -2    1    1    2    0  502  0.64188327155E+02 -0.12319281582E+03 -0.18740058500E+03  0.23327149519E+03  0.00000000000E+00 0.  1.
<scales pt_clust_5="13000.00000" pt_clust_6="13000.00000" pt_clust_7="13000.00000" pt_clust_8="13000.00000" pt_clust_9="115.29225"></scales>
<clustering>
<clus scale="   83.516">  5  6 -1 -1</clus>
<clus scale="   91.219">  7  8 -1 -1</clus>
<clus scale="   99.194">  2  7  1 -1</clus>
<clus scale="  115.292">  1  9  2 -1</clus>
<clus scale="  115.292">  1  5  2 -1</clus>
</clustering>
</event>
<event>
 9    2  0.1325014E-004  0.1319302E+03  0.7546771E-02  0.1240405E+00
         -3   -1    0    0    0  501 -0.00000000000E+00  0.00000000000E+00  0.31592275992E+03  0.31592275992E+03  0.00000000000E+00 0.  1.
         21   -1    0    0  501  502  0.00000000000E+00 -0.00000000000E+00 -0.15510961341E+03  0.15510961341E+03  0.00000000000E+00 0. -1.
         24    2    1    2    0    0 -0.18863989435E+02 -0.51359790182E+02 -0.55753211650E+02  0.11046217408E+03  0.78101172518E+02 0.  0.
         23    2    1    2    0    0 -0.13312162909E+02 -0.80921092227E+02  0.23738462696E+02  0.12452754654E+03  0.90654058859E+02 0.  0.
        -13    1    3    3    0    0 -0.18636873182E+02  0.87751489326E+01  0.86558524396E+01  0.22344128138E+02  0.00000000000E+00 0.  1.
         14    1    3    3    0    0 -0.22711625315E+00 -0.60134939115E+02 -0.64409064090E+02  0.88118045944E+02  0.00000000000E+00 0. -1.
        -13    1    4    4    0    0  0.24400808782E+02 -0.80871149415E+02  0.18192053074E+02  0.86408871488E+02  0.00000000000E+00 0. -1.
         13    1    4    4    0    0 -0.37712971691E+02 -0.49942812126E-01  0.55464096219E+01  0.38118675052E+02  0.00000000000E+00 0.  1.
         -4    1    1    2    0  502  0.32176152343E+02  0.13228088241E+03  0.19282789546E+03  0.23604265271E+03  0.00000000000E+00 0.  1.
<scales pt_clust_5="13000.00000" pt_clust_6="13000.00000" pt_clust_7="13000.00000" pt_clust_8="13000.00000" pt_clust_9="95.85113"></scales>
<clustering>
<clus scale="   78.101">  5  6 -1 -1</clus>
<clus scale="   90.654">  7  8 -1 -1</clus>
<clus scale="   95.360">  1  5  2 -1</clus>
<clus scale="   95.851">  2  9  1 -1</clus>
<clus scale="   95.851">  2  5  1 -1</clus>
</clustering>
</event>
<event>
 9    2  0.1325014E-004  0.2404576E+03  0.7546771E-02  0.1148387E+00
          2   -1    0    0  502    0 -0.00000000000E+00  0.00000000000E+00  0.14495088437E+04  0.14495088437E+04  0.00000000000E+00 0. -1.
         21   -1    0    0  501  502  0.00000000000E+00 -0.00000000000E+00 -0.14218605959E+03  0.14218605959E+03  0.00000000000E+00 0. -1.
         24    2    1    2    0    0 -0.82382327090E+02 -0.21738390035E+02  0.13294379583E+03  0.17831392584E+03  0.82839591256E+02 0.  0.
         23    2    1    2    0    0  0.24728297113E+03 -0.12359368657E+03  0.11571817846E+04  0.11929056303E+04  0.86774955599E+02 0.  0.
        -13    1    3    3    0    0 -0.92956438425E+02 -0.33787333656E+02  0.95077667851E+02  0.13719419187E+03  0.00000000000E+00 0.  1.
         14    1    3    3    0    0  0.10574111335E+02  0.12048943620E+02  0.37866127984E+02  0.41119733965E+02  0.00000000000E+00 0. -1.
        -11    1    4    4    0    0  0.85383381271E+02 -0.83963849399E+02  0.57477576016E+03  0.58711789640E+03  0.00000000000E+00 0. -1.
         11    1    4    4    0    0  0.16189958986E+03 -0.39629837170E+02  0.58240602445E+03  0.60578773387E+03  0.00000000000E+00 0.  1.
          1    1    1    2  501    0 -0.16490064404E+03  0.14533207660E+03  0.17197203656E+02  0.22047534717E+03  0.00000000000E+00 0. -1.
<scales pt_clust_5="13000.00000" pt_clust_6="13000.00000" pt_clust_7="13000.00000" pt_clust_8="13000.00000" pt_clust_9="224.25421"></scales>
<clustering>
<clus scale="   82.840">  5  6 -1 -1</clus>
<clus scale="   86.775">  7  8 -1 -1</clus>
<clus scale="  118.835">  1  5  2 -1</clus>
<clus scale="  224.254">  2  9  1 -1</clus>
<clus scale="  224.254">  2  5  1 -1</clus>
</clustering>
</event>
<event>
 9    2  0.1325014E-004  0.1263586E+03  0.7546771E-02  0.1235821E+00
         -1   -1    0    0    0  501 -0.00000000000E+00  0.00000000000E+00  0.10638714006E+03  0.10638714006E+03  0.00000000000E+00 0.  1.
         21   -1    0    0  501  502  0.00000000000E+00 -0.00000000000E+00 -0.19341756107E+03  0.19341756107E+03  0.00000000000E+00 0. -1.
         24    2    1    2    0    0  0.58847716050E+02  0.78408146595E+02 -0.42159929162E+01  0.12687055132E+03  0.80420588524E+02 0.  0.
         23    2    1    2    0    0 -0.52355800938E+02 -0.54227618823E+02 -0.42323723006E+02  0.12532805690E+03  0.90741720180E+02 0.  0.
        -13    1    3    3    0    0  0.34062629545E+02 -0.41189115825E+00  0.21564399529E+02  0.40316940768E+02  0.00000000000E+00 0.  1.
         14    1    3    3    0    0  0.24785086505E+02  0.78820037753E+02 -0.25780392445E+02  0.86553610549E+02  0.00000000000E+00 0. -1.
        -13    1    4    4    0    0 -0.30247427847E+02 -0.56141188180E+02 -0.66757143660E+02  0.92321482501E+02  0.00000000000E+00 0. -1.
         13    1    4    4    0    0 -0.22108373092E+02  0.19135693573E+01  0.24433420654E+02  0.33006574395E+02  0.00000000000E+00 0.  1.
         -2    1    1    2    0  502 -0.64919151112E+01 -0.24180527772E+02 -0.40490705087E+02  0.47606092925E+02  0.00000000000E+00 0.  1.
<scales pt_clust_5="13000.00000" pt_clust_6="13000.00000" pt_clust_7="13000.00000" pt_clust_8="13000.00000" pt_clust_9="25.03683"></scales>
<clustering>
<clus scale="   25.037">  2  9  1 -1</clus>
<clus scale="   80.421">  5  6 -1 -1</clus>
<clus scale="   90.742">  7  8 -1 -1</clus>
<clus scale="  119.163">  1  5  2 -1</clus>
<clus scale="   25.037">  2  5  1 -1</clus>
</clustering>
</event>
<event>
 9    2  0.1325014E-004  0.9416870E+02  0.7546771E-02  0.1296325E+00
          2   -1    0    0  502    0 -0.00000000000E+00  0.00000000000E+00  0.21393742257E+03  0.21393742257E+03  0.00000000000E+00 0. -1.
         21   -1    0    0  501  502  0.00000000000E+00 -0.00000000000E+00 -0.77978392702E+02  0.77978392702E+02  0.00000000000E+00 0. -1.
         23    2    1    2    0    0  0.21919947292E+02  0.73131737636E+01  0.12880985608E+03  0.15930411910E+03  0.90839731053E+02 0.  0.
         24    2    1    2    0    0 -0.31542617579E+02  0.23106015207E+02  0.23821717655E+02  0.96613132874E+02  0.85075252272E+02 0.  0.
        -13    1    4    4    0    0 -0.26411859896E+02  0.87726814557E+01  0.55154094485E+02  0.61777993020E+02  0.00000000000E+00 0.  1.
         14    1    4    4    0    0 -0.51307576838E+01  0.14333333751E+02 -0.31332376830E+02  0.34835139854E+02  0.00000000000E+00 0. -1.
        -13    1    3    3    0    0 -0.29755576888E+02 -0.31227595486E+01  0.87055061001E+02  0.92052863231E+02  0.00000000000E+00 0.  1.
         13    1    3    3    0    0  0.51675524180E+02  0.10435933312E+02  0.41754795081E+02  0.67251255866E+02  0.00000000000E+00 0. -1.
          1    1    1    2  501    0  0.96226702875E+01 -0.30419188971E+02 -0.16672543866E+02  0.35998563305E+02  0.00000000000E+00 0. -1.
<scales pt_clust_5="13000.00000" pt_clust_6="13000.00000" pt_clust_7="13000.00000" pt_clust_8="13000.00000" pt_clust_9="31.90490"></scales>
<clustering>
<clus scale="   31.905">  2  9  1 -1</clus>
<clus scale="   85.075">  5  6 -1 -1</clus>
<clus scale="   88.621">  2  5  1 -1</clus>
<clus scale="   90.840">  7  8 -1 -1</clus>
<clus scale="   31.905">  2  5  1 -1</clus>
</clustering>
</event>
<event>
 9    2  0.1325014E-004  0.2446188E+03  0.7546771E-02  0.1155831E+00
          2   -1    0    0  502    0 -0.00000000000E+00  0.00000000000E+00  0.13979775004E+04  0.13979775004E+04  0.00000000000E+00 0. -1.
         21   -1    0    0  501  502  0.00000000000E+00 -0.00000000000E+00 -0.12911367302E+03  0.12911367302E+03  0.00000000000E+00 0. -1.
         24    2    1    2    0    0  0.16233575103E+02  0.22207711271E+02 -0.39272097647E+02  0.10250377084E+03  0.90598090391E+02 0.  0.
         23    2    1    2    0    0 -0.18706227978E+03  0.12896400658E+03  0.28183307496E+03  0.37323928008E+03  0.90849692049E+02 0.  0.
        -13    1    3    3    0    0 -0.12347650319E+02 -0.25495055154E+02  0.80880506971E+01  0.29459783940E+02  0.00000000000E+00 0.  1.
         14    1    3    3    0    0  0.28581225422E+02  0.47702766425E+02 -0.47360148345E+02  0.73043986901E+02  0.00000000000E+00 0. -1.
        -13    1    4    4    0    0 -0.12832049608E+03  0.13253603560E+03  0.19592568656E+03  0.26910746013E+03  0.00000000000E+00 0. -1.
         13    1    4    4    0    0 -0.58741783700E+02 -0.35720290215E+01  0.85907388400E+02  0.10413181995E+03  0.00000000000E+00 0.  1.
          1    1    1    2  501    0  0.17082870468E+03 -0.15117171785E+03  0.10263028501E+04  0.10513481225E+04  0.00000000000E+00 0. -1.
<scales pt_clust_5="13000.00000" pt_clust_6="13000.00000" pt_clust_7="13000.00000" pt_clust_8="13000.00000" pt_clust_9="227.12277"></scales>
<clustering>
<clus scale="   90.598">  5  6 -1 -1</clus>
<clus scale="   90.850">  7  8 -1 -1</clus>
<clus scale="   94.682">  1  5  2 -1</clus>
<clus scale="  227.123">  2  9  1 -1</clus>
<clus scale="  227.123">  2  5  1 -1</clus>
</clustering>
</event>
<event>
 9    2  0.1325014E-004  0.2355206E+03  0.7546771E-02  0.1123544E+00
         21   -1    0    0  501  502  0.00000000000E+00  0.00000000000E+00  0.34334764944E+03  0.34334764944E+03  0.00000000000E+00 0. -1.
          2   -1    0    0  502    0 -0.00000000000E+00 -0.00000000000E+00 -0.44528028075E+03  0.44528028075E+03  0.00000000000E+00 0. -1.
         24    2    1    2    0    0  0.12481058117E+03 -0.18908104292E+03 -0.31399744808E+03  0.39508938368E+03  0.78561451967E+02 0.  0.
         23    2    1    2    0    0 -0.13701057734E+03  0.13432353665E+03  0.44283748251E+02  0.21662695460E+03  0.90285526521E+02 0.  0.
        -11    1    3    3    0    0 -0.88284950094E+01 -0.32637320699E+02 -0.38484721065E+02  0.51227051272E+02  0.00000000000E+00 0.  1.
         12    1    3    3    0    0  0.13363907618E+03 -0.15644372222E+03 -0.27551272702E+03  0.34386233241E+03  0.00000000000E+00 0. -1.
        -13    1    4    4    0    0 -0.20546695818E+02  0.15899996213E+02  0.43337061976E+02  0.50527987584E+02  0.00000000000E+00 0.  1.
         13    1    4    4    0    0 -0.11646388152E+03  0.11842354044E+03  0.94668627512E+00  0.16609896702E+03  0.00000000000E+00 0. -1.
          1    1    1    2  501    0  0.12199996169E+02  0.54757506265E+02  0.16778106851E+03  0.17691159191E+03  0.00000000000E+00 0. -1.
<scales pt_clust_5="13000.00000" pt_clust_6="13000.00000" pt_clust_7="13000.00000" pt_clust_8="13000.00000" pt_clust_9="56.10013"></scales>
<clustering>
<clus scale="   56.100">  1  9  2 -1</clus>
<clus scale="   78.561">  5  6 -1 -1</clus>
<clus scale="   90.286">  7  8 -1 -1</clus>
<clus scale="  231.280">  2  5  1 -1</clus>
<clus scale="   56.100">  1  5  2 -1</clus>
</clustering>
</event>
<event>
 9    2  0.1325014E-004  0.1646669E+03  0.7546771E-02  0.1185234E+00
         -3   -1    0    0    0  501 -0.00000000000E+00  0.00000000000E+00  0.40981475632E+03  0.40981475632E+03  0.00000000000E+00 0.  1.
         21   -1    0    0  501  502  0.00000000000E+00 -0.00000000000E+00 -0.12533283179E+03  0.12533283179E+03  0.00000000000E+00 0.  1.
         23    2    1    2    0    0 -0.80034076522E+02  0.15062809309E+03  0.25476369092E+03  0.31987596652E+03  0.91224009521E+02 0.  0.
         24    2    1    2    0    0  0.68398172308E+02 -0.58443385300E+02  0.21179121375E+02  0.12196389922E+03  0.79578252496E+02 0.  0.
        -13    1    4    4    0    0  0.72681563988E+02 -0.17982044504E+02  0.29428252286E+02  0.80448652574E+02  0.00000000000E+00 0.  1.
         14    1    4    4    0    0 -0.42833916804E+01 -0.40461340796E+02 -0.82491309109E+01  0.41515246646E+02  0.00000000000E+00 0. -1.
        -13    1    3    3    0    0  0.75464686678E+01  0.60555325665E+02  0.12587843579E+03  0.13989023287E+03  0.00000000000E+00 0. -1.
         13    1    3    3    0    0 -0.87580545190E+02  0.90072767421E+02  0.12888525513E+03  0.17998573365E+03  0.00000000000E+00 0.  1.
         -4    1    1    2    0  502  0.11635904214E+02 -0.92184707786E+02  0.85391122333E+01  0.93307722372E+02  0.00000000000E+00 0.  1.
<scales pt_clust_5="13000.00000" pt_clust_6="13000.00000" pt_clust_7="13000.00000" pt_clust_8="13000.00000" pt_clust_9="92.91617"></scales>
<clustering>
<clus scale="   79.578">  5  6 -1 -1</clus>
<clus scale="   91.224">  7  8 -1 -1</clus>
<clus scale="   92.916">  2  9  1 -1</clus>
<clus scale="  158.512">  2  5  1 -1</clus>
<clus scale="   92.916">  2  5  1 -1</clus>
</clustering>
</event>
<event>
 9    2  0.1325014E-004  0.1102003E+03  0.7546771E-02  0.1270692E+00
         21   -1    0    0  501  502  0.00000000000E+00  0.00000000000E+00  0.36352054189E+02  0.36352054189E+02  0.00000000000E+00 0.  1.
          2   -1    0    0  502    0 -0.00000000000E+00 -0.00000000000E+00 -0.52600946061E+03  0.52600946061E+03  0.00000000000E+00 0. -1.
         23    2    1    2    0    0  0.41270455643E+02 -0.47431124841E+02 -0.25404614357E+03  0.28110676920E+03  0.10260901771E+03 0.  0.
         24    2    1    2    0    0  0.12716092674E+02  0.22114858301E+02 -0.87024166692E+02  0.12114982408E+03  0.80332486047E+02 0.  0.
        -11    1    4    4    0    0  0.12301039775E+02 -0.18796823364E+02  0.26141878107E+01  0.22615705296E+02  0.00000000000E+00 0.  1.
         12    1    4    4    0    0  0.41505289893E+00  0.40911681665E+02 -0.89638354502E+02  0.98534118779E+02  0.00000000000E+00 0. -1.
        -11    1    3    3    0    0  0.58620721547E+02 -0.11102580777E+02 -0.22133016469E+03  0.22923066569E+03  0.00000000000E+00 0. -1.
         11    1    3    3    0    0 -0.17350265904E+02 -0.36328544064E+02 -0.32715978881E+02  0.51876103505E+02  0.00000000000E+00 0.  1.
          1    1    1    2  501    0 -0.53986548317E+02  0.25316266540E+02 -0.14858709617E+03  0.16010492153E+03  0.00000000000E+00 0. -1.
<scales pt_clust_5="13000.00000" pt_clust_6="13000.00000" pt_clust_7="13000.00000" pt_clust_8="13000.00000" pt_clust_9="59.62771"></scales>
<clustering>
<clus scale="   59.628">  1  9  2 -1</clus>
<clus scale="   80.332">  5  6 -1 -1</clus>
<clus scale="   89.827">  1  5  2 -1</clus>
<clus scale="  102.609">  7  8 -1 -1</clus>
<clus scale="   59.628">  1  5  2 -1</clus>
</clustering>
</event>
<event>
 9    2  0.1325014E-004  0.1155533E+03  0.7546771E-02  0.1255712E+00
         21   -1    0    0  501  502  0.00000000000E+00  0.00000000000E+00  0.43976913622E+03  0.43976913622E+03  0.00000000000E+00 0.  1.
         -1   -1    0    0    0  501 -0.00000000000E+00 -0.00000000000E+00 -0.56678438381E+02  0.56678438381E+02  0.00000000000E+00 0.  1.
         23    2    1    2    0    0 -0.65863416991E+02 -0.54509972214E+01  0.52934007591E+02  0.12600164267E+03  0.93309708647E+02 0.  0.
         24    2    1    2    0    0  0.75965738145E+02 -0.31200234017E+02  0.30293644262E+03  0.32368792166E+03  0.79114691321E+02 0.  0.
        -11    1    4    4    0    0  0.25738802616E+02 -0.51715886971E+02  0.18629052305E+03  0.19504147740E+03  0.00000000000E+00 0.  1.
         12    1    4    4    0    0  0.50226935529E+02  0.20515652953E+02  0.11664591957E+03  0.12864644426E+03  0.00000000000E+00 0. -1.
        -13    1    3    3    0    0 -0.28358807994E+02 -0.22157411520E+02 -0.20829350304E+02  0.41581663148E+02  0.00000000000E+00 0.  1.
         13    1    3    3    0    0 -0.37504608996E+02  0.16706414299E+02  0.73763357894E+02  0.84419979522E+02  0.00000000000E+00 0. -1.
         -2    1    1    2    0  502 -0.10102321154E+02  0.36651231239E+02  0.27220247625E+02  0.46758010274E+02  0.00000000000E+00 0.  1.
<scales pt_clust_5="13000.00000" pt_clust_6="13000.00000" pt_clust_7="13000.00000" pt_clust_8="13000.00000" pt_clust_9="38.01804"></scales>
<clustering>
<clus scale="   38.018">  1  9  2 -1</clus>
<clus scale="   79.115">  5  6 -1 -1</clus>
<clus scale="   93.310">  7  8 -1 -1</clus>
<clus scale="  104.427">  1  5  2 -1</clus>
<clus scale="   38.018">  1  5  2 -1</clus>
</clustering>
</event>
<event>
 9    2  0.1325014E-004  0.9616172E+02  0.7546771E-02  0.1295255E+00
         21   -1    0    0  501  502  0.00000000000E+00  0.00000000000E+00  0.50151920387E+02  0.50151920387E+02  0.00000000000E+00 0.  1.
          2   -1    0    0  502    0 -0.00000000000E+00 -0.00000000000E+00 -0.29919499429E+03  0.29919499429E+03  0.00000000000E+00 0. -1.
         24    2    1    2    0    0  0.64770324758E+01 -0.34856921058E+02 -0.18172938230E+03  0.20172444413E+03  0.80063887447E+02 0.  0.
         23    2    1    2    0    0  0.42160577826E+01  0.41249283899E+01 -0.27354643936E+02  0.96090703227E+02  0.91925820771E+02 0.  0.
        -11    1    3    3    0    0 -0.25297872244E+02 -0.41792158346E+02 -0.70025664687E+02  0.85382437036E+02  0.00000000000E+00 0.  1.
         12    1    3    3    0    0  0.31774904720E+02  0.69352372872E+01 -0.11170371762E+03  0.11634200710E+03  0.00000000000E+00 0. -1.
        -11    1    4    4    0    0  0.39636598331E+02  0.28489959762E+02 -0.10607979748E+02  0.49952647266E+02  0.00000000000E+00 0.  1.
         11    1    4    4    0    0 -0.35420540548E+02 -0.24365031372E+02 -0.16746664188E+02  0.46138055962E+02  0.00000000000E+00 0. -1.
          1    1    1    2  501    0 -0.10693090258E+02  0.30731992668E+02 -0.39959047661E+02  0.51531767315E+02  0.00000000000E+00 0. -1.
<scales pt_clust_5="13000.00000" pt_clust_6="13000.00000" pt_clust_7="13000.00000" pt_clust_8="13000.00000" pt_clust_9="32.53919"></scales>
<clustering>
<clus scale="   32.539">  1  9  2 -1</clus>
<clus scale="   80.064">  5  6 -1 -1</clus>
<clus scale="   84.894">  2  5  1 -1</clus>
<clus scale="   91.926">  7  8 -1 -1</clus>
<clus scale="   32.539">  1  5  2 -1</clus>
</clustering>
</event>
<event>
 9    2  0.1325014E-004  0.1047190E+03  0.7546771E-02  0.1276158E+00
         21   -1    0    0  501  502  0.00000000000E+00  0.00000000000E+00  0.18409091890E+03  0.18409091890E+03  0.00000000000E+00 0.  1.
          2   -1    0    0  502    0 -0.00000000000E+00 -0.00000000000E+00 -0.95843934731E+02  0.95843934731E+02  0.00000000000E+00 0. -1.
         23    2    1    2    0    0  0.64854036804E+02  0.53096768842E+01  0.14004094543E+01  0.11015768193E+03  0.88873589904E+02 0.  0.
         24    2    1    2    0    0 -0.43174932347E+02 -0.21649852445E+02  0.13109072989E+02  0.91201068032E+02  0.76243007033E+02 0.  0.
        -11    1    4    4    0    0 -0.23915184675E+02 -0.38978921307E+02  0.34756401397E+02  0.57439531704E+02  0.00000000000E+00 0.  1.
         12    1    4    4    0    0 -0.19259747672E+02  0.17329068863E+02 -0.21647328408E+02  0.33761536328E+02  0.00000000000E+00 0. -1.
        -11    1    3    3    0    0  0.16713177507E+02  0.29319969474E+02  0.33467104595E+02  0.47529338333E+02  0.00000000000E+00 0.  1.
         11    1    3    3    0    0  0.48140859297E+02 -0.24010292590E+02 -0.32066695141E+02  0.62628343594E+02  0.00000000000E+00 0. -1.
          1    1    1    2  501    0 -0.21679104457E+02  0.16340175560E+02  0.73737501727E+02  0.78576103672E+02  0.00000000000E+00 0. -1.
<scales pt_clust_5="13000.00000" pt_clust_6="13000.00000" pt_clust_7="13000.00000" pt_clust_8="13000.00000" pt_clust_9="27.14747"></scales>
<clustering>
<clus scale="   27.147">  1  9  2 -1</clus>
<clus scale="   76.243">  5  6 -1 -1</clus>
<clus scale="   88.874">  7  8 -1 -1</clus>
<clus scale="   94.237">  1  5  2 -1</clus>
<clus scale="   27.147">  1  5  2 -1</clus>
</clustering>
</event>
<event>
 9    2  0.1325014E-004  0.1618625E+03  0.7546771E-02  0.1212779E+00
          4   -1    0    0  502    0 -0.00000000000E+00  0.00000000000E+00  0.60399526303E+02  0.60399526303E+02  0.00000000000E+00 0. -1.
         21   -1    0    0  501  502  0.00000000000E+00 -0.00000000000E+00 -0.10705166405E+04  0.10705166405E+04  0.00000000000E+00 0. -1.
         23    2    1    2    0    0 -0.35591255666E+01  0.77515811465E+01 -0.20939253493E+03  0.22857274446E+03  0.91255199535E+02 0.  0.
         24    2    1    2    0    0 -0.49139268963E+02  0.12074269955E+03 -0.93369313016E+02  0.18148326000E+03  0.84999281158E+02 0.  0.
        -13    1    4    4    0    0  0.10665450740E+02  0.27654590797E+02 -0.58321981949E+02  0.65421569914E+02  0.00000000000E+00 0.  1.
         14    1    4    4    0    0 -0.59804719703E+02  0.93088108753E+02 -0.35047331068E+02  0.11606169008E+03  0.00000000000E+00 0. -1.
        -11    1    3    3    0    0  0.13434374642E+02  0.33565696774E+02 -0.18685961871E+03  0.19032513110E+03  0.00000000000E+00 0. -1.
         11    1    3    3    0    0 -0.16993500209E+02 -0.25814115627E+02 -0.22532916219E+02  0.38247613367E+02  0.00000000000E+00 0.  1.
          3    1    1    2  501    0  0.52698394530E+02 -0.12849428070E+03 -0.70735526625E+03  0.72086016234E+03  0.00000000000E+00 0. -1.
<scales pt_clust_5="13000.00000" pt_clust_6="13000.00000" pt_clust_7="13000.00000" pt_clust_8="13000.00000" pt_clust_9="137.74829"></scales>
<clustering>
<clus scale="   84.999">  5  6 -1 -1</clus>
<clus scale="   91.255">  7  8 -1 -1</clus>
<clus scale="   91.653">  1  7  2 -1</clus>
<clus scale="  137.748">  2  9  1 -1</clus>
<clus scale="  137.748">  2  5  1 -1</clus>
</clustering>
</event>
<event>
 9    2  0.1325014E-004  0.1316890E+03  0.7546771E-02  0.1245330E+00
         21   -1    0    0  501  502  0.00000000000E+00  0.00000000000E+00  0.15400725557E+03  0.15400725557E+03  0.00000000000E+00 0.  1.
          2   -1    0    0  502    0 -0.00000000000E+00 -0.00000000000E+00 -0.67437534335E+03  0.67437534335E+03  0.00000000000E+00 0. -1.
         24    2    1    2    0    0  0.31892251462E+02  0.21619215492E+02 -0.43549767582E+03  0.44406349034E+03  0.77779506476E+02 0.  0.
         23    2    1    2    0    0  0.79604015659E+02 -0.46557154092E+02  0.10203015565E+03  0.16526400012E+03  0.91638797286E+02 0.  0.
        -11    1    3    3    0    0 -0.45267771375E+01 -0.26257776338E+02 -0.13363017319E+03  0.13626072697E+03  0.00000000000E+00 0.  1.
         12    1    3    3    0    0  0.36419028600E+02  0.47876991829E+02 -0.30186750263E+03  0.30780276336E+03  0.00000000000E+00 0. -1.
        -11    1    4    4    0    0  0.69999982975E+02  0.91152330014E+01  0.39103714530E+02  0.80698113852E+02  0.00000000000E+00 0.  1.
         11    1    4    4    0    0  0.96040326837E+01 -0.55672387093E+02  0.62926441123E+02  0.84565886272E+02  0.00000000000E+00 0. -1.
          1    1    1    2  501    0 -0.11149626712E+03  0.24937938600E+02 -0.18690056762E+03  0.21905510845E+03  0.00000000000E+00 0. -1.
<scales pt_clust_5="13000.00000" pt_clust_6="13000.00000" pt_clust_7="13000.00000" pt_clust_8="13000.00000" pt_clust_9="94.57454"></scales>
<clustering>
<clus scale="   77.780">  5  6 -1 -1</clus>
<clus scale="   86.800">  2  5  1 -1</clus>
<clus scale="   91.639">  7  8 -1 -1</clus>
<clus scale="   94.575">  1  9  2 -1</clus>
<clus scale="   94.575">  1  5  2 -1</clus>
</clustering>
</event>
<event>
 9    2  0.1325014E-004  0.1083716E+03  0.7546771E-02  0.1263850E+00
         21   -1    0    0  501  502  0.00000000000E+00  0.00000000000E+00  0.26173742557E+02  0.26173742557E+02  0.00000000000E+00 0.  1.
          2   -1    0    0  502    0 -0.00000000000E+00 -0.00000000000E+00 -0.92624799255E+03  0.92624799255E+03  0.00000000000E+00 0. -1.
         24    2    1    2    0    0  0.58543565637E+02  0.52444674763E+02 -0.69507352020E+03  0.70409216710E+03  0.80254521996E+02 0.  0.
         23    2    1    2    0    0 -0.22589416407E+02 -0.56364955387E+02 -0.17378362532E+03  0.20055324480E+03  0.79583702117E+02 0.  0.
        -13    1    3    3    0    0  0.65783191890E+02  0.51761444220E+02 -0.38772908622E+03  0.39666171953E+03  0.00000000000E+00 0.  1.
         14    1    3    3    0    0 -0.72396262535E+01  0.68323054243E+00 -0.30734443398E+03  0.30743044757E+03  0.00000000000E+00 0. -1.
        -13    1    4    4    0    0  0.22504926231E+02 -0.44574535441E+02 -0.11616523158E+03  0.12644256381E+03  0.00000000000E+00 0.  1.
         13    1    4    4    0    0 -0.45094342638E+02 -0.11790419946E+02 -0.57618393739E+02  0.74110680994E+02  0.00000000000E+00 0. -1.
          1    1    1    2  501    0 -0.35954149230E+02  0.39202806247E+01 -0.31217104473E+02  0.47776323202E+02  0.00000000000E+00 0. -1.
<scales pt_clust_5="13000.00000" pt_clust_6="13000.00000" pt_clust_7="13000.00000" pt_clust_8="13000.00000" pt_clust_9="36.16724"></scales>
<clustering>
<clus scale="   36.167">  1  9  2 -1</clus>
<clus scale="   79.584">  7  8 -1 -1</clus>
<clus scale="   80.255">  5  6 -1 -1</clus>
<clus scale="  107.876">  1  7  2 -1</clus>
<clus scale="   36.167">  1  5  2 -1</clus>
</clustering>
</event>
<event>
 9    2  0.1325014E-004  0.1496727E+03  0.7546771E-02  0.1202337E+00
         21   -1    0    0  501  502  0.00000000000E+00  0.00000000000E+00  0.89379557416E+03  0.89379557416E+03  0.00000000000E+00 0.  1.
          2   -1    0    0  502    0 -0.00000000000E+00 -0.00000000000E+00 -0.49457850440E+02  0.49457850440E+02  0.00000000000E+00 0. -1.
         23    2    1    2    0    0 -0.10105425488E+03  0.36870051105E+02  0.33245997179E+03  0.36017311305E+03  0.87313661150E+02 0.  0.
         24    2    1    2    0    0  0.13111744404E+03 -0.57734034080E+02  0.52039061979E+03  0.54550944455E+03  0.79051591380E+02 0.  0.
        -13    1    4    4    0    0  0.94941522700E+02 -0.22342848861E+01  0.35111937941E+03  0.36373576035E+03  0.00000000000E+00 0.  1.
         14    1    4    4    0    0  0.36175921338E+02 -0.55499749194E+02  0.16927124039E+03  0.18177368420E+03  0.00000000000E+00 0. -1.
        -13    1    3    3    0    0 -0.59726942488E+02 -0.14192205062E+02  0.23319437202E+03  0.24113967215E+03  0.00000000000E+00 0.  1.
         13    1    3    3    0    0 -0.41327312395E+02  0.51062256167E+02  0.99265599774E+02  0.11903344090E+03  0.00000000000E+00 0. -1.
          1    1    1    2  501    0 -0.30063189155E+02  0.20863982975E+02 -0.85128678662E+01  0.37570866999E+02  0.00000000000E+00 0. -1.
<scales pt_clust_5="13000.00000" pt_clust_6="13000.00000" pt_clust_7="13000.00000" pt_clust_8="13000.00000" pt_clust_9="36.59375"></scales>
<clustering>
<clus scale="   36.594">  1  9  2 -1</clus>
<clus scale="   79.052">  5  6 -1 -1</clus>
<clus scale="   87.314">  7  8 -1 -1</clus>
<clus scale="  145.008">  1  5  2 -1</clus>
<clus scale="   36.594">  1  5  2 -1</clus>
</clustering>
</event>
<event>
 9    2  0.1325014E-004  0.1457553E+03  0.7546771E-02  0.1234057E+00
         21   -1    0    0  501  502  0.00000000000E+00  0.00000000000E+00  0.60241682724E+02  0.60241682724E+02  0.00000000000E+00 0. -1.
         -1   -1    0    0    0  501 -0.00000000000E+00 -0.00000000000E+00 -0.67125348564E+03  0.67125348564E+03  0.00000000000E+00 0.  1.
         24    2    1    2    0    0  0.12101455468E+02  0.44757603216E+01 -0.66001114575E+02  0.10409494865E+03  0.79455229873E+02 0.  0.
         23    2    1    2    0    0  0.10350510464E+03  0.56163792689E+01 -0.46848951317E+03  0.48839583752E+03  0.91122004752E+02 0.  0.
        -13    1    3    3    0    0  0.19044819622E+02 -0.61141623511E+01 -0.81592760392E+02  0.84008729809E+02  0.00000000000E+00 0.  1.
         14    1    3    3    0    0 -0.69433641544E+01  0.10589922673E+02  0.15591645817E+02  0.20086218840E+02  0.00000000000E+00 0. -1.
        -13    1    4    4    0    0  0.89024398316E+02  0.38928845659E+02 -0.27843770152E+03  0.29490397106E+03  0.00000000000E+00 0. -1.
         13    1    4    4    0    0  0.14480706324E+02 -0.33312466390E+02 -0.19005181166E+03  0.19349186646E+03  0.00000000000E+00 0.  1.
         -2    1    1    2    0  502 -0.11560656011E+03 -0.10092139590E+02 -0.76521175171E+02  0.13900438220E+03  0.00000000000E+00 0.  1.
<scales pt_clust_5="13000.00000" pt_clust_6="13000.00000" pt_clust_7="13000.00000" pt_clust_8="13000.00000" pt_clust_9="113.76021"></scales>
<clustering>
<clus scale="   79.455">  5  6 -1 -1</clus>
<clus scale="   80.496">  2  5  1 -1</clus>
<clus scale="   91.122">  7  8 -1 -1</clus>
<clus scale="  113.760">  1  9  2 -1</clus>
<clus scale="  113.760">  1  5  2 -1</clus>
</clustering>
</event>
<event>
 9    2  0.1325014E-004  0.1156058E+03  0.7546771E-02  0.1253915E+00
         21   -1    0    0  501  502  0.00000000000E+00  0.00000000000E+00  0.60741808690E+02  0.60741808690E+02  0.00000000000E+00 0. -1.
          2   -1    0    0  502    0 -0.00000000000E+00 -0.00000000000E+00 -0.68319111531E+03  0.68319111531E+03  0.00000000000E+00 0. -1.
         24    2    1    2    0    0 -0.69239513127E+02 -0.43635418930E+02 -0.54703022732E+03  0.55888047244E+03  0.80044693201E+02 0.  0.
         23    2    1    2    0    0  0.35854130116E+02  0.18711259180E+02 -0.96819659420E+02  0.13821462104E+03  0.89964466059E+02 0.  0.
        -13    1    3    3    0    0 -0.73307663413E+02 -0.43782836292E+02 -0.30260296002E+03  0.31441930870E+03  0.00000000000E+00 0.  1.
         14    1    3    3    0    0  0.40681502856E+01  0.14741736247E+00 -0.24442726730E+03  0.24446116375E+03  0.00000000000E+00 0. -1.
        -13    1    4    4    0    0 -0.25338179030E+02  0.16075478056E+02 -0.59102585757E+02  0.66283934362E+02  0.00000000000E+00 0. -1.
         13    1    4    4    0    0  0.61192309146E+02  0.26357811238E+01 -0.37717073663E+02  0.71930686681E+02  0.00000000000E+00 0.  1.
          1    1    1    2  501    0  0.33385383011E+02  0.24924159750E+02  0.21400580121E+02  0.46837830517E+02  0.00000000000E+00 0. -1.
<scales pt_clust_5="13000.00000" pt_clust_6="13000.00000" pt_clust_7="13000.00000" pt_clust_8="13000.00000" pt_clust_9="41.66290"></scales>
<clustering>
<clus scale="   41.663">  1  9  2 -1</clus>
<clus scale="   80.045">  5  6 -1 -1</clus>
<clus scale="   89.964">  7  8 -1 -1</clus>
<clus scale="  108.066">  2  5  1 -1</clus>
<clus scale="   41.663">  1  5  2 -1</clus>
</clustering>
</event>
<event>
 9    2  0.1325014E-004  0.1775405E+03  0.7546771E-02  0.1189437E+00
         21   -1    0    0  501  502  0.00000000000E+00  0.00000000000E+00  0.10423407630E+04  0.10423407630E+04  0.00000000000E+00 0. -1.
          2   -1    0    0  502    0 -0.00000000000E+00 -0.00000000000E+00 -0.35446847489E+03  0.35446847489E+03  0.00000000000E+00 0. -1.
         24    2    1    2    0    0  0.41721602849E+02  0.69377131038E+02  0.27898376547E+03  0.30183466960E+03  0.81965528879E+02 0.  0.
         23    2    1    2    0    0 -0.81363322077E+02  0.78315127167E+02 -0.31922184937E+03  0.35097914970E+03  0.92360841714E+02 0.  0.
        -11    1    3    3    0    0  0.64403983352E+02  0.48793280208E+02  0.23274173447E+03  0.24636836694E+03  0.00000000000E+00 0.  1.
         12    1    3    3    0    0 -0.22682380503E+02  0.20583850829E+02  0.46242031002E+02  0.55466302666E+02  0.00000000000E+00 0. -1.
        -13    1    4    4    0    0 -0.44907774025E+02  0.95514523846E+02 -0.22750078590E+03  0.25079142732E+03  0.00000000000E+00 0. -1.
         13    1    4    4    0    0 -0.36455548052E+02 -0.17199396679E+02 -0.91721063473E+02  0.10018772237E+03  0.00000000000E+00 0.  1.
          1    1    1    2  501    0  0.39641719228E+02 -0.14769225820E+03  0.72811037204E+03  0.74399541860E+03  0.00000000000E+00 0. -1.
<scales pt_clust_5="13000.00000" pt_clust_6="13000.00000" pt_clust_7="13000.00000" pt_clust_8="13000.00000" pt_clust_9="151.62484"></scales>
<clustering>
<clus scale="   81.966">  5  6 -1 -1</clus>
<clus scale="   92.361">  7  8 -1 -1</clus>
<clus scale="  115.205">  2  5  1 -1</clus>
<clus scale="  151.625">  1  9  2 -1</clus>
<clus scale="  151.625">  1  5  2 -1</clus>
</clustering>
</event>
<event>
 9    2  0.1325014E-004  0.1333902E+03  0.7546771E-02  0.1224385E+00
          2   -1    0    0  502    0 -0.00000000000E+00  0.00000000000E+00  0.24955742809E+03  0.24955742809E+03  0.00000000000E+00 0. -1.
         21   -1    0    0  501  502  0.00000000000E+00 -0.00000000000E+00 -0.13701102092E+03  0.13701102092E+03  0.00000000000E+00 0. -1.
         23    2    1    2    0    0  0.54871145975E+02 -0.58065101024E+02  0.68540341563E+02  0.13725014127E+03  0.88076241055E+02 0.  0.
         24    2    1    2    0    0 -0.11546527138E+03  0.94201299759E+02  0.62553731312E+01  0.16930213641E+03  0.80112233320E+02 0.  0.
        -13    1    4    4    0    0  0.68211351694E+01  0.25607894627E+02 -0.96261209072E+01  0.28194934934E+02  0.00000000000E+00 0.  1.
         14    1    4    4    0    0 -0.12228640655E+03  0.68593405133E+02  0.15881494038E+02  0.14110720147E+03  0.00000000000E+00 0. -1.
        -13    1    3    3    0    0 -0.66334421869E+01 -0.46940033512E+02  0.56229258416E+02  0.73546575742E+02  0.00000000000E+00 0.  1.
         13    1    3    3    0    0  0.61504588162E+02 -0.11125067512E+02  0.12311083147E+02  0.63703565524E+02  0.00000000000E+00 0. -1.
          1    1    1    2  501    0  0.60594125404E+02 -0.36136198736E+02  0.37750692481E+02  0.80016171336E+02  0.00000000000E+00 0. -1.
<scales pt_clust_5="13000.00000" pt_clust_6="13000.00000" pt_clust_7="13000.00000" pt_clust_8="13000.00000" pt_clust_9="70.55124"></scales>
<clustering>
<clus scale="   70.551">  2  9  1 -1</clus>
<clus scale="   80.112">  5  6 -1 -1</clus>
<clus scale="   88.076">  7  8 -1 -1</clus>
<clus scale="  128.271">  2  5  1 -1</clus>
<clus scale="   70.551">  2  5  1 -1</clus>
</clustering>
</event>
<event>
 9    2  0.1325014E-004  0.1587313E+03  0.7546771E-02  0.1196254E+00
         21   -1    0    0  501  502  0.00000000000E+00  0.00000000000E+00  0.99143043988E+02  0.99143043988E+02  0.00000000000E+00 0. -1.
          2   -1    0    0  502    0 -0.00000000000E+00 -0.00000000000E+00 -0.37833850065E+03  0.37833850065E+03  0.00000000000E+00 0. -1.
         23    2    1    2    0    0 -0.12539597310E+03  0.50746310112E+02 -0.23828227691E+03  0.29562350879E+03  0.11097512064E+03 0.  0.
         24    2    1    2    0    0  0.83860455145E+02 -0.87757761483E+01 -0.39937312441E+02  0.12280147576E+03  0.79847500520E+02 0.  0.
        -13    1    4    4    0    0  0.82634074620E+02 -0.34727893509E+02 -0.26059256185E+02  0.93346139228E+02  0.00000000000E+00 0.  1.
         14    1    4    4    0    0  0.12263805250E+01  0.25952117360E+02 -0.13878056256E+02  0.29455336530E+02  0.00000000000E+00 0. -1.
        -13    1    3    3    0    0 -0.32813101232E+02  0.67333609274E+01  0.28375785477E+01  0.33616805528E+02  0.00000000000E+00 0. -1.
         13    1    3    3    0    0 -0.92582871865E+02  0.44012949185E+02 -0.24111985546E+03  0.26200670326E+03  0.00000000000E+00 0.  1.
          1    1    1    2  501    0  0.41535517953E+02 -0.41970533964E+02 -0.97586731349E+00  0.59056560092E+02  0.00000000000E+00 0. -1.
<scales pt_clust_5="13000.00000" pt_clust_6="13000.00000" pt_clust_7="13000.00000" pt_clust_8="13000.00000" pt_clust_9="59.04850"></scales>
<clustering>
<clus scale="   59.048">  1  9  2 -1</clus>
<clus scale="   79.848">  5  6 -1 -1</clus>
<clus scale="  110.975">  7  8 -1 -1</clus>
<clus scale="  138.765">  1  5  2 -1</clus>
<clus scale="   59.048">  1  5  2 -1</clus>
</clustering>
</event>
<event>
 9    2  0.1325014E-004  0.1276047E+03  0.7546771E-02  0.1235259E+00
         21   -1    0    0  501  502  0.00000000000E+00  0.00000000000E+00  0.15950870840E+03  0.15950870840E+03  0.00000000000E+00 0.  1.
         -1   -1    0    0    0  501 -0.00000000000E+00 -0.00000000000E+00 -0.22437540500E+03  0.22437540500E+03  0.00000000000E+00 0.  1.
         23    2    1    2    0    0  0.60483816893E+02 -0.19806566833E+01 -0.33411349589E+02  0.11717887519E+03  0.94616887512E+02 0.  0.
         24    2    1    2    0    0 -0.10034383461E+03 -0.90557433317E+02 -0.48986984925E+02  0.16443365153E+03  0.79807062291E+02 0.  0.
        -13    1    4    4    0    0 -0.90285151499E+02 -0.59179638816E+02 -0.66827999465E+02  0.12696306449E+03  0.00000000000E+00 0.  1.
         14    1    4    4    0    0 -0.10058683106E+02 -0.31377794501E+02  0.17841014540E+02  0.37470587043E+02  0.00000000000E+00 0. -1.
        -11    1    3    3    0    0  0.22631213094E+02  0.13999401924E+02  0.30952104116E+02  0.40818963847E+02  0.00000000000E+00 0.  1.
         11    1    3    3    0    0  0.37852603799E+02 -0.15980058607E+02 -0.64363453705E+02  0.76359911343E+02  0.00000000000E+00 0. -1.
         -2    1    1    2    0  502  0.39860017712E+02  0.92538090001E+02  0.17531637910E+02  0.10227158667E+03  0.00000000000E+00 0.  1.
<scales pt_clust_5="13000.00000" pt_clust_6="13000.00000" pt_clust_7="13000.00000" pt_clust_8="13000.00000" pt_clust_9="100.75772"></scales>
<clustering>
<clus scale="   79.807">  5  6 -1 -1</clus>
<clus scale="   94.617">  7  8 -1 -1</clus>
<clus scale="  100.758">  1  9  2 -1</clus>
<clus scale="  117.046">  1  5  2 -1</clus>
<clus scale="  100.758">  1  5  2 -1</clus>
</clustering>
</event>
<event>
 9    2  0.1325014E-004  0.1607890E+03  0.7546771E-02  0.1202818E+00
         21   -1    0    0  501  502  0.00000000000E+00  0.00000000000E+00  0.12300038576E+04  0.12300038576E+04  0.00000000000E+00 0.  1.
         -1   -1    0    0    0  501 -0.00000000000E+00 -0.00000000000E+00 -0.38857846983E+02  0.38857846983E+02  0.00000000000E+00 0.  1.
         24    2    1    2    0    0 -0.70667021460E+02  0.41726683903E+02  0.43901813401E+03  0.45402228624E+03  0.81635594825E+02 0.  0.
         23    2    1    2    0    0 -0.54577012765E+02 -0.11375324743E+03  0.26861301265E+03  0.31020042101E+03  0.90293405118E+02 0.  0.
        -11    1    3    3    0    0 -0.68173137300E+02  0.61565298712E+02  0.30536709193E+03  0.31888387148E+03  0.00000000000E+00 0.  1.
         12    1    3    3    0    0 -0.24938841607E+01 -0.19838614810E+02  0.13365104207E+03  0.13513841476E+03  0.00000000000E+00 0. -1.
        -11    1    4    4    0    0 -0.77708557331E+02 -0.97881394444E+02  0.23701053940E+03  0.26794287273E+03  0.00000000000E+00 0.  1.
         11    1    4    4    0    0  0.23131544566E+02 -0.15871852983E+02  0.31602473253E+02  0.42257548282E+02  0.00000000000E+00 0. -1.
         -2    1    1    2    0  502  0.12524403423E+03  0.72026563523E+02  0.48351486400E+03  0.50463899737E+03  0.00000000000E+00 0.  1.
<scales pt_clust_5="13000.00000" pt_clust_6="13000.00000" pt_clust_7="13000.00000" pt_clust_8="13000.00000" pt_clust_9="133.04216"></scales>
<clustering>
<clus scale="   81.636">  5  6 -1 -1</clus>
<clus scale="   90.293">  7  8 -1 -1</clus>
<clus scale="  115.755">  2  5  1 -1</clus>
<clus scale="  133.042">  1  9  2 -1</clus>
<clus scale="  133.042">  1  5  2 -1</clus>
</clustering>
</event>
<event>
 9    2  0.1325014E-004  0.1153866E+03  0.7546771E-02  0.1257660E+00
          2   -1    0    0  502    0 -0.00000000000E+00  0.00000000000E+00  0.64052241769E+02  0.64052241769E+02  0.00000000000E+00 0. -1.
         21   -1    0    0  501  502  0.00000000000E+00 -0.00000000000E+00 -0.49095815982E+03  0.49095815982E+03  0.00000000000E+00 0.  1.
         23    2    1    2    0    0 -0.66430352877E+02  0.31512902236E+02 -0.75819020273E+02  0.14717113369E+03  0.10249275080E+03 0.  0.
         24    2    1    2    0    0  0.11834817780E+02  0.34603303801E+02 -0.28406706669E+03  0.29901058182E+03  0.85882350439E+02 0.  0.
        -11    1    4    4    0    0 -0.25467650951E+02  0.46844420397E+02 -0.18213864429E+03  0.18978273554E+03  0.00000000000E+00 0.  1.
         12    1    4    4    0    0  0.37302468731E+02 -0.12241116596E+02 -0.10192842240E+03  0.10922784628E+03  0.00000000000E+00 0. -1.
        -13    1    3    3    0    0 -0.52535667413E+02 -0.25694018243E+02 -0.10819173977E+02  0.59474645434E+02  0.00000000000E+00 0. -1.
         13    1    3    3    0    0 -0.13894685465E+02  0.57206920479E+02 -0.64999846296E+02  0.87696488261E+02  0.00000000000E+00 0.  1.
          1    1    1    2  501    0  0.54595535097E+02 -0.66116206037E+02 -0.67019831085E+02  0.10882868607E+03  0.00000000000E+00 0. -1.
<scales pt_clust_5="13000.00000" pt_clust_6="13000.00000" pt_clust_7="13000.00000" pt_clust_8="13000.00000" pt_clust_9="85.74399"></scales>
<clustering>
<clus scale="   85.744">  2  9  1 -1</clus>
<clus scale="   85.882">  5  6 -1 -1</clus>
<clus scale="  100.921">  2  5  1 -1</clus>
<clus scale="  102.493">  7  8 -1 -1</clus>
<clus scale="   85.744">  2  5  1 -1</clus>
</clustering>
</event>
<event>
 9    2  0.1325014E-004  0.1333313E+03  0.7546771E-02  0.1239801E+00
         21   -1    0    0  501  502  0.00000000000E+00  0.00000000000E+00  0.72027169775E+02  0.72027169775E+02  0.00000000000E+00 0. -1.
         -1   -1    0    0    0  501 -0.00000000000E+00 -0.00000000000E+00 -0.52383090705E+03  0.52383090705E+03  0.00000000000E+00 0.  1.
         24    2    1    2    0    0 -0.16138847190E+02 -0.12547152129E+02 -0.30976859482E+03  0.32357924482E+03  0.91263639655E+02 0.  0.
         23    2    1    2    0    0 -0.63894762217E+02  0.72202372892E+02 -0.76174381047E+02  0.15268884960E+03  0.90640085919E+02 0.  0.
        -11    1    3    3    0    0  0.30080901762E+02  0.19933699526E+02 -0.99015283853E+02  0.10538614455E+03  0.00000000000E+00 0.  1.
         12    1    3    3    0    0 -0.46219748953E+02 -0.32480851656E+02 -0.21075331097E+03  0.21819310026E+03  0.00000000000E+00 0. -1.
        -11    1    4    4    0    0 -0.30823950587E+02  0.73632707479E+02 -0.86799286781E+02  0.11792373691E+03  0.00000000000E+00 0.  1.
         11    1    4    4    0    0 -0.33070811630E+02 -0.14303345869E+01  0.10624905734E+02  0.34765112696E+02  0.00000000000E+00 0. -1.
         -2    1    1    2    0  502  0.80033609407E+02 -0.59655220763E+02 -0.65860761409E+02  0.11958998241E+03  0.00000000000E+00 0.  1.
<scales pt_clust_5="13000.00000" pt_clust_6="13000.00000" pt_clust_7="13000.00000" pt_clust_8="13000.00000" pt_clust_9="97.78356"></scales>
<clustering>
<clus scale="   90.640">  7  8 -1 -1</clus>
<clus scale="   91.264">  5  6 -1 -1</clus>
<clus scale="   93.525">  2  5  1 -1</clus>
<clus scale="   97.784">  1  9  2 -1</clus>
<clus scale="   97.784">  1  5  2 -1</clus>
</clustering>
</event>
<event>
 9    2  0.1325014E-004  0.3854004E+03  0.7546771E-02  0.1049236E+00
          2   -1    0    0  502    0 -0.00000000000E+00  0.00000000000E+00  0.67549194353E+03  0.67549194353E+03  0.00000000000E+00 0. -1.
         21   -1    0    0  501  502  0.00000000000E+00 -0.00000000000E+00 -0.31575488152E+03  0.31575488152E+03  0.00000000000E+00 0. -1.
         24    2    1    2    0    0  0.18703919461E+03 -0.33776818816E+03  0.40633238223E+03  0.56609079952E+03  0.79257675951E+02 0.  0.
         23    2    1    2    0    0 -0.20470190929E+03  0.28036084399E+03 -0.21371463970E+02  0.36001143574E+03  0.92986127349E+02 0.  0.
        -13    1    3    3    0    0  0.61894938847E+01 -0.74252308842E+02  0.79732928167E+02  0.10912861695E+03  0.00000000000E+00 0.  1.
         14    1    3    3    0    0  0.18084970072E+03 -0.26351587932E+03  0.32659945407E+03  0.45696218257E+03  0.00000000000E+00 0. -1.
        -11    1    4    4    0    0 -0.47984282233E+01  0.20801098852E+02 -0.24348226893E+02  0.32381272052E+02  0.00000000000E+00 0. -1.
         11    1    4    4    0    0 -0.19990348107E+03  0.25955974514E+03  0.29767629235E+01  0.32763016369E+03  0.00000000000E+00 0.  1.
          1    1    1    2  501    0  0.17662714684E+02  0.57407344168E+02 -0.25223856258E+02  0.65144589791E+02  0.00000000000E+00 0. -1.
<scales pt_clust_5="13000.00000" pt_clust_6="13000.00000" pt_clust_7="13000.00000" pt_clust_8="13000.00000" pt_clust_9="60.06309"></scales>
<clustering>
<clus scale="   60.063">  2  9  1 -1</clus>
<clus scale="   79.258">  5  6 -1 -1</clus>
<clus scale="   92.986">  7  8 -1 -1</clus>
<clus scale="  382.320">  1  5  2 -1</clus>
<clus scale="   60.063">  2  5  1 -1</clus>
</clustering>
</event>
<event>
 9    2  0.1325014E-004  0.1549907E+03  0.7546771E-02  0.1213694E+00
         21   -1    0    0  501  502  0.00000000000E+00  0.00000000000E+00  0.10673764359E+03  0.10673764359E+03  0.00000000000E+00 0.  1.
         -1   -1    0    0    0  501 -0.00000000000E+00 -0.00000000000E+00 -0.42166192297E+03  0.42166192297E+03  0.00000000000E+00 0.  1.
         24    2    1    2    0    0 -0.16338848364E+02 -0.53664004976E+02 -0.12997517831E+03  0.16545639581E+03  0.85647466636E+02 0.  0.
         23    2    1    2    0    0 -0.11434231950E+03 -0.60690983248E+01 -0.30719918652E+02  0.15215357904E+03  0.95372942853E+02 0.  0.
        -13    1    3    3    0    0 -0.42338272082E+02 -0.24151626126E+02 -0.11213027617E+03  0.12226622249E+03  0.00000000000E+00 0.  1.
         14    1    3    3    0    0  0.25999423718E+02 -0.29512378849E+02 -0.17844902138E+02  0.43190173319E+02  0.00000000000E+00 0. -1.
        -11    1    4    4    0    0 -0.11626672767E+03 -0.33511286039E+02 -0.29863832292E+02  0.12463068135E+03  0.00000000000E+00 0.  1.
         11    1    4    4    0    0  0.19244081653E+01  0.27442187714E+02 -0.85608635993E+00  0.27522897689E+02  0.00000000000E+00 0. -1.
         -2    1    1    2    0  502  0.13068116786E+03  0.59733103300E+02 -0.15422918242E+03  0.21078959171E+03  0.00000000000E+00 0.  1.
<scales pt_clust_5="13000.00000" pt_clust_6="13000.00000" pt_clust_7="13000.00000" pt_clust_8="13000.00000" pt_clust_9="122.17259"></scales>
<clustering>
<clus scale="   85.647">  5  6 -1 -1</clus>
<clus scale="   95.373">  7  8 -1 -1</clus>
<clus scale="  102.383">  2  5  1 -1</clus>
<clus scale="  122.173">  1  9  2 -1</clus>
<clus scale="  122.173">  1  5  2 -1</clus>
</clustering>
</event>
<event>
 9    2  0.1325014E-004  0.9721817E+02  0.7546771E-02  0.1290403E+00
         21   -1    0    0  501  502  0.00000000000E+00  0.00000000000E+00  0.16710710972E+03  0.16710710972E+03  0.00000000000E+00 0.  1.
          2   -1    0    0  502    0 -0.00000000000E+00 -0.00000000000E+00 -0.10843488955E+03  0.10843488955E+03  0.00000000000E+00 0. -1.
         23    2    1    2    0    0  0.10467091132E+02 -0.28772375270E+02  0.48511419140E+02  0.10752895717E+03  0.90948937689E+02 0.  0.
         24    2    1    2    0    0 -0.34496455237E+02  0.23939806559E+02  0.61172354533E+02  0.11141849598E+03  0.83119820292E+02 0.  0.
        -11    1    4    4    0    0  0.28836846267E+01  0.48377910576E+02  0.31934534685E+02  0.58039231338E+02  0.00000000000E+00 0.  1.
         12    1    4    4    0    0 -0.37380139864E+02 -0.24438104018E+02  0.29237819849E+02  0.53379264642E+02  0.00000000000E+00 0. -1.
        -11    1    3    3    0    0  0.42953893197E+02 -0.37467731843E+02  0.12689388103E+02  0.58394250065E+02  0.00000000000E+00 0.  1.
         11    1    3    3    0    0 -0.32486802064E+02  0.86953565729E+01  0.35822031037E+02  0.49134707101E+02  0.00000000000E+00 0. -1.
          1    1    1    2  501    0  0.24029364105E+02  0.48325687113E+01 -0.51011553504E+02  0.56594546120E+02  0.00000000000E+00 0. -1.
<scales pt_clust_5="13000.00000" pt_clust_6="13000.00000" pt_clust_7="13000.00000" pt_clust_8="13000.00000" pt_clust_9="24.51050"></scales>
<clustering>
<clus scale="   24.511">  1  9  2 -1</clus>
<clus scale="   83.120">  5  6 -1 -1</clus>
<clus scale="   89.936">  1  5  2 -1</clus>
<clus scale="   90.949">  7  8 -1 -1</clus>
<clus scale="   24.511">  1  5  2 -1</clus>
</clustering>
</event>
<event>
 9    2  0.2087214E-004  0.2945307E+03  0.7546771E-02  0.1088515E+00
         -1   -1    0    0    0  501 -0.00000000000E+00  0.00000000000E+00  0.45038703744E+03  0.45038703744E+03  0.00000000000E+00 0.  1.
         21   -1    0    0  501  502  0.00000000000E+00 -0.00000000000E+00 -0.77568455784E+03  0.77568455784E+03  0.00000000000E+00 0. -1.
         23    2    1    2    0    0 -0.19443374556E+03 -0.45574018425E+02 -0.30544969275E+03  0.37655696440E+03  0.92812499536E+02 0.  0.
         24    2    1    2    0    0  0.33718097523E+03  0.17299600011E+03 -0.31405505145E+03  0.49855733501E+03  0.79436860699E+02 0.  0.
        -11    1    4    4    0    0  0.83904713471E+02  0.17921380930E+02 -0.40851446609E+02  0.95026404368E+02  0.00000000000E+00 0.  1.
         12    1    4    4    0    0  0.25327626176E+03  0.15507461918E+03 -0.27320360485E+03  0.40353093064E+03  0.00000000000E+00 0. -1.
        -11    1    3    3    0    0 -0.30536002148E+02 -0.39032433046E+02 -0.36554371033E+02  0.61580843598E+02  0.00000000000E+00 0.  1.
         11    1    3    3    0    0 -0.16389774341E+03 -0.65415853794E+01 -0.26889532171E+03  0.31497612080E+03  0.00000000000E+00 0. -1.
         -2    1    1    2    0  502 -0.14274722967E+03 -0.12742198168E+03  0.29420722380E+03  0.35095729588E+03  0.00000000000E+00 0.  1.
<scales pt_clust_5="13000.00000" pt_clust_6="13000.00000" pt_clust_7="13000.00000" pt_clust_8="13000.00000" pt_clust_9="191.34568"></scales>
<clustering>
<clus scale="   79.437">  5  6 -1 -1</clus>
<clus scale="   92.812">  7  8 -1 -1</clus>
<clus scale="  191.346">  2  9  1 -1</clus>
<clus scale="  290.593">  2  5  1 -1</clus>
<clus scale="  191.346">  2  5  1 -1</clus>
</clustering>
</event>
<event>
 9    2  0.1325014E-004  0.1552912E+03  0.7546771E-02  0.1218562E+00
         21   -1    0    0  501  502  0.00000000000E+00  0.00000000000E+00  0.12074016363E+03  0.12074016363E+03  0.00000000000E+00 0. -1.
          2   -1    0    0  502    0 -0.00000000000E+00 -0.00000000000E+00 -0.44046217355E+03  0.44046217355E+03  0.00000000000E+00 0. -1.
         23    2    1    2    0    0 -0.64031103700E+01 -0.13380455805E+02 -0.80258131298E+02  0.12196563874E+03  0.90632295424E+02 0.  0.
         24    2    1    2    0    0  0.13550105565E+03 -0.13030493162E+02 -0.26135621179E+03  0.30565866150E+03  0.81177694420E+02 0.  0.
        -13    1    4    4    0    0  0.54925104182E+02 -0.45182192896E+02 -0.10441545077E+03  0.12633599639E+03  0.00000000000E+00 0.  1.
         14    1    4    4    0    0  0.80575951466E+02  0.32151699735E+02 -0.15694076103E+03  0.17932266511E+03  0.00000000000E+00 0. -1.
        -13    1    3    3    0    0 -0.11729964823E+02  0.34699431327E+02 -0.58276065744E+02  0.68831260688E+02  0.00000000000E+00 0.  1.
         13    1    3    3    0    0  0.53268544534E+01 -0.48079887132E+02 -0.21982065554E+02  0.53134378052E+02  0.00000000000E+00 0. -1.
          1    1    1    2  501    0 -0.12909794528E+03  0.26410948967E+02  0.21892333174E+02  0.13357803694E+03  0.00000000000E+00 0. -1.
<scales pt_clust_5="13000.00000" pt_clust_6="13000.00000" pt_clust_7="13000.00000" pt_clust_8="13000.00000" pt_clust_9="132.38401"></scales>
<clustering>
<clus scale="   81.178">  5  6 -1 -1</clus>
<clus scale="   90.632">  7  8 -1 -1</clus>
<clus scale="   91.838">  2  7  1 -1</clus>
<clus scale="  132.384">  1  9  2 -1</clus>
<clus scale="  132.384">  1  5  2 -1</clus>
</clustering>
</event>
<event>
 9    2  0.1325014E-004  0.9291703E+02  0.7546771E-02  0.1302755E+00
         -1   -1    0    0    0  501 -0.00000000000E+00  0.00000000000E+00  0.38056608681E+02  0.38056608681E+02  0.00000000000E+00 0.  1.
         21   -1    0    0  501  502  0.00000000000E+00 -0.00000000000E+00 -0.39484422475E+03  0.39484422475E+03  0.00000000000E+00 0.  1.
         24    2    1    2    0    0 -0.20661448959E+02  0.88212306352E+01 -0.55038902659E+02  0.99612802330E+02  0.79929468904E+02 0.  0.
         23    2    1    2    0    0 -0.17015001345E+02 -0.29625980501E+02 -0.22776665579E+03  0.24769774325E+03  0.91155436100E+02 0.  0.
        -13    1    3    3    0    0 -0.37706115323E+02  0.15615417779E+02  0.81742191007E+00  0.40819855264E+02  0.00000000000E+00 0.  1.
         14    1    3    3    0    0  0.17044666364E+02 -0.67941871441E+01 -0.55856324569E+02  0.58792947067E+02  0.00000000000E+00 0. -1.
        -11    1    4    4    0    0 -0.46317641387E+02 -0.34881414621E+02 -0.19494837291E+03  0.20338855693E+03  0.00000000000E+00 0.  1.
         11    1    4    4    0    0  0.29302640042E+02  0.52554341198E+01 -0.32818282875E+02  0.44309186317E+02  0.00000000000E+00 0. -1.
         -2    1    1    2    0  502  0.37676450304E+02  0.20804749866E+02 -0.73982057622E+02  0.85590287851E+02  0.00000000000E+00 0.  1.
<scales pt_clust_5="13000.00000" pt_clust_6="13000.00000" pt_clust_7="13000.00000" pt_clust_8="13000.00000" pt_clust_9="43.03897"></scales>
<clustering>
<clus scale="   43.039">  2  9  1 -1</clus>
<clus scale="   79.929">  5  6 -1 -1</clus>
<clus scale="   81.933">  1  5  2 -1</clus>
<clus scale="   91.155">  7  8 -1 -1</clus>
<clus scale="   43.039">  2  5  1 -1</clus>
</clustering>
</event>
<event>
 9    2  0.1325014E-004  0.1497822E+03  0.7546771E-02  0.1229817E+00
         21   -1    0    0  501  502  0.00000000000E+00  0.00000000000E+00  0.97179024510E+02  0.97179024510E+02  0.00000000000E+00 0.  1.
          2   -1    0    0  502    0 -0.00000000000E+00 -0.00000000000E+00 -0.44112714118E+03  0.44112714118E+03  0.00000000000E+00 0. -1.
         24    2    1    2    0    0  0.28735665967E+02  0.25279459437E+02 -0.18584602151E+03  0.20270755849E+03  0.71321953062E+02 0.  0.
         23    2    1    2    0    0 -0.67925354400E+02 -0.11207423000E+03 -0.10931688615E+02  0.16030373438E+03  0.91669507683E+02 0.  0.
        -13    1    3    3    0    0  0.50343869255E+02  0.11637027202E+02 -0.92794582684E+02  0.10621092293E+03  0.00000000000E+00 0.  1.
         14    1    3    3    0    0 -0.21608203288E+02  0.13642432235E+02 -0.93051438830E+02  0.96496635563E+02  0.00000000000E+00 0. -1.
        -13    1    4    4    0    0 -0.43677560652E+02 -0.63399172543E+02  0.39154148223E+02  0.86372632858E+02  0.00000000000E+00 0.  1.
         13    1    4    4    0    0 -0.24247793748E+02 -0.48675057457E+02 -0.50085836839E+02  0.73931101520E+02  0.00000000000E+00 0. -1.
          1    1    1    2  501    0  0.39189688434E+02  0.86794770563E+02 -0.14717040654E+03  0.17529487282E+03  0.00000000000E+00 0. -1.
<scales pt_clust_5="13000.00000" pt_clust_6="13000.00000" pt_clust_7="13000.00000" pt_clust_8="13000.00000" pt_clust_9="118.45425"></scales>
<clustering>
<clus scale="   71.322">  5  6 -1 -1</clus>
<clus scale="   80.942">  2  5  1 -1</clus>
<clus scale="   91.670">  7  8 -1 -1</clus>
<clus scale="  118.454">  1  9  2 -1</clus>
<clus scale="  118.454">  1  5  2 -1</clus>
</clustering>
</event>
<event>
 9    2  0.1325014E-004  0.1158879E+03  0.7546771E-02  0.1266474E+00
          2   -1    0    0  502    0 -0.00000000000E+00  0.00000000000E+00  0.52255947335E+03  0.52255947335E+03  0.00000000000E+00 0. -1.
         21   -1    0    0  501  502  0.00000000000E+00 -0.00000000000E+00 -0.41498250442E+02  0.41498250442E+02  0.00000000000E+00 0.  1.
         24    2    1    2    0    0 -0.10977824839E+02  0.80073184043E+01  0.18519749321E+03  0.20237984939E+03  0.80466528201E+02 0.  0.
         23    2    1    2    0    0  0.16254842738E+01 -0.66407673100E+02  0.12723170917E+03  0.18297469578E+03  0.11348660816E+03 0.  0.
        -13    1    3    3    0    0  0.12059784846E+02  0.28265055153E+02  0.26000240534E+02  0.40253748411E+02  0.00000000000E+00 0.  1.
         14    1    3    3    0    0 -0.23037609685E+02 -0.20257736749E+02  0.15919725268E+03  0.16212610098E+03  0.00000000000E+00 0. -1.
        -11    1    4    4    0    0  0.20361015321E+02 -0.11790939805E+02  0.12283340770E+03  0.12506655529E+03  0.00000000000E+00 0. -1.
         11    1    4    4    0    0 -0.18735531048E+02 -0.54616733295E+02  0.43983014776E+01  0.57908140493E+02  0.00000000000E+00 0.  1.
          1    1    1    2  501    0  0.93523405655E+01  0.58400354696E+02  0.16863202052E+03  0.17870317861E+03  0.00000000000E+00 0. -1.
<scales pt_clust_5="13000.00000" pt_clust_6="13000.00000" pt_clust_7="13000.00000" pt_clust_8="13000.00000" pt_clust_9="59.14449"></scales>
<clustering>
<clus scale="   59.144">  2  9  1 -1</clus>
<clus scale="   80.467">  5  6 -1 -1</clus>
<clus scale="   83.819">  1  5  2 -1</clus>
<clus scale="  113.487">  7  8 -1 -1</clus>
<clus scale="   59.144">  2  5  1 -1</clus>
</clustering>
</event>
<event>
 9    2  0.1325014E-004  0.1615814E+03  0.7546771E-02  0.1188241E+00
         21   -1    0    0  501  502  0.00000000000E+00  0.00000000000E+00  0.57870252190E+02  0.57870252190E+02  0.00000000000E+00 0.  1.
          2   -1    0    0  502    0 -0.00000000000E+00 -0.00000000000E+00 -0.60950207401E+03  0.60950207401E+03  0.00000000000E+00 0. -1.
         24    2    1    2    0    0  0.97001773529E+02 -0.11087562599E+03 -0.33392979415E+03  0.37409912347E+03  0.82087138164E+02 0.  0.
         23    2    1    2    0    0 -0.86405604489E+02  0.71285908745E+02 -0.12075656685E+03  0.18802090164E+03  0.90675805737E+02 0.  0.
        -13    1    3    3    0    0  0.10224583462E+03 -0.72634055034E+02 -0.28786433485E+03  0.31399966868E+03  0.00000000000E+00 0.  1.
         14    1    3    3    0    0 -0.52440610929E+01 -0.38241570958E+02 -0.46065459294E+02  0.60099454790E+02  0.00000000000E+00 0. -1.
        -13    1    4    4    0    0 -0.51994939567E+02  0.57663535299E+02 -0.19273461116E+02  0.80000145919E+02  0.00000000000E+00 0. -1.
         13    1    4    4    0    0 -0.34410664921E+02  0.13622373446E+02 -0.10148310573E+03  0.10802075573E+03  0.00000000000E+00 0.  1.
          1    1    1    2  501    0 -0.10596169041E+02  0.39589717247E+02 -0.96945460823E+02  0.10525230109E+03  0.00000000000E+00 0. -1.
<scales pt_clust_5="13000.00000" pt_clust_6="13000.00000" pt_clust_7="13000.00000" pt_clust_8="13000.00000" pt_clust_9="40.98324"></scales>
<clustering>
<clus scale="   40.983">  1  9  2 -1</clus>
<clus scale="   82.087">  5  6 -1 -1</clus>
<clus scale="   90.676">  7  8 -1 -1</clus>
<clus scale="  156.923">  2  5  1 -1</clus>
<clus scale="   40.983">  1  5  2 -1</clus>
</clustering>
</event>
<event>
 9    2  0.1325014E-004  0.1741841E+03  0.7546771E-02  0.1200543E+00
         21   -1    0    0  501  502  0.00000000000E+00  0.00000000000E+00  0.89914071812E+02  0.89914071812E+02  0.00000000000E+00 0.  1.
          4   -1    0    0  502    0 -0.00000000000E+00 -0.00000000000E+00 -0.53273918468E+03  0.53273918468E+03  0.00000000000E+00 0. -1.
         23    2    1    2    0    0 -0.26915552015E+02 -0.14077740546E+02 -0.13023417383E+03  0.16158532389E+03  0.90698661203E+02 0.  0.
         24    2    1    2    0    0 -0.11761801845E+03  0.10209420982E+03 -0.14042679656E+03  0.21966092399E+03  0.65375915984E+02 0.  0.
        -11    1    4    4    0    0 -0.10828540799E+03  0.84357437422E+02 -0.14439671146E+03  0.19922930786E+03  0.00000000000E+00 0.  1.
         12    1    4    4    0    0 -0.93326104558E+01  0.17736772401E+02  0.39699148938E+01  0.20431616123E+02  0.00000000000E+00 0. -1.
        -11    1    3    3    0    0 -0.27793202879E+02 -0.43557001501E+02 -0.36340783948E+02  0.63169035801E+02  0.00000000000E+00 0. -1.
         11    1    3    3    0    0  0.87765086385E+00  0.29479260955E+02 -0.93893389886E+02  0.98416288092E+02  0.00000000000E+00 0.  1.
          3    1    1    2  501    0  0.14453357046E+03 -0.88016469277E+02 -0.17216414247E+03  0.24140700861E+03  0.00000000000E+00 0. -1.
<scales pt_clust_5="13000.00000" pt_clust_6="13000.00000" pt_clust_7="13000.00000" pt_clust_8="13000.00000" pt_clust_9="161.45008"></scales>
<clustering>
<clus scale="   65.376">  5  6 -1 -1</clus>
<clus scale="   90.699">  7  8 -1 -1</clus>
<clus scale="   95.650">  2  7  1 -1</clus>
<clus scale="  161.450">  1  9  2 -1</clus>
<clus scale="  161.450">  1  5  2 -1</clus>
</clustering>
</event>
<event>
 9    2  0.1325014E-004  0.8695388E+02  0.7546771E-02  0.1313393E+00
          2   -1    0    0  502    0 -0.00000000000E+00  0.00000000000E+00  0.13994932179E+03  0.13994932179E+03  0.00000000000E+00 0. -1.
         21   -1    0    0  501  502  0.00000000000E+00 -0.00000000000E+00 -0.59929422182E+03  0.59929422182E+03  0.00000000000E+00 0. -1.
         24    2    1    2    0    0 -0.13836408419E+02  0.25860626681E+00  0.10809279221E+03  0.13547351592E+03  0.80482971568E+02 0.  0.
         23    2    1    2    0    0  0.83742117288E+02  0.31741864298E+01 -0.23036639616E+03  0.25950900631E+03  0.85167072343E+02 0.  0.
        -11    1    3    3    0    0  0.27646430494E+02  0.84148003642E-02  0.81833361238E+02  0.86377220385E+02  0.00000000000E+00 0.  1.
         12    1    3    3    0    0 -0.41482838914E+02  0.25019146645E+00  0.26259430971E+02  0.49096295533E+02  0.00000000000E+00 0. -1.
        -11    1    4    4    0    0  0.52729998328E+02 -0.12086274354E+02 -0.21496836139E+03  0.22167076295E+03  0.00000000000E+00 0.  1.
         11    1    4    4    0    0  0.31012118960E+02  0.15260460784E+02 -0.15398034772E+02  0.37838243360E+02  0.00000000000E+00 0. -1.
          1    1    1    2  501    0 -0.69905708868E+02 -0.34327926966E+01 -0.33707129609E+03  0.34426102138E+03  0.00000000000E+00 0. -1.
<scales pt_clust_5="13000.00000" pt_clust_6="13000.00000" pt_clust_7="13000.00000" pt_clust_8="13000.00000" pt_clust_9="69.98994"></scales>
<clustering>
<clus scale="   69.990">  2  9  1 -1</clus>
<clus scale="   80.483">  5  6 -1 -1</clus>
<clus scale="   82.371">  1  5  2 -1</clus>
<clus scale="   85.167">  7  8 -1 -1</clus>
<clus scale="   69.990">  2  5  1 -1</clus>
</clustering>
</event>
<event>
 9    2  0.1325014E-004  0.9510234E+02  0.7546771E-02  0.1301078E+00
         21   -1    0    0  501  502  0.00000000000E+00  0.00000000000E+00  0.74570696614E+03  0.74570696614E+03  0.00000000000E+00 0.  1.
         -3   -1    0    0    0  501 -0.00000000000E+00 -0.00000000000E+00 -0.34899070741E+02  0.34899070741E+02  0.00000000000E+00 0.  1.
         23    2    1    2    0    0 -0.17656609835E+02  0.15937607933E+02  0.76490967240E+02  0.12084106478E+03  0.90476138567E+02 0.  0.
         24    2    1    2    0    0  0.40543289595E+01 -0.73126086496E+02  0.53010000339E+03  0.54011251064E+03  0.73154961883E+02 0.  0.
        -13    1    4    4    0    0  0.18877702461E+02 -0.83272353851E+02  0.44904488873E+03  0.45709076195E+03  0.00000000000E+00 0.  1.
         14    1    4    4    0    0 -0.14823373501E+02  0.10146267354E+02  0.81055114656E+02  0.83021748687E+02  0.00000000000E+00 0. -1.
        -13    1    3    3    0    0 -0.46427091141E+02 -0.86891538535E+01  0.16764698703E+02  0.50120168686E+02  0.00000000000E+00 0.  1.
         13    1    3    3    0    0  0.28770481306E+02  0.24626761787E+02  0.59726268537E+02  0.70720896092E+02  0.00000000000E+00 0. -1.
         -4    1    1    2    0  502  0.13602280875E+02  0.57188478563E+02  0.10421692478E+03  0.11965246147E+03  0.00000000000E+00 0.  1.
<scales pt_clust_5="13000.00000" pt_clust_6="13000.00000" pt_clust_7="13000.00000" pt_clust_8="13000.00000" pt_clust_9="58.78391"></scales>
<clustering>
<clus scale="   58.784">  1  9  2 -1</clus>
<clus scale="   73.155">  5  6 -1 -1</clus>
<clus scale="   78.805">  1  5  2 -1</clus>
<clus scale="   90.476">  7  8 -1 -1</clus>
<clus scale="   58.784">  1  5  2 -1</clus>
</clustering>
</event>
<event>
 9    2  0.1325014E-004  0.1579025E+03  0.7546771E-02  0.1192698E+00
         21   -1    0    0  501  502  0.00000000000E+00  0.00000000000E+00  0.57520520932E+03  0.57520520932E+03  0.00000000000E+00 0. -1.
         -1   -1    0    0    0  501 -0.00000000000E+00 -0.00000000000E+00 -0.58487631496E+02  0.58487631496E+02  0.00000000000E+00 0.  1.
         23    2    1    2    0    0  0.98188576455E+02 -0.54576260719E+02  0.20159440376E+03  0.24801292279E+03  0.90832491244E+02 0.  0.
         24    2    1    2    0    0 -0.11219020153E+03  0.94891516234E+02  0.18980968092E+03  0.25329851111E+03  0.80878795660E+02 0.  0.
        -11    1    4    4    0    0 -0.44400729495E+02 -0.58119450287E+01  0.36657815574E+02  0.57870535917E+02  0.00000000000E+00 0.  1.
         12    1    4    4    0    0 -0.67789472031E+02  0.10070346126E+03  0.15315186534E+03  0.19542797519E+03  0.00000000000E+00 0. -1.
        -11    1    3    3    0    0  0.68826409085E+02  0.28294027845E+01  0.55985650536E+02  0.88766396647E+02  0.00000000000E+00 0. -1.
         11    1    3    3    0    0  0.29362167369E+02 -0.57405663503E+02  0.14560875322E+03  0.15924652615E+03  0.00000000000E+00 0.  1.
         -2    1    1    2    0  502  0.14001625071E+02 -0.40315255515E+02  0.12531349315E+03  0.13238140692E+03  0.00000000000E+00 0.  1.
<scales pt_clust_5="13000.00000" pt_clust_6="13000.00000" pt_clust_7="13000.00000" pt_clust_8="13000.00000" pt_clust_9="42.67746"></scales>
<clustering>
<clus scale="   42.677">  1  9  2 -1</clus>
<clus scale="   80.879">  5  6 -1 -1</clus>
<clus scale="   90.832">  7  8 -1 -1</clus>
<clus scale="  152.394">  1  5  2 -1</clus>
<clus scale="   42.677">  1  5  2 -1</clus>
</clustering>
</event>
<event>
 9    2  0.1325014E-004  0.1659088E+03  0.7546771E-02  0.1183727E+00
          2   -1    0    0  502    0 -0.00000000000E+00  0.00000000000E+00  0.66455989383E+03  0.66455989383E+03  0.00000000000E+00 0. -1.
         21   -1    0    0  501  502  0.00000000000E+00 -0.00000000000E+00 -0.10255074650E+03  0.10255074650E+03  0.00000000000E+00 0.  1.
         24    2    1    2    0    0 -0.86292935849E+02 -0.10690864459E+03  0.21030863254E+03  0.26374553588E+03  0.80349596837E+02 0.  0.
         23    2    1    2    0    0 -0.50017357470E+02  0.17687069135E+03  0.22573795570E+03  0.30501755506E+03  0.91066496286E+02 0.  0.
        -13    1    3    3    0    0 -0.62010657611E+02 -0.98364818849E+02  0.10957077124E+03  0.15977081446E+03  0.00000000000E+00 0.  1.
         14    1    3    3    0    0 -0.24282278239E+02 -0.85438257418E+01  0.10073786130E+03  0.10397472142E+03  0.00000000000E+00 0. -1.
        -11    1    4    4    0    0 -0.28919469851E+02  0.15343378837E+03  0.22450307912E+03  0.27345912982E+03  0.00000000000E+00 0.  1.
         11    1    4    4    0    0 -0.21097887619E+02  0.23436902984E+02  0.12348765803E+01  0.31558425240E+02  0.00000000000E+00 0. -1.
          1    1    1    2  501    0  0.13631029332E+03 -0.69962046759E+02  0.12596255909E+03  0.19834754938E+03  0.00000000000E+00 0. -1.
<scales pt_clust_5="13000.00000" pt_clust_6="13000.00000" pt_clust_7="13000.00000" pt_clust_8="13000.00000" pt_clust_9="153.21614"></scales>
<clustering>
<clus scale="   80.350">  5  6 -1 -1</clus>
<clus scale="   91.066">  7  8 -1 -1</clus>
<clus scale="  153.216">  2  9  1 -1</clus>
<clus scale="  160.277">  1  5  2 -1</clus>
<clus scale="  153.216">  2  5  1 -1</clus>
</clustering>
</event>
<event>
 9    2  0.1325014E-004  0.1311666E+03  0.7546771E-02  0.1228390E+00
         21   -1    0    0  501  502  0.00000000000E+00  0.00000000000E+00  0.87611842661E+02  0.87611842661E+02  0.00000000000E+00 0. -1.
          2   -1    0    0  502    0 -0.00000000000E+00 -0.00000000000E+00 -0.31575839380E+03  0.31575839380E+03  0.00000000000E+00 0. -1.
         23    2    1    2    0    0 -0.98830207433E+02  0.43705493199E+02 -0.13177452131E+03  0.19330352911E+03  0.91236779102E+02 0.  0.
         24    2    1    2    0    0  0.41953674482E+02 -0.77513609637E+02 -0.51934112547E+02  0.13036314890E+03  0.80801782559E+02 0.  0.
        -13    1    4    4    0    0  0.35308949462E+02 -0.25964326220E+02 -0.63461168806E+02  0.77124497369E+02  0.00000000000E+00 0.  1.
         14    1    4    4    0    0  0.66447250202E+01 -0.51549283417E+02  0.11527056258E+02  0.53238651536E+02  0.00000000000E+00 0. -1.
        -11    1    3    3    0    0 -0.38810106458E+02  0.67727791002E+01  0.47312931808E+01  0.39679718185E+02  0.00000000000E+00 0.  1.
         11    1    3    3    0    0 -0.60020100974E+02  0.36932714099E+02 -0.13650581449E+03  0.15362381092E+03  0.00000000000E+00 0. -1.
          1    1    1    2  501    0  0.56876532950E+02  0.33808116438E+02 -0.44437917283E+02  0.79703558452E+02  0.00000000000E+00 0. -1.
<scales pt_clust_5="13000.00000" pt_clust_6="13000.00000" pt_clust_7="13000.00000" pt_clust_8="13000.00000" pt_clust_9="66.16592"></scales>
<clustering>
<clus scale="   66.166">  1  9  2 -1</clus>
<clus scale="   80.802">  5  6 -1 -1</clus>
<clus scale="   91.237">  7  8 -1 -1</clus>
<clus scale="  124.135">  1  5  2 -1</clus>
<clus scale="   66.166">  1  5  2 -1</clus>
</clustering>
</event>
<event>
 9    2  0.1325014E-004  0.1426590E+03  0.7546771E-02  0.1228626E+00
         21   -1    0    0  501  502  0.00000000000E+00  0.00000000000E+00  0.57166257389E+02  0.57166257389E+02  0.00000000000E+00 0. -1.
          2   -1    0    0  502    0 -0.00000000000E+00 -0.00000000000E+00 -0.14026336029E+04  0.14026336029E+04  0.00000000000E+00 0. -1.
         23    2    1    2    0    0 -0.10925531456E+02  0.16925802370E+02 -0.21684524798E+03  0.23715175149E+03  0.93878866842E+02 0.  0.
         24    2    1    2    0    0  0.66233677130E+02  0.87899355516E+02 -0.10892693499E+04  0.10977643891E+04  0.80409829591E+02 0.  0.
        -13    1    4    4    0    0  0.59437347590E+02  0.36582669031E+02 -0.36274090977E+03  0.36939417643E+03  0.00000000000E+00 0.  1.
         14    1    4    4    0    0  0.67963295400E+01  0.51316686485E+02 -0.72652844011E+03  0.72837021266E+03  0.00000000000E+00 0. -1.
        -11    1    3    3    0    0  0.50679367559E+01 -0.35627969397E+02 -0.12553009650E+03  0.13058652807E+03  0.00000000000E+00 0. -1.
         11    1    3    3    0    0 -0.15993468212E+02  0.52553771767E+02 -0.91315151474E+02  0.10656522341E+03  0.00000000000E+00 0.  1.
          1    1    1    2  501    0 -0.55308145674E+02 -0.10482515789E+03 -0.39352747679E+02  0.12488371973E+03  0.00000000000E+00 0. -1.
<scales pt_clust_5="13000.00000" pt_clust_6="13000.00000" pt_clust_7="13000.00000" pt_clust_8="13000.00000" pt_clust_9="117.83819"></scales>
<clustering>
<clus scale="   80.410">  5  6 -1 -1</clus>
<clus scale="   93.879">  7  8 -1 -1</clus>
<clus scale="   96.016">  2  7  1 -1</clus>
<clus scale="  117.838">  1  9  2 -1</clus>
<clus scale="  117.838">  1  5  2 -1</clus>
</clustering>
</event>
<event>
 9    2  0.1325014E-004  0.1495803E+03  0.7546771E-02  0.1203083E+00
         21   -1    0    0  501  502  0.00000000000E+00  0.00000000000E+00  0.27086473931E+03  0.27086473931E+03  0.00000000000E+00 0.  1.
         -1   -1    0    0    0  501 -0.00000000000E+00 -0.00000000000E+00 -0.11479061780E+03  0.11479061780E+03  0.00000000000E+00 0.  1.
         23    2    1    2    0    0  0.69272177507E+02 -0.85621364696E+02  0.20034209886E+02  0.14449477683E+03  0.91365848629E+02 0.  0.
         24    2    1    2    0    0 -0.10999545734E+03  0.80500876572E+02  0.10865641348E+03  0.19182032401E+03  0.80058907981E+02 0.  0.
        -13    1    4    4    0    0 -0.10777100259E+03  0.86882842667E+02  0.74902280706E+02  0.15739621661E+03  0.00000000000E+00 0.  1.
         14    1    4    4    0    0 -0.22244547455E+01 -0.63819660956E+01  0.33754132778E+02  0.34424107393E+02  0.00000000000E+00 0. -1.
        -11    1    3    3    0    0  0.91286082414E+02 -0.66035037280E+02  0.89811361719E+01  0.11302404964E+03  0.00000000000E+00 0.  1.
         11    1    3    3    0    0 -0.22013904907E+02 -0.19586327416E+02  0.11053073714E+02  0.31470727183E+02  0.00000000000E+00 0. -1.
         -2    1    1    2    0  502  0.40723279829E+02  0.51204881248E+01  0.27383498140E+02  0.49340256272E+02  0.00000000000E+00 0.  1.
<scales pt_clust_5="13000.00000" pt_clust_6="13000.00000" pt_clust_7="13000.00000" pt_clust_8="13000.00000" pt_clust_9="41.04394"></scales>
<clustering>
<clus scale="   41.044">  1  9  2 -1</clus>
<clus scale="   80.059">  5  6 -1 -1</clus>
<clus scale="   91.366">  7  8 -1 -1</clus>
<clus scale="  142.954">  1  5  2 -1</clus>
<clus scale="   41.044">  1  5  2 -1</clus>
</clustering>
</event>
<event>
 9    2  0.1325014E-004  0.9930809E+02  0.7546771E-02  0.1285784E+00
         21   -1    0    0  501  502  0.00000000000E+00  0.00000000000E+00  0.31232939955E+03  0.31232939955E+03  0.00000000000E+00 0. -1.
          2   -1    0    0  502    0 -0.00000000000E+00 -0.00000000000E+00 -0.67069098455E+02  0.67069098455E+02  0.00000000000E+00 0. -1.
         24    2    1    2    0    0 -0.36569057304E+01 -0.37843689346E+02  0.40562540060E+01  0.91613362075E+02  0.83252850589E+02 0.  0.
         23    2    1    2    0    0 -0.43569795544E+02  0.41984576462E+02  0.16385634021E+03  0.19706481837E+03  0.91239304395E+02 0.  0.
        -13    1    3    3    0    0 -0.15844330744E+02  0.21268149458E+02 -0.12073435856E+02  0.29140090107E+02  0.00000000000E+00 0.  1.
         14    1    3    3    0    0  0.12187425014E+02 -0.59111838804E+02  0.16129689862E+02  0.62473271968E+02  0.00000000000E+00 0. -1.
        -11    1    4    4    0    0  0.26889629144E+02 -0.10511275777E+01  0.39389205263E+02  0.47703946545E+02  0.00000000000E+00 0.  1.
         11    1    4    4    0    0 -0.70459424688E+02  0.43035704040E+02  0.12446713495E+03  0.14936087182E+03  0.00000000000E+00 0. -1.
          1    1    1    2  501    0  0.47226701275E+02 -0.41408871155E+01  0.77347706874E+02  0.90720317559E+02  0.00000000000E+00 0. -1.
<scales pt_clust_5="13000.00000" pt_clust_6="13000.00000" pt_clust_7="13000.00000" pt_clust_8="13000.00000" pt_clust_9="47.40789"></scales>
<clustering>
<clus scale="   47.408">  1  9  2 -1</clus>
<clus scale="   83.253">  5  6 -1 -1</clus>
<clus scale="   91.239">  7  8 -1 -1</clus>
<clus scale="   92.025">  2  5  1 -1</clus>
<clus scale="   47.408">  1  5  2 -1</clus>
</clustering>
</event>
<event>
 9    2  0.1325014E-004  0.8984365E+02  0.7546771E-02  0.1308884E+00
         -1   -1    0    0    0  501 -0.00000000000E+00  0.00000000000E+00  0.48968902618E+02  0.48968902618E+02  0.00000000000E+00 0.  1.
         21   -1    0    0  501  502  0.00000000000E+00 -0.00000000000E+00 -0.52306102335E+03  0.52306102335E+03  0.00000000000E+00 0.  1.
         23    2    1    2    0    0 -0.18410472796E+02  0.74285109807E+01 -0.47445988199E+02  0.10337331421E+03  0.89670463426E+02 0.  0.
         24    2    1    2    0    0 -0.45821208124E+02  0.19621858761E+02 -0.11419339625E+03  0.14852516415E+03  0.80839298505E+02 0.  0.
        -11    1    4    4    0    0 -0.39356477812E+02  0.37534106242E+02 -0.11723993131E+03  0.12923986602E+03  0.00000000000E+00 0.  1.
         12    1    4    4    0    0 -0.64647303120E+01 -0.17912247481E+02  0.30465350579E+01  0.19285298123E+02  0.00000000000E+00 0. -1.
        -11    1    3    3    0    0 -0.49277486390E+02  0.25065761385E+02 -0.36212379504E+02  0.66090086155E+02  0.00000000000E+00 0.  1.
         11    1    3    3    0    0  0.30867013594E+02 -0.17637250404E+02 -0.11233608695E+02  0.37283228057E+02  0.00000000000E+00 0. -1.
         -2    1    1    2    0  502  0.64231680920E+02 -0.27050369742E+02 -0.31245273629E+03  0.32013144761E+03  0.00000000000E+00 0.  1.
<scales pt_clust_5="13000.00000" pt_clust_6="13000.00000" pt_clust_7="13000.00000" pt_clust_8="13000.00000" pt_clust_9="69.69527"></scales>
<clustering>
<clus scale="   69.695">  2  9  1 -1</clus>
<clus scale="   80.839">  5  6 -1 -1</clus>
<clus scale="   81.031">  2  5  1 -1</clus>
<clus scale="   89.670">  7  8 -1 -1</clus>
<clus scale="   69.695">  2  5  1 -1</clus>
</clustering>
</event>
<event>
 9    2  0.1325014E-004  0.1423320E+03  0.7546771E-02  0.1224891E+00
         21   -1    0    0  501  502  0.00000000000E+00  0.00000000000E+00  0.56333024973E+02  0.56333024973E+02  0.00000000000E+00 0.  1.
         -1   -1    0    0    0  501 -0.00000000000E+00 -0.00000000000E+00 -0.77571658284E+03  0.77571658284E+03  0.00000000000E+00 0.  1.
         23    2    1    2    0    0 -0.55270134456E+02 -0.16707526041E+01 -0.42389375041E+03  0.44560334643E+03  0.12577301594E+03 0.  0.
         24    2    1    2    0    0  0.75502721385E+02  0.11356648065E+02 -0.32839423405E+03  0.34662320985E+03  0.80468889999E+02 0.  0.
        -13    1    4    4    0    0  0.76732444713E+02 -0.12526027422E+01 -0.32437848592E+03  0.33333292549E+03  0.00000000000E+00 0.  1.
         14    1    4    4    0    0 -0.12297233282E+01  0.12609250807E+02 -0.40157481276E+01  0.13290284362E+02  0.00000000000E+00 0. -1.
        -13    1    3    3    0    0 -0.12907626245E+01 -0.58365827371E+02 -0.20409083110E+03  0.21227647824E+03  0.00000000000E+00 0. -1.
         13    1    3    3    0    0 -0.53979371831E+02  0.56695074767E+02 -0.21980291930E+03  0.23332686819E+03  0.00000000000E+00 0.  1.
         -2    1    1    2    0  502 -0.20232586929E+02 -0.96858954611E+01  0.32904426585E+02  0.39823051536E+02  0.00000000000E+00 0.  1.
<scales pt_clust_5="13000.00000" pt_clust_6="13000.00000" pt_clust_7="13000.00000" pt_clust_8="13000.00000" pt_clust_9="22.43154"></scales>
<clustering>
<clus scale="   22.432">  1  9  2 -1</clus>
<clus scale="   80.469">  5  6 -1 -1</clus>
<clus scale="  104.474">  1  5  2 -1</clus>
<clus scale="  125.773">  7  8 -1 -1</clus>
<clus scale="   22.432">  1  5  2 -1</clus>
</clustering>
</event>
<event>
 9    2  0.1325014E-004  0.1026570E+03  0.7546771E-02  0.1277854E+00
         21   -1    0    0  501  502  0.00000000000E+00  0.00000000000E+00  0.14565611762E+03  0.14565611762E+03  0.00000000000E+00 0. -1.
          2   -1    0    0  502    0 -0.00000000000E+00 -0.00000000000E+00 -0.45483396440E+03  0.45483396440E+03  0.00000000000E+00 0. -1.
         23    2    1    2    0    0 -0.32064538827E+02  0.42753171719E+02 -0.42197775337E+03  0.43444801939E+03  0.88452749346E+02 0.  0.
         24    2    1    2    0    0  0.72878156490E+01 -0.27305279777E+02  0.10471255001E+03  0.13574472425E+03  0.81628557932E+02 0.  0.
        -11    1    4    4    0    0  0.13694206578E+02 -0.31463796949E+02  0.37785452056E+01  0.34522155439E+02  0.00000000000E+00 0.  1.
         12    1    4    4    0    0 -0.64063909291E+01  0.41585171723E+01  0.10093400481E+03  0.10122256881E+03  0.00000000000E+00 0. -1.
        -13    1    3    3    0    0 -0.44728202344E+02  0.63725811187E+02 -0.34454220083E+03  0.35322927293E+03  0.00000000000E+00 0. -1.
         13    1    3    3    0    0  0.12663663517E+02 -0.20972639468E+02 -0.77435552540E+02  0.81218746464E+02  0.00000000000E+00 0.  1.
          1    1    1    2  501    0  0.24776723178E+02 -0.15447891942E+02  0.80873565755E+01  0.30297338386E+02  0.00000000000E+00 0. -1.
<scales pt_clust_5="13000.00000" pt_clust_6="13000.00000" pt_clust_7="13000.00000" pt_clust_8="13000.00000" pt_clust_9="29.19800"></scales>
<clustering>
<clus scale="   29.198">  1  9  2 -1</clus>
<clus scale="   81.629">  5  6 -1 -1</clus>
<clus scale="   88.453">  7  8 -1 -1</clus>
<clus scale="   96.839">  1  5  2 -1</clus>
<clus scale="   29.198">  1  5  2 -1</clus>
</clustering>
</event>
<event>
 9    2  0.1325014E-004  0.1534505E+03  0.7546771E-02  0.1209783E+00
          2   -1    0    0  502    0 -0.00000000000E+00  0.00000000000E+00  0.76165587059E+03  0.76165587059E+03  0.00000000000E+00 0. -1.
         21   -1    0    0  501  502  0.00000000000E+00 -0.00000000000E+00 -0.63728449666E+02  0.63728449666E+02  0.00000000000E+00 0. -1.
         23    2    1    2    0    0 -0.68367436833E+02 -0.16763655940E+02  0.17088460168E+03  0.20578654313E+03  0.90506506190E+02 0.  0.
         24    2    1    2    0    0 -0.76348368910E+02  0.38105055725E+02  0.42583802771E+03  0.44171992689E+03  0.80606446751E+02 0.  0.
        -13    1    4    4    0    0 -0.14296571021E+01  0.39435977354E+02  0.10300974808E+03  0.11030978392E+03  0.00000000000E+00 0.  1.
         14    1    4    4    0    0 -0.74918711807E+02 -0.13309216286E+01  0.32282827963E+03  0.33141014297E+03  0.00000000000E+00 0. -1.
        -11    1    3    3    0    0 -0.72112807115E+02  0.14469126208E+02  0.15260471526E+03  0.16940428472E+03  0.00000000000E+00 0. -1.
         11    1    3    3    0    0  0.37453702828E+01 -0.31232782148E+02  0.18279886421E+02  0.36382258408E+02  0.00000000000E+00 0.  1.
          1    1    1    2  501    0  0.14471580574E+03 -0.21341399785E+02  0.10120479154E+03  0.17787785024E+03  0.00000000000E+00 0. -1.
<scales pt_clust_5="13000.00000" pt_clust_6="13000.00000" pt_clust_7="13000.00000" pt_clust_8="13000.00000" pt_clust_9="130.57431"></scales>
<clustering>
<clus scale="   80.606">  5  6 -1 -1</clus>
<clus scale="   90.507">  7  8 -1 -1</clus>
<clus scale="  114.658">  1  7  2 -1</clus>
<clus scale="  130.574">  2  9  1 -1</clus>
<clus scale="  130.574">  2  5  1 -1</clus>
</clustering>
</event>
<event>
 9    2  0.1325014E-004  0.1198353E+03  0.7546771E-02  0.1246789E+00
          2   -1    0    0  502    0 -0.00000000000E+00  0.00000000000E+00  0.23870187209E+03  0.23870187209E+03  0.00000000000E+00 0. -1.
         21   -1    0    0  501  502  0.00000000000E+00 -0.00000000000E+00 -0.16370707897E+03  0.16370707897E+03  0.00000000000E+00 0.  1.
         24    2    1    2    0    0 -0.67883286093E+02 -0.39223324834E+02  0.15395142944E+03  0.18973648030E+03  0.78436468492E+02 0.  0.
         23    2    1    2    0    0  0.82184839091E+02  0.24864845815E+02  0.71684635602E+01  0.12419516764E+03  0.89445203677E+02 0.  0.
        -13    1    3    3    0    0 -0.53261308695E+02  0.86239210401E+01  0.46577369211E+02  0.71278259943E+02  0.00000000000E+00 0.  1.
         14    1    3    3    0    0 -0.14621977399E+02 -0.47847245874E+02  0.10737406023E+03  0.11845822036E+03  0.00000000000E+00 0. -1.
        -11    1    4    4    0    0  0.59633065182E+02  0.57875461913E+02  0.11859483693E+02  0.83942354674E+02  0.00000000000E+00 0.  1.
         11    1    4    4    0    0  0.22551773908E+02 -0.33010616098E+02 -0.46910201325E+01  0.40252812964E+02  0.00000000000E+00 0. -1.
          1    1    1    2  501    0 -0.14301552997E+02  0.14358479019E+02 -0.86125099885E+02  0.88477303124E+02  0.00000000000E+00 0. -1.
<scales pt_clust_5="13000.00000" pt_clust_6="13000.00000" pt_clust_7="13000.00000" pt_clust_8="13000.00000" pt_clust_9="20.26574"></scales>
<clustering>
<clus scale="   20.266">  2  9  1 -1</clus>
<clus scale="   78.436">  5  6 -1 -1</clus>
<clus scale="   89.445">  7  8 -1 -1</clus>
<clus scale="  111.859">  1  5  2 -1</clus>
<clus scale="   20.266">  2  5  1 -1</clus>
</clustering>
</event>
<event>
 9    2  0.1479295E-004  0.1103431E+03  0.7546771E-02  0.1262591E+00
         21   -1    0    0  501  502  0.00000000000E+00  0.00000000000E+00  0.34041932612E+03  0.34041932612E+03  0.00000000000E+00 0.  1.
         -3   -1    0    0    0  501 -0.00000000000E+00 -0.00000000000E+00 -0.12244863506E+03  0.12244863506E+03  0.00000000000E+00 0.  1.
         23    2    1    2    0    0 -0.45539189511E+02 -0.41974917111E+02  0.78550960953E+02  0.13237694419E+03  0.86704616015E+02 0.  0.
         24    2    1    2    0    0  0.18420773412E+02  0.90401369070E+02  0.20876010215E+03  0.24167313063E+03  0.79456839828E+02 0.  0.
        -13    1    4    4    0    0  0.28597732437E+02  0.72897863583E+02  0.82295035971E+02  0.11359754294E+03  0.00000000000E+00 0.  1.
         14    1    4    4    0    0 -0.10176959025E+02  0.17503505487E+02  0.12646506618E+03  0.12807558769E+03  0.00000000000E+00 0. -1.
        -11    1    3    3    0    0 -0.59750548730E+02 -0.11169314513E+02  0.18730271452E+02  0.63605854517E+02  0.00000000000E+00 0. -1.
         11    1    3    3    0    0  0.14211359218E+02 -0.30805602598E+02  0.59820689501E+02  0.68771089672E+02  0.00000000000E+00 0.  1.
         -4    1    1    2    0  502  0.27118416099E+02 -0.48426451959E+02 -0.69340372045E+02  0.88817886354E+02  0.00000000000E+00 0.  1.
<scales pt_clust_5="13000.00000" pt_clust_6="13000.00000" pt_clust_7="13000.00000" pt_clust_8="13000.00000" pt_clust_9="55.50255"></scales>
<clustering>
<clus scale="   55.503">  1  9  2 -1</clus>
<clus scale="   79.457">  5  6 -1 -1</clus>
<clus scale="   86.705">  7  8 -1 -1</clus>
<clus scale="  104.744">  1  5  2 -1</clus>
<clus scale="   55.503">  1  5  2 -1</clus>
</clustering>
</event>
<event>
 9    2  0.1325014E-004  0.9579475E+02  0.7546771E-02  0.1294239E+00
          2   -1    0    0  502    0 -0.00000000000E+00  0.00000000000E+00  0.23550590169E+03  0.23550590169E+03  0.00000000000E+00 0. -1.
         21   -1    0    0  501  502  0.00000000000E+00 -0.00000000000E+00 -0.21557935689E+03  0.21557935689E+03  0.00000000000E+00 0. -1.
         23    2    1    2    0    0 -0.25691405428E+02  0.17210047802E+02  0.20652922601E+03  0.22757315469E+03  0.90437743675E+02 0.  0.
         24    2    1    2    0    0  0.19915555697E+02 -0.41048803128E+02 -0.11734756788E+03  0.15004158314E+03  0.81611220950E+02 0.  0.
        -11    1    4    4    0    0  0.37610720845E+02 -0.53925985666E+02 -0.61369854907E+02  0.89937963863E+02  0.00000000000E+00 0.  1.
         12    1    4    4    0    0 -0.17695165147E+02  0.12877182537E+02 -0.55977712978E+02  0.60103619275E+02  0.00000000000E+00 0. -1.
        -11    1    3    3    0    0 -0.39192719997E+01  0.36930525040E+02  0.19054493349E+03  0.19413035840E+03  0.00000000000E+00 0. -1.
         11    1    3    3    0    0 -0.21772133428E+02 -0.19720477238E+02  0.15984292521E+02  0.33442796293E+02  0.00000000000E+00 0.  1.
          1    1    1    2  501    0  0.57758497305E+01  0.23838755326E+02 -0.69255113337E+02  0.73470520747E+02  0.00000000000E+00 0. -1.
<scales pt_clust_5="13000.00000" pt_clust_6="13000.00000" pt_clust_7="13000.00000" pt_clust_8="13000.00000" pt_clust_9="24.52849"></scales>
<clustering>
<clus scale="   24.528">  2  9  1 -1</clus>
<clus scale="   81.611">  5  6 -1 -1</clus>
<clus scale="   87.510">  2  5  1 -1</clus>
<clus scale="   90.438">  7  8 -1 -1</clus>
<clus scale="   24.528">  2  5  1 -1</clus>
</clustering>
</event>
<event>
 9    2  0.1325014E-004  0.9494206E+02  0.7546771E-02  0.1299860E+00
         21   -1    0    0  501  502  0.00000000000E+00  0.00000000000E+00  0.10436324398E+03  0.10436324398E+03  0.00000000000E+00 0. -1.
          2   -1    0    0  502    0 -0.00000000000E+00 -0.00000000000E+00 -0.52039834328E+03  0.52039834328E+03  0.00000000000E+00 0. -1.
         24    2    1    2    0    0 -0.12885661532E+02 -0.45498917980E+01 -0.43268610836E+03  0.44021252435E+03  0.79894032566E+02 0.  0.
         23    2    1    2    0    0  0.19424601066E+02 -0.58844603949E+02 -0.14668170541E+02  0.11353842406E+03  0.93999021113E+02 0.  0.
        -11    1    3    3    0    0  0.42984613294E+01  0.20815491653E+02 -0.32361974673E+02  0.38717681584E+02  0.00000000000E+00 0.  1.
         12    1    3    3    0    0 -0.17184122861E+02 -0.25365383451E+02 -0.40032413368E+03  0.40149484276E+03  0.00000000000E+00 0. -1.
        -11    1    4    4    0    0  0.41228732842E+02  0.79381511712E+01 -0.98210152854E+01  0.43119311184E+02  0.00000000000E+00 0.  1.
         11    1    4    4    0    0 -0.21804131776E+02 -0.66782755121E+02 -0.48471552556E+01  0.70419112875E+02  0.00000000000E+00 0. -1.
          1    1    1    2  501    0 -0.65389395344E+01  0.63394495747E+02  0.31319179595E+02  0.71010638864E+02  0.00000000000E+00 0. -1.
<scales pt_clust_5="13000.00000" pt_clust_6="13000.00000" pt_clust_7="13000.00000" pt_clust_8="13000.00000" pt_clust_9="63.73084"></scales>
<clustering>
<clus scale="   63.731">  1  9  2 -1</clus>
<clus scale="   79.894">  5  6 -1 -1</clus>
<clus scale="   81.001">  2  5  1 -1</clus>
<clus scale="   93.999">  7  8 -1 -1</clus>
<clus scale="   63.731">  1  5  2 -1</clus>
</clustering>
</event>
<event>
 9    2  0.1325014E-004  0.1040711E+03  0.7546771E-02  0.1277013E+00
         21   -1    0    0  501  502  0.00000000000E+00  0.00000000000E+00  0.83765757533E+02  0.83765757533E+02  0.00000000000E+00 0.  1.
          2   -1    0    0  502    0 -0.00000000000E+00 -0.00000000000E+00 -0.33383323351E+03  0.33383323351E+03  0.00000000000E+00 0. -1.
         24    2    1    2    0    0 -0.52929886495E+02  0.18828588067E+02 -0.25139574592E+03  0.27011881181E+03  0.81291222250E+02 0.  0.
         23    2    1    2    0    0  0.19679893911E+02  0.82130046323E+01 -0.23970830122E+02  0.97712175380E+02  0.92294728188E+02 0.  0.
        -13    1    3    3    0    0  0.13673637502E+02  0.28374094968E+02 -0.83478552030E+02  0.89222902198E+02  0.00000000000E+00 0.  1.
         14    1    3    3    0    0 -0.66603523997E+02 -0.95455069005E+01 -0.16791719389E+03  0.18089590962E+03  0.00000000000E+00 0. -1.
        -11    1    4    4    0    0  0.31823089904E+02  0.43476202928E+02 -0.27054252312E+02  0.60289483662E+02  0.00000000000E+00 0. -1.
         11    1    4    4    0    0 -0.12143195994E+02 -0.35263198296E+02  0.30834221899E+01  0.37422691718E+02  0.00000000000E+00 0.  1.
          1    1    1    2  501    0  0.33249992585E+02 -0.27041592699E+02  0.25299100070E+02  0.49768003847E+02  0.00000000000E+00 0. -1.
<scales pt_clust_5="13000.00000" pt_clust_6="13000.00000" pt_clust_7="13000.00000" pt_clust_8="13000.00000" pt_clust_9="42.85802"></scales>
<clustering>
<clus scale="   42.858">  1  9  2 -1</clus>
<clus scale="   81.291">  5  6 -1 -1</clus>
<clus scale="   92.295">  7  8 -1 -1</clus>
<clus scale="   94.450">  2  5  1 -1</clus>
<clus scale="   42.858">  1  5  2 -1</clus>
</clustering>
</event>
<event>
 9    2  0.1325014E-004  0.4628707E+03  0.7546771E-02  0.1089109E+00
          2   -1    0    0  502    0 -0.00000000000E+00  0.00000000000E+00  0.13647782543E+04  0.13647782543E+04  0.00000000000E+00 0. -1.
         21   -1    0    0  501  502  0.00000000000E+00 -0.00000000000E+00 -0.21664199680E+03  0.21664199680E+03  0.00000000000E+00 0. -1.
         24    2    1    2    0    0 -0.15038789884E+02 -0.14108575248E+02  0.97058318877E+02  0.12186735617E+03  0.70753926676E+02 0.  0.
         23    2    1    2    0    0 -0.86879424958E+01  0.45665831527E+03  0.21638697364E+03  0.51450144805E+03  0.96312618248E+02 0.  0.
        -13    1    3    3    0    0  0.23997960359E+02 -0.72377574364E+01  0.68702086878E+02  0.73131826009E+02  0.00000000000E+00 0.  1.
         14    1    3    3    0    0 -0.39036750243E+02 -0.68708178113E+01  0.28356231999E+02  0.48735530161E+02  0.00000000000E+00 0. -1.
        -13    1    4    4    0    0  0.46793094872E+01  0.19452054592E+03  0.41087824563E+02  0.19886766467E+03  0.00000000000E+00 0.  1.
         13    1    4    4    0    0 -0.13367251983E+02  0.26213776935E+03  0.17529914908E+03  0.31563378338E+03  0.00000000000E+00 0. -1.
          1    1    1    2  501    0  0.23726732380E+02 -0.44254974002E+03  0.83469096501E+03  0.94505144690E+03  0.00000000000E+00 0. -1.
<scales pt_clust_5="13000.00000" pt_clust_6="13000.00000" pt_clust_7="13000.00000" pt_clust_8="13000.00000" pt_clust_9="452.73987"></scales>
<clustering>
<clus scale="   70.754">  5  6 -1 -1</clus>
<clus scale="   73.698">  1  5  2 -1</clus>
<clus scale="   96.313">  7  8 -1 -1</clus>
<clus scale="  452.740">  2  9  1 -1</clus>
<clus scale="  452.740">  2  5  1 -1</clus>
</clustering>
</event>
<event>
 9    2  0.1325014E-004  0.1294214E+03  0.7546771E-02  0.1232647E+00
         -3   -1    0    0    0  501 -0.00000000000E+00  0.00000000000E+00  0.18621906262E+03  0.18621906262E+03  0.00000000000E+00 0.  1.
         21   -1    0    0  501  502  0.00000000000E+00 -0.00000000000E+00 -0.11787639512E+03  0.11787639512E+03  0.00000000000E+00 0. -1.
         23    2    1    2    0    0 -0.87190648412E+02 -0.31254359456E+01  0.66007296020E+02  0.14268887936E+03  0.91603360446E+02 0.  0.
         24    2    1    2    0    0  0.94393015860E+02  0.37377936402E+02  0.37091415376E+01  0.12637808814E+03  0.75169886645E+02 0.  0.
        -13    1    4    4    0    0  0.24475473283E+02  0.70654176861E+01  0.35593862609E+02  0.43770903291E+02  0.00000000000E+00 0.  1.
         14    1    4    4    0    0  0.69917542577E+02  0.30312518716E+02 -0.31884721071E+02  0.82607184849E+02  0.00000000000E+00 0. -1.
        -13    1    3    3    0    0 -0.57124469788E+02 -0.41078538930E+00 -0.12586990189E+02  0.58496205990E+02  0.00000000000E+00 0. -1.
         13    1    3    3    0    0 -0.30066178624E+02 -0.27146505563E+01  0.78594286208E+02  0.84192673371E+02  0.00000000000E+00 0.  1.
         -4    1    1    2    0  502 -0.72023674476E+01 -0.34252500457E+02 -0.13737700522E+01  0.35028490241E+02  0.00000000000E+00 0.  1.
<scales pt_clust_5="13000.00000" pt_clust_6="13000.00000" pt_clust_7="13000.00000" pt_clust_8="13000.00000" pt_clust_9="35.00154"></scales>
<clustering>
<clus scale="   35.002">  2  9  1 -1</clus>
<clus scale="   75.170">  5  6 -1 -1</clus>
<clus scale="   91.603">  7  8 -1 -1</clus>
<clus scale="  118.361">  2  5  1 -1</clus>
<clus scale="   35.002">  2  5  1 -1</clus>
</clustering>
</event>
<event>
 9    2  0.1325014E-004  0.1545332E+03  0.7546771E-02  0.1196506E+00
          2   -1    0    0  502    0 -0.00000000000E+00  0.00000000000E+00  0.42586320525E+03  0.42586320525E+03  0.00000000000E+00 0. -1.
         21   -1    0    0  501  502  0.00000000000E+00 -0.00000000000E+00 -0.80096250781E+02  0.80096250781E+02  0.00000000000E+00 0. -1.
         24    2    1    2    0    0 -0.14439933635E+02  0.12288417635E+03  0.21729591825E+03  0.26173012838E+03  0.77305313721E+02 0.  0.
         23    2    1    2    0    0  0.54157363364E+02 -0.12864589528E+03  0.11950621087E+03  0.20310707428E+03  0.86533015701E+02 0.  0.
        -11    1    3    3    0    0  0.20948998261E+02  0.25542009273E+02  0.19246578372E+02  0.38231996349E+02  0.00000000000E+00 0.  1.
         12    1    3    3    0    0 -0.35388931896E+02  0.97342167082E+02  0.19804933988E+03  0.22349813203E+03  0.00000000000E+00 0. -1.
        -13    1    4    4    0    0  0.23106064213E+02 -0.11716354457E+03  0.12094795115E+03  0.16996938921E+03  0.00000000000E+00 0. -1.
         13    1    4    4    0    0  0.31051299150E+02 -0.11482350710E+02 -0.14417402828E+01  0.33137685070E+02  0.00000000000E+00 0.  1.
          1    1    1    2  501    0 -0.39717429729E+02  0.57617189240E+01  0.89648253455E+01  0.41122253376E+02  0.00000000000E+00 0. -1.
<scales pt_clust_5="13000.00000" pt_clust_6="13000.00000" pt_clust_7="13000.00000" pt_clust_8="13000.00000" pt_clust_9="40.13317"></scales>
<clustering>
<clus scale="   40.133">  2  9  1 -1</clus>
<clus scale="   77.305">  5  6 -1 -1</clus>
<clus scale="   86.533">  7  8 -1 -1</clus>
<clus scale="  149.562">  1  5  2 -1</clus>
<clus scale="   40.133">  2  5  1 -1</clus>
</clustering>
</event>
<event>
 9    2  0.1325014E-004  0.1887959E+03  0.7546771E-02  0.1160655E+00
         21   -1    0    0  501  502  0.00000000000E+00  0.00000000000E+00  0.41630963531E+02  0.41630963531E+02  0.00000000000E+00 0. -1.
          2   -1    0    0  502    0 -0.00000000000E+00 -0.00000000000E+00 -0.10825628331E+04  0.10825628331E+04  0.00000000000E+00 0. -1.
         23    2    1    2    0    0 -0.12606304036E+03  0.10814151450E+03 -0.47434123395E+03  0.51093081379E+03  0.92001157309E+02 0.  0.
         24    2    1    2    0    0  0.14087491432E+03 -0.85130510143E+02 -0.35344733083E+03  0.39837006461E+03  0.81735839542E+02 0.  0.
        -11    1    4    4    0    0  0.85357854456E+02 -0.79603683666E+02 -0.29650918625E+03  0.31865405584E+03  0.00000000000E+00 0.  1.
         12    1    4    4    0    0  0.55517059862E+02 -0.55268264768E+01 -0.56938144582E+02  0.79716008776E+02  0.00000000000E+00 0. -1.
        -11    1    3    3    0    0 -0.62339488544E+02  0.40377682849E+02 -0.96308332441E+02  0.12162180726E+03  0.00000000000E+00 0.  1.
         11    1    3    3    0    0 -0.63723551819E+02  0.67763831650E+02 -0.37803290151E+03  0.38930900652E+03  0.00000000000E+00 0. -1.
          1    1    1    2  501    0 -0.14811873954E+02 -0.23011004357E+02 -0.21314330474E+03  0.21489291818E+03  0.00000000000E+00 0. -1.
<scales pt_clust_5="13000.00000" pt_clust_6="13000.00000" pt_clust_7="13000.00000" pt_clust_8="13000.00000" pt_clust_9="27.36601"></scales>
<clustering>
<clus scale="   27.366">  1  9  2 -1</clus>
<clus scale="   81.736">  5  6 -1 -1</clus>
<clus scale="   92.001">  7  8 -1 -1</clus>
<clus scale="  184.012">  1  5  2 -1</clus>
<clus scale="   27.366">  1  5  2 -1</clus>
</clustering>
</event>
<event>
 9    2  0.1325014E-004  0.3218093E+03  0.7546771E-02  0.1118707E+00
         21   -1    0    0  501  502  0.00000000000E+00  0.00000000000E+00  0.21822995585E+03  0.21822995585E+03  0.00000000000E+00 0. -1.
          4   -1    0    0  502    0 -0.00000000000E+00 -0.00000000000E+00 -0.77153890394E+03  0.77153890394E+03  0.00000000000E+00 0. -1.
         24    2    1    2    0    0  0.55849254403E+02 -0.24612827704E+02 -0.22257695750E+03  0.24495916209E+03  0.82094814549E+02 0.  0.
         23    2    1    2    0    0  0.16648219247E+03  0.24895878766E+03 -0.28996070263E+03  0.42633728141E+03  0.89383835701E+02 0.  0.
        -13    1    3    3    0    0  0.46277979607E+02  0.13554551068E+02 -0.18262066707E+03  0.18888008178E+03  0.00000000000E+00 0.  1.
         14    1    3    3    0    0  0.95712747958E+01 -0.38167378772E+02 -0.39956290429E+02  0.56079080309E+02  0.00000000000E+00 0. -1.
        -11    1    4    4    0    0  0.16461576991E+03  0.18445082099E+03 -0.24178138482E+03  0.34580152561E+03  0.00000000000E+00 0. -1.
         11    1    4    4    0    0  0.18664225548E+01  0.64507966674E+02 -0.48179317816E+02  0.80535755803E+02  0.00000000000E+00 0.  1.
          3    1    1    2  501    0 -0.22233144687E+03 -0.22434595996E+03 -0.40771287959E+02  0.31847241629E+03  0.00000000000E+00 0. -1.
<scales pt_clust_5="13000.00000" pt_clust_6="13000.00000" pt_clust_7="13000.00000" pt_clust_8="13000.00000" pt_clust_9="309.14682"></scales>
<clustering>
<clus scale="   82.095">  5  6 -1 -1</clus>
<clus scale="   89.384">  7  8 -1 -1</clus>
<clus scale="  102.296">  2  5  1 -1</clus>
<clus scale="  309.147">  1  9  2 -1</clus>
<clus scale="  309.147">  1  5  2 -1</clus>
</clustering>
</event>
<event>
 9    2  0.1325014E-004  0.1594515E+03  0.7546771E-02  0.1191162E+00
          2   -1    0    0  502    0 -0.00000000000E+00  0.00000000000E+00  0.37448000583E+03  0.37448000583E+03  0.00000000000E+00 0. -1.
         21   -1    0    0  501  502  0.00000000000E+00 -0.00000000000E+00 -0.21131626839E+03  0.21131626839E+03  0.00000000000E+00 0. -1.
         23    2    1    2    0    0 -0.14733133426E+02 -0.15387729836E+03  0.13432198849E+03  0.22445536565E+03  0.91883221564E+02 0.  0.
         24    2    1    2    0    0 -0.12126793196E+03  0.83594794642E+02  0.96986808389E+02  0.19377101496E+03  0.80291744429E+02 0.  0.
        -11    1    4    4    0    0  0.28029733617E+01  0.33156877303E+02  0.25737344640E+02  0.42067161555E+02  0.00000000000E+00 0.  1.
         12    1    4    4    0    0 -0.12407090533E+03  0.50437917339E+02  0.71249463748E+02  0.15170385341E+03  0.00000000000E+00 0. -1.
        -11    1    3    3    0    0 -0.32208926531E+02 -0.76047602272E+02  0.19861930168E+02  0.84942033350E+02  0.00000000000E+00 0. -1.
         11    1    3    3    0    0  0.17475793105E+02 -0.77829696092E+02  0.11446005832E+03  0.13951333230E+03  0.00000000000E+00 0.  1.
          1    1    1    2  501    0  0.13600106539E+03  0.70282503722E+02 -0.68145059443E+02  0.16756989361E+03  0.00000000000E+00 0. -1.
<scales pt_clust_5="13000.00000" pt_clust_6="13000.00000" pt_clust_7="13000.00000" pt_clust_8="13000.00000" pt_clust_9="153.08795"></scales>
<clustering>
<clus scale="   80.292">  5  6 -1 -1</clus>
<clus scale="   91.883">  7  8 -1 -1</clus>
<clus scale="  153.088">  2  9  1 -1</clus>
<clus scale="  153.088">  2  5  1 -1</clus>
<clus scale="  153.088">  2  5  1 -1</clus>
</clustering>
</event>
<event>
 9    2  0.1325014E-004  0.1283819E+03  0.7546771E-02  0.1231409E+00
         -3   -1    0    0    0  501 -0.00000000000E+00  0.00000000000E+00  0.69211617401E+02  0.69211617401E+02  0.00000000000E+00 0.  1.
         21   -1    0    0  501  502  0.00000000000E+00 -0.00000000000E+00 -0.44418389985E+03  0.44418389985E+03  0.00000000000E+00 0. -1.
         23    2    1    2    0    0 -0.18369898083E+02  0.89324916950E+02 -0.22936798799E+02  0.12888546617E+03  0.88141776175E+02 0.  0.
         24    2    1    2    0    0  0.33292479261E+01 -0.10261871616E+03 -0.27403242382E+03  0.30396550690E+03  0.82216636284E+02 0.  0.
        -11    1    4    4    0    0 -0.20683690948E+02 -0.16759940126E+01 -0.17156469675E+02  0.26925238696E+02  0.00000000000E+00 0.  1.
         12    1    4    4    0    0  0.24012938874E+02 -0.10094272215E+03 -0.25687595415E+03  0.27704026821E+03  0.00000000000E+00 0. -1.
        -13    1    3    3    0    0  0.30003150834E+02  0.15392212581E+02 -0.22489939279E+02  0.40532784716E+02  0.00000000000E+00 0. -1.
         13    1    3    3    0    0 -0.48373048917E+02  0.73932704369E+02 -0.44685952023E+00  0.88352681455E+02  0.00000000000E+00 0.  1.
         -4    1    1    2    0  502  0.15040650157E+02  0.13293799211E+02 -0.78003059828E+02  0.80544544180E+02  0.00000000000E+00 0.  1.
<scales pt_clust_5="13000.00000" pt_clust_6="13000.00000" pt_clust_7="13000.00000" pt_clust_8="13000.00000" pt_clust_9="20.07352"></scales>
<clustering>
<clus scale="   20.074">  2  9  1 -1</clus>
<clus scale="   82.217">  5  6 -1 -1</clus>
<clus scale="   88.142">  7  8 -1 -1</clus>
<clus scale="  124.389">  2  5  1 -1</clus>
<clus scale="   20.074">  2  5  1 -1</clus>
</clustering>
</event>
<event>
 9    2  0.1325014E-004  0.1142011E+03  0.7546771E-02  0.1257617E+00
          2   -1    0    0  502    0 -0.00000000000E+00  0.00000000000E+00  0.59492591837E+03  0.59492591837E+03  0.00000000000E+00 0. -1.
         21   -1    0    0  501  502  0.00000000000E+00 -0.00000000000E+00 -0.28273037420E+02  0.28273037420E+02  0.00000000000E+00 0. -1.
         24    2    1    2    0    0  0.35428318633E+02 -0.37942676087E+02  0.20834890115E+03  0.22939927352E+03  0.80746205184E+02 0.  0.
         23    2    1    2    0    0 -0.71655401008E+02  0.45914435654E+02  0.27782058632E+03  0.30517955434E+03  0.93314791484E+02 0.  0.
        -11    1    3    3    0    0  0.38415339961E+02 -0.17010159793E+01  0.34095759147E+02  0.51392145231E+02  0.00000000000E+00 0.  1.
         12    1    3    3    0    0 -0.29870213282E+01 -0.36241660108E+02  0.17425314200E+03  0.17800712829E+03  0.00000000000E+00 0. -1.
        -13    1    4    4    0    0 -0.69296910726E+02  0.71864286198E+02  0.22970669560E+03  0.25046297825E+03  0.00000000000E+00 0.  1.
         13    1    4    4    0    0 -0.23584902813E+01 -0.25949850544E+02  0.48113890716E+02  0.54716576094E+02  0.00000000000E+00 0. -1.
          1    1    1    2  501    0  0.36227082375E+02 -0.79717595675E+01  0.80483393483E+02  0.88620127931E+02  0.00000000000E+00 0. -1.
<scales pt_clust_5="13000.00000" pt_clust_6="13000.00000" pt_clust_7="13000.00000" pt_clust_8="13000.00000" pt_clust_9="37.09381"></scales>
<clustering>
<clus scale="   37.094">  2  9  1 -1</clus>
<clus scale="   80.746">  5  6 -1 -1</clus>
<clus scale="   93.315">  7  8 -1 -1</clus>
<clus scale="  104.183">  1  5  2 -1</clus>
<clus scale="   37.094">  2  5  1 -1</clus>
</clustering>
</event>
<event>
 9    2  0.1325014E-004  0.3858209E+03  0.7546771E-02  0.1048956E+00
         21   -1    0    0  501  502  0.00000000000E+00  0.00000000000E+00  0.23514318602E+03  0.23514318602E+03  0.00000000000E+00 0. -1.
          2   -1    0    0  502    0 -0.00000000000E+00 -0.00000000000E+00 -0.98467705075E+03  0.98467705075E+03  0.00000000000E+00 0. -1.
         23    2    1    2    0    0 -0.31556289793E+03  0.55892779241E+02 -0.29499533306E+03  0.44157877214E+03  0.72564593024E+02 0.  0.
         24    2    1    2    0    0  0.45467219415E+03 -0.12115335211E+03 -0.35816357360E+03  0.59686210744E+03  0.80983275971E+02 0.  0.
        -11    1    4    4    0    0  0.27279473934E+03 -0.89485739571E+02 -0.26213534306E+03  0.38876677517E+03  0.00000000000E+00 0.  1.
         12    1    4    4    0    0  0.18187745481E+03 -0.31667612543E+02 -0.96028230547E+02  0.20809533227E+03  0.00000000000E+00 0. -1.
        -11    1    3    3    0    0 -0.23158572752E+02  0.61703000998E+01 -0.10421059044E+01  0.23989124201E+02  0.00000000000E+00 0.  1.
         11    1    3    3    0    0 -0.29240432518E+03  0.49722479141E+02 -0.29395322715E+03  0.41758964794E+03  0.00000000000E+00 0. -1.
          1    1    1    2  501    0 -0.13910929622E+03  0.65260572874E+02 -0.96374958071E+02  0.18137935718E+03  0.00000000000E+00 0. -1.
<scales pt_clust_5="13000.00000" pt_clust_6="13000.00000" pt_clust_7="13000.00000" pt_clust_8="13000.00000" pt_clust_9="153.65656"></scales>
<clustering>
<clus scale="   72.565">  7  8 -1 -1</clus>
<clus scale="   80.983">  5  6 -1 -1</clus>
<clus scale="  153.657">  1  9  2 -1</clus>
<clus scale="  384.142">  2  7  1 -1</clus>
<clus scale="  153.657">  1  5  2 -1</clus>
</clustering>
</event>
<event>
 9    2  0.1325014E-004  0.1709150E+03  0.7546771E-02  0.1178230E+00
         21   -1    0    0  501  502  0.00000000000E+00  0.00000000000E+00  0.22397154533E+03  0.22397154533E+03  0.00000000000E+00 0.  1.
          2   -1    0    0  502    0 -0.00000000000E+00 -0.00000000000E+00 -0.25196227998E+03  0.25196227998E+03  0.00000000000E+00 0. -1.
         23    2    1    2    0    0 -0.17475491404E+02  0.13992943227E+03 -0.72848174364E+02  0.18331434424E+03  0.91715066819E+02 0.  0.
         24    2    1    2    0    0  0.38429794523E+02 -0.14325502112E+03 -0.64452414832E+02  0.18126964200E+03  0.81888455545E+02 0.  0.
        -13    1    4    4    0    0  0.27036594153E+02 -0.10044422547E+03 -0.11751133729E+01  0.10402596188E+03  0.00000000000E+00 0.  1.
         14    1    4    4    0    0  0.11393200369E+02 -0.42810795645E+02 -0.63277301459E+02  0.77243680119E+02  0.00000000000E+00 0. -1.
        -13    1    3    3    0    0 -0.10687564077E+02  0.57244114363E+02 -0.81209655713E+02  0.99930580085E+02  0.00000000000E+00 0. -1.
         13    1    3    3    0    0 -0.67879273270E+01  0.82685317905E+02  0.83614813489E+01  0.83383764156E+02  0.00000000000E+00 0.  1.
          1    1    1    2  501    0 -0.20954303118E+02  0.33255888511E+01  0.10930985454E+03  0.11134983907E+03  0.00000000000E+00 0. -1.
<scales pt_clust_5="13000.00000" pt_clust_6="13000.00000" pt_clust_7="13000.00000" pt_clust_8="13000.00000" pt_clust_9="21.21656"></scales>
<clustering>
<clus scale="   21.217">  1  9  2 -1</clus>
<clus scale="   81.888">  5  6 -1 -1</clus>
<clus scale="   91.715">  7  8 -1 -1</clus>
<clus scale="  165.849">  1  5  2 -1</clus>
<clus scale="   21.217">  1  5  2 -1</clus>
</clustering>
</event>
<event>
 9    2  0.1325014E-004  0.1329535E+03  0.7546771E-02  0.1225819E+00
          2   -1    0    0  502    0 -0.00000000000E+00  0.00000000000E+00  0.64252018338E+03  0.64252018338E+03  0.00000000000E+00 0. -1.
         21   -1    0    0  501  502  0.00000000000E+00 -0.00000000000E+00 -0.48879449084E+02  0.48879449084E+02  0.00000000000E+00 0. -1.
         24    2    1    2    0    0 -0.22821351772E+02 -0.86196749836E+02  0.26211911411E+03  0.28824308161E+03  0.80168262656E+02 0.  0.
         23    2    1    2    0    0  0.19766953674E+02  0.11594475884E+03  0.12449659021E+03  0.19398285168E+03  0.91082524189E+02 0.  0.
        -11    1    3    3    0    0  0.25014391351E+02 -0.60805149942E+02  0.14341236159E+03  0.15776593894E+03  0.00000000000E+00 0.  1.
         12    1    3    3    0    0 -0.47835743123E+02 -0.25391599894E+02  0.11870675252E+03  0.13047714267E+03  0.00000000000E+00 0. -1.
        -11    1    4    4    0    0  0.19767257765E+02  0.57527531931E+02  0.50766793567E+01  0.61040429904E+02  0.00000000000E+00 0. -1.
         11    1    4    4    0    0 -0.30409044951E-03  0.58417226908E+02  0.11941991085E+03  0.13294242178E+03  0.00000000000E+00 0.  1.
          1    1    1    2  501    0  0.30543980975E+01 -0.29748009002E+02  0.20702502997E+03  0.20917369917E+03  0.00000000000E+00 0. -1.
<scales pt_clust_5="13000.00000" pt_clust_6="13000.00000" pt_clust_7="13000.00000" pt_clust_8="13000.00000" pt_clust_9="29.90442"></scales>
<clustering>
<clus scale="   29.904">  2  9  1 -1</clus>
<clus scale="   80.168">  5  6 -1 -1</clus>
<clus scale="   91.083">  7  8 -1 -1</clus>
<clus scale="  125.728">  1  5  2 -1</clus>
<clus scale="   29.904">  2  5  1 -1</clus>
</clustering>
</event>
<event>
 9    2  0.1325014E-004  0.9409476E+02  0.7546771E-02  0.1300669E+00
          2   -1    0    0  502    0 -0.00000000000E+00  0.00000000000E+00  0.47316207242E+02  0.47316207242E+02  0.00000000000E+00 0. -1.
         21   -1    0    0  501  502  0.00000000000E+00 -0.00000000000E+00 -0.27196128109E+03  0.27196128109E+03  0.00000000000E+00 0. -1.
         23    2    1    2    0    0  0.21812094880E+02 -0.27240079542E+02 -0.65104479063E+02  0.11790527518E+03  0.91898157241E+02 0.  0.
         24    2    1    2    0    0 -0.31802978536E+01 -0.64593997072E+01 -0.13124472669E+03  0.15358670371E+03  0.79447209720E+02 0.  0.
        -11    1    4    4    0    0 -0.19279245936E+01  0.33609031031E+02 -0.89908660046E+02  0.96004432248E+02  0.00000000000E+00 0.  1.
         12    1    4    4    0    0 -0.12523732600E+01 -0.40068430738E+02 -0.41336066645E+02  0.57582271458E+02  0.00000000000E+00 0. -1.
        -11    1    3    3    0    0 -0.36811399195E+01 -0.22772974745E+02  0.19014313526E+02  0.29894870609E+02  0.00000000000E+00 0.  1.
         11    1    3    3    0    0  0.25493234799E+02 -0.44671047972E+01 -0.84118792589E+02  0.88010404569E+02  0.00000000000E+00 0. -1.
          1    1    1    2  501    0 -0.18631797026E+02  0.33699479249E+02 -0.28295868100E+02  0.47785509453E+02  0.00000000000E+00 0. -1.
<scales pt_clust_5="13000.00000" pt_clust_6="13000.00000" pt_clust_7="13000.00000" pt_clust_8="13000.00000" pt_clust_9="38.50715"></scales>
<clustering>
<clus scale="   38.507">  2  9  1 -1</clus>
<clus scale="   79.447">  5  6 -1 -1</clus>
<clus scale="   81.978">  2  5  1 -1</clus>
<clus scale="   91.898">  7  8 -1 -1</clus>
<clus scale="   38.507">  2  5  1 -1</clus>
</clustering>
</event>
<event>
 9    2  0.1325014E-004  0.1069215E+03  0.7546771E-02  0.1267031E+00
         21   -1    0    0  501  502  0.00000000000E+00  0.00000000000E+00  0.25375509902E+03  0.25375509902E+03  0.00000000000E+00 0.  1.
         -1   -1    0    0    0  501 -0.00000000000E+00 -0.00000000000E+00 -0.14955511513E+03  0.14955511513E+03  0.00000000000E+00 0.  1.
         24    2    1    2    0    0 -0.15401857647E+02 -0.59155946572E+02 -0.11110886579E+03  0.15436825748E+03  0.88021222590E+02 0.  0.
         23    2    1    2    0    0  0.14933524955E+00  0.37505272225E+02  0.15307102176E+03  0.18130366601E+03  0.89630429333E+02 0.  0.
        -13    1    3    3    0    0 -0.31699320388E+02 -0.75433806510E+02 -0.98693800702E+02  0.12820129631E+03  0.00000000000E+00 0.  1.
         14    1    3    3    0    0  0.16297462741E+02  0.16277859937E+02 -0.12415065090E+02  0.26166961175E+02  0.00000000000E+00 0. -1.
        -11    1    4    4    0    0  0.32863210922E+02  0.16382218689E+02  0.18315333079E+02  0.41034365440E+02  0.00000000000E+00 0. -1.
         11    1    4    4    0    0 -0.32713875672E+02  0.21123053536E+02  0.13475568868E+03  0.14026930057E+03  0.00000000000E+00 0.  1.
         -2    1    1    2    0  502  0.15252522398E+02  0.21650674347E+02  0.62237827917E+02  0.67638290657E+02  0.00000000000E+00 0.  1.
<scales pt_clust_5="13000.00000" pt_clust_6="13000.00000" pt_clust_7="13000.00000" pt_clust_8="13000.00000" pt_clust_9="26.48379"></scales>
<clustering>
<clus scale="   26.484">  1  9  2 -1</clus>
<clus scale="   88.021">  5  6 -1 -1</clus>
<clus scale="   89.630">  7  8 -1 -1</clus>
<clus scale="  105.576">  2  5  1 -1</clus>
<clus scale="   26.484">  1  5  2 -1</clus>
</clustering>
</event>
<event>
 9    2  0.1325014E-004  0.1042239E+03  0.7546771E-02  0.1279336E+00
          2   -1    0    0  502    0 -0.00000000000E+00  0.00000000000E+00  0.50893290199E+03  0.50893290199E+03  0.00000000000E+00 0. -1.
         21   -1    0    0  501  502  0.00000000000E+00 -0.00000000000E+00 -0.49169296554E+02  0.49169296554E+02  0.00000000000E+00 0.  1.
         23    2    1    2    0    0 -0.41438583030E+02 -0.25511246724E+02  0.39139291583E+03  0.40529786896E+03  0.93327210110E+02 0.  0.
         24    2    1    2    0    0  0.48728959728E+02 -0.10444094333E+02  0.70982274694E+02  0.11602449109E+03  0.77068856158E+02 0.  0.
        -11    1    4    4    0    0  0.69880592576E+02 -0.80212348170E+01  0.57217255293E+02  0.90672221380E+02  0.00000000000E+00 0.  1.
         12    1    4    4    0    0 -0.21151632848E+02 -0.24228595157E+01  0.13765019402E+02  0.25352269711E+02  0.00000000000E+00 0. -1.
        -13    1    3    3    0    0 -0.69550922602E+02 -0.30413444486E+02  0.30544840130E+03  0.31473962937E+03  0.00000000000E+00 0. -1.
         13    1    3    3    0    0  0.28112339572E+02  0.49021977626E+01  0.85944514528E+02  0.90558239585E+02  0.00000000000E+00 0.  1.
          1    1    1    2  501    0 -0.72903766982E+01  0.35955341056E+02 -0.26115850907E+01  0.36779838493E+02  0.00000000000E+00 0. -1.
<scales pt_clust_5="13000.00000" pt_clust_6="13000.00000" pt_clust_7="13000.00000" pt_clust_8="13000.00000" pt_clust_9="36.68700"></scales>
<clustering>
<clus scale="   36.687">  2  9  1 -1</clus>
<clus scale="   77.069">  5  6 -1 -1</clus>
<clus scale="   89.957">  2  5  1 -1</clus>
<clus scale="   93.327">  7  8 -1 -1</clus>
<clus scale="   36.687">  2  5  1 -1</clus>
</clustering>
</event>
<event>
 9    2  0.1325014E-004  0.9652001E+02  0.7546771E-02  0.1289651E+00
          2   -1    0    0  502    0 -0.00000000000E+00  0.00000000000E+00  0.78860904727E+02  0.78860904727E+02  0.00000000000E+00 0. -1.
         21   -1    0    0  501  502  0.00000000000E+00 -0.00000000000E+00 -0.22176759473E+03  0.22176759473E+03  0.00000000000E+00 0.  1.
         24    2    1    2    0    0 -0.42761838293E+02  0.22521416666E+02  0.20527409864E+02  0.98052335225E+02  0.82807589413E+02 0.  0.
         23    2    1    2    0    0  0.27358533593E+02 -0.41682376392E+00 -0.10892758577E+03  0.14177456144E+03  0.86522507058E+02 0.  0.
        -11    1    3    3    0    0 -0.45632776607E+02 -0.15165339501E+02 -0.10420028245E+02  0.49202792722E+02  0.00000000000E+00 0.  1.
         12    1    3    3    0    0  0.28709383140E+01  0.37686756167E+02  0.30947438109E+02  0.48849542502E+02  0.00000000000E+00 0. -1.
        -13    1    4    4    0    0  0.17807332009E+02 -0.38764176645E+02 -0.26119596528E+02  0.50019953889E+02  0.00000000000E+00 0. -1.
         13    1    4    4    0    0  0.95512015846E+01  0.38347352881E+02 -0.82807989239E+02  0.91754607550E+02  0.00000000000E+00 0.  1.
          1    1    1    2  501    0  0.15403304700E+02 -0.22104592902E+02 -0.54506514102E+02  0.60801602796E+02  0.00000000000E+00 0. -1.
<scales pt_clust_5="13000.00000" pt_clust_6="13000.00000" pt_clust_7="13000.00000" pt_clust_8="13000.00000" pt_clust_9="26.94206"></scales>
<clustering>
<clus scale="   26.942">  2  9  1 -1</clus>
<clus scale="   82.808">  5  6 -1 -1</clus>
<clus scale="   86.523">  7  8 -1 -1</clus>
<clus scale="   93.204">  1  5  2 -1</clus>
<clus scale="   26.942">  2  5  1 -1</clus>
</clustering>
</event>
<event>
 9    2  0.1325014E-004  0.1508426E+03  0.7546771E-02  0.1215176E+00
         21   -1    0    0  501  502  0.00000000000E+00  0.00000000000E+00  0.92859570817E+03  0.92859570817E+03  0.00000000000E+00 0. -1.
          2   -1    0    0  502    0 -0.00000000000E+00 -0.00000000000E+00 -0.56412471582E+02  0.56412471582E+02  0.00000000000E+00 0. -1.
         23    2    1    2    0    0  0.54714150303E+02 -0.71604284548E+02  0.10150334776E+03  0.14794275556E+03  0.58849957572E+02 0.  0.
         24    2    1    2    0    0  0.23720482589E+02  0.16444371758E+03  0.31074615455E+03  0.36134471633E+03  0.80015210469E+02 0.  0.
        -11    1    4    4    0    0  0.32207810182E+02  0.34062397611E+02  0.43883014187E+02  0.64212996363E+02  0.00000000000E+00 0.  1.
         12    1    4    4    0    0 -0.84873275935E+01  0.13038131997E+03  0.26686314036E+03  0.29713171997E+03  0.00000000000E+00 0. -1.
        -11    1    3    3    0    0  0.22082132685E+02 -0.27679510217E+02  0.82903184600E+02  0.90148288317E+02  0.00000000000E+00 0.  1.
         11    1    3    3    0    0  0.32632017617E+02 -0.43924774332E+02  0.18600163159E+02  0.57794467239E+02  0.00000000000E+00 0. -1.
          1    1    1    2  501    0 -0.78434632891E+02 -0.92839433036E+02  0.45993373428E+03  0.47572070787E+03  0.00000000000E+00 0. -1.
<scales pt_clust_5="13000.00000" pt_clust_6="13000.00000" pt_clust_7="13000.00000" pt_clust_8="13000.00000" pt_clust_9="127.87124"></scales>
<clustering>
<clus scale="   58.850">  7  8 -1 -1</clus>
<clus scale="   80.015">  5  6 -1 -1</clus>
<clus scale="  107.630">  2  7  1 -1</clus>
<clus scale="  127.871">  1  9  2 -1</clus>
<clus scale="  127.871">  1  5  2 -1</clus>
</clustering>
</event>
<event>
 9    2  0.2005692E-004  0.1993363E+03  0.7546771E-02  0.1151275E+00
         -1   -1    0    0    0  501 -0.00000000000E+00  0.00000000000E+00  0.65991572423E+03  0.65991572423E+03  0.00000000000E+00 0.  1.
         21   -1    0    0  501  502  0.00000000000E+00 -0.00000000000E+00 -0.25245904458E+03  0.25245904458E+03  0.00000000000E+00 0.  1.
         23    2    1    2    0    0  0.11507443687E+03 -0.14171897906E+03  0.58116858597E+03  0.61591820317E+03  0.90950055673E+02 0.  0.
         24    2    1    2    0    0 -0.58085692472E+02  0.13192630919E+03 -0.73422073756E+02  0.18069100994E+03  0.80498083407E+02 0.  0.
        -13    1    4    4    0    0  0.18123930285E+02  0.23410996066E+02 -0.27368631254E+02  0.40318650306E+02  0.00000000000E+00 0.  1.
         14    1    4    4    0    0 -0.76209622757E+02  0.10851531313E+03 -0.46053442502E+02  0.14037235964E+03  0.00000000000E+00 0. -1.
        -13    1    3    3    0    0  0.52830982428E+02 -0.11532685904E+03  0.45993608120E+03  0.47710857874E+03  0.00000000000E+00 0. -1.
         13    1    3    3    0    0  0.62243454440E+02 -0.26392120023E+02  0.12123250477E+03  0.13880962442E+03  0.00000000000E+00 0.  1.
         -2    1    1    2    0  502 -0.56988744396E+02  0.97926698692E+01 -0.10028983257E+03  0.11576555571E+03  0.00000000000E+00 0.  1.
<scales pt_clust_5="13000.00000" pt_clust_6="13000.00000" pt_clust_7="13000.00000" pt_clust_8="13000.00000" pt_clust_9="57.82399"></scales>
<clustering>
<clus scale="   57.824">  2  9  1 -1</clus>
<clus scale="   80.498">  5  6 -1 -1</clus>
<clus scale="   90.950">  7  8 -1 -1</clus>
<clus scale="  194.790">  2  5  1 -1</clus>
<clus scale="   57.824">  2  5  1 -1</clus>
</clustering>
</event>
<event>
 9    2  0.1325014E-004  0.3788719E+03  0.7546771E-02  0.1076486E+00
          2   -1    0    0  502    0 -0.00000000000E+00  0.00000000000E+00  0.15664641947E+04  0.15664641947E+04  0.00000000000E+00 0. -1.
         21   -1    0    0  501  502  0.00000000000E+00 -0.00000000000E+00 -0.26938496379E+03  0.26938496379E+03  0.00000000000E+00 0. -1.
         24    2    1    2    0    0  0.11882115282E+03 -0.12223345606E+03 -0.10424906653E+03  0.21538743353E+03  0.80401458408E+02 0.  0.
         23    2    1    2    0    0 -0.38969695837E+03  0.15243923700E+03  0.41260117231E+03  0.59485584588E+03  0.92262178820E+02 0.  0.
        -13    1    3    3    0    0  0.96948164503E+02 -0.42599682899E+02 -0.58494596699E+02  0.12097643335E+03  0.00000000000E+00 0.  1.
         14    1    3    3    0    0  0.21872988314E+02 -0.79633773159E+02 -0.45754469827E+02  0.94411000177E+02  0.00000000000E+00 0. -1.
        -13    1    4    4    0    0 -0.12606244963E+03  0.41872269706E+02  0.19333156661E+03  0.23456794927E+03  0.00000000000E+00 0.  1.
         13    1    4    4    0    0 -0.26363450875E+03  0.11056696730E+03  0.21926960570E+03  0.36028789661E+03  0.00000000000E+00 0. -1.
          1    1    1    2  501    0  0.27087580556E+03 -0.30205780946E+02  0.98872712510E+03  0.10256058791E+04  0.00000000000E+00 0. -1.
<scales pt_clust_5="13000.00000" pt_clust_6="13000.00000" pt_clust_7="13000.00000" pt_clust_8="13000.00000" pt_clust_9="367.46662"></scales>
<clustering>
<clus scale="   80.401">  5  6 -1 -1</clus>
<clus scale="   92.262">  7  8 -1 -1</clus>
<clus scale="  188.478">  1  5  2 -1</clus>
<clus scale="  367.467">  2  9  1 -1</clus>
<clus scale="  367.467">  2  5  1 -1</clus>
</clustering>
</event>
<event>
 9    2  0.1325014E-004  0.1087838E+03  0.7546771E-02  0.1268142E+00
         -3   -1    0    0    0  501 -0.00000000000E+00  0.00000000000E+00  0.29290186506E+02  0.29290186506E+02  0.00000000000E+00 0.  1.
         21   -1    0    0  501  502  0.00000000000E+00 -0.00000000000E+00 -0.15048891252E+04  0.15048891252E+04  0.00000000000E+00 0. -1.
         23    2    1    2    0    0  0.51196279663E+02  0.20777963455E+01 -0.15372000919E+03  0.18608213499E+03  0.91495046030E+02 0.  0.
         24    2    1    2    0    0 -0.10448122086E+03 -0.60959303229E+02 -0.11470353549E+04  0.11560643869E+04  0.78500948565E+02 0.  0.
        -13    1    4    4    0    0 -0.10426831682E+02  0.17408299409E+02 -0.11305299997E+03  0.11485969053E+03  0.00000000000E+00 0.  1.
         14    1    4    4    0    0 -0.94054389179E+02 -0.78367602638E+02 -0.10339823550E+04  0.10412046963E+04  0.00000000000E+00 0. -1.
        -13    1    3    3    0    0  0.12574126083E+02  0.35891796911E+02 -0.20260333230E+02  0.43090727945E+02  0.00000000000E+00 0. -1.
         13    1    3    3    0    0  0.38622153580E+02 -0.33814000566E+02 -0.13345967596E+03  0.14299140704E+03  0.00000000000E+00 0.  1.
         -4    1    1    2    0  502  0.53284941198E+02  0.58881506883E+02 -0.17484357452E+03  0.19203278981E+03  0.00000000000E+00 0.  1.
<scales pt_clust_5="13000.00000" pt_clust_6="13000.00000" pt_clust_7="13000.00000" pt_clust_8="13000.00000" pt_clust_9="79.41236"></scales>
<clustering>
<clus scale="   78.501">  5  6 -1 -1</clus>
<clus scale="   79.412">  2  9  1 -1</clus>
<clus scale="   91.495">  7  8 -1 -1</clus>
<clus scale="   98.107">  2  5  1 -1</clus>
<clus scale="   79.412">  2  5  1 -1</clus>
</clustering>
</event>
<event>
 9    2  0.1325014E-004  0.1991976E+03  0.7546771E-02  0.1189635E+00
          2   -1    0    0  502    0 -0.00000000000E+00  0.00000000000E+00  0.94791624045E+03  0.94791624045E+03  0.00000000000E+00 0. -1.
         21   -1    0    0  501  502  0.00000000000E+00 -0.00000000000E+00 -0.61785317359E+02  0.61785317359E+02  0.00000000000E+00 0. -1.
         24    2    1    2    0    0  0.41336376462E+01 -0.13166033383E+02  0.60730460473E+02  0.10140597620E+03  0.80028443596E+02 0.  0.
         23    2    1    2    0    0  0.10807753186E+03  0.14669209530E+03  0.48243272279E+03  0.52352626587E+03  0.90216934765E+02 0.  0.
        -11    1    3    3    0    0  0.53779272218E+01  0.33684603636E+02  0.29384432411E+02  0.45022433202E+02  0.00000000000E+00 0.  1.
         12    1    3    3    0    0 -0.12442895756E+01 -0.46850637019E+02  0.31346028062E+02  0.56383542997E+02  0.00000000000E+00 0. -1.
        -11    1    4    4    0    0 -0.13920598535E+02  0.20916608436E+02  0.35671622797E+02  0.43632009408E+02  0.00000000000E+00 0.  1.
         11    1    4    4    0    0  0.12199813040E+03  0.12577548686E+03  0.44676109999E+03  0.47989425646E+03  0.00000000000E+00 0. -1.
          1    1    1    2  501    0 -0.11221116951E+03 -0.13352606192E+03  0.34296773982E+03  0.38476931574E+03  0.00000000000E+00 0. -1.
<scales pt_clust_5="13000.00000" pt_clust_6="13000.00000" pt_clust_7="13000.00000" pt_clust_8="13000.00000" pt_clust_9="177.59671"></scales>
<clustering>
<clus scale="   80.028">  5  6 -1 -1</clus>
<clus scale="   81.210">  1  5  2 -1</clus>
<clus scale="   90.217">  7  8 -1 -1</clus>
<clus scale="  177.597">  2  9  1 -1</clus>
<clus scale="  177.597">  2  5  1 -1</clus>
</clustering>
</event>
<event>
 9    2  0.1325014E-004  0.1279585E+03  0.7546771E-02  0.1233726E+00
          2   -1    0    0  502    0 -0.00000000000E+00  0.00000000000E+00  0.19906818167E+04  0.19906818167E+04  0.00000000000E+00 0. -1.
         21   -1    0    0  501  502  0.00000000000E+00 -0.00000000000E+00 -0.25588383798E+02  0.25588383798E+02  0.00000000000E+00 0. -1.
         24    2    1    2    0    0 -0.35042576013E+02  0.65684824113E+02  0.86578849933E+03  0.87265939731E+03  0.80013873097E+02 0.  0.
         23    2    1    2    0    0  0.12055422829E+03 -0.12053827404E+03  0.50814731164E+03  0.54378709774E+03  0.91803702964E+02 0.  0.
        -13    1    3    3    0    0 -0.17693202721E+02  0.75048086735E+02  0.46201397771E+03  0.46840386457E+03  0.00000000000E+00 0.  1.
         14    1    3    3    0    0 -0.17349373292E+02 -0.93632626222E+01  0.40377452162E+03  0.40425553274E+03  0.00000000000E+00 0. -1.
        -13    1    4    4    0    0  0.60817914066E+02 -0.27892630615E+01  0.13943912136E+03  0.15215080422E+03  0.00000000000E+00 0. -1.
         13    1    4    4    0    0  0.59736314225E+02 -0.11774901098E+03  0.36870819028E+03  0.39163629352E+03  0.00000000000E+00 0.  1.
          1    1    1    2  501    0 -0.85511652278E+02  0.54853449928E+02  0.59115762192E+03  0.59982370544E+03  0.00000000000E+00 0. -1.
<scales pt_clust_5="13000.00000" pt_clust_6="13000.00000" pt_clust_7="13000.00000" pt_clust_8="13000.00000" pt_clust_9="101.59308"></scales>
<clustering>
<clus scale="   80.014">  5  6 -1 -1</clus>
<clus scale="   91.804">  7  8 -1 -1</clus>
<clus scale="  101.593">  2  9  1 -1</clus>
<clus scale="  119.782">  1  5  2 -1</clus>
<clus scale="  101.593">  2  5  1 -1</clus>
</clustering>
</event>
<event>
 9    2  0.1325014E-004  0.1085236E+03  0.7546771E-02  0.1267187E+00
          2   -1    0    0  502    0 -0.00000000000E+00  0.00000000000E+00  0.50727231467E+03  0.50727231467E+03  0.00000000000E+00 0. -1.
         21   -1    0    0  501  502  0.00000000000E+00 -0.00000000000E+00 -0.69798670984E+02  0.69798670984E+02  0.00000000000E+00 0.  1.
         23    2    1    2    0    0  0.21210487450E+02 -0.59830370742E+02  0.26977622724E+03  0.29155701846E+03  0.90535761939E+02 0.  0.
         24    2    1    2    0    0  0.64677569202E+02  0.58786137923E+02  0.29379882405E+02  0.12269631176E+03  0.80945719212E+02 0.  0.
        -11    1    4    4    0    0  0.78905127252E+02  0.44833542650E+02  0.41048015150E+02  0.99604242887E+02  0.00000000000E+00 0.  1.
         12    1    4    4    0    0 -0.14227558050E+02  0.13952595273E+02 -0.11668132746E+02  0.23092068870E+02  0.00000000000E+00 0. -1.
        -11    1    3    3    0    0  0.13595324434E+02 -0.82436056975E+02  0.23479128803E+03  0.24921373412E+03  0.00000000000E+00 0.  1.
         11    1    3    3    0    0  0.76151630165E+01  0.22605686233E+02  0.34984939202E+02  0.42343284341E+02  0.00000000000E+00 0. -1.
          1    1    1    2  501    0 -0.85888056652E+02  0.10442328191E+01  0.13831753404E+03  0.16281765543E+03  0.00000000000E+00 0. -1.
<scales pt_clust_5="13000.00000" pt_clust_6="13000.00000" pt_clust_7="13000.00000" pt_clust_8="13000.00000" pt_clust_9="85.89445"></scales>
<clustering>
<clus scale="   80.946">  5  6 -1 -1</clus>
<clus scale="   85.894">  2  9  1 -1</clus>
<clus scale="   90.536">  7  8 -1 -1</clus>
<clus scale="  100.662">  2  5  1 -1</clus>
<clus scale="   85.894">  2  5  1 -1</clus>
</clustering>
</event>
<event>
 9    2  0.1325014E-004  0.1558934E+03  0.7546771E-02  0.1195498E+00
         21   -1    0    0  501  502  0.00000000000E+00  0.00000000000E+00  0.29312896527E+03  0.29312896527E+03  0.00000000000E+00 0.  1.
         -3   -1    0    0    0  501 -0.00000000000E+00 -0.00000000000E+00 -0.25386894704E+03  0.25386894704E+03  0.00000000000E+00 0.  1.
         23    2    1    2    0    0  0.11396502657E+03  0.48311163940E+02 -0.19480138426E+03  0.24856563773E+03  0.92278389189E+02 0.  0.
         24    2    1    2    0    0 -0.12862745661E+03 -0.62129158866E+02  0.21827062119E+03  0.27283398142E+03  0.79945371128E+02 0.  0.
        -11    1    4    4    0    0 -0.62108471303E+02 -0.13294105157E+02  0.15904850920E+03  0.17126185716E+03  0.00000000000E+00 0.  1.
         12    1    4    4    0    0 -0.66518985311E+02 -0.48835053709E+02  0.59222111992E+02  0.10157212426E+03  0.00000000000E+00 0. -1.
        -11    1    3    3    0    0  0.65735895913E+02  0.73435741393E+02 -0.10871191292E+03  0.14673887057E+03  0.00000000000E+00 0.  1.
         11    1    3    3    0    0  0.48229130659E+02 -0.25124577452E+02 -0.86089471332E+02  0.10182676716E+03  0.00000000000E+00 0. -1.
         -4    1    1    2    0  502  0.14662430042E+02  0.13817994925E+02  0.15790781303E+02  0.25598293159E+02  0.00000000000E+00 0.  1.
<scales pt_clust_5="13000.00000" pt_clust_6="13000.00000" pt_clust_7="13000.00000" pt_clust_8="13000.00000" pt_clust_9="20.14755"></scales>
<clustering>
<clus scale="   20.148">  1  9  2 -1</clus>
<clus scale="   79.945">  5  6 -1 -1</clus>
<clus scale="   92.278">  7  8 -1 -1</clus>
<clus scale="  148.925">  1  5  2 -1</clus>
<clus scale="   20.148">  1  5  2 -1</clus>
</clustering>
</event>
<event>
 9    2  0.1325014E-004  0.1439763E+03  0.7546771E-02  0.1227596E+00
          2   -1    0    0  502    0 -0.00000000000E+00  0.00000000000E+00  0.97302023258E+02  0.97302023258E+02  0.00000000000E+00 0. -1.
         21   -1    0    0  501  502  0.00000000000E+00 -0.00000000000E+00 -0.37870587395E+03  0.37870587395E+03  0.00000000000E+00 0.  1.
         24    2    1    2    0    0 -0.46769268356E+02  0.12433122725E+02 -0.17945146176E+01  0.95436647875E+02  0.82237378798E+02 0.  0.
         23    2    1    2    0    0 -0.64021876382E+02  0.56295994575E+02 -0.12306641937E+03  0.17684581134E+03  0.94133191541E+02 0.  0.
        -11    1    3    3    0    0  0.19547603712E+02 -0.66859683709E+01  0.13585304489E+02  0.24725927323E+02  0.00000000000E+00 0.  1.
         12    1    3    3    0    0 -0.66316872068E+02  0.19119091096E+02 -0.15379819106E+02  0.70710720552E+02  0.00000000000E+00 0. -1.
        -13    1    4    4    0    0 -0.81564184213E+01 -0.22961823843E+02 -0.49353537772E+02  0.55041295463E+02  0.00000000000E+00 0. -1.
         13    1    4    4    0    0 -0.55865457961E+02  0.79257818418E+02 -0.73712881599E+02  0.12180451587E+03  0.00000000000E+00 0.  1.
          1    1    1    2  501    0  0.11079114474E+03 -0.68729117300E+02 -0.15654291671E+03  0.20372543800E+03  0.00000000000E+00 0. -1.
<scales pt_clust_5="13000.00000" pt_clust_6="13000.00000" pt_clust_7="13000.00000" pt_clust_8="13000.00000" pt_clust_9="108.94090"></scales>
<clustering>
<clus scale="   82.237">  5  6 -1 -1</clus>
<clus scale="   94.133">  7  8 -1 -1</clus>
<clus scale="   95.420">  1  5  2 -1</clus>
<clus scale="  108.941">  2  9  1 -1</clus>
<clus scale="  108.941">  2  5  1 -1</clus>
</clustering>
</event>
<event>
 9    2  0.1325014E-004  0.1373385E+03  0.7546771E-02  0.1237444E+00
         -1   -1    0    0    0  501 -0.00000000000E+00  0.00000000000E+00  0.78209296196E+03  0.78209296196E+03  0.00000000000E+00 0.  1.
         21   -1    0    0  501  502  0.00000000000E+00 -0.00000000000E+00 -0.44929115942E+02  0.44929115942E+02  0.00000000000E+00 0. -1.
         24    2    1    2    0    0 -0.22543407142E+01 -0.41665649752E+02  0.93795939320E+02  0.12984028185E+03  0.79496617135E+02 0.  0.
         23    2    1    2    0    0 -0.92192568950E+02 -0.29212690208E+02  0.21427688933E+03  0.25213903518E+03  0.91140861980E+02 0.  0.
        -11    1    3    3    0    0  0.31917850296E+02 -0.11675848883E+02  0.11606557954E+02  0.35913601911E+02  0.00000000000E+00 0.  1.
         12    1    3    3    0    0 -0.34172191010E+02 -0.29989800869E+02  0.82189381366E+02  0.93926679937E+02  0.00000000000E+00 0. -1.
        -11    1    4    4    0    0 -0.16422545316E+02 -0.30651473711E+02  0.14616650375E+03  0.15024599713E+03  0.00000000000E+00 0.  1.
         11    1    4    4    0    0 -0.75770023634E+02  0.14387835024E+01  0.68110385584E+02  0.10189303805E+03  0.00000000000E+00 0. -1.
         -2    1    1    2    0  502  0.94446909664E+02  0.70878339960E+02  0.42909101736E+03  0.44504276087E+03  0.00000000000E+00 0.  1.
<scales pt_clust_5="13000.00000" pt_clust_6="13000.00000" pt_clust_7="13000.00000" pt_clust_8="13000.00000" pt_clust_9="102.73864"></scales>
<clustering>
<clus scale="   79.497">  5  6 -1 -1</clus>
<clus scale="   89.782">  1  5  2 -1</clus>
<clus scale="   91.141">  7  8 -1 -1</clus>
<clus scale="  102.739">  2  9  1 -1</clus>
<clus scale="  102.739">  2  5  1 -1</clus>
</clustering>
</event>
<event>
 9    2  0.1325014E-004  0.3684428E+03  0.7546771E-02  0.1055290E+00
         21   -1    0    0  501  502  0.00000000000E+00  0.00000000000E+00  0.75606517957E+02  0.75606517957E+02  0.00000000000E+00 0. -1.
          2   -1    0    0  502    0 -0.00000000000E+00 -0.00000000000E+00 -0.14524281312E+04  0.14524281312E+04  0.00000000000E+00 0. -1.
         24    2    1    2    0    0 -0.91337587751E+02 -0.17206298567E+03 -0.42358227357E+03  0.47231647697E+03  0.75582312536E+02 0.  0.
         23    2    1    2    0    0 -0.12866831729E+03 -0.22247692546E+02 -0.37958515009E+03  0.41132825362E+03  0.89752717814E+02 0.  0.
        -11    1    3    3    0    0 -0.31565129220E+02 -0.58261439460E+02 -0.71406745144E+02  0.97414967857E+02  0.00000000000E+00 0.  1.
         12    1    3    3    0    0 -0.59772458531E+02 -0.11380154621E+03 -0.35217552842E+03  0.37490150912E+03  0.00000000000E+00 0. -1.
        -11    1    4    4    0    0 -0.64003816613E+02  0.82053331875E+01 -0.77229669686E+02  0.10063914702E+03  0.00000000000E+00 0. -1.
         11    1    4    4    0    0 -0.64664500675E+02 -0.30453025734E+02 -0.30235548041E+03  0.31068910659E+03  0.00000000000E+00 0.  1.
          1    1    1    2  501    0  0.22000590504E+03  0.19431067821E+03 -0.57365418956E+03  0.64438991854E+03  0.00000000000E+00 0. -1.
<scales pt_clust_5="13000.00000" pt_clust_6="13000.00000" pt_clust_7="13000.00000" pt_clust_8="13000.00000" pt_clust_9="293.52894"></scales>
<clustering>
<clus scale="   75.582">  5  6 -1 -1</clus>
<clus scale="   89.753">  7  8 -1 -1</clus>
<clus scale="  147.752">  5  7 -1 -1</clus>
<clus scale="  293.529">  1  9  2 -1</clus>
<clus scale="  293.529">  1  5  2 -1</clus>
</clustering>
</event>
<event>
 9    2  0.1325014E-004  0.3467609E+03  0.7546771E-02  0.1064317E+00
          2   -1    0    0  502    0 -0.00000000000E+00  0.00000000000E+00  0.10282491462E+04  0.10282491462E+04  0.00000000000E+00 0. -1.
         21   -1    0    0  501  502  0.00000000000E+00 -0.00000000000E+00 -0.40876806061E+03  0.40876806061E+03  0.00000000000E+00 0.  1.
         23    2    1    2    0    0 -0.32516817828E+03 -0.99613914660E+02  0.90226894576E+03  0.96858192616E+03  0.91675629504E+02 0.  0.
         24    2    1    2    0    0  0.25581837358E+03  0.13060586875E+03 -0.22606203348E+03  0.37363171508E+03  0.77431791414E+02 0.  0.
        -11    1    4    4    0    0  0.19611872602E+03  0.77262364469E+02 -0.19683862051E+03  0.28840504535E+03  0.00000000000E+00 0.  1.
         12    1    4    4    0    0  0.59699647565E+02  0.53343504284E+02 -0.29223412966E+02  0.85226669735E+02  0.00000000000E+00 0. -1.
        -11    1    3    3    0    0 -0.13127296930E+03 -0.72518541939E+02  0.30190836881E+03  0.33710561335E+03  0.00000000000E+00 0.  1.
         11    1    3    3    0    0 -0.19389520898E+03 -0.27095372722E+02  0.60036057695E+03  0.63147631282E+03  0.00000000000E+00 0. -1.
          1    1    1    2  501    0  0.69349804701E+02 -0.30991954093E+02 -0.56725826692E+02  0.94803565568E+02  0.00000000000E+00 0. -1.
<scales pt_clust_5="13000.00000" pt_clust_6="13000.00000" pt_clust_7="13000.00000" pt_clust_8="13000.00000" pt_clust_9="75.95984"></scales>
<clustering>
<clus scale="   75.960">  2  9  1 -1</clus>
<clus scale="   77.432">  5  6 -1 -1</clus>
<clus scale="   91.676">  7  8 -1 -1</clus>
<clus scale="  343.270">  2  5  1 -1</clus>
<clus scale="   75.960">  2  5  1 -1</clus>
</clustering>
</event>
<event>
 9    2  0.1325014E-004  0.9986243E+02  0.7546771E-02  0.1284497E+00
          2   -1    0    0  502    0 -0.00000000000E+00  0.00000000000E+00  0.93197693463E+03  0.93197693463E+03  0.00000000000E+00 0. -1.
         21   -1    0    0  501  502  0.00000000000E+00 -0.00000000000E+00 -0.51242435233E+02  0.51242435233E+02  0.00000000000E+00 0. -1.
         24    2    1    2    0    0 -0.26543622995E+02  0.34666587334E+02  0.81263262859E+03  0.81811131614E+03  0.83833169665E+02 0.  0.
         23    2    1    2    0    0  0.95954426731E+01  0.18421987195E+02  0.35016915198E+02  0.10029870371E+03  0.91663534102E+02 0.  0.
        -13    1    3    3    0    0 -0.32153951401E+02 -0.68870522336E+01  0.12667943564E+03  0.13087775782E+03  0.00000000000E+00 0.  1.
         14    1    3    3    0    0  0.56103284055E+01  0.41553639567E+02  0.68595319296E+03  0.68723355831E+03  0.00000000000E+00 0. -1.
        -13    1    4    4    0    0 -0.18556199012E+01 -0.31062942839E+02 -0.97330603765E+01  0.32604941456E+02  0.00000000000E+00 0.  1.
         13    1    4    4    0    0  0.11451062574E+02  0.49484930033E+02  0.44749975575E+02  0.67693762256E+02  0.00000000000E+00 0. -1.
          1    1    1    2  501    0  0.16948180322E+02 -0.53088574528E+02  0.33084955600E+02  0.64809350010E+02  0.00000000000E+00 0. -1.
<scales pt_clust_5="13000.00000" pt_clust_6="13000.00000" pt_clust_7="13000.00000" pt_clust_8="13000.00000" pt_clust_9="55.72825"></scales>
<clustering>
<clus scale="   55.728">  2  9  1 -1</clus>
<clus scale="   83.833">  5  6 -1 -1</clus>
<clus scale="   91.664">  7  8 -1 -1</clus>
<clus scale="   92.727">  1  5  2 -1</clus>
<clus scale="   55.728">  2  5  1 -1</clus>
</clustering>
</event>
<event>
 9    2  0.1325014E-004  0.1570870E+03  0.7546771E-02  0.1193915E+00
         -1   -1    0    0    0  501 -0.00000000000E+00  0.00000000000E+00  0.24354780286E+03  0.24354780286E+03  0.00000000000E+00 0.  1.
         21   -1    0    0  501  502  0.00000000000E+00 -0.00000000000E+00 -0.23842040294E+03  0.23842040294E+03  0.00000000000E+00 0. -1.
         24    2    1    2    0    0 -0.10115741699E+03 -0.88515548430E+00  0.32074862266E+02  0.13329927429E+03  0.80661596961E+02 0.  0.
         23    2    1    2    0    0  0.18408283241E+03 -0.89426756859E+02 -0.27303590025E+02  0.22605982557E+03  0.92053922668E+02 0.  0.
        -11    1    3    3    0    0 -0.58886872420E+02  0.33623228241E+01  0.58657563010E+02  0.83184605887E+02  0.00000000000E+00 0.  1.
         12    1    3    3    0    0 -0.42270544565E+02 -0.42474783084E+01 -0.26582700745E+02  0.50114668398E+02  0.00000000000E+00 0. -1.
        -11    1    4    4    0    0  0.15737621742E+03 -0.48992748850E+02  0.96671777940E+01  0.16510910809E+03  0.00000000000E+00 0. -1.
         11    1    4    4    0    0  0.26706614993E+02 -0.40434008010E+02 -0.36970767819E+02  0.60950717479E+02  0.00000000000E+00 0.  1.
         -2    1    1    2    0  502 -0.82925415426E+02  0.90311912344E+02  0.35612768042E+00  0.12260910595E+03  0.00000000000E+00 0.  1.
<scales pt_clust_5="13000.00000" pt_clust_6="13000.00000" pt_clust_7="13000.00000" pt_clust_8="13000.00000" pt_clust_9="122.60859"></scales>
<clustering>
<clus scale="   80.662">  5  6 -1 -1</clus>
<clus scale="   92.054">  7  8 -1 -1</clus>
<clus scale="  122.609">  2  9  1 -1</clus>
<clus scale="  150.694">  1  5  2 -1</clus>
<clus scale="  122.609">  2  5  1 -1</clus>
</clustering>
</event>
<event>
 9    2  0.1325014E-004  0.2582143E+03  0.7546771E-02  0.1108752E+00
          2   -1    0    0  502    0 -0.00000000000E+00  0.00000000000E+00  0.14747155880E+04  0.14747155880E+04  0.00000000000E+00 0. -1.
         21   -1    0    0  501  502  0.00000000000E+00 -0.00000000000E+00 -0.90535785255E+02  0.90535785255E+02  0.00000000000E+00 0. -1.
         24    2    1    2    0    0 -0.64830227060E+02 -0.26054409497E+03  0.62331217777E+03  0.68357572011E+03  0.81679314438E+02 0.  0.
         23    2    1    2    0    0  0.33508143871E+02  0.18638599152E+03  0.13375661078E+03  0.24941880555E+03  0.91958556400E+02 0.  0.
        -13    1    3    3    0    0 -0.26865786427E+02 -0.12525704644E+02  0.60731811734E+02  0.67579706374E+02  0.00000000000E+00 0.  1.
         14    1    3    3    0    0 -0.37964440633E+02 -0.24801839032E+03  0.56258036604E+03  0.61599601374E+03  0.00000000000E+00 0. -1.
        -11    1    4    4    0    0  0.28352337625E+02  0.16167344368E+03  0.65647341135E+02  0.17678159077E+03  0.00000000000E+00 0. -1.
         11    1    4    4    0    0  0.51558062454E+01  0.24712547844E+02  0.68109269647E+02  0.72637214779E+02  0.00000000000E+00 0.  1.
          1    1    1    2  501    0  0.31322083189E+02  0.74158103449E+02  0.62711101423E+03  0.63225684763E+03  0.00000000000E+00 0. -1.
<scales pt_clust_5="13000.00000" pt_clust_6="13000.00000" pt_clust_7="13000.00000" pt_clust_8="13000.00000" pt_clust_9="80.50158"></scales>
<clustering>
<clus scale="   80.502">  2  9  1 -1</clus>
<clus scale="   81.679">  5  6 -1 -1</clus>
<clus scale="   91.959">  7  8 -1 -1</clus>
<clus scale="  254.735">  1  5  2 -1</clus>
<clus scale="   80.502">  2  5  1 -1</clus>
</clustering>
</event>
<event>
 9    2  0.1325014E-004  0.1346277E+03  0.7546771E-02  0.1224197E+00
         21   -1    0    0  501  502  0.00000000000E+00  0.00000000000E+00  0.21411540816E+03  0.21411540816E+03  0.00000000000E+00 0.  1.
          2   -1    0    0  502    0 -0.00000000000E+00 -0.00000000000E+00 -0.27846018960E+03  0.27846018960E+03  0.00000000000E+00 0. -1.
         24    2    1    2    0    0 -0.81774223428E+02 -0.54875536977E+02 -0.22233069671E+03  0.25507265547E+03  0.77024494120E+02 0.  0.
         23    2    1    2    0    0  0.71155505959E+02  0.74722341548E+02  0.87028339575E+02  0.16306081470E+03  0.91478757345E+02 0.  0.
        -11    1    3    3    0    0 -0.11297308962E+02  0.19081130454E+02 -0.30154321854E+02  0.37429959333E+02  0.00000000000E+00 0.  1.
         12    1    3    3    0    0 -0.70476914466E+02 -0.73956667431E+02 -0.19217637485E+03  0.21764269614E+03  0.00000000000E+00 0. -1.
        -13    1    4    4    0    0  0.13227078551E+02 -0.18142426652E+02 -0.11892979768E+01  0.22483720366E+02  0.00000000000E+00 0. -1.
         13    1    4    4    0    0  0.57928427408E+02  0.92864768200E+02  0.88217637552E+02  0.14057709433E+03  0.00000000000E+00 0.  1.
          1    1    1    2  501    0  0.10618717470E+02 -0.19846804570E+02  0.70957575695E+02  0.74442127595E+02  0.00000000000E+00 0. -1.
<scales pt_clust_5="13000.00000" pt_clust_6="13000.00000" pt_clust_7="13000.00000" pt_clust_8="13000.00000" pt_clust_9="22.50895"></scales>
<clustering>
<clus scale="   22.509">  1  9  2 -1</clus>
<clus scale="   77.024">  5  6 -1 -1</clus>
<clus scale="   91.479">  7  8 -1 -1</clus>
<clus scale="  125.256">  2  5  1 -1</clus>
<clus scale="   22.509">  1  5  2 -1</clus>
</clustering>
</event>
<event>
 9    2  0.1325014E-004  0.1103891E+03  0.7546771E-02  0.1266890E+00
          4   -1    0    0  502    0 -0.00000000000E+00  0.00000000000E+00  0.19468052031E+03  0.19468052031E+03  0.00000000000E+00 0. -1.
         21   -1    0    0  501  502  0.00000000000E+00 -0.00000000000E+00 -0.24474385558E+03  0.24474385558E+03  0.00000000000E+00 0. -1.
         24    2    1    2    0    0  0.71559941621E+01 -0.52015744655E+02  0.42679031658E+02  0.10529909981E+03  0.80681811666E+02 0.  0.
         23    2    1    2    0    0 -0.70610127731E+02  0.36936604213E+02 -0.18347507389E+03  0.22238346807E+03  0.97165844111E+02 0.  0.
        -13    1    3    3    0    0 -0.33318494690E+02 -0.62051522627E+01  0.23463082665E+02  0.41220653211E+02  0.00000000000E+00 0.  1.
         14    1    3    3    0    0  0.40474488853E+02 -0.45810592392E+02  0.19215948993E+02  0.64078446602E+02  0.00000000000E+00 0. -1.
        -11    1    4    4    0    0 -0.29411124406E+02  0.28857383995E+02 -0.17469895334E+03  0.17949230387E+03  0.00000000000E+00 0. -1.
         11    1    4    4    0    0 -0.41199003325E+02  0.80792202175E+01 -0.87761205481E+01  0.42891164197E+02  0.00000000000E+00 0.  1.
          3    1    1    2  501    0  0.63454133569E+02  0.15079140442E+02  0.90732706966E+02  0.11174180801E+03  0.00000000000E+00 0. -1.
<scales pt_clust_5="13000.00000" pt_clust_6="13000.00000" pt_clust_7="13000.00000" pt_clust_8="13000.00000" pt_clust_9="65.22125"></scales>
<clustering>
<clus scale="   65.221">  2  9  1 -1</clus>
<clus scale="   80.682">  5  6 -1 -1</clus>
<clus scale="   96.198">  1  5  2 -1</clus>
<clus scale="   97.166">  7  8 -1 -1</clus>
<clus scale="   65.221">  2  5  1 -1</clus>
</clustering>
</event>
<event>
 9    2  0.1325014E-004  0.1123416E+03  0.7546771E-02  0.1262535E+00
          2   -1    0    0  502    0 -0.00000000000E+00  0.00000000000E+00  0.27556183351E+03  0.27556183351E+03  0.00000000000E+00 0. -1.
         21   -1    0    0  501  502  0.00000000000E+00 -0.00000000000E+00 -0.11150654486E+03  0.11150654486E+03  0.00000000000E+00 0.  1.
         24    2    1    2    0    0 -0.10959145029E+02 -0.55546152429E+02  0.12547221718E+03  0.15752724221E+03  0.76590318211E+02 0.  0.
         23    2    1    2    0    0  0.47644376739E+02  0.91119815206E+02 -0.32228920620E+02  0.14221628326E+03  0.92811424633E+02 0.  0.
        -11    1    3    3    0    0 -0.16099745382E+02 -0.73186624581E+02  0.86530829677E+02  0.11446863458E+03  0.00000000000E+00 0.  1.
         12    1    3    3    0    0  0.51406003530E+01  0.17640472152E+02  0.38941387507E+02  0.43058607626E+02  0.00000000000E+00 0. -1.
        -11    1    4    4    0    0  0.32917781490E+02  0.73279393308E+02 -0.64143060742E+02  0.10279971821E+03  0.00000000000E+00 0.  1.
         11    1    4    4    0    0  0.14726595249E+02  0.17840421898E+02  0.31914140122E+02  0.39416565056E+02  0.00000000000E+00 0. -1.
          1    1    1    2  501    0 -0.36685231710E+02 -0.35573662777E+02  0.70811992089E+02  0.87324852892E+02  0.00000000000E+00 0. -1.
<scales pt_clust_5="13000.00000" pt_clust_6="13000.00000" pt_clust_7="13000.00000" pt_clust_8="13000.00000" pt_clust_9="51.10083"></scales>
<clustering>
<clus scale="   51.101">  2  9  1 -1</clus>
<clus scale="   76.590">  5  6 -1 -1</clus>
<clus scale="   92.811">  7  8 -1 -1</clus>
<clus scale="   99.362">  1  5  2 -1</clus>
<clus scale="   51.101">  2  5  1 -1</clus>
</clustering>
</event>
<event>
 9    2  0.1325014E-004  0.1144212E+03  0.7546771E-02  0.1254683E+00
          2   -1    0    0  502    0 -0.00000000000E+00  0.00000000000E+00  0.66063991125E+03  0.66063991125E+03  0.00000000000E+00 0. -1.
         21   -1    0    0  501  502  0.00000000000E+00 -0.00000000000E+00 -0.23775508689E+02  0.23775508689E+02  0.00000000000E+00 0. -1.
         23    2    1    2    0    0 -0.40526507733E+02 -0.53379055192E+02  0.32921622009E+03  0.34712289569E+03  0.87288394319E+02 0.  0.
         24    2    1    2    0    0  0.40691574437E+02  0.74107594468E+02  0.25173820982E+03  0.27766346564E+03  0.81099531952E+02 0.  0.
        -13    1    4    4    0    0 -0.12189681729E+02  0.15941797457E+02  0.80724152815E+01  0.21630837600E+02  0.00000000000E+00 0.  1.
         14    1    4    4    0    0  0.52881256166E+02  0.58165797012E+02  0.24366579454E+03  0.25603262804E+03  0.00000000000E+00 0. -1.
        -11    1    3    3    0    0 -0.41289283455E+02  0.12889328865E+02  0.14686529535E+03  0.15310243207E+03  0.00000000000E+00 0. -1.
         11    1    3    3    0    0  0.76277572191E+00 -0.66268384058E+02  0.18235092474E+03  0.19402046362E+03  0.00000000000E+00 0.  1.
          1    1    1    2  501    0 -0.16506670414E+00 -0.20728539276E+02  0.55909972660E+02  0.59629058608E+02  0.00000000000E+00 0. -1.
<scales pt_clust_5="13000.00000" pt_clust_6="13000.00000" pt_clust_7="13000.00000" pt_clust_8="13000.00000" pt_clust_9="20.72921"></scales>
<clustering>
<clus scale="   20.729">  2  9  1 -1</clus>
<clus scale="   81.100">  5  6 -1 -1</clus>
<clus scale="   87.288">  7  8 -1 -1</clus>
<clus scale="  109.773">  2  5  1 -1</clus>
<clus scale="   20.729">  2  5  1 -1</clus>
</clustering>
</event>
<event>
 9    2  0.1325014E-004  0.1605202E+03  0.7546771E-02  0.1192681E+00
         21   -1    0    0  501  502  0.00000000000E+00  0.00000000000E+00  0.14113567050E+03  0.14113567050E+03  0.00000000000E+00 0. -1.
          4   -1    0    0  502    0 -0.00000000000E+00 -0.00000000000E+00 -0.19659145919E+03  0.19659145919E+03  0.00000000000E+00 0. -1.
         23    2    1    2    0    0  0.73864632646E+02 -0.10866926234E+03 -0.60171224569E+02  0.17548845611E+03  0.99552144267E+02 0.  0.
         24    2    1    2    0    0 -0.52478480451E+02  0.10733402679E+03  0.10765623406E+02  0.13997311433E+03  0.72124821453E+02 0.  0.
        -13    1    4    4    0    0 -0.45353194945E+02  0.17870540203E+02 -0.44343533368E+01  0.48948258277E+02  0.00000000000E+00 0.  1.
         14    1    4    4    0    0 -0.71252855064E+01  0.89463486589E+02  0.15199976743E+02  0.91024856051E+02  0.00000000000E+00 0. -1.
        -11    1    3    3    0    0 -0.70813673312E+01 -0.36957747627E+02 -0.55742802575E+02  0.67255341140E+02  0.00000000000E+00 0.  1.
         11    1    3    3    0    0  0.80945999977E+02 -0.71711514714E+02 -0.44284219941E+01  0.10823311497E+03  0.00000000000E+00 0. -1.
          3    1    1    2  501    0 -0.21386152195E+02  0.13352355493E+01 -0.60501875267E+01  0.22265559252E+02  0.00000000000E+00 0. -1.
<scales pt_clust_5="13000.00000" pt_clust_6="13000.00000" pt_clust_7="13000.00000" pt_clust_8="13000.00000" pt_clust_9="21.42780"></scales>
<clustering>
<clus scale="   21.428">  1  9  2 -1</clus>
<clus scale="   72.125">  5  6 -1 -1</clus>
<clus scale="   99.552">  7  8 -1 -1</clus>
<clus scale="  145.114">  1  5  2 -1</clus>
<clus scale="   21.428">  1  5  2 -1</clus>
</clustering>
</event>
<event>
 9    2  0.1325014E-004  0.1831304E+03  0.7546771E-02  0.1166746E+00
         21   -1    0    0  501  502  0.00000000000E+00  0.00000000000E+00  0.13946158878E+03  0.13946158878E+03  0.00000000000E+00 0. -1.
          2   -1    0    0  502    0 -0.00000000000E+00 -0.00000000000E+00 -0.47717339039E+03  0.47717339039E+03  0.00000000000E+00 0. -1.
         24    2    1    2    0    0 -0.57618247977E+02  0.11367209410E+03 -0.53743587259E+02  0.16076215466E+03  0.81944430687E+02 0.  0.
         23    2    1    2    0    0  0.63872126469E+02 -0.18587878972E+03 -0.70774247038E+02  0.23069603712E+03  0.97883065393E+02 0.  0.
        -11    1    3    3    0    0 -0.24068207696E+02  0.88237318014E+02  0.12915113034E+01  0.91470054736E+02  0.00000000000E+00 0.  1.
         12    1    3    3    0    0 -0.33550040281E+02  0.25434776090E+02 -0.55035098563E+02  0.69292099921E+02  0.00000000000E+00 0. -1.
        -13    1    4    4    0    0  0.51482092124E+02 -0.11874985764E+03  0.39451070891E+01  0.12948937551E+03  0.00000000000E+00 0.  1.
         13    1    4    4    0    0  0.12390034345E+02 -0.67128932075E+02 -0.74719354127E+02  0.10120666161E+03  0.00000000000E+00 0. -1.
          1    1    1    2  501    0 -0.62538784921E+01  0.72206695613E+02 -0.21319396731E+03  0.22517678740E+03  0.00000000000E+00 0. -1.
<scales pt_clust_5="13000.00000" pt_clust_6="13000.00000" pt_clust_7="13000.00000" pt_clust_8="13000.00000" pt_clust_9="72.47705"></scales>
<clustering>
<clus scale="   72.477">  1  9  2 -1</clus>
<clus scale="   81.944">  5  6 -1 -1</clus>
<clus scale="   97.883">  7  8 -1 -1</clus>
<clus scale="  175.130">  2  5  1 -1</clus>
<clus scale="   72.477">  1  5  2 -1</clus>
</clustering>
</event>
<event>
 9    2  0.1325014E-004  0.9750218E+02  0.7546771E-02  0.1286648E+00
          2   -1    0    0  502    0 -0.00000000000E+00  0.00000000000E+00  0.42555633199E+03  0.42555633199E+03  0.00000000000E+00 0. -1.
         21   -1    0    0  501  502  0.00000000000E+00 -0.00000000000E+00 -0.48701377542E+02  0.48701377542E+02  0.00000000000E+00 0. -1.
         24    2    1    2    0    0  0.54529064514E+02  0.89365027448E+01  0.22658620199E+03  0.25076549602E+03  0.92134396968E+02 0.  0.
         23    2    1    2    0    0  0.16460543744E+02 -0.10950556040E+02  0.67144239987E+02  0.11416122310E+03  0.90186316688E+02 0.  0.
        -11    1    3    3    0    0  0.10502393207E+02  0.42488745245E+02  0.53943769395E+02  0.69465991622E+02  0.00000000000E+00 0.  1.
         12    1    3    3    0    0  0.44026671307E+02 -0.33552242500E+02  0.17264243259E+03  0.18129950440E+03  0.00000000000E+00 0. -1.
        -13    1    4    4    0    0 -0.16373765934E+02 -0.42649020270E+02  0.25188844330E+02  0.52168160976E+02  0.00000000000E+00 0.  1.
         13    1    4    4    0    0  0.32834309677E+02  0.31698464230E+02  0.41955395657E+02  0.61993062122E+02  0.00000000000E+00 0. -1.
          1    1    1    2  501    0 -0.70989608258E+02  0.20140532953E+01  0.83124512471E+02  0.10933099041E+03  0.00000000000E+00 0. -1.
<scales pt_clust_5="13000.00000" pt_clust_6="13000.00000" pt_clust_7="13000.00000" pt_clust_8="13000.00000" pt_clust_9="71.01817"></scales>
<clustering>
<clus scale="   71.018">  2  9  1 -1</clus>
<clus scale="   90.186">  7  8 -1 -1</clus>
<clus scale="   92.134">  5  6 -1 -1</clus>
<clus scale="   95.663">  2  7  1 -1</clus>
<clus scale="   71.018">  2  5  1 -1</clus>
</clustering>
</event>
<event>
 9    2  0.1325014E-004  0.1363572E+03  0.7546771E-02  0.1259500E+00
         21   -1    0    0  501  502  0.00000000000E+00  0.00000000000E+00  0.13372940862E+03  0.13372940862E+03  0.00000000000E+00 0.  1.
          2   -1    0    0  502    0 -0.00000000000E+00 -0.00000000000E+00 -0.17520717118E+03  0.17520717118E+03  0.00000000000E+00 0. -1.
         24    2    1    2    0    0 -0.62857596282E+01 -0.33058569322E+01 -0.11753730035E+02  0.60135321024E+02  0.58546282553E+02 0.  0.
         23    2    1    2    0    0 -0.39912217971E+02  0.95194258185E+02  0.13592911025E+02  0.13720336893E+03  0.89359192486E+02 0.  0.
        -13    1    3    3    0    0 -0.15254247115E+02  0.15277215481E+02 -0.26934247451E+02  0.34518676882E+02  0.00000000000E+00 0.  1.
         14    1    3    3    0    0  0.89684874869E+01 -0.18583072413E+02  0.15180517416E+02  0.25616644143E+02  0.00000000000E+00 0. -1.
        -11    1    4    4    0    0  0.33001901976E+01  0.85785944646E+02  0.28621547501E+02  0.90494820490E+02  0.00000000000E+00 0.  1.
         11    1    4    4    0    0 -0.43212408169E+02  0.94083135396E+01 -0.15028636476E+02  0.46708548444E+02  0.00000000000E+00 0. -1.
          1    1    1    2  501    0  0.46197977599E+02 -0.91888401253E+02 -0.43316943542E+02  0.11159788984E+03  0.00000000000E+00 0. -1.
<scales pt_clust_5="13000.00000" pt_clust_6="13000.00000" pt_clust_7="13000.00000" pt_clust_8="13000.00000" pt_clust_9="102.99626"></scales>
<clustering>
<clus scale="   58.546">  5  6 -1 -1</clus>
<clus scale="   58.975">  2  5  1 -1</clus>
<clus scale="   89.359">  7  8 -1 -1</clus>
<clus scale="  102.996">  1  9  2 -1</clus>
<clus scale="  102.996">  1  5  2 -1</clus>
</clustering>
</event>
<event>
 9    2  0.1325014E-004  0.9750940E+02  0.7546771E-02  0.1292237E+00
         21   -1    0    0  501  502  0.00000000000E+00  0.00000000000E+00  0.85428935443E+03  0.85428935443E+03  0.00000000000E+00 0. -1.
          4   -1    0    0  502    0 -0.00000000000E+00 -0.00000000000E+00 -0.16798007824E+02  0.16798007824E+02  0.00000000000E+00 0. -1.
         23    2    1    2    0    0  0.42959502427E+02  0.14198145290E+02  0.25710799063E+03  0.27690914320E+03  0.92342019499E+02 0.  0.
         24    2    1    2    0    0 -0.14332841701E+02  0.18753786097E+02  0.38471061746E+03  0.39369596027E+03  0.80231634058E+02 0.  0.
        -13    1    4    4    0    0 -0.29940966557E+02  0.65244798864E+01  0.51726930429E+02  0.60122422172E+02  0.00000000000E+00 0.  1.
         14    1    4    4    0    0  0.15608124857E+02  0.12229306211E+02  0.33298368703E+03  0.33357353810E+03  0.00000000000E+00 0. -1.
        -13    1    3    3    0    0 -0.22738786146E+02 -0.13173220151E+01  0.19778600805E+02  0.30165887730E+02  0.00000000000E+00 0.  1.
         13    1    3    3    0    0  0.65698288573E+02  0.15515467305E+02  0.23732938982E+03  0.24674325547E+03  0.00000000000E+00 0. -1.
          3    1    1    2  501    0 -0.28626660727E+02 -0.32951931387E+02  0.19567273852E+03  0.20048225878E+03  0.00000000000E+00 0. -1.
<scales pt_clust_5="13000.00000" pt_clust_6="13000.00000" pt_clust_7="13000.00000" pt_clust_8="13000.00000" pt_clust_9="43.64992"></scales>
<clustering>
<clus scale="   43.650">  1  9  2 -1</clus>
<clus scale="   80.232">  5  6 -1 -1</clus>
<clus scale="   86.129">  1  5  2 -1</clus>
<clus scale="   92.342">  7  8 -1 -1</clus>
<clus scale="   43.650">  1  5  2 -1</clus>
</clustering>
</event>
<event>
 9    2  0.1325014E-004  0.1215633E+03  0.7546771E-02  0.1244664E+00
         21   -1    0    0  501  502  0.00000000000E+00  0.00000000000E+00  0.44599776349E+02  0.44599776349E+02  0.00000000000E+00 0. -1.
          2   -1    0    0  502    0 -0.00000000000E+00 -0.00000000000E+00 -0.88124942950E+03  0.88124942950E+03  0.00000000000E+00 0. -1.
         23    2    1    2    0    0  0.30997388145E+02 -0.10320372899E+03 -0.57715165220E+03  0.59464088912E+03  0.94243883759E+02 0.  0.
         24    2    1    2    0    0  0.16268772343E+02  0.47707167675E+02 -0.23594278371E+03  0.25460018072E+03  0.81311795165E+02 0.  0.
        -13    1    4    4    0    0 -0.57603608597E+01  0.66470275292E+02 -0.16634965026E+03  0.17923081598E+03  0.00000000000E+00 0.  1.
         14    1    4    4    0    0  0.22029133203E+02 -0.18763107616E+02 -0.69593133450E+02  0.75369364734E+02  0.00000000000E+00 0. -1.
        -11    1    3    3    0    0 -0.27116161314E+02 -0.72341798467E+02 -0.32270375157E+03  0.33182274377E+03  0.00000000000E+00 0.  1.
         11    1    3    3    0    0  0.58113549459E+02 -0.30861930518E+02 -0.25444790063E+03  0.26281814534E+03  0.00000000000E+00 0. -1.
          1    1    1    2  501    0 -0.47266160488E+02  0.55496561310E+02 -0.23555217236E+02  0.76608136014E+02  0.00000000000E+00 0. -1.
<scales pt_clust_5="13000.00000" pt_clust_6="13000.00000" pt_clust_7="13000.00000" pt_clust_8="13000.00000" pt_clust_9="72.89690"></scales>
<clustering>
<clus scale="   72.897">  1  9  2 -1</clus>
<clus scale="   81.312">  5  6 -1 -1</clus>
<clus scale="   94.244">  7  8 -1 -1</clus>
<clus scale="  111.836">  1  5  2 -1</clus>
<clus scale="   72.897">  1  5  2 -1</clus>
</clustering>
</event>
<event>
 9    2  0.1325014E-004  0.1166295E+03  0.7546771E-02  0.1251561E+00
         21   -1    0    0  501  502  0.00000000000E+00  0.00000000000E+00  0.41384152846E+03  0.41384152846E+03  0.00000000000E+00 0.  1.
         -1   -1    0    0    0  501 -0.00000000000E+00 -0.00000000000E+00 -0.39361596226E+02  0.39361596226E+02  0.00000000000E+00 0.  1.
         24    2    1    2    0    0  0.35385529885E+02  0.65276676877E+02  0.12669327848E+03  0.16758598931E+03  0.80750831160E+02 0.  0.
         23    2    1    2    0    0 -0.15507217196E+02 -0.76882005094E+02  0.20105805579E+03  0.23352689803E+03  0.89214089773E+02 0.  0.
        -13    1    3    3    0    0  0.52491835553E+02  0.68354534781E+02  0.12237330207E+03  0.14967618476E+03  0.00000000000E+00 0.  1.
         14    1    3    3    0    0 -0.17106305668E+02 -0.30778579043E+01  0.43199764065E+01  0.17909804551E+02  0.00000000000E+00 0. -1.
        -13    1    4    4    0    0  0.12010348934E+02 -0.41211830965E+02  0.17764024708E+03  0.18275316926E+03  0.00000000000E+00 0. -1.
         13    1    4    4    0    0 -0.27517566130E+02 -0.35670174129E+02  0.23417808705E+02  0.50773728765E+02  0.00000000000E+00 0.  1.
         -2    1    1    2    0  502 -0.19878312689E+02  0.11605328218E+02  0.46728597965E+02  0.52090237340E+02  0.00000000000E+00 0.  1.
<scales pt_clust_5="13000.00000" pt_clust_6="13000.00000" pt_clust_7="13000.00000" pt_clust_8="13000.00000" pt_clust_9="23.01806"></scales>
<clustering>
<clus scale="   23.018">  1  9  2 -1</clus>
<clus scale="   80.751">  5  6 -1 -1</clus>
<clus scale="   89.214">  7  8 -1 -1</clus>
<clus scale="  110.290">  2  5  1 -1</clus>
<clus scale="   23.018">  1  5  2 -1</clus>
</clustering>
</event>
<event>
 9    2  0.1325014E-004  0.1071445E+03  0.7546771E-02  0.1272100E+00
          2   -1    0    0  502    0 -0.00000000000E+00  0.00000000000E+00  0.35252315395E+03  0.35252315395E+03  0.00000000000E+00 0. -1.
         21   -1    0    0  501  502  0.00000000000E+00 -0.00000000000E+00 -0.15213425087E+03  0.15213425087E+03  0.00000000000E+00 0. -1.
         24    2    1    2    0    0  0.57190683834E+02  0.12457840923E+02  0.13419479360E+03  0.16677881309E+03  0.79880897268E+02 0.  0.
         23    2    1    2    0    0  0.63530338112E+01 -0.11532601306E+02 -0.11314552897E+03  0.14761202598E+03  0.93883105804E+02 0.  0.
        -11    1    3    3    0    0  0.66106787899E+02  0.28455088225E+02  0.71444767087E+02  0.10141081893E+03  0.00000000000E+00 0.  1.
         12    1    3    3    0    0 -0.89161040646E+01 -0.15997247302E+02  0.62750026510E+02  0.65367994156E+02  0.00000000000E+00 0. -1.
        -13    1    4    4    0    0 -0.39732076387E+02 -0.22269104509E+02 -0.70371744783E+02  0.83825612872E+02  0.00000000000E+00 0.  1.
         13    1    4    4    0    0  0.46085110198E+02  0.10736503204E+02 -0.42773784189E+02  0.63786413105E+02  0.00000000000E+00 0. -1.
          1    1    1    2  501    0 -0.63543717645E+02 -0.92523961721E+00  0.17933963846E+03  0.19026656575E+03  0.00000000000E+00 0. -1.
<scales pt_clust_5="13000.00000" pt_clust_6="13000.00000" pt_clust_7="13000.00000" pt_clust_8="13000.00000" pt_clust_9="63.55049"></scales>
<clustering>
<clus scale="   63.550">  2  9  1 -1</clus>
<clus scale="   79.881">  5  6 -1 -1</clus>
<clus scale="   93.883">  7  8 -1 -1</clus>
<clus scale="   95.115">  1  5  2 -1</clus>
<clus scale="   63.550">  2  5  1 -1</clus>
</clustering>
</event>
<event>
 9    2  0.1325014E-004  0.1169696E+03  0.7546771E-02  0.1251224E+00
         21   -1    0    0  501  502  0.00000000000E+00  0.00000000000E+00  0.28906922347E+02  0.28906922347E+02  0.00000000000E+00 0.  1.
          2   -1    0    0  502    0 -0.00000000000E+00 -0.00000000000E+00 -0.70319779714E+03  0.70319779714E+03  0.00000000000E+00 0. -1.
         24    2    1    2    0    0 -0.19835799890E+02 -0.69878974738E+02 -0.43494566975E+03  0.44857769141E+03  0.82265907461E+02 0.  0.
         23    2    1    2    0    0 -0.84150046727E+01  0.78182820959E+02 -0.17178228319E+03  0.20982621241E+03  0.91293596704E+02 0.  0.
        -11    1    3    3    0    0  0.11175819430E+02 -0.38414043691E+02 -0.67345705255E+02  0.78332507358E+02  0.00000000000E+00 0.  1.
         12    1    3    3    0    0 -0.31011619320E+02 -0.31464931046E+02 -0.36759996449E+03  0.37024518405E+03  0.00000000000E+00 0. -1.
        -11    1    4    4    0    0  0.35726023591E+01  0.94426665533E+02 -0.11097541046E+03  0.14575561868E+03  0.00000000000E+00 0.  1.
         11    1    4    4    0    0 -0.11987607032E+02 -0.16243844574E+02 -0.60806872736E+02  0.64070593729E+02  0.00000000000E+00 0. -1.
          1    1    1    2  501    0  0.28250804563E+02 -0.83038462216E+01 -0.67562921854E+02  0.73700815667E+02  0.00000000000E+00 0. -1.
<scales pt_clust_5="13000.00000" pt_clust_6="13000.00000" pt_clust_7="13000.00000" pt_clust_8="13000.00000" pt_clust_9="29.44591"></scales>
<clustering>
<clus scale="   29.446">  1  9  2 -1</clus>
<clus scale="   82.266">  5  6 -1 -1</clus>
<clus scale="   91.294">  7  8 -1 -1</clus>
<clus scale="  110.068">  2  5  1 -1</clus>
<clus scale="   29.446">  1  5  2 -1</clus>
</clustering>
</event>
<event>
 9    2  0.1325014E-004  0.1325391E+03  0.7546771E-02  0.1227934E+00
          2   -1    0    0  502    0 -0.00000000000E+00  0.00000000000E+00  0.63755180054E+02  0.63755180054E+02  0.00000000000E+00 0. -1.
         21   -1    0    0  501  502  0.00000000000E+00 -0.00000000000E+00 -0.38668005303E+03  0.38668005303E+03  0.00000000000E+00 0.  1.
         23    2    1    2    0    0  0.91274664268E+02 -0.27612866185E+02 -0.49346781644E+02  0.14459566567E+03  0.96846615612E+02 0.  0.
         24    2    1    2    0    0 -0.70265414683E+02  0.37334750534E+02 -0.22598391485E+03  0.25291406091E+03  0.81028885829E+02 0.  0.
        -13    1    4    4    0    0 -0.25849838672E+02  0.48926383747E+02 -0.17845582579E+03  0.18683813033E+03  0.00000000000E+00 0.  1.
         14    1    4    4    0    0 -0.44415576010E+02 -0.11591633213E+02 -0.47528089053E+02  0.66075930579E+02  0.00000000000E+00 0. -1.
        -13    1    3    3    0    0  0.33262876315E+02  0.24568296368E+02 -0.52104317075E+02  0.66519771384E+02  0.00000000000E+00 0.  1.
         13    1    3    3    0    0  0.58011787953E+02 -0.52181162552E+02  0.27575354307E+01  0.78075894285E+02  0.00000000000E+00 0. -1.
          1    1    1    2  501    0 -0.21009249585E+02 -0.97218843491E+01 -0.47594176490E+02  0.52925506508E+02  0.00000000000E+00 0. -1.
<scales pt_clust_5="13000.00000" pt_clust_6="13000.00000" pt_clust_7="13000.00000" pt_clust_8="13000.00000" pt_clust_9="23.14959"></scales>
<clustering>
<clus scale="   23.150">  2  9  1 -1</clus>
<clus scale="   81.029">  5  6 -1 -1</clus>
<clus scale="   96.847">  7  8 -1 -1</clus>
<clus scale="  121.462">  2  5  1 -1</clus>
<clus scale="   23.150">  2  5  1 -1</clus>
</clustering>
</event>
<event>
 9    2  0.1325014E-004  0.1950116E+03  0.7546771E-02  0.1155149E+00
          2   -1    0    0  502    0 -0.00000000000E+00  0.00000000000E+00  0.32584884005E+03  0.32584884005E+03  0.00000000000E+00 0. -1.
         21   -1    0    0  501  502  0.00000000000E+00 -0.00000000000E+00 -0.16615811962E+03  0.16615811962E+03  0.00000000000E+00 0.  1.
         23    2    1    2    0    0  0.12069898258E+03 -0.10890675860E+03  0.14953610529E+03  0.23866708609E+03  0.90399141219E+02 0.  0.
         24    2    1    2    0    0 -0.12883817641E+03  0.14619347040E+03  0.26464383501E+02  0.21183621233E+03  0.78755385668E+02 0.  0.
        -11    1    4    4    0    0 -0.11185195390E+03  0.15323536920E+03  0.15316179153E+02  0.19033266485E+03  0.00000000000E+00 0.  1.
         12    1    4    4    0    0 -0.16986222509E+02 -0.70418988026E+01  0.11148204349E+02  0.21503547476E+02  0.00000000000E+00 0. -1.
        -13    1    3    3    0    0  0.57840682252E+02 -0.10856148793E+03  0.94463771765E+02  0.15509527833E+03  0.00000000000E+00 0.  1.
         13    1    3    3    0    0  0.62858300330E+02 -0.34527067101E+00  0.55072333525E+02  0.83571807759E+02  0.00000000000E+00 0. -1.
          1    1    1    2  501    0  0.81391938245E+01 -0.37286711798E+02 -0.16309768367E+02  0.41503661248E+02  0.00000000000E+00 0. -1.
<scales pt_clust_5="13000.00000" pt_clust_6="13000.00000" pt_clust_7="13000.00000" pt_clust_8="13000.00000" pt_clust_9="38.16471"></scales>
<clustering>
<clus scale="   38.165">  2  9  1 -1</clus>
<clus scale="   78.755">  5  6 -1 -1</clus>
<clus scale="   90.399">  7  8 -1 -1</clus>
<clus scale="  189.895">  2  5  1 -1</clus>
<clus scale="   38.165">  2  5  1 -1</clus>
</clustering>
</event>
<event>
 9    2  0.1325014E-004  0.1163466E+03  0.7546771E-02  0.1250806E+00
         21   -1    0    0  501  502  0.00000000000E+00  0.00000000000E+00  0.44487630147E+03  0.44487630147E+03  0.00000000000E+00 0. -1.
          2   -1    0    0  502    0 -0.00000000000E+00 -0.00000000000E+00 -0.92702946287E+02  0.92702946287E+02  0.00000000000E+00 0. -1.
         23    2    1    2    0    0  0.42861889531E+02 -0.54429786880E+02 -0.16287794071E+02  0.11418720356E+03  0.89295475509E+02 0.  0.
         24    2    1    2    0    0 -0.33754145302E+02  0.87777895679E+02  0.12622212771E+03  0.17869878535E+03  0.84598635148E+02 0.  0.
        -13    1    4    4    0    0 -0.35699996752E+02  0.24247396657E+01  0.63039104862E+02  0.72486535800E+02  0.00000000000E+00 0.  1.
         14    1    4    4    0    0  0.19458514504E+01  0.85353156013E+02  0.63183022846E+02  0.10621224955E+03  0.00000000000E+00 0. -1.
        -11    1    3    3    0    0 -0.27160071380E+02 -0.92562051675E+01  0.23806220451E+01  0.28792606217E+02  0.00000000000E+00 0.  1.
         11    1    3    3    0    0  0.70021960910E+02 -0.45173581713E+02 -0.18668416116E+02  0.85394597340E+02  0.00000000000E+00 0. -1.
          1    1    1    2  501    0 -0.91077442293E+01 -0.33348108799E+02  0.24223902154E+03  0.24469325884E+03  0.00000000000E+00 0. -1.
<scales pt_clust_5="13000.00000" pt_clust_6="13000.00000" pt_clust_7="13000.00000" pt_clust_8="13000.00000" pt_clust_9="34.56946"></scales>
<clustering>
<clus scale="   34.569">  1  9  2 -1</clus>
<clus scale="   84.599">  5  6 -1 -1</clus>
<clus scale="   89.295">  7  8 -1 -1</clus>
<clus scale="  112.782">  1  5  2 -1</clus>
<clus scale="   34.569">  1  5  2 -1</clus>
</clustering>
</event>
<event>
 9    2  0.1493054E-004  0.1017044E+03  0.7546771E-02  0.1279844E+00
          2   -1    0    0  502    0 -0.00000000000E+00  0.00000000000E+00  0.59759557911E+03  0.59759557911E+03  0.00000000000E+00 0. -1.
         21   -1    0    0  501  502  0.00000000000E+00 -0.00000000000E+00 -0.12174606646E+03  0.12174606646E+03  0.00000000000E+00 0.  1.
         23    2    1    2    0    0 -0.45074629167E+02 -0.10991977379E+02  0.45362771265E+03  0.46490830153E+03  0.90603981080E+02 0.  0.
         24    2    1    2    0    0  0.46031843354E+02 -0.11362140262E+02 -0.94824228708E+02  0.13526793098E+03  0.84010415827E+02 0.  0.
        -11    1    4    4    0    0  0.21166073488E+02 -0.35969482508E+01 -0.10509552358E+03  0.10726607003E+03  0.00000000000E+00 0.  1.
         12    1    4    4    0    0  0.24865769867E+02 -0.77651920112E+01  0.10271294873E+02  0.28001860946E+02  0.00000000000E+00 0. -1.
        -13    1    3    3    0    0 -0.49955090078E+02 -0.42824975822E+02  0.35818799497E+03  0.36418145109E+03  0.00000000000E+00 0. -1.
         13    1    3    3    0    0  0.48804609107E+01  0.31832998444E+02  0.95439717682E+02  0.10072685044E+03  0.00000000000E+00 0.  1.
          1    1    1    2  501    0 -0.95721418757E+00  0.22354117640E+02  0.11704602870E+03  0.11916541306E+03  0.00000000000E+00 0. -1.
<scales pt_clust_5="13000.00000" pt_clust_6="13000.00000" pt_clust_7="13000.00000" pt_clust_8="13000.00000" pt_clust_9="22.37461"></scales>
<clustering>
<clus scale="   22.375">  2  9  1 -1</clus>
<clus scale="   84.010">  5  6 -1 -1</clus>
<clus scale="   90.604">  7  8 -1 -1</clus>
<clus scale="   95.877">  2  5  1 -1</clus>
<clus scale="   22.375">  2  5  1 -1</clus>
</clustering>
</event>
<event>
 9    2  0.1325014E-004  0.1665257E+03  0.7546771E-02  0.1182794E+00
         21   -1    0    0  501  502  0.00000000000E+00  0.00000000000E+00  0.22213076629E+03  0.22213076629E+03  0.00000000000E+00 0. -1.
          2   -1    0    0  502    0 -0.00000000000E+00 -0.00000000000E+00 -0.39994013670E+03  0.39994013670E+03  0.00000000000E+00 0. -1.
         23    2    1    2    0    0  0.83258009593E+02 -0.11617483385E+03 -0.33974533766E+03  0.37927692347E+03  0.89418130341E+02 0.  0.
         24    2    1    2    0    0 -0.68487287104E+02  0.94779480012E+02  0.16382699131E+03  0.21672654043E+03  0.80358272243E+02 0.  0.
        -13    1    4    4    0    0 -0.47361246559E+02  0.90875750001E+02  0.79479613429E+02  0.12968615410E+03  0.00000000000E+00 0.  1.
         14    1    4    4    0    0 -0.21126040544E+02  0.39037300105E+01  0.84347377879E+02  0.87040386328E+02  0.00000000000E+00 0. -1.
        -13    1    3    3    0    0  0.51373564809E+02 -0.12439522115E+03 -0.28875207971E+03  0.31857680038E+03  0.00000000000E+00 0. -1.
         13    1    3    3    0    0  0.31884444783E+02  0.82203872965E+01 -0.50993257949E+02  0.60700123086E+02  0.00000000000E+00 0.  1.
          1    1    1    2  501    0 -0.14770722489E+02  0.21395353837E+02 -0.18910240555E+01  0.26067439089E+02  0.00000000000E+00 0. -1.
<scales pt_clust_5="13000.00000" pt_clust_6="13000.00000" pt_clust_7="13000.00000" pt_clust_8="13000.00000" pt_clust_9="25.99876"></scales>
<clustering>
<clus scale="   25.999">  1  9  2 -1</clus>
<clus scale="   80.358">  5  6 -1 -1</clus>
<clus scale="   89.418">  7  8 -1 -1</clus>
<clus scale="  161.841">  1  5  2 -1</clus>
<clus scale="   25.999">  1  5  2 -1</clus>
</clustering>
</event>
<event>
 9    2  0.1325014E-004  0.1463286E+03  0.7546771E-02  0.1223861E+00
         21   -1    0    0  501  502  0.00000000000E+00  0.00000000000E+00  0.70368160091E+03  0.70368160091E+03  0.00000000000E+00 0. -1.
          2   -1    0    0  502    0 -0.00000000000E+00 -0.00000000000E+00 -0.11658515557E+03  0.11658515557E+03  0.00000000000E+00 0. -1.
         23    2    1    2    0    0 -0.10405182862E+02  0.30404894472E+02  0.48921567163E+02  0.10974088290E+03  0.92827884859E+02 0.  0.
         24    2    1    2    0    0 -0.14981917636E+02  0.11213775718E+03  0.54692794353E+03  0.56547578374E+03  0.88506226572E+02 0.  0.
        -13    1    4    4    0    0 -0.38288209253E+02  0.11844640822E+02  0.17738654006E+03  0.18185782105E+03  0.00000000000E+00 0.  1.
         14    1    4    4    0    0  0.23306291617E+02  0.10029311636E+03  0.36954140348E+03  0.38361796269E+03  0.00000000000E+00 0. -1.
        -13    1    3    3    0    0 -0.27779333604E+02 -0.26454563541E+02  0.14293042773E+02  0.40936858445E+02  0.00000000000E+00 0. -1.
         13    1    3    3    0    0  0.17374150742E+02  0.56859458013E+02  0.34628524390E+02  0.68804024453E+02  0.00000000000E+00 0.  1.
          1    1    1    2  501    0  0.25387100499E+02 -0.14254265165E+03 -0.87530653546E+01  0.14505008985E+03  0.00000000000E+00 0. -1.
<scales pt_clust_5="13000.00000" pt_clust_6="13000.00000" pt_clust_7="13000.00000" pt_clust_8="13000.00000" pt_clust_9="116.52771"></scales>
<clustering>
<clus scale="   88.506">  5  6 -1 -1</clus>
<clus scale="   92.828">  7  8 -1 -1</clus>
<clus scale="   98.233">  2  7  1 -1</clus>
<clus scale="  116.528">  1  9  2 -1</clus>
<clus scale="  116.528">  1  5  2 -1</clus>
</clustering>
</event>
<event>
 9    2  0.1325014E-004  0.1024478E+03  0.7546771E-02  0.1280984E+00
         21   -1    0    0  501  502  0.00000000000E+00  0.00000000000E+00  0.54576321975E+02  0.54576321975E+02  0.00000000000E+00 0. -1.
         -3   -1    0    0    0  501 -0.00000000000E+00 -0.00000000000E+00 -0.49747970797E+03  0.49747970797E+03  0.00000000000E+00 0.  1.
         23    2    1    2    0    0  0.49445980059E+02 -0.17011395643E+02 -0.39918380284E+03  0.41296045666E+03  0.91947473013E+02 0.  0.
         24    2    1    2    0    0 -0.17284793547E+02  0.18860949567E+02 -0.59858949811E+02  0.10306444890E+03  0.79904237991E+02 0.  0.
        -13    1    4    4    0    0 -0.13275891437E+02  0.50310381183E+02 -0.34048104371E+02  0.62182450575E+02  0.00000000000E+00 0.  1.
         14    1    4    4    0    0 -0.40089021106E+01 -0.31449431616E+02 -0.25810845440E+02  0.40881998330E+02  0.00000000000E+00 0. -1.
        -13    1    3    3    0    0  0.62394290873E+01 -0.47362182506E+02 -0.12667485503E+03  0.13538325489E+03  0.00000000000E+00 0. -1.
         13    1    3    3    0    0  0.43206550972E+02  0.30350786864E+02 -0.27250894781E+03  0.27757720177E+03  0.00000000000E+00 0.  1.
         -4    1    1    2    0  502 -0.32161186512E+02 -0.18495539241E+01  0.16139366657E+02  0.36031124374E+02  0.00000000000E+00 0.  1.
<scales pt_clust_5="13000.00000" pt_clust_6="13000.00000" pt_clust_7="13000.00000" pt_clust_8="13000.00000" pt_clust_9="32.21433"></scales>
<clustering>
<clus scale="   32.214">  1  9  2 -1</clus>
<clus scale="   79.904">  5  6 -1 -1</clus>
<clus scale="   91.793">  1  5  2 -1</clus>
<clus scale="   91.947">  7  8 -1 -1</clus>
<clus scale="   32.214">  1  5  2 -1</clus>
</clustering>
</event>
<event>
 9    2  0.1325014E-004  0.1148003E+03  0.7546771E-02  0.1255528E+00
         21   -1    0    0  501  502  0.00000000000E+00  0.00000000000E+00  0.55952017853E+02  0.55952017853E+02  0.00000000000E+00 0. -1.
          2   -1    0    0  502    0 -0.00000000000E+00 -0.00000000000E+00 -0.69877163227E+03  0.69877163227E+03  0.00000000000E+00 0. -1.
         23    2    1    2    0    0  0.22508262520E+02 -0.62143366144E+02 -0.20390131377E+03  0.23287021034E+03  0.91018510578E+02 0.  0.
         24    2    1    2    0    0  0.18619643642E+02  0.87912965274E+02 -0.51433507182E+02  0.13134090213E+03  0.80806226971E+02 0.  0.
        -13    1    4    4    0    0  0.24586324850E+02  0.24275298366E+02  0.16306936481E+02  0.38205937467E+02  0.00000000000E+00 0.  1.
         14    1    4    4    0    0 -0.59666812072E+01  0.63637666908E+02 -0.67740443663E+02  0.93134964658E+02  0.00000000000E+00 0. -1.
        -11    1    3    3    0    0 -0.40865748511E+01 -0.80202369305E+02 -0.14309952691E+03  0.16409325013E+03  0.00000000000E+00 0. -1.
         11    1    3    3    0    0  0.26594837371E+02  0.18059003161E+02 -0.60801786859E+02  0.68776960207E+02  0.00000000000E+00 0.  1.
          1    1    1    2  501    0 -0.41127906163E+02 -0.25769599130E+02 -0.38748479346E+03  0.39051253766E+03  0.00000000000E+00 0. -1.
<scales pt_clust_5="13000.00000" pt_clust_6="13000.00000" pt_clust_7="13000.00000" pt_clust_8="13000.00000" pt_clust_9="48.53431"></scales>
<clustering>
<clus scale="   48.534">  1  9  2 -1</clus>
<clus scale="   80.806">  5  6 -1 -1</clus>
<clus scale="   91.019">  7  8 -1 -1</clus>
<clus scale="  106.885">  1  5  2 -1</clus>
<clus scale="   48.534">  1  5  2 -1</clus>
</clustering>
</event>
<event>
 9    2  0.1325014E-004  0.1726737E+03  0.7546771E-02  0.1197591E+00
         21   -1    0    0  501  502  0.00000000000E+00  0.00000000000E+00  0.42984872826E+02  0.42984872826E+02  0.00000000000E+00 0. -1.
          2   -1    0    0  502    0 -0.00000000000E+00 -0.00000000000E+00 -0.14817884969E+04  0.14817884969E+04  0.00000000000E+00 0. -1.
         24    2    1    2    0    0  0.20593092235E+02  0.61125118470E+02 -0.75530636140E+03  0.76252743764E+03  0.82462343134E+02 0.  0.
         23    2    1    2    0    0  0.80145020421E+02 -0.14083909389E+03 -0.26159545822E+03  0.32122028904E+03  0.92148877720E+02 0.  0.
        -13    1    3    3    0    0 -0.19503552331E+02  0.13846128057E+02 -0.61979573873E+02  0.66434715272E+02  0.00000000000E+00 0.  1.
         14    1    3    3    0    0  0.40096644566E+02  0.47278990413E+02 -0.69332678753E+03  0.69609272237E+03  0.00000000000E+00 0. -1.
        -13    1    4    4    0    0  0.68251055860E+02 -0.30998350971E+02 -0.89933532073E+02  0.11707751526E+03  0.00000000000E+00 0. -1.
         13    1    4    4    0    0  0.11893964561E+02 -0.10984074292E+03 -0.17166192615E+03  0.20414277378E+03  0.00000000000E+00 0.  1.
          1    1    1    2  501    0 -0.10073811266E+03  0.79713975418E+02 -0.42190180450E+03  0.44102564309E+03  0.00000000000E+00 0. -1.
<scales pt_clust_5="13000.00000" pt_clust_6="13000.00000" pt_clust_7="13000.00000" pt_clust_8="13000.00000" pt_clust_9="146.03014"></scales>
<clustering>
<clus scale="   82.462">  5  6 -1 -1</clus>
<clus scale="   92.149">  7  8 -1 -1</clus>
<clus scale="  104.692">  2  5  1 -1</clus>
<clus scale="  146.030">  1  9  2 -1</clus>
<clus scale="  146.030">  1  5  2 -1</clus>
</clustering>
</event>
<event>
 9    2  0.1325014E-004  0.1123257E+03  0.7546771E-02  0.1260631E+00
         21   -1    0    0  501  502  0.00000000000E+00  0.00000000000E+00  0.27138978012E+03  0.27138978012E+03  0.00000000000E+00 0. -1.
         -1   -1    0    0    0  501 -0.00000000000E+00 -0.00000000000E+00 -0.11406240305E+03  0.11406240305E+03  0.00000000000E+00 0.  1.
         24    2    1    2    0    0  0.62471202093E+02 -0.23731087226E+02 -0.56843956016E+02  0.11796737526E+03  0.78862226049E+02 0.  0.
         23    2    1    2    0    0 -0.68657969386E+02 -0.98677182292E+00  0.21368077360E+03  0.24199972808E+03  0.90495883375E+02 0.  0.
        -11    1    3    3    0    0  0.48361237540E+02 -0.30635532094E+02 -0.74745995696E+02  0.94150459349E+02  0.00000000000E+00 0.  1.
         12    1    3    3    0    0  0.14109964553E+02  0.69044448674E+01  0.17902039680E+02  0.23816915907E+02  0.00000000000E+00 0. -1.
        -13    1    4    4    0    0 -0.63195122422E+02  0.29864012086E+02  0.87513010366E+02  0.11200004330E+03  0.00000000000E+00 0.  1.
         13    1    4    4    0    0 -0.54628469644E+01 -0.30850783909E+02  0.12616776323E+03  0.12999968478E+03  0.00000000000E+00 0. -1.
         -2    1    1    2    0  502  0.61867672930E+01  0.24717859049E+02  0.49055948506E+00  0.25485079834E+02  0.00000000000E+00 0.  1.
<scales pt_clust_5="13000.00000" pt_clust_6="13000.00000" pt_clust_7="13000.00000" pt_clust_8="13000.00000" pt_clust_9="25.48037"></scales>
<clustering>
<clus scale="   25.480">  1  9  2 -1</clus>
<clus scale="   78.862">  5  6 -1 -1</clus>
<clus scale="   90.496">  7  8 -1 -1</clus>
<clus scale="  103.183">  2  5  1 -1</clus>
<clus scale="   25.480">  1  5  2 -1</clus>
</clustering>
</event>
<event>
 9    2  0.1325014E-004  0.2424208E+03  0.7546771E-02  0.1160033E+00
          2   -1    0    0  502    0 -0.00000000000E+00  0.00000000000E+00  0.52558471690E+03  0.52558471690E+03  0.00000000000E+00 0. -1.
         21   -1    0    0  501  502  0.00000000000E+00 -0.00000000000E+00 -0.26084556493E+03  0.26084556493E+03  0.00000000000E+00 0. -1.
         24    2    1    2    0    0  0.21272131791E+02  0.42332685436E+02 -0.71683813984E+02  0.11364452694E+03  0.74377076238E+02 0.  0.
         23    2    1    2    0    0  0.20849557820E+03 -0.79318166578E+02 -0.25399333886E+02  0.24258056776E+03  0.91860916692E+02 0.  0.
        -13    1    3    3    0    0 -0.20445708095E+02 -0.45710915298E+01 -0.39927132582E+01  0.21327531888E+02  0.00000000000E+00 0.  1.
         14    1    3    3    0    0  0.41717839887E+02  0.46903776966E+02 -0.67691100726E+02  0.92316995055E+02  0.00000000000E+00 0. -1.
        -11    1    4    4    0    0  0.14373579136E+03 -0.97857447116E+02 -0.18583195700E+02  0.17487536372E+03  0.00000000000E+00 0. -1.
         11    1    4    4    0    0  0.64759786843E+02  0.18539280538E+02 -0.68161381855E+01  0.67705204044E+02  0.00000000000E+00 0.  1.
          1    1    1    2  501    0 -0.22976770999E+03  0.36985481142E+02  0.36182229984E+03  0.43020518713E+03  0.00000000000E+00 0. -1.
<scales pt_clust_5="13000.00000" pt_clust_6="13000.00000" pt_clust_7="13000.00000" pt_clust_8="13000.00000" pt_clust_9="224.34234"></scales>
<clustering>
<clus scale="   74.377">  5  6 -1 -1</clus>
<clus scale="   88.185">  1  5  2 -1</clus>
<clus scale="   91.861">  7  8 -1 -1</clus>
<clus scale="  224.342">  2  9  1 -1</clus>
<clus scale="  224.342">  2  5  1 -1</clus>
</clustering>
</event>
<event>
 9    2  0.1325014E-004  0.9501255E+02  0.7546771E-02  0.1295355E+00
         21   -1    0    0  501  502  0.00000000000E+00  0.00000000000E+00  0.11171807260E+03  0.11171807260E+03  0.00000000000E+00 0. -1.
          2   -1    0    0  502    0 -0.00000000000E+00 -0.00000000000E+00 -0.11640968045E+04  0.11640968045E+04  0.00000000000E+00 0. -1.
         24    2    1    2    0    0 -0.12967231892E+02  0.27528484600E+02 -0.11056274878E+04  0.11091502292E+04  0.82922389331E+02 0.  0.
         23    2    1    2    0    0 -0.25371584913E+01  0.14166432590E+01 -0.14215442283E+02  0.91633823790E+02  0.90477813920E+02 0.  0.
        -13    1    3    3    0    0  0.11610535954E+01 -0.22691307831E+02 -0.11932094146E+03  0.12146493554E+03  0.00000000000E+00 0.  1.
         14    1    3    3    0    0 -0.14128285487E+02  0.50219792431E+02 -0.98630654631E+03  0.98768529366E+03  0.00000000000E+00 0. -1.
        -13    1    4    4    0    0  0.75574845473E+01 -0.33334690943E+02 -0.35800558750E+02  0.49497446397E+02  0.00000000000E+00 0.  1.
         13    1    4    4    0    0 -0.10094643039E+02  0.34751334202E+02  0.21585116467E+02  0.42136377393E+02  0.00000000000E+00 0. -1.
          1    1    1    2  501    0  0.15504390383E+02 -0.28945127859E+02  0.67464198110E+02  0.75030824163E+02  0.00000000000E+00 0. -1.
<scales pt_clust_5="13000.00000" pt_clust_6="13000.00000" pt_clust_7="13000.00000" pt_clust_8="13000.00000" pt_clust_9="32.83606"></scales>
<clustering>
<clus scale="   32.836">  1  9  2 -1</clus>
<clus scale="   82.922">  5  6 -1 -1</clus>
<clus scale="   87.848">  2  5  1 -1</clus>
<clus scale="   90.478">  7  8 -1 -1</clus>
<clus scale="   32.836">  1  5  2 -1</clus>
</clustering>
</event>
<event>
 9    2  0.1325014E-004  0.1580956E+03  0.7546771E-02  0.1192908E+00
         21   -1    0    0  501  502  0.00000000000E+00  0.00000000000E+00  0.92215152732E+02  0.92215152732E+02  0.00000000000E+00 0. -1.
          2   -1    0    0  502    0 -0.00000000000E+00 -0.00000000000E+00 -0.42911564372E+03  0.42911564372E+03  0.00000000000E+00 0. -1.
         23    2    1    2    0    0  0.94644349146E+02 -0.46709349209E+02 -0.81159139807E+02  0.16146627906E+03  0.91352269651E+02 0.  0.
         24    2    1    2    0    0 -0.15728605316E+03  0.13862988749E+02 -0.14451831275E+03  0.22805620675E+03  0.78695652613E+02 0.  0.
        -13    1    4    4    0    0 -0.73916662136E+02  0.46011124297E+02 -0.71375605574E+02  0.11258407335E+03  0.00000000000E+00 0.  1.
         14    1    4    4    0    0 -0.83369391022E+02 -0.32148135548E+02 -0.73142707175E+02  0.11547213340E+03  0.00000000000E+00 0. -1.
        -13    1    3    3    0    0  0.99924051464E+02 -0.19985631076E+02 -0.86549698412E+02  0.13369776290E+03  0.00000000000E+00 0.  1.
         13    1    3    3    0    0 -0.52797023179E+01 -0.26723718133E+02  0.53905586051E+01  0.27768516155E+02  0.00000000000E+00 0. -1.
          1    1    1    2  501    0  0.62641704013E+02  0.32846360459E+02 -0.11122303843E+03  0.13180831064E+03  0.00000000000E+00 0. -1.
<scales pt_clust_5="13000.00000" pt_clust_6="13000.00000" pt_clust_7="13000.00000" pt_clust_8="13000.00000" pt_clust_9="70.73098"></scales>
<clustering>
<clus scale="   70.731">  1  9  2 -1</clus>
<clus scale="   78.696">  5  6 -1 -1</clus>
<clus scale="   91.352">  7  8 -1 -1</clus>
<clus scale="  151.136">  1  5  2 -1</clus>
<clus scale="   70.731">  1  5  2 -1</clus>
</clustering>
</event>
<event>
 9    2  0.1325014E-004  0.1507159E+03  0.7546771E-02  0.1211935E+00
          2   -1    0    0  502    0 -0.00000000000E+00  0.00000000000E+00  0.16903470373E+03  0.16903470373E+03  0.00000000000E+00 0. -1.
         21   -1    0    0  501  502  0.00000000000E+00 -0.00000000000E+00 -0.32548269554E+03  0.32548269554E+03  0.00000000000E+00 0. -1.
         23    2    1    2    0    0  0.71661578332E+02  0.46261362492E+02  0.41218599596E+02  0.15782078112E+03  0.12622571264E+03 0.  0.
         24    2    1    2    0    0 -0.74823606387E+02 -0.94558106986E+01 -0.24954064049E+03  0.27301330767E+03  0.81103332102E+02 0.  0.
        -11    1    4    4    0    0 -0.15000612617E+02  0.31688301176E+02 -0.11375079646E+03  0.11903113251E+03  0.00000000000E+00 0.  1.
         12    1    4    4    0    0 -0.59822993770E+02 -0.41144111875E+02 -0.13578984403E+03  0.15398217516E+03  0.00000000000E+00 0. -1.
        -13    1    3    3    0    0  0.99849337877E+02  0.64403333983E+02  0.31678665078E+02  0.12296835985E+03  0.00000000000E+00 0. -1.
         13    1    3    3    0    0 -0.28187759546E+02 -0.18141971492E+02  0.95399345182E+01  0.34852421271E+02  0.00000000000E+00 0.  1.
          1    1    1    2  501    0  0.31620280550E+01 -0.36805551793E+02  0.51874049089E+02  0.63683310476E+02  0.00000000000E+00 0. -1.
<scales pt_clust_5="13000.00000" pt_clust_6="13000.00000" pt_clust_7="13000.00000" pt_clust_8="13000.00000" pt_clust_9="36.94115"></scales>
<clustering>
<clus scale="   36.941">  2  9  1 -1</clus>
<clus scale="   81.103">  5  6 -1 -1</clus>
<clus scale="  115.586">  2  5  1 -1</clus>
<clus scale="  126.226">  7  8 -1 -1</clus>
<clus scale="   36.941">  2  5  1 -1</clus>
</clustering>
</event>
<event>
 9    2  0.1325014E-004  0.1407433E+03  0.7546771E-02  0.1214386E+00
         21   -1    0    0  501  502  0.00000000000E+00  0.00000000000E+00  0.70710218659E+02  0.70710218659E+02  0.00000000000E+00 0.  1.
          2   -1    0    0  502    0 -0.00000000000E+00 -0.00000000000E+00 -0.62068932090E+03  0.62068932090E+03  0.00000000000E+00 0. -1.
         24    2    1    2    0    0 -0.81346547855E+02 -0.71539792719E+02 -0.51013391915E+03  0.52783363871E+03  0.81464912064E+02 0.  0.
         23    2    1    2    0    0  0.88078801294E+02  0.52343562596E+02 -0.27599801876E+02  0.13982210485E+03  0.91053545556E+02 0.  0.
        -13    1    3    3    0    0  0.13616748288E+02 -0.25304369031E+02 -0.14034012835E+03  0.14325180121E+03  0.00000000000E+00 0.  1.
         14    1    3    3    0    0 -0.94963296143E+02 -0.46235423687E+02 -0.36979379081E+03  0.38458183750E+03  0.00000000000E+00 0. -1.
        -13    1    4    4    0    0  0.67126199798E+02 -0.11048906367E+02 -0.26612257669E+02  0.73049416763E+02  0.00000000000E+00 0. -1.
         13    1    4    4    0    0  0.20952601496E+02  0.63392468963E+02 -0.98754420647E+00  0.66772688086E+02  0.00000000000E+00 0.  1.
          1    1    1    2  501    0 -0.67322534389E+01  0.19196230122E+02 -0.12245381214E+02  0.23743795997E+02  0.00000000000E+00 0. -1.
<scales pt_clust_5="13000.00000" pt_clust_6="13000.00000" pt_clust_7="13000.00000" pt_clust_8="13000.00000" pt_clust_9="20.34253"></scales>
<clustering>
<clus scale="   20.343">  1  9  2 -1</clus>
<clus scale="   81.465">  5  6 -1 -1</clus>
<clus scale="   91.054">  7  8 -1 -1</clus>
<clus scale="  134.738">  2  5  1 -1</clus>
<clus scale="   20.343">  1  5  2 -1</clus>
</clustering>
</event>
<event>
 9    2  0.1325014E-004  0.1130900E+03  0.7546771E-02  0.1260024E+00
         21   -1    0    0  501  502  0.00000000000E+00  0.00000000000E+00  0.22297503292E+03  0.22297503292E+03  0.00000000000E+00 0.  1.
          4   -1    0    0  502    0 -0.00000000000E+00 -0.00000000000E+00 -0.16712525404E+03  0.16712525404E+03  0.00000000000E+00 0. -1.
         24    2    1    2    0    0 -0.60025970737E+02 -0.30218224114E+02 -0.50327750653E+02  0.11521143605E+03  0.78895717753E+02 0.  0.
         23    2    1    2    0    0 -0.14139685007E+01  0.10109681562E+03  0.11740333133E+03  0.18041843495E+03  0.92437568282E+02 0.  0.
        -13    1    3    3    0    0 -0.51439222857E+02  0.13873677716E+02 -0.87279592925E+01  0.53987497210E+02  0.00000000000E+00 0.  1.
         14    1    3    3    0    0 -0.85867478792E+01 -0.44091901830E+02 -0.41599791360E+02  0.61223938842E+02  0.00000000000E+00 0. -1.
        -11    1    4    4    0    0 -0.31380964145E+02  0.41644367894E+02  0.98102092835E+02  0.11109923000E+03  0.00000000000E+00 0.  1.
         11    1    4    4    0    0  0.29966995644E+02  0.59452447721E+02  0.19301238491E+02  0.69319204953E+02  0.00000000000E+00 0. -1.
          3    1    1    2  501    0  0.61439939237E+02 -0.70878591501E+02 -0.11225801794E+02  0.94470415965E+02  0.00000000000E+00 0. -1.
<scales pt_clust_5="13000.00000" pt_clust_6="13000.00000" pt_clust_7="13000.00000" pt_clust_8="13000.00000" pt_clust_9="93.80112"></scales>
<clustering>
<clus scale="   78.896">  5  6 -1 -1</clus>
<clus scale="   92.438">  7  8 -1 -1</clus>
<clus scale="   93.801">  1  9  2 -1</clus>
<clus scale="  102.319">  2  5  1 -1</clus>
<clus scale="   93.801">  1  5  2 -1</clus>
</clustering>
</event>
<event>
 9    2  0.1325014E-004  0.4272170E+03  0.7546771E-02  0.1044933E+00
         21   -1    0    0  501  502  0.00000000000E+00  0.00000000000E+00  0.33029172654E+03  0.33029172654E+03  0.00000000000E+00 0. -1.
          2   -1    0    0  502    0 -0.00000000000E+00 -0.00000000000E+00 -0.12843134903E+04  0.12843134903E+04  0.00000000000E+00 0. -1.
         24    2    1    2    0    0 -0.65102730483E+02  0.29967980343E+03 -0.20197791139E+03  0.37636110230E+03  0.82500015359E+02 0.  0.
         23    2    1    2    0    0 -0.38193447381E+03  0.29673921321E+02 -0.15537928931E+03  0.42318292737E+03  0.90479735750E+02 0.  0.
        -11    1    3    3    0    0 -0.20227196734E+02  0.40975741338E+02 -0.10044981543E+01  0.45707328542E+02  0.00000000000E+00 0.  1.
         12    1    3    3    0    0 -0.44875533749E+02  0.25870406209E+03 -0.20097341324E+03  0.33065377376E+03  0.00000000000E+00 0. -1.
        -11    1    4    4    0    0 -0.34067808884E+03  0.21690849980E+02 -0.10410521554E+03  0.35688926726E+03  0.00000000000E+00 0. -1.
         11    1    4    4    0    0 -0.41256384973E+02  0.79830713414E+01 -0.51274073775E+02  0.66293660109E+02  0.00000000000E+00 0.  1.
          1    1    1    2  501    0  0.44703720429E+03 -0.32935372475E+03 -0.59666456306E+03  0.81506118718E+03  0.00000000000E+00 0. -1.
<scales pt_clust_5="13000.00000" pt_clust_6="13000.00000" pt_clust_7="13000.00000" pt_clust_8="13000.00000" pt_clust_9="417.52604"></scales>
<clustering>
<clus scale="   82.500">  5  6 -1 -1</clus>
<clus scale="   90.480">  7  8 -1 -1</clus>
<clus scale="  317.573">  2  5  1 -1</clus>
<clus scale="  417.526">  1  9  2 -1</clus>
<clus scale="  417.526">  1  5  2 -1</clus>
</clustering>
</event>
<event>
 9    2  0.1325014E-004  0.2653083E+03  0.7546771E-02  0.1145234E+00
         21   -1    0    0  501  502  0.00000000000E+00  0.00000000000E+00  0.52535723438E+03  0.52535723438E+03  0.00000000000E+00 0. -1.
          2   -1    0    0  502    0 -0.00000000000E+00 -0.00000000000E+00 -0.31944388853E+03  0.31944388853E+03  0.00000000000E+00 0. -1.
         23    2    1    2    0    0 -0.27225242753E+01 -0.11144852254E+02  0.13743675833E+02  0.96359088895E+02  0.94681389497E+02 0.  0.
         24    2    1    2    0    0 -0.14259493397E+02 -0.25109250662E+03  0.35283173111E+03  0.44043372375E+03  0.78999079106E+02 0.  0.
        -13    1    4    4    0    0  0.32785878788E+02 -0.11638149847E+03  0.16390577302E+03  0.20367785708E+03  0.00000000000E+00 0.  1.
         14    1    4    4    0    0 -0.47045372185E+02 -0.13471100815E+03  0.18892595809E+03  0.23675586667E+03  0.00000000000E+00 0. -1.
        -11    1    3    3    0    0  0.18897154401E+02  0.16631263520E+02  0.43506249526E+02  0.50264252889E+02  0.00000000000E+00 0.  1.
         11    1    3    3    0    0 -0.21619678676E+02 -0.27776115774E+02 -0.29762573693E+02  0.46094836005E+02  0.00000000000E+00 0. -1.
          1    1    1    2  501    0  0.16982017672E+02  0.26223735888E+03 -0.16066206110E+03  0.30800831026E+03  0.00000000000E+00 0. -1.
<scales pt_clust_5="13000.00000" pt_clust_6="13000.00000" pt_clust_7="13000.00000" pt_clust_8="13000.00000" pt_clust_9="253.27400"></scales>
<clustering>
<clus scale="   78.999">  5  6 -1 -1</clus>
<clus scale="   94.681">  7  8 -1 -1</clus>
<clus scale="   95.374">  2  7  1 -1</clus>
<clus scale="  253.274">  1  9  2 -1</clus>
<clus scale="  253.274">  1  5  2 -1</clus>
</clustering>
</event>
<event>
 9    2  0.1325014E-004  0.1999977E+03  0.7546771E-02  0.1150933E+00
          2   -1    0    0  502    0 -0.00000000000E+00  0.00000000000E+00  0.14887928269E+04  0.14887928269E+04  0.00000000000E+00 0. -1.
         21   -1    0    0  501  502  0.00000000000E+00 -0.00000000000E+00 -0.38645477967E+02  0.38645477967E+02  0.00000000000E+00 0. -1.
         24    2    1    2    0    0 -0.12402294552E+03 -0.15034756679E+03  0.91270261676E+03  0.93661791897E+03  0.78999858426E+02 0.  0.
         23    2    1    2    0    0  0.12905701704E+03  0.85632090610E+02  0.40988800866E+03  0.44769752803E+03  0.91849487565E+02 0.  0.
        -11    1    3    3    0    0 -0.20370414667E+02 -0.26614121019E+02  0.59577867171E+02  0.68357790250E+02  0.00000000000E+00 0.  1.
         12    1    3    3    0    0 -0.10365253086E+03 -0.12373344577E+03  0.85312474959E+03  0.86826012872E+03  0.00000000000E+00 0. -1.
        -11    1    4    4    0    0  0.68091687232E+02 -0.76018372255E+01  0.14709698885E+03  0.16227073035E+03  0.00000000000E+00 0.  1.
         11    1    4    4    0    0  0.60965329810E+02  0.93233927836E+02  0.26279101981E+03  0.28542679768E+03  0.00000000000E+00 0. -1.
          1    1    1    2  501    0 -0.50340715174E+01  0.64715476180E+02  0.12755672351E+03  0.14312285787E+03  0.00000000000E+00 0. -1.
<scales pt_clust_5="13000.00000" pt_clust_6="13000.00000" pt_clust_7="13000.00000" pt_clust_8="13000.00000" pt_clust_9="64.91098"></scales>
<clustering>
<clus scale="   64.911">  2  9  1 -1</clus>
<clus scale="   79.000">  5  6 -1 -1</clus>
<clus scale="   91.849">  7  8 -1 -1</clus>
<clus scale="  194.432">  1  5  2 -1</clus>
<clus scale="   64.911">  2  5  1 -1</clus>
</clustering>
</event>
<event>
 9    2  0.1325014E-004  0.1723994E+03  0.7546771E-02  0.1176973E+00
          2   -1    0    0  502    0 -0.00000000000E+00  0.00000000000E+00  0.39778335662E+03  0.39778335662E+03  0.00000000000E+00 0. -1.
         21   -1    0    0  501  502  0.00000000000E+00 -0.00000000000E+00 -0.12975708756E+03  0.12975708756E+03  0.00000000000E+00 0.  1.
         24    2    1    2    0    0  0.12663701580E+03 -0.81022032176E+02  0.29212954910E+03  0.33815273609E+03  0.80038090944E+02 0.  0.
         23    2    1    2    0    0 -0.11713482889E+03  0.54911517078E+02 -0.12606962808E+02  0.15931752578E+03  0.92126519860E+02 0.  0.
        -11    1    3    3    0    0  0.98086109409E+02 -0.16187810138E+02  0.16609948391E+03  0.19357677705E+03  0.00000000000E+00 0.  1.
         12    1    3    3    0    0  0.28550906389E+02 -0.64834222038E+02  0.12603006518E+03  0.14457595904E+03  0.00000000000E+00 0. -1.
        -13    1    4    4    0    0 -0.41307451979E+02 -0.20385177654E+02  0.15880163027E+02  0.48724127850E+02  0.00000000000E+00 0. -1.
         13    1    4    4    0    0 -0.75827376912E+02  0.75296694732E+02 -0.28487125835E+02  0.11059339793E+03  0.00000000000E+00 0.  1.
          1    1    1    2  501    0 -0.95021869062E+01  0.26110515098E+02 -0.11496317233E+02  0.30070182317E+02  0.00000000000E+00 0. -1.
<scales pt_clust_5="13000.00000" pt_clust_6="13000.00000" pt_clust_7="13000.00000" pt_clust_8="13000.00000" pt_clust_9="27.78580"></scales>
<clustering>
<clus scale="   27.786">  2  9  1 -1</clus>
<clus scale="   80.038">  5  6 -1 -1</clus>
<clus scale="   92.127">  7  8 -1 -1</clus>
<clus scale="  166.254">  1  5  2 -1</clus>
<clus scale="   27.786">  2  5  1 -1</clus>
</clustering>
</event>
<event>
 9    2  0.1325014E-004  0.1638220E+03  0.7546771E-02  0.1185878E+00
         21   -1    0    0  501  502  0.00000000000E+00  0.00000000000E+00  0.24199621381E+03  0.24199621381E+03  0.00000000000E+00 0.  1.
          4   -1    0    0  502    0 -0.00000000000E+00 -0.00000000000E+00 -0.28188638525E+03  0.28188638525E+03  0.00000000000E+00 0. -1.
         24    2    1    2    0    0  0.12704891426E+03 -0.63808441166E+02 -0.21449155781E+03  0.26952782838E+03  0.80160327586E+02 0.  0.
         23    2    1    2    0    0 -0.10059918853E+03  0.45969816136E+02  0.10265662144E+03  0.17565373044E+03  0.89902337925E+02 0.  0.
        -11    1    3    3    0    0 -0.27331247781E+01 -0.26532757788E+02 -0.50387952770E+02  0.57012305613E+02  0.00000000000E+00 0.  1.
         12    1    3    3    0    0  0.12978203904E+03 -0.37275683378E+02 -0.16410360504E+03  0.21251552277E+03  0.00000000000E+00 0. -1.
        -11    1    4    4    0    0 -0.23157886155E+02 -0.27382282615E+02  0.26503265537E+02  0.44592602262E+02  0.00000000000E+00 0. -1.
         11    1    4    4    0    0 -0.77441302372E+02  0.73352098751E+02  0.76153355903E+02  0.13106112818E+03  0.00000000000E+00 0.  1.
          3    1    1    2  501    0 -0.26449725737E+02  0.17838625030E+02  0.71944764928E+02  0.78701040241E+02  0.00000000000E+00 0. -1.
<scales pt_clust_5="13000.00000" pt_clust_6="13000.00000" pt_clust_7="13000.00000" pt_clust_8="13000.00000" pt_clust_9="31.90305"></scales>
<clustering>
<clus scale="   31.903">  1  9  2 -1</clus>
<clus scale="   80.160">  5  6 -1 -1</clus>
<clus scale="   89.902">  7  8 -1 -1</clus>
<clus scale="  158.685">  2  5  1 -1</clus>
<clus scale="   31.903">  1  5  2 -1</clus>
</clustering>
</event>
<event>
 9    2  0.1325014E-004  0.1105224E+03  0.7546771E-02  0.1263476E+00
         21   -1    0    0  501  502  0.00000000000E+00  0.00000000000E+00  0.14698813347E+03  0.14698813347E+03  0.00000000000E+00 0.  1.
          2   -1    0    0  502    0 -0.00000000000E+00 -0.00000000000E+00 -0.25509632443E+03  0.25509632443E+03  0.00000000000E+00 0. -1.
         24    2    1    2    0    0 -0.57437856989E+02 -0.14015483557E+02 -0.16523717143E+03  0.19287926935E+03  0.80022175209E+02 0.  0.
         23    2    1    2    0    0  0.74208792496E+02  0.39411050434E+02 -0.21326358898E+02  0.12505389998E+03  0.90130397401E+02 0.  0.
        -13    1    3    3    0    0 -0.12957211024E+02 -0.41395712755E+02 -0.48969130925E+02  0.65417659203E+02  0.00000000000E+00 0.  1.
         14    1    3    3    0    0 -0.44480645965E+02  0.27380229199E+02 -0.11626804051E+03  0.12746161014E+03  0.00000000000E+00 0. -1.
        -11    1    4    4    0    0  0.79234931406E+02  0.95195620803E+01  0.11207666256E+02  0.80587891150E+02  0.00000000000E+00 0.  1.
         11    1    4    4    0    0 -0.50261389101E+01  0.29891488354E+02 -0.32534025154E+02  0.44466008827E+02  0.00000000000E+00 0. -1.
          1    1    1    2  501    0 -0.16770935507E+02 -0.25395566877E+02  0.78455339365E+02  0.84151288580E+02  0.00000000000E+00 0. -1.
<scales pt_clust_5="13000.00000" pt_clust_6="13000.00000" pt_clust_7="13000.00000" pt_clust_8="13000.00000" pt_clust_9="30.43352"></scales>
<clustering>
<clus scale="   30.434">  1  9  2 -1</clus>
<clus scale="   80.022">  5  6 -1 -1</clus>
<clus scale="   90.130">  7  8 -1 -1</clus>
<clus scale="  102.446">  2  5  1 -1</clus>
<clus scale="   30.434">  1  5  2 -1</clus>
</clustering>
</event>
<event>
 9    2  0.1325014E-004  0.2294570E+03  0.7546771E-02  0.1140134E+00
          2   -1    0    0  502    0 -0.00000000000E+00  0.00000000000E+00  0.18902757158E+04  0.18902757158E+04  0.00000000000E+00 0. -1.
         21   -1    0    0  501  502  0.00000000000E+00 -0.00000000000E+00 -0.57127527956E+02  0.57127527956E+02  0.00000000000E+00 0. -1.
         23    2    1    2    0    0  0.10365005757E+03 -0.90475294286E+02  0.27644755622E+03  0.32278208103E+03  0.93999506304E+02 0.  0.
         24    2    1    2    0    0 -0.23936494997E+03 -0.57815029597E+02  0.76801884878E+03  0.81072466638E+03  0.82361250986E+02 0.  0.
        -11    1    4    4    0    0 -0.12477250273E+03 -0.52235045206E+02  0.30403801371E+03  0.33276987719E+03  0.00000000000E+00 0.  1.
         12    1    4    4    0    0 -0.11459244724E+03 -0.55799843914E+01  0.46398083508E+03  0.47795478919E+03  0.00000000000E+00 0. -1.
        -13    1    3    3    0    0  0.54548145360E+02 -0.19247200779E+01  0.47162852819E+02  0.72135562627E+02  0.00000000000E+00 0. -1.
         13    1    3    3    0    0  0.49101912213E+02 -0.88550574208E+02  0.22928470340E+03  0.25064651840E+03  0.00000000000E+00 0.  1.
          1    1    1    2  501    0  0.13571489240E+03  0.14829032388E+03  0.78868178287E+03  0.81389649637E+03  0.00000000000E+00 0. -1.
<scales pt_clust_5="13000.00000" pt_clust_6="13000.00000" pt_clust_7="13000.00000" pt_clust_8="13000.00000" pt_clust_9="214.16622"></scales>
<clustering>
<clus scale="   82.361">  5  6 -1 -1</clus>
<clus scale="   94.000">  7  8 -1 -1</clus>
<clus scale="  166.628">  1  7  2 -1</clus>
<clus scale="  214.166">  2  9  1 -1</clus>
<clus scale="  214.166">  2  5  1 -1</clus>
</clustering>
</event>
<event>
 9    2  0.1325014E-004  0.2177923E+03  0.7546771E-02  0.1136440E+00
         -1   -1    0    0    0  501 -0.00000000000E+00  0.00000000000E+00  0.22914220232E+03  0.22914220232E+03  0.00000000000E+00 0.  1.
         21   -1    0    0  501  502  0.00000000000E+00 -0.00000000000E+00 -0.47393426802E+03  0.47393426802E+03  0.00000000000E+00 0.  1.
         24    2    1    2    0    0 -0.18521456005E+03  0.91538844544E+02  0.12406621395E+03  0.25435380599E+03  0.81361169261E+02 0.  0.
         23    2    1    2    0    0  0.15650343447E+03 -0.25957554742E+02 -0.26929451032E+03  0.32609241332E+03  0.93003274602E+02 0.  0.
        -13    1    3    3    0    0 -0.17653310295E+03  0.77525638007E+02  0.82643554224E+02  0.20977158539E+03  0.00000000000E+00 0.  1.
         14    1    3    3    0    0 -0.86814571069E+01  0.14013206538E+02  0.41422659721E+02  0.44582220597E+02  0.00000000000E+00 0. -1.
        -11    1    4    4    0    0  0.10351474750E+03 -0.57768239513E+02 -0.14507982078E+03  0.18735161286E+03  0.00000000000E+00 0.  1.
         11    1    4    4    0    0  0.52988686974E+02  0.31810684771E+02 -0.12421468954E+03  0.13874080046E+03  0.00000000000E+00 0. -1.
         -2    1    1    2    0  502  0.28711125580E+02 -0.65581289802E+02 -0.99563769327E+02  0.12263025103E+03  0.00000000000E+00 0.  1.
<scales pt_clust_5="13000.00000" pt_clust_6="13000.00000" pt_clust_7="13000.00000" pt_clust_8="13000.00000" pt_clust_9="71.59074"></scales>
<clustering>
<clus scale="   71.591">  2  9  1 -1</clus>
<clus scale="   81.361">  5  6 -1 -1</clus>
<clus scale="   93.003">  7  8 -1 -1</clus>
<clus scale="  213.081">  1  5  2 -1</clus>
<clus scale="   71.591">  2  5  1 -1</clus>
</clustering>
</event>
<event>
 9    2  0.1325014E-004  0.1344689E+03  0.7546771E-02  0.1223605E+00
         21   -1    0    0  501  502  0.00000000000E+00  0.00000000000E+00  0.45461954194E+02  0.45461954194E+02  0.00000000000E+00 0.  1.
          2   -1    0    0  502    0 -0.00000000000E+00 -0.00000000000E+00 -0.78230317950E+03  0.78230317950E+03  0.00000000000E+00 0. -1.
         24    2    1    2    0    0 -0.44012273658E+02 -0.92373128233E+02 -0.24573838145E+03  0.27811857917E+03  0.80577397006E+02 0.  0.
         23    2    1    2    0    0 -0.37574797135E+02  0.10596793059E+03 -0.20000509454E+03  0.24702605220E+03  0.91535593787E+02 0.  0.
        -13    1    3    3    0    0 -0.23467191809E+02  0.39989007076E+01 -0.17586488565E+02  0.29597041715E+02  0.00000000000E+00 0.  1.
         14    1    3    3    0    0 -0.20545081849E+02 -0.96372028940E+02 -0.22815189289E+03  0.24852153745E+03  0.00000000000E+00 0. -1.
        -11    1    4    4    0    0  0.25671824869E+02  0.64252758533E+02 -0.93132636416E+02  0.11602218554E+03  0.00000000000E+00 0.  1.
         11    1    4    4    0    0 -0.63246622004E+02  0.41715172057E+02 -0.10687245812E+03  0.13100386666E+03  0.00000000000E+00 0. -1.
          1    1    1    2  501    0  0.81587070793E+02 -0.13594802357E+02 -0.29109774932E+03  0.30262050233E+03  0.00000000000E+00 0. -1.
<scales pt_clust_5="13000.00000" pt_clust_6="13000.00000" pt_clust_7="13000.00000" pt_clust_8="13000.00000" pt_clust_9="82.71200"></scales>
<clustering>
<clus scale="   80.577">  5  6 -1 -1</clus>
<clus scale="   82.712">  1  9  2 -1</clus>
<clus scale="   91.536">  7  8 -1 -1</clus>
<clus scale="  127.263">  2  5  1 -1</clus>
<clus scale="   82.712">  1  5  2 -1</clus>
</clustering>
</event>
<event>
 9    2  0.1325014E-004  0.1282114E+03  0.7546771E-02  0.1242489E+00
         21   -1    0    0  501  502  0.00000000000E+00  0.00000000000E+00  0.14269394288E+03  0.14269394288E+03  0.00000000000E+00 0. -1.
          2   -1    0    0  502    0 -0.00000000000E+00 -0.00000000000E+00 -0.20864861141E+03  0.20864861141E+03  0.00000000000E+00 0. -1.
         24    2    1    2    0    0 -0.31795239456E+02  0.49690124252E+02 -0.47395326569E+02  0.11030645320E+03  0.80256781247E+02 0.  0.
         23    2    1    2    0    0 -0.70458954760E+02 -0.54559144316E+02  0.24799357379E+02  0.12986234341E+03  0.91148535776E+02 0.  0.
        -11    1    3    3    0    0  0.17849433202E+02  0.11171054936E+02 -0.42316342610E+02  0.47265924152E+02  0.00000000000E+00 0.  1.
         12    1    3    3    0    0 -0.49644672658E+02  0.38519069316E+02 -0.50789839584E+01  0.63040529045E+02  0.00000000000E+00 0. -1.
        -13    1    4    4    0    0 -0.85991359870E+02 -0.40427749749E+02 -0.29461716271E+01  0.95066276089E+02  0.00000000000E+00 0. -1.
         13    1    4    4    0    0  0.15532405110E+02 -0.14131394566E+02  0.27745529006E+02  0.34796067317E+02  0.00000000000E+00 0.  1.
          1    1    1    2  501    0  0.10225419422E+03  0.48690200633E+01 -0.43358699336E+02  0.11117375769E+03  0.00000000000E+00 0. -1.
<scales pt_clust_5="13000.00000" pt_clust_6="13000.00000" pt_clust_7="13000.00000" pt_clust_8="13000.00000" pt_clust_9="90.16716"></scales>
<clustering>
<clus scale="   80.257">  5  6 -1 -1</clus>
<clus scale="   91.149">  7  8 -1 -1</clus>
<clus scale="   99.605">  2  5  1 -1</clus>
<clus scale="   90.167">  1  9  2 -1</clus>
<clus scale="   90.167">  1  5  2 -1</clus>
</clustering>
</event>
<event>
 9    2  0.1325014E-004  0.9737268E+02  0.7546771E-02  0.1291216E+00
          2   -1    0    0  502    0 -0.00000000000E+00  0.00000000000E+00  0.95736785396E+02  0.95736785396E+02  0.00000000000E+00 0. -1.
         21   -1    0    0  501  502  0.00000000000E+00 -0.00000000000E+00 -0.32207313674E+03  0.32207313674E+03  0.00000000000E+00 0. -1.
         24    2    1    2    0    0 -0.89406747569E+01 -0.45903382855E+02  0.19400464322E+02  0.95410822810E+02  0.80868973474E+02 0.  0.
         23    2    1    2    0    0  0.50630246182E+02 -0.14197433749E+02 -0.55793354368E+02  0.11885881581E+03  0.90826927458E+02 0.  0.
        -11    1    3    3    0    0  0.24783501158E+02  0.78739892161E+01 -0.65784207480E+01  0.26823446001E+02  0.00000000000E+00 0.  1.
         12    1    3    3    0    0 -0.33724175915E+02 -0.53777372071E+02  0.25978885070E+02  0.68587376809E+02  0.00000000000E+00 0. -1.
        -13    1    4    4    0    0  0.42110976141E+02  0.12552438320E+02  0.11942300771E+02  0.45535882192E+02  0.00000000000E+00 0.  1.
         13    1    4    4    0    0  0.85192700417E+01 -0.26749872069E+02 -0.67735655140E+02  0.73322933622E+02  0.00000000000E+00 0. -1.
          1    1    1    2  501    0 -0.41689571425E+02  0.60100816604E+02 -0.18994346130E+03  0.20354028352E+03  0.00000000000E+00 0. -1.
<scales pt_clust_5="13000.00000" pt_clust_6="13000.00000" pt_clust_7="13000.00000" pt_clust_8="13000.00000" pt_clust_9="73.14457"></scales>
<clustering>
<clus scale="   73.145">  2  9  1 -1</clus>
<clus scale="   80.869">  5  6 -1 -1</clus>
<clus scale="   88.157">  1  5  2 -1</clus>
<clus scale="   90.827">  7  8 -1 -1</clus>
<clus scale="   73.145">  2  5  1 -1</clus>
</clustering>
</event>
<event>
 9    2  0.1325014E-004  0.1989798E+03  0.7546771E-02  0.1151446E+00
         21   -1    0    0  501  502  0.00000000000E+00  0.00000000000E+00  0.64953285870E+03  0.64953285870E+03  0.00000000000E+00 0.  1.
          2   -1    0    0  502    0 -0.00000000000E+00 -0.00000000000E+00 -0.23400475179E+03  0.23400475179E+03  0.00000000000E+00 0. -1.
         23    2    1    2    0    0 -0.12829792495E+03 -0.13647973080E+03 -0.13231883761E+03  0.24646822341E+03  0.90284195180E+02 0.  0.
         24    2    1    2    0    0  0.93712489881E+02  0.31933432665E+02  0.50149609474E+03  0.51759352321E+03  0.81258521673E+02 0.  0.
        -11    1    4    4    0    0  0.71761523643E+02 -0.16687618779E+02  0.32299578410E+03  0.33129212101E+03  0.00000000000E+00 0.  1.
         12    1    4    4    0    0  0.21950966238E+02  0.48621051444E+02  0.17850031064E+03  0.18630140220E+03  0.00000000000E+00 0. -1.
        -13    1    3    3    0    0 -0.63887850041E+02 -0.12630011987E+03 -0.10254935604E+03  0.17478486229E+03  0.00000000000E+00 0.  1.
         13    1    3    3    0    0 -0.64410074904E+02 -0.10179610924E+02 -0.29769481576E+02  0.71683361117E+02  0.00000000000E+00 0. -1.
          1    1    1    2  501    0  0.34585435065E+02  0.10454629813E+03  0.46350849783E+02  0.11947586387E+03  0.00000000000E+00 0. -1.
<scales pt_clust_5="13000.00000" pt_clust_6="13000.00000" pt_clust_7="13000.00000" pt_clust_8="13000.00000" pt_clust_9="110.11854"></scales>
<clustering>
<clus scale="   81.259">  5  6 -1 -1</clus>
<clus scale="   90.284">  7  8 -1 -1</clus>
<clus scale="  110.119">  1  9  2 -1</clus>
<clus scale="  195.050">  1  5  2 -1</clus>
<clus scale="  110.119">  1  5  2 -1</clus>
</clustering>
</event>
<event>
 9    2  0.1325014E-004  0.3481023E+03  0.7546771E-02  0.1089657E+00
          2   -1    0    0  502    0 -0.00000000000E+00  0.00000000000E+00  0.30236389253E+03  0.30236389253E+03  0.00000000000E+00 0. -1.
         21   -1    0    0  501  502  0.00000000000E+00 -0.00000000000E+00 -0.62793350332E+03  0.62793350332E+03  0.00000000000E+00 0. -1.
         24    2    1    2    0    0 -0.14872789391E+03 -0.27897779355E+02 -0.59344371222E+02  0.18078909505E+03  0.79149668190E+02 0.  0.
         23    2    1    2    0    0  0.38797676681E+02  0.34807052056E+03 -0.14705736570E+03  0.39062639957E+03  0.91130501164E+02 0.  0.
        -13    1    3    3    0    0 -0.11310069988E+03 -0.72860721631E+01 -0.75923434166E+02  0.13641562600E+03  0.00000000000E+00 0.  1.
         14    1    3    3    0    0 -0.35627194025E+02 -0.20611707192E+02  0.16579062944E+02  0.44373469051E+02  0.00000000000E+00 0. -1.
        -13    1    4    4    0    0 -0.22122685417E+02  0.36386092899E+02 -0.55477475507E+01  0.42943433367E+02  0.00000000000E+00 0.  1.
         13    1    4    4    0    0  0.60920362098E+02  0.31168442766E+03 -0.14150961815E+03  0.34768296621E+03  0.00000000000E+00 0. -1.
          1    1    1    2  501    0  0.10993021723E+03 -0.32017274120E+03 -0.11916787387E+03  0.35888190123E+03  0.00000000000E+00 0. -1.
<scales pt_clust_5="13000.00000" pt_clust_6="13000.00000" pt_clust_7="13000.00000" pt_clust_8="13000.00000" pt_clust_9="335.96211"></scales>
<clustering>
<clus scale="   79.150">  5  6 -1 -1</clus>
<clus scale="   91.131">  7  8 -1 -1</clus>
<clus scale="  170.772">  1  5  2 -1</clus>
<clus scale="  335.962">  2  9  1 -1</clus>
<clus scale="  335.962">  2  5  1 -1</clus>
</clustering>
</event>
<event>
 9    2  0.1325014E-004  0.9763947E+02  0.7546771E-02  0.1292125E+00
          2   -1    0    0  502    0 -0.00000000000E+00  0.00000000000E+00  0.61809519948E+03  0.61809519948E+03  0.00000000000E+00 0. -1.
         21   -1    0    0  501  502  0.00000000000E+00 -0.00000000000E+00 -0.24376010722E+02  0.24376010722E+02  0.00000000000E+00 0. -1.
         23    2    1    2    0    0  0.34215019313E+02  0.28607475755E+02  0.33929222188E+03  0.35424086652E+03  0.91533187777E+02 0.  0.
         24    2    1    2    0    0 -0.25246403865E+02 -0.63613980255E+01  0.25048443180E+03  0.26392257496E+03  0.78960918855E+02 0.  0.
        -11    1    4    4    0    0 -0.40028017630E+02  0.25629715888E+02  0.13135168885E+03  0.13968675920E+03  0.00000000000E+00 0.  1.
         12    1    4    4    0    0  0.14781613765E+02 -0.31991113914E+02  0.11913274295E+03  0.12423581576E+03  0.00000000000E+00 0. -1.
        -11    1    3    3    0    0  0.53449295520E+02  0.49846997617E+02  0.23729974354E+03  0.24829965495E+03  0.00000000000E+00 0. -1.
         11    1    3    3    0    0 -0.19234276207E+02 -0.21239521862E+02  0.10199247834E+03  0.10594121157E+03  0.00000000000E+00 0.  1.
          1    1    1    2  501    0 -0.89686154476E+01 -0.22246077729E+02  0.39425350717E+01  0.24307768721E+02  0.00000000000E+00 0. -1.
<scales pt_clust_5="13000.00000" pt_clust_6="13000.00000" pt_clust_7="13000.00000" pt_clust_8="13000.00000" pt_clust_9="23.98591"></scales>
<clustering>
<clus scale="   23.986">  2  9  1 -1</clus>
<clus scale="   78.961">  5  6 -1 -1</clus>
<clus scale="   85.965">  2  5  1 -1</clus>
<clus scale="   91.533">  7  8 -1 -1</clus>
<clus scale="   23.986">  2  5  1 -1</clus>
</clustering>
</event>
<event>
 9    2  0.1325014E-004  0.2557978E+03  0.7546771E-02  0.1132277E+00
         -1   -1    0    0    0  501 -0.00000000000E+00  0.00000000000E+00  0.12783500482E+04  0.12783500482E+04  0.00000000000E+00 0.  1.
         21   -1    0    0  501  502  0.00000000000E+00 -0.00000000000E+00 -0.93765743567E+02  0.93765743567E+02  0.00000000000E+00 0. -1.
         24    2    1    2    0    0  0.41733237381E+02  0.11190857981E+03  0.13119908817E+03  0.19596066710E+03  0.83199693370E+02 0.  0.
         23    2    1    2    0    0 -0.20576464428E+03 -0.23181733611E+03  0.64570818612E+03  0.72064993989E+03  0.79491559851E+02 0.  0.
        -11    1    3    3    0    0 -0.11853638002E+02  0.63480626566E+02  0.95778414190E+02  0.11551538126E+03  0.00000000000E+00 0.  1.
         12    1    3    3    0    0  0.53586875383E+02  0.48427953243E+02  0.35420673979E+02  0.80445285840E+02  0.00000000000E+00 0. -1.
        -11    1    4    4    0    0 -0.13673420991E+03 -0.94266096446E+02  0.33161576825E+03  0.37087917015E+03  0.00000000000E+00 0. -1.
         11    1    4    4    0    0 -0.69030434364E+02 -0.13755123966E+03  0.31409241787E+03  0.34977076974E+03  0.00000000000E+00 0.  1.
         -2    1    1    2    0  502  0.16403140690E+03  0.11990875630E+03  0.40767703032E+03  0.45550518475E+03  0.00000000000E+00 0.  1.
<scales pt_clust_5="13000.00000" pt_clust_6="13000.00000" pt_clust_7="13000.00000" pt_clust_8="13000.00000" pt_clust_9="243.13294"></scales>
<clustering>
<clus scale="   79.492">  7  8 -1 -1</clus>
<clus scale="   83.200">  5  6 -1 -1</clus>
<clus scale="  145.559">  1  5  2 -1</clus>
<clus scale="  243.133">  2  9  1 -1</clus>
<clus scale="  243.133">  2  5  1 -1</clus>
</clustering>
</event>
<event>
 9    2  0.1325014E-004  0.1013434E+03  0.7546771E-02  0.1285313E+00
         21   -1    0    0  501  502  0.00000000000E+00  0.00000000000E+00  0.30482208652E+02  0.30482208652E+02  0.00000000000E+00 0.  1.
          4   -1    0    0  502    0 -0.00000000000E+00 -0.00000000000E+00 -0.56243976855E+03  0.56243976855E+03  0.00000000000E+00 0. -1.
         24    2    1    2    0    0  0.17138099876E+02  0.53243139979E+02 -0.33697136621E+03  0.35014513451E+03  0.76963414381E+02 0.  0.
         23    2    1    2    0    0 -0.94203724054E+01 -0.25526455248E+01 -0.11779044349E+03  0.15010390493E+03  0.92527478522E+02 0.  0.
        -11    1    3    3    0    0  0.21218508562E+02 -0.63958875197E+01 -0.29392133231E+02  0.36810731840E+02  0.00000000000E+00 0.  1.
         12    1    3    3    0    0 -0.40804086864E+01  0.59639027499E+02 -0.30757923298E+03  0.31333440267E+03  0.00000000000E+00 0. -1.
        -13    1    4    4    0    0 -0.20953155424E+02  0.33096462767E+02 -0.17236481567E+02  0.42796108079E+02  0.00000000000E+00 0.  1.
         13    1    4    4    0    0  0.11532783019E+02 -0.35649108292E+02 -0.10055396192E+03  0.10730779685E+03  0.00000000000E+00 0. -1.
          3    1    1    2  501    0 -0.77177274703E+01 -0.50690494454E+02 -0.77195750199E+02  0.92672937766E+02  0.00000000000E+00 0. -1.
<scales pt_clust_5="13000.00000" pt_clust_6="13000.00000" pt_clust_7="13000.00000" pt_clust_8="13000.00000" pt_clust_9="51.27465"></scales>
<clustering>
<clus scale="   51.275">  1  9  2 -1</clus>
<clus scale="   76.963">  5  6 -1 -1</clus>
<clus scale="   87.364">  2  5  1 -1</clus>
<clus scale="   92.527">  7  8 -1 -1</clus>
<clus scale="   51.275">  1  5  2 -1</clus>
</clustering>
</event>
<event>
 9    2  0.1325014E-004  0.1042631E+03  0.7546771E-02  0.1276805E+00
         21   -1    0    0  501  502  0.00000000000E+00  0.00000000000E+00  0.10065954914E+03  0.10065954914E+03  0.00000000000E+00 0. -1.
          2   -1    0    0  502    0 -0.00000000000E+00 -0.00000000000E+00 -0.28265298189E+03  0.28265298189E+03  0.00000000000E+00 0. -1.
         24    2    1    2    0    0 -0.26731164946E+02  0.48080648571E+02 -0.10279909292E+03  0.14141067271E+03  0.80018878436E+02 0.  0.
         23    2    1    2    0    0  0.67543399740E+02  0.12292556227E+02  0.22671549580E+02  0.11665321844E+03  0.91546471391E+02 0.  0.
        -11    1    3    3    0    0 -0.14375646309E+02 -0.21597178056E+02 -0.22114457879E+02  0.34090270666E+02  0.00000000000E+00 0.  1.
         12    1    3    3    0    0 -0.12355518638E+02  0.69677826627E+02 -0.80684635040E+02  0.10732040205E+03  0.00000000000E+00 0. -1.
        -13    1    4    4    0    0 -0.22117296605E+02  0.44118071354E+01  0.13244635240E+02  0.26154525687E+02  0.00000000000E+00 0.  1.
         13    1    4    4    0    0  0.89660696345E+02  0.78807490917E+01  0.94269143399E+01  0.90498692749E+02  0.00000000000E+00 0. -1.
          1    1    1    2  501    0 -0.40812234794E+02 -0.60373204798E+02 -0.10186588941E+03  0.12524863988E+03  0.00000000000E+00 0. -1.
<scales pt_clust_5="13000.00000" pt_clust_6="13000.00000" pt_clust_7="13000.00000" pt_clust_8="13000.00000" pt_clust_9="72.87364"></scales>
<clustering>
<clus scale="   72.874">  1  9  2 -1</clus>
<clus scale="   80.019">  5  6 -1 -1</clus>
<clus scale="   91.546">  7  8 -1 -1</clus>
<clus scale="   94.303">  2  5  1 -1</clus>
<clus scale="   72.874">  1  5  2 -1</clus>
</clustering>
</event>
<event>
 9    2  0.1325014E-004  0.1443790E+03  0.7546771E-02  0.1209037E+00
          4   -1    0    0  502    0 -0.00000000000E+00  0.00000000000E+00  0.23828171152E+03  0.23828171152E+03  0.00000000000E+00 0. -1.
         21   -1    0    0  501  502  0.00000000000E+00 -0.00000000000E+00 -0.13686869911E+03  0.13686869911E+03  0.00000000000E+00 0. -1.
         23    2    1    2    0    0 -0.29094574755E+02  0.11238401369E+03  0.11327835224E+03  0.18521088353E+03  0.89411551145E+02 0.  0.
         24    2    1    2    0    0  0.71122214346E+02 -0.89374922414E+02 -0.17687751791E+02  0.14167316974E+03  0.81927921556E+02 0.  0.
        -13    1    4    4    0    0 -0.84748666107E+01 -0.35979229945E+02 -0.26410153433E+02  0.45429335851E+02  0.00000000000E+00 0.  1.
         14    1    4    4    0    0  0.79597080956E+02 -0.53395692469E+02  0.87224016419E+01  0.96243833888E+02  0.00000000000E+00 0. -1.
        -13    1    3    3    0    0 -0.30612430431E+02  0.89751105587E+02  0.12715332746E+03  0.15862014543E+03  0.00000000000E+00 0.  1.
         13    1    3    3    0    0  0.15178556763E+01  0.22632908108E+02 -0.13874975226E+02  0.26590738102E+02  0.00000000000E+00 0. -1.
          3    1    1    2  501    0 -0.42027639591E+02 -0.23009091281E+02  0.58224119621E+01  0.48266357354E+02  0.00000000000E+00 0. -1.
<scales pt_clust_5="13000.00000" pt_clust_6="13000.00000" pt_clust_7="13000.00000" pt_clust_8="13000.00000" pt_clust_9="47.91389"></scales>
<clustering>
<clus scale="   47.914">  2  9  1 -1</clus>
<clus scale="   81.928">  5  6 -1 -1</clus>
<clus scale="   89.412">  7  8 -1 -1</clus>
<clus scale="  139.868">  2  5  1 -1</clus>
<clus scale="   47.914">  2  5  1 -1</clus>
</clustering>
</event>
<event>
 9    2  0.1325014E-004  0.9146524E+02  0.7546771E-02  0.1311947E+00
         -1   -1    0    0    0  501 -0.00000000000E+00  0.00000000000E+00  0.10032166603E+03  0.10032166603E+03  0.00000000000E+00 0.  1.
         21   -1    0    0  501  502  0.00000000000E+00 -0.00000000000E+00 -0.28053678374E+03  0.28053678374E+03  0.00000000000E+00 0.  1.
         23    2    1    2    0    0  0.17570507557E+02  0.89191075862E+01  0.36532263106E+02  0.99190351124E+02  0.90087991944E+02 0.  0.
         24    2    1    2    0    0 -0.27781570405E+01  0.46113103200E+02 -0.20729514506E+03  0.22390390023E+03  0.70905168583E+02 0.  0.
        -11    1    4    4    0    0  0.18850573474E+02  0.54335827171E+02 -0.11278577279E+03  0.12660314680E+03  0.00000000000E+00 0.  1.
         12    1    4    4    0    0 -0.21628730514E+02 -0.82227239711E+01 -0.94509372266E+02  0.97300753436E+02  0.00000000000E+00 0. -1.
        -11    1    3    3    0    0 -0.51611593205E+01  0.26910085934E+02  0.57310101981E+02  0.63523523829E+02  0.00000000000E+00 0.  1.
         11    1    3    3    0    0  0.22731666878E+02 -0.17990978348E+02 -0.20777838875E+02  0.35666827295E+02  0.00000000000E+00 0. -1.
         -2    1    1    2    0  502 -0.14792350517E+02 -0.55032210786E+02 -0.94522357613E+01  0.57764198416E+02  0.00000000000E+00 0.  1.
<scales pt_clust_5="13000.00000" pt_clust_6="13000.00000" pt_clust_7="13000.00000" pt_clust_8="13000.00000" pt_clust_9="56.98562"></scales>
<clustering>
<clus scale="   56.986">  2  9  1 -1</clus>
<clus scale="   70.905">  5  6 -1 -1</clus>
<clus scale="   72.647">  2  5  1 -1</clus>
<clus scale="   90.088">  7  8 -1 -1</clus>
<clus scale="   56.986">  2  5  1 -1</clus>
</clustering>
</event>
<event>
 9    2  0.1325014E-004  0.1021684E+03  0.7546771E-02  0.1278086E+00
         21   -1    0    0  501  502  0.00000000000E+00  0.00000000000E+00  0.21911089797E+02  0.21911089797E+02  0.00000000000E+00 0.  1.
          2   -1    0    0  502    0 -0.00000000000E+00 -0.00000000000E+00 -0.60532726299E+03  0.60532726299E+03  0.00000000000E+00 0. -1.
         23    2    1    2    0    0  0.28186326208E+02 -0.31132399881E+02 -0.26003785044E+03  0.27760911710E+03  0.87655250438E+02 0.  0.
         24    2    1    2    0    0 -0.54378484421E+02  0.35380919504E+02 -0.27661141249E+03  0.29585914208E+03  0.82522296375E+02 0.  0.
        -13    1    4    4    0    0 -0.48696555021E+02  0.10198574514E+02 -0.61042318947E+02  0.78749794256E+02  0.00000000000E+00 0.  1.
         14    1    4    4    0    0 -0.56819294008E+01  0.25182344990E+02 -0.21556909355E+03  0.21710934782E+03  0.00000000000E+00 0. -1.
        -13    1    3    3    0    0 -0.17108595130E+02 -0.30028422175E+02 -0.19682200296E+03  0.19983320799E+03  0.00000000000E+00 0. -1.
         13    1    3    3    0    0  0.45294921338E+02 -0.11039777053E+01 -0.63215847477E+02  0.77775909111E+02  0.00000000000E+00 0.  1.
          1    1    1    2  501    0  0.26192158213E+02 -0.42485196234E+01 -0.46766910259E+02  0.53770093603E+02  0.00000000000E+00 0. -1.
<scales pt_clust_5="13000.00000" pt_clust_6="13000.00000" pt_clust_7="13000.00000" pt_clust_8="13000.00000" pt_clust_9="26.53449"></scales>
<clustering>
<clus scale="   26.534">  1  9  2 -1</clus>
<clus scale="   82.522">  5  6 -1 -1</clus>
<clus scale="   87.655">  7  8 -1 -1</clus>
<clus scale="   97.800">  1  5  2 -1</clus>
<clus scale="   26.534">  1  5  2 -1</clus>
</clustering>
</event>
<event>
 9    2  0.1325014E-004  0.1358132E+03  0.7546771E-02  0.1227447E+00
         21   -1    0    0  501  502  0.00000000000E+00  0.00000000000E+00  0.32295736021E+02  0.32295736021E+02  0.00000000000E+00 0.  1.
          2   -1    0    0  502    0 -0.00000000000E+00 -0.00000000000E+00 -0.10225705970E+04  0.10225705970E+04  0.00000000000E+00 0. -1.
         24    2    1    2    0    0 -0.81405639311E+02  0.76416843208E+02 -0.38667739339E+03  0.41044254854E+03  0.80481470266E+02 0.  0.
         23    2    1    2    0    0  0.43443129537E+02 -0.63804717162E+01 -0.19203181877E+03  0.22521914618E+03  0.10917613505E+03 0.  0.
        -13    1    3    3    0    0 -0.60302892065E+02  0.91764359145E+02 -0.33524691848E+03  0.35277136045E+03  0.00000000000E+00 0.  1.
         14    1    3    3    0    0 -0.21102747245E+02 -0.15347515937E+02 -0.51430474907E+02  0.57671188091E+02  0.00000000000E+00 0. -1.
        -11    1    4    4    0    0 -0.15702958613E+02 -0.38570477182E+02 -0.35148763537E+02  0.54494955706E+02  0.00000000000E+00 0.  1.
         11    1    4    4    0    0  0.59146088150E+02  0.32190005465E+02 -0.15688305523E+03  0.17072419048E+03  0.00000000000E+00 0. -1.
          1    1    1    2  501    0  0.37962509773E+02 -0.70036371492E+02 -0.41156564881E+03  0.41920463828E+03  0.00000000000E+00 0. -1.
<scales pt_clust_5="13000.00000" pt_clust_6="13000.00000" pt_clust_7="13000.00000" pt_clust_8="13000.00000" pt_clust_9="79.66337"></scales>
<clustering>
<clus scale="   79.663">  1  9  2 -1</clus>
<clus scale="   80.481">  5  6 -1 -1</clus>
<clus scale="  109.176">  7  8 -1 -1</clus>
<clus scale="  114.031">  2  5  1 -1</clus>
<clus scale="   79.663">  1  5  2 -1</clus>
</clustering>
</event>
<event>
 9    2  0.1325014E-004  0.1676579E+03  0.7546771E-02  0.1182271E+00
         21   -1    0    0  501  502  0.00000000000E+00  0.00000000000E+00  0.14473794523E+03  0.14473794523E+03  0.00000000000E+00 0. -1.
          2   -1    0    0  502    0 -0.00000000000E+00 -0.00000000000E+00 -0.40894490948E+03  0.40894490948E+03  0.00000000000E+00 0. -1.
         24    2    1    2    0    0 -0.52178784891E+02  0.13115913395E+03 -0.26053116069E+03  0.30618638625E+03  0.77125050560E+02 0.  0.
         23    2    1    2    0    0  0.80759085955E+02 -0.11694656837E+03 -0.62924732294E+02  0.18019664539E+03  0.91174444105E+02 0.  0.
        -13    1    3    3    0    0 -0.50692978536E+02  0.43408474717E+02 -0.71683784774E+02  0.97942017284E+02  0.00000000000E+00 0.  1.
         14    1    3    3    0    0 -0.14858063550E+01  0.87750659232E+02 -0.18884737591E+03  0.20824436896E+03  0.00000000000E+00 0. -1.
        -13    1    4    4    0    0 -0.13854071488E+02 -0.48202186198E+02 -0.31023258151E+02  0.58973117582E+02  0.00000000000E+00 0. -1.
         13    1    4    4    0    0  0.94613157444E+02 -0.68744382168E+02 -0.31901474143E+02  0.12122352781E+03  0.00000000000E+00 0.  1.
          1    1    1    2  501    0 -0.28580301065E+02 -0.14212565583E+02  0.59248928732E+02  0.67299823070E+02  0.00000000000E+00 0. -1.
<scales pt_clust_5="13000.00000" pt_clust_6="13000.00000" pt_clust_7="13000.00000" pt_clust_8="13000.00000" pt_clust_9="31.91913"></scales>
<clustering>
<clus scale="   31.919">  1  9  2 -1</clus>
<clus scale="   77.125">  5  6 -1 -1</clus>
<clus scale="   91.174">  7  8 -1 -1</clus>
<clus scale="  160.451">  2  5  1 -1</clus>
<clus scale="   31.919">  1  5  2 -1</clus>
</clustering>
</event>
<event>
 9    2  0.1325014E-004  0.9833595E+02  0.7546771E-02  0.1284449E+00
         21   -1    0    0  501  502  0.00000000000E+00  0.00000000000E+00  0.97904151033E+02  0.97904151033E+02  0.00000000000E+00 0.  1.
         -3   -1    0    0    0  501 -0.00000000000E+00 -0.00000000000E+00 -0.15795538187E+03  0.15795538187E+03  0.00000000000E+00 0.  1.
         23    2    1    2    0    0 -0.88507292721E+01 -0.31307521983E+02 -0.76821028508E+02  0.12642027908E+03  0.94984841956E+02 0.  0.
         24    2    1    2    0    0  0.19235460601E+02  0.48381734364E+01 -0.10405618510E+01  0.95888129188E+02  0.93808526710E+02 0.  0.
        -11    1    4    4    0    0 -0.33293855554E+02 -0.18829262801E+02  0.49746954326E+00  0.38252704888E+02  0.00000000000E+00 0.  1.
         12    1    4    4    0    0  0.52529316155E+02  0.23667436237E+02 -0.15380313942E+01  0.57635424300E+02  0.00000000000E+00 0. -1.
        -11    1    3    3    0    0  0.37209375484E+02 -0.23499430836E+02 -0.10409399766E+02  0.45222964045E+02  0.00000000000E+00 0.  1.
         11    1    3    3    0    0 -0.46060104756E+02 -0.78080911462E+01 -0.66411628741E+02  0.81197315039E+02  0.00000000000E+00 0. -1.
         -4    1    1    2    0  502 -0.10384731328E+02  0.26469348546E+02  0.17810359526E+02  0.33551124626E+02  0.00000000000E+00 0.  1.
<scales pt_clust_5="13000.00000" pt_clust_6="13000.00000" pt_clust_7="13000.00000" pt_clust_8="13000.00000" pt_clust_9="28.43359"></scales>
<clustering>
<clus scale="   28.434">  1  9  2 -1</clus>
<clus scale="   93.809">  5  6 -1 -1</clus>
<clus scale="   94.985">  7  8 -1 -1</clus>
<clus scale="   97.200">  1  5  2 -1</clus>
<clus scale="   28.434">  1  5  2 -1</clus>
</clustering>
</event>
<event>
 9    2  0.1325014E-004  0.1227504E+03  0.7546771E-02  0.1242112E+00
          2   -1    0    0  502    0 -0.00000000000E+00  0.00000000000E+00  0.11023200748E+04  0.11023200748E+04  0.00000000000E+00 0. -1.
         21   -1    0    0  501  502  0.00000000000E+00 -0.00000000000E+00 -0.11765964026E+03  0.11765964026E+03  0.00000000000E+00 0.  1.
         24    2    1    2    0    0  0.74715537392E+02  0.36345290391E+02  0.10068355862E+04  0.10132012203E+04  0.77171390401E+02 0.  0.
         23    2    1    2    0    0 -0.12279823449E+03 -0.16175640229E+02 -0.82719757403E+01  0.15281499917E+03  0.89123176888E+02 0.  0.
        -13    1    3    3    0    0  0.17603935734E+02  0.22801714403E+02  0.90197691200E+02  0.94686008633E+02  0.00000000000E+00 0.  1.
         14    1    3    3    0    0  0.57111601659E+02  0.13543575988E+02  0.91663789504E+03  0.91851521169E+03  0.00000000000E+00 0. -1.
        -11    1    4    4    0    0 -0.35067367370E+02 -0.41366634467E+02  0.19144821047E+02  0.57510371885E+02  0.00000000000E+00 0. -1.
         11    1    4    4    0    0 -0.87730867116E+02  0.25190994239E+02 -0.27416796787E+02  0.95304627284E+02  0.00000000000E+00 0.  1.
          1    1    1    2  501    0  0.48082697094E+02 -0.20169650162E+02 -0.13903175982E+02  0.53963495531E+02  0.00000000000E+00 0. -1.
<scales pt_clust_5="13000.00000" pt_clust_6="13000.00000" pt_clust_7="13000.00000" pt_clust_8="13000.00000" pt_clust_9="52.14174"></scales>
<clustering>
<clus scale="   52.142">  2  9  1 -1</clus>
<clus scale="   77.171">  5  6 -1 -1</clus>
<clus scale="   89.123">  7  8 -1 -1</clus>
<clus scale="  114.368">  1  5  2 -1</clus>
<clus scale="   52.142">  2  5  1 -1</clus>
</clustering>
</event>
<event>
 9    2  0.1325014E-004  0.1830749E+03  0.7546771E-02  0.1189438E+00
          2   -1    0    0  502    0 -0.00000000000E+00  0.00000000000E+00  0.14090280502E+04  0.14090280502E+04  0.00000000000E+00 0. -1.
         21   -1    0    0  501  502  0.00000000000E+00 -0.00000000000E+00 -0.12743064914E+03  0.12743064914E+03  0.00000000000E+00 0. -1.
         24    2    1    2    0    0  0.53468017199E+02 -0.19697297279E+02  0.21963871030E+02  0.10733849874E+03  0.88274171183E+02 0.  0.
         23    2    1    2    0    0 -0.19355210331E+03  0.82089295400E+02  0.12546800637E+04  0.12756899251E+04  0.94666010952E+02 0.  0.
        -11    1    3    3    0    0  0.52290689833E+02 -0.49831644335E+02  0.42359085170E+01  0.72356422944E+02  0.00000000000E+00 0.  1.
         12    1    3    3    0    0  0.11773273667E+01  0.30134347056E+02  0.17727962513E+02  0.34982075797E+02  0.00000000000E+00 0. -1.
        -13    1    4    4    0    0 -0.57950384033E+02 -0.19430989643E+02  0.32046144963E+03  0.32623818149E+03  0.00000000000E+00 0.  1.
         13    1    4    4    0    0 -0.13560171927E+03  0.10152028504E+03  0.93421861408E+03  0.94945174360E+03  0.00000000000E+00 0. -1.
          1    1    1    2  501    0  0.14008408611E+03 -0.62391998121E+02  0.49534663281E+01  0.15343027550E+03  0.00000000000E+00 0. -1.
<scales pt_clust_5="13000.00000" pt_clust_6="13000.00000" pt_clust_7="13000.00000" pt_clust_8="13000.00000" pt_clust_9="156.69964"></scales>
<clustering>
<clus scale="   88.274">  5  6 -1 -1</clus>
<clus scale="   94.666">  7  8 -1 -1</clus>
<clus scale="  105.067">  1  5  2 -1</clus>
<clus scale="  156.700">  2  9  1 -1</clus>
<clus scale="  156.700">  2  5  1 -1</clus>
</clustering>
</event>
<event>
 9    2  0.1325014E-004  0.1259753E+03  0.7546771E-02  0.1234817E+00
          4   -1    0    0  502    0 -0.00000000000E+00  0.00000000000E+00  0.14861039020E+03  0.14861039020E+03  0.00000000000E+00 0. -1.
         21   -1    0    0  501  502  0.00000000000E+00 -0.00000000000E+00 -0.44393781197E+03  0.44393781197E+03  0.00000000000E+00 0. -1.
         24    2    1    2    0    0  0.11965105783E+03 -0.11690787095E+02  0.54665993989E+02  0.15767838619E+03  0.86145530528E+02 0.  0.
         23    2    1    2    0    0 -0.37574317384E+02 -0.37302372777E+02 -0.43222842446E+02  0.11355205162E+03  0.90678321423E+02 0.  0.
        -13    1    3    3    0    0  0.69176767010E+02 -0.41790714538E+02  0.54143772128E+01  0.81001261695E+02  0.00000000000E+00 0.  1.
         14    1    3    3    0    0  0.50474290825E+02  0.30099927443E+02  0.49251616776E+02  0.76677124499E+02  0.00000000000E+00 0. -1.
        -11    1    4    4    0    0 -0.10524335138E+02 -0.42003417879E+02  0.17660271647E+02  0.46764665489E+02  0.00000000000E+00 0. -1.
         11    1    4    4    0    0 -0.27049982245E+02  0.47010451025E+01 -0.60883114093E+02  0.66787386131E+02  0.00000000000E+00 0.  1.
          3    1    1    2  501    0 -0.82076740451E+02  0.48993159872E+02 -0.30677057331E+03  0.32131776435E+03  0.00000000000E+00 0. -1.
<scales pt_clust_5="13000.00000" pt_clust_6="13000.00000" pt_clust_7="13000.00000" pt_clust_8="13000.00000" pt_clust_9="95.58724"></scales>
<clustering>
<clus scale="   86.146">  5  6 -1 -1</clus>
<clus scale="   90.678">  7  8 -1 -1</clus>
<clus scale="   95.587">  2  9  1 -1</clus>
<clus scale="  122.753">  1  5  2 -1</clus>
<clus scale="   95.587">  2  5  1 -1</clus>
</clustering>
</event>
<event>
 9    2  0.1325014E-004  0.1020040E+03  0.7546771E-02  0.1283503E+00
          4   -1    0    0  502    0 -0.00000000000E+00  0.00000000000E+00  0.53897476808E+03  0.53897476808E+03  0.00000000000E+00 0. -1.
         21   -1    0    0  501  502  0.00000000000E+00 -0.00000000000E+00 -0.49812095294E+02  0.49812095294E+02  0.00000000000E+00 0. -1.
         24    2    1    2    0    0 -0.47408971452E+02 -0.21180908517E+02  0.40874466510E+03  0.41922520783E+03  0.77339072722E+02 0.  0.
         23    2    1    2    0    0  0.85437343717E+01  0.63343295725E+01  0.87153958521E+02  0.12741547430E+03  0.92335104257E+02 0.  0.
        -13    1    3    3    0    0  0.15071497338E+02 -0.22348531812E+02  0.75398696149E+02  0.80072281641E+02  0.00000000000E+00 0.  1.
         14    1    3    3    0    0 -0.62480468790E+02  0.11676232952E+01  0.33334596895E+03  0.33915292619E+03  0.00000000000E+00 0. -1.
        -13    1    4    4    0    0 -0.34956697202E+02 -0.21629627039E+02  0.35330142762E+02  0.54203601658E+02  0.00000000000E+00 0. -1.
         13    1    4    4    0    0  0.43500431574E+02  0.27963956611E+02  0.51823815759E+02  0.73211872646E+02  0.00000000000E+00 0.  1.
          3    1    1    2  501    0  0.38865237080E+02  0.14846578944E+02 -0.67359508373E+01  0.42146181242E+02  0.00000000000E+00 0. -1.
<scales pt_clust_5="13000.00000" pt_clust_6="13000.00000" pt_clust_7="13000.00000" pt_clust_8="13000.00000" pt_clust_9="41.60442"></scales>
<clustering>
<clus scale="   41.604">  2  9  1 -1</clus>
<clus scale="   77.339">  5  6 -1 -1</clus>
<clus scale="   88.659">  1  5  2 -1</clus>
<clus scale="   92.335">  7  8 -1 -1</clus>
<clus scale="   41.604">  2  5  1 -1</clus>
</clustering>
</event>
<event>
 9    2  0.1325014E-004  0.9667602E+02  0.7546771E-02  0.1293072E+00
         21   -1    0    0  501  502  0.00000000000E+00  0.00000000000E+00  0.54579016340E+03  0.54579016340E+03  0.00000000000E+00 0. -1.
         -1   -1    0    0    0  501 -0.00000000000E+00 -0.00000000000E+00 -0.40201672425E+02  0.40201672425E+02  0.00000000000E+00 0.  1.
         24    2    1    2    0    0  0.24548105984E+02 -0.33074974084E+02  0.38190716180E+02  0.97076150829E+02  0.79175026614E+02 0.  0.
         23    2    1    2    0    0 -0.29673925042E+02 -0.15627033806E+01  0.22546506739E+03  0.24446225869E+03  0.89690107823E+02 0.  0.
        -13    1    3    3    0    0 -0.97897588915E+01 -0.45637964234E+02  0.37181126666E+01  0.46824005813E+02  0.00000000000E+00 0.  1.
         14    1    3    3    0    0  0.34337864875E+02  0.12562990150E+02  0.34472603514E+02  0.50252145016E+02  0.00000000000E+00 0. -1.
        -13    1    4    4    0    0  0.15958707421E+02  0.31988726184E+02  0.63388690883E+02  0.72774206126E+02  0.00000000000E+00 0.  1.
         13    1    4    4    0    0 -0.45632632464E+02 -0.33551429565E+02  0.16207637651E+03  0.17168805256E+03  0.00000000000E+00 0. -1.
         -2    1    1    2    0  502  0.51258190587E+01  0.34637677465E+02  0.24193270740E+03  0.24445342630E+03  0.00000000000E+00 0.  1.
<scales pt_clust_5="13000.00000" pt_clust_6="13000.00000" pt_clust_7="13000.00000" pt_clust_8="13000.00000" pt_clust_9="35.01489"></scales>
<clustering>
<clus scale="   35.015">  1  9  2 -1</clus>
<clus scale="   79.175">  5  6 -1 -1</clus>
<clus scale="   87.009">  2  5  1 -1</clus>
<clus scale="   89.690">  7  8 -1 -1</clus>
<clus scale="   35.015">  1  5  2 -1</clus>
</clustering>
</event>
<event>
 9    2  0.1325014E-004  0.2301091E+03  0.7546771E-02  0.1127429E+00
         21   -1    0    0  501  502  0.00000000000E+00  0.00000000000E+00  0.55809632344E+02  0.55809632344E+02  0.00000000000E+00 0. -1.
          2   -1    0    0  502    0 -0.00000000000E+00 -0.00000000000E+00 -0.14428320316E+04  0.14428320316E+04  0.00000000000E+00 0. -1.
         24    2    1    2    0    0 -0.21923629007E+03 -0.10806557290E+03 -0.84519314215E+03  0.88573624109E+03  0.10214950966E+03 0.  0.
         23    2    1    2    0    0  0.13996753329E+03  0.60896607793E+02 -0.24840179006E+03  0.30532108403E+03  0.90654331555E+02 0.  0.
        -13    1    3    3    0    0 -0.38659559584E+02 -0.23671349457E+02 -0.57526470122E+02  0.73240624636E+02  0.00000000000E+00 0.  1.
         14    1    3    3    0    0 -0.18057673049E+03 -0.84394223444E+02 -0.78766667202E+03  0.81249561646E+03  0.00000000000E+00 0. -1.
        -13    1    4    4    0    0  0.90084875586E+02  0.72390517780E+02 -0.11769504194E+03  0.16494785470E+03  0.00000000000E+00 0. -1.
         13    1    4    4    0    0  0.49882657708E+02 -0.11493909988E+02 -0.13070674812E+03  0.14037322933E+03  0.00000000000E+00 0.  1.
          1    1    1    2  501    0  0.79268756780E+02  0.47168965109E+02 -0.29342746707E+03  0.30758433884E+03  0.00000000000E+00 0. -1.
<scales pt_clust_5="13000.00000" pt_clust_6="13000.00000" pt_clust_7="13000.00000" pt_clust_8="13000.00000" pt_clust_9="92.24129"></scales>
<clustering>
<clus scale="   90.654">  7  8 -1 -1</clus>
<clus scale="   92.241">  1  9  2 -1</clus>
<clus scale="  102.150">  5  6 -1 -1</clus>
<clus scale="  225.242">  1  7  2 -1</clus>
<clus scale="   92.241">  1  5  2 -1</clus>
</clustering>
</event>
<event>
 9    2  0.1325014E-004  0.1314141E+03  0.7546771E-02  0.1228591E+00
          2   -1    0    0  502    0 -0.00000000000E+00  0.00000000000E+00  0.11016298402E+04  0.11016298402E+04  0.00000000000E+00 0. -1.
         21   -1    0    0  501  502  0.00000000000E+00 -0.00000000000E+00 -0.31040780843E+02  0.31040780843E+02  0.00000000000E+00 0. -1.
         24    2    1    2    0    0 -0.13857048072E+02  0.82768682953E+02  0.41967741775E+03  0.43516031418E+03  0.78693655448E+02 0.  0.
         23    2    1    2    0    0  0.95785762146E+02 -0.93597046980E+02  0.35494428629E+03  0.39022177296E+03  0.91390734140E+02 0.  0.
        -11    1    3    3    0    0  0.41284975563E+01  0.79757928257E+02  0.20971645409E+03  0.22440891856E+03  0.00000000000E+00 0.  1.
         12    1    3    3    0    0 -0.17985545628E+02  0.30107546961E+01  0.20996096366E+03  0.21075139562E+03  0.00000000000E+00 0. -1.
        -13    1    4    4    0    0  0.11230843522E+02 -0.52991450605E+02  0.60541069238E+02  0.81236978944E+02  0.00000000000E+00 0. -1.
         13    1    4    4    0    0  0.84554918624E+02 -0.40605596374E+02  0.29440321706E+03  0.30898479402E+03  0.00000000000E+00 0.  1.
          1    1    1    2  501    0 -0.81928714074E+02  0.10828364027E+02  0.29596735527E+03  0.30728853386E+03  0.00000000000E+00 0. -1.
<scales pt_clust_5="13000.00000" pt_clust_6="13000.00000" pt_clust_7="13000.00000" pt_clust_8="13000.00000" pt_clust_9="82.64124"></scales>
<clustering>
<clus scale="   78.694">  5  6 -1 -1</clus>
<clus scale="   82.641">  2  9  1 -1</clus>
<clus scale="   91.391">  7  8 -1 -1</clus>
<clus scale="  122.923">  1  5  2 -1</clus>
<clus scale="   82.641">  2  5  1 -1</clus>
</clustering>
</event>
<event>
 9    2  0.1325014E-004  0.1664978E+03  0.7546771E-02  0.1198277E+00
          2   -1    0    0  502    0 -0.00000000000E+00  0.00000000000E+00  0.95290988631E+03  0.95290988631E+03  0.00000000000E+00 0. -1.
         21   -1    0    0  501  502  0.00000000000E+00 -0.00000000000E+00 -0.60690183886E+02  0.60690183886E+02  0.00000000000E+00 0.  1.
         23    2    1    2    0    0  0.57000411997E+02 -0.86665408815E+01  0.79326810469E+02  0.13974393045E+03  0.99556352590E+02 0.  0.
         24    2    1    2    0    0  0.98260156734E+02 -0.72706544738E+02  0.38864788797E+03  0.41482319248E+03  0.78037171567E+02 0.  0.
        -11    1    4    4    0    0  0.10885345133E+03 -0.75292862926E+02  0.37269797147E+03  0.39550204426E+03  0.00000000000E+00 0.  1.
         12    1    4    4    0    0 -0.10593294599E+02  0.25863181878E+01  0.15949916503E+02  0.19321148224E+02  0.00000000000E+00 0. -1.
        -11    1    3    3    0    0 -0.23520069884E+02 -0.32864010292E+00 -0.36692348563E+01  0.23806826250E+02  0.00000000000E+00 0.  1.
         11    1    3    3    0    0  0.80520481881E+02 -0.83379007786E+01  0.82996045325E+02  0.11593710420E+03  0.00000000000E+00 0. -1.
          1    1    1    2  501    0 -0.15526056873E+03  0.81373085619E+02  0.42424500398E+03  0.45903294726E+03  0.00000000000E+00 0. -1.
<scales pt_clust_5="13000.00000" pt_clust_6="13000.00000" pt_clust_7="13000.00000" pt_clust_8="13000.00000" pt_clust_9="147.07737"></scales>
<clustering>
<clus scale="   78.037">  5  6 -1 -1</clus>
<clus scale="   99.556">  7  8 -1 -1</clus>
<clus scale="  115.046">  1  7  2 -1</clus>
<clus scale="  147.077">  2  9  1 -1</clus>
<clus scale="  147.077">  2  5  1 -1</clus>
</clustering>
</event>
<event>
 9    2  0.1325014E-004  0.1116385E+03  0.7546771E-02  0.1265131E+00
         21   -1    0    0  501  502  0.00000000000E+00  0.00000000000E+00  0.32744497485E+02  0.32744497485E+02  0.00000000000E+00 0. -1.
         -1   -1    0    0    0  501 -0.00000000000E+00 -0.00000000000E+00 -0.11117168525E+04  0.11117168525E+04  0.00000000000E+00 0.  1.
         24    2    1    2    0    0 -0.41760072014E+02  0.33360379498E+02 -0.50248451449E+03  0.51161855901E+03  0.80037766629E+02 0.  0.
         23    2    1    2    0    0 -0.54757778145E+02  0.79232801097E+01 -0.10331265471E+03  0.14816269811E+03  0.90650360467E+02 0.  0.
        -13    1    3    3    0    0 -0.19915804096E+01 -0.25210574329E+02 -0.14557542676E+03  0.14775569136E+03  0.00000000000E+00 0.  1.
         14    1    3    3    0    0 -0.39768491604E+02  0.58570953826E+02 -0.35690908772E+03  0.36386286765E+03  0.00000000000E+00 0. -1.
        -11    1    4    4    0    0 -0.65976310662E+02  0.27645420405E+02 -0.42387134438E+02  0.83149335558E+02  0.00000000000E+00 0. -1.
         11    1    4    4    0    0  0.11218532517E+02 -0.19722140295E+02 -0.60925520276E+02  0.65013362554E+02  0.00000000000E+00 0.  1.
         -2    1    1    2    0  502  0.96517850159E+02 -0.41283659608E+02 -0.47317518583E+03  0.48468009288E+03  0.00000000000E+00 0.  1.
<scales pt_clust_5="13000.00000" pt_clust_6="13000.00000" pt_clust_7="13000.00000" pt_clust_8="13000.00000" pt_clust_9="65.15885"></scales>
<clustering>
<clus scale="   80.038">  5  6 -1 -1</clus>
<clus scale="   90.650">  7  8 -1 -1</clus>
<clus scale="   96.244">  2  5  1 -1</clus>
<clus scale="   65.159">  1  9  2 -1</clus>
<clus scale="   65.159">  1  5  2 -1</clus>
</clustering>
</event>
<event>
 9    2  0.1325014E-004  0.9914622E+02  0.7546771E-02  0.1288353E+00
         21   -1    0    0  501  502  0.00000000000E+00  0.00000000000E+00  0.10088978355E+03  0.10088978355E+03  0.00000000000E+00 0. -1.
          2   -1    0    0  502    0 -0.00000000000E+00 -0.00000000000E+00 -0.21444676576E+03  0.21444676576E+03  0.00000000000E+00 0. -1.
         23    2    1    2    0    0  0.38014024287E+02  0.81194261039E+01 -0.10041120448E+03  0.14182654539E+03  0.92311255369E+02 0.  0.
         24    2    1    2    0    0 -0.28616618265E+02  0.15626199370E+02  0.53674028142E+02  0.10197642841E+03  0.80344269905E+02 0.  0.
        -11    1    4    4    0    0 -0.47244478692E+02 -0.12892468596E+02  0.16792052505E+02  0.51770933357E+02  0.00000000000E+00 0.  1.
         12    1    4    4    0    0  0.18627860427E+02  0.28518667966E+02  0.36881975637E+02  0.50205495053E+02  0.00000000000E+00 0. -1.
        -11    1    3    3    0    0  0.53727871683E+02  0.30829346201E+02 -0.35763724240E+02  0.71527454549E+02  0.00000000000E+00 0.  1.
         11    1    3    3    0    0 -0.15713847396E+02 -0.22709920097E+02 -0.64647480243E+02  0.70299090837E+02  0.00000000000E+00 0. -1.
          1    1    1    2  501    0 -0.93974060223E+01 -0.23745625474E+02 -0.66819805867E+02  0.71533575510E+02  0.00000000000E+00 0. -1.
<scales pt_clust_5="13000.00000" pt_clust_6="13000.00000" pt_clust_7="13000.00000" pt_clust_8="13000.00000" pt_clust_9="25.53755"></scales>
<clustering>
<clus scale="   25.538">  1  9  2 -1</clus>
<clus scale="   80.344">  5  6 -1 -1</clus>
<clus scale="   88.112">  1  5  2 -1</clus>
<clus scale="   92.311">  7  8 -1 -1</clus>
<clus scale="   25.538">  1  5  2 -1</clus>
</clustering>
</event>
<event>
 9    2  0.1325014E-004  0.1623008E+03  0.7546771E-02  0.1194686E+00
         21   -1    0    0  501  502  0.00000000000E+00  0.00000000000E+00  0.92842900053E+02  0.92842900053E+02  0.00000000000E+00 0.  1.
          2   -1    0    0  502    0 -0.00000000000E+00 -0.00000000000E+00 -0.65359597601E+03  0.65359597601E+03  0.00000000000E+00 0. -1.
         23    2    1    2    0    0 -0.96597190692E+02 -0.23885745897E+02 -0.21954684500E+03  0.27016334503E+03  0.12200766265E+03 0.  0.
         24    2    1    2    0    0  0.13173030022E+03 -0.21665885894E+02 -0.29134545603E+02  0.15894601247E+03  0.81195631207E+02 0.  0.
        -13    1    4    4    0    0  0.84384675121E+02 -0.13839595645E+02  0.22532791640E+02  0.88430958956E+02  0.00000000000E+00 0.  1.
         14    1    4    4    0    0  0.47345625097E+02 -0.78262902492E+01 -0.51667337243E+02  0.70515053518E+02  0.00000000000E+00 0. -1.
        -11    1    3    3    0    0 -0.12143667168E+03 -0.39831448652E+02 -0.17411650587E+03  0.21598603460E+03  0.00000000000E+00 0.  1.
         11    1    3    3    0    0  0.24839480984E+02  0.15945702756E+02 -0.45430339131E+02  0.54177310430E+02  0.00000000000E+00 0. -1.
          1    1    1    2  501    0 -0.35133109525E+02  0.45551631791E+02 -0.31207168536E+03  0.31732951856E+03  0.00000000000E+00 0. -1.
<scales pt_clust_5="13000.00000" pt_clust_6="13000.00000" pt_clust_7="13000.00000" pt_clust_8="13000.00000" pt_clust_9="57.52643"></scales>
<clustering>
<clus scale="   57.526">  1  9  2 -1</clus>
<clus scale="   81.196">  5  6 -1 -1</clus>
<clus scale="  122.008">  7  8 -1 -1</clus>
<clus scale="  134.344">  1  5  2 -1</clus>
<clus scale="   57.526">  1  5  2 -1</clus>
</clustering>
</event>
<event>
 9    2  0.1325014E-004  0.2174358E+03  0.7546771E-02  0.1171088E+00
         21   -1    0    0  501  502  0.00000000000E+00  0.00000000000E+00  0.87737874790E+02  0.87737874790E+02  0.00000000000E+00 0. -1.
          2   -1    0    0  502    0 -0.00000000000E+00 -0.00000000000E+00 -0.88932312200E+03  0.88932312200E+03  0.00000000000E+00 0. -1.
         24    2    1    2    0    0  0.92695064920E+00  0.50060963744E+02 -0.99947030641E+02  0.13769880025E+03  0.80402682346E+02 0.  0.
         23    2    1    2    0    0  0.19615156079E+03 -0.17914016920E+02 -0.54191208314E+03  0.58365571723E+03  0.90492782031E+02 0.  0.
        -11    1    3    3    0    0  0.24111604850E+02  0.38067183505E+02 -0.12971618943E+02  0.46890754382E+02  0.00000000000E+00 0.  1.
         12    1    3    3    0    0 -0.23184654201E+02  0.11993780239E+02 -0.86975411697E+02  0.90808045870E+02  0.00000000000E+00 0. -1.
        -11    1    4    4    0    0  0.18064816711E+03 -0.43786946563E+02 -0.48148632967E+03  0.51612027922E+03  0.00000000000E+00 0. -1.
         11    1    4    4    0    0  0.15503393675E+02  0.25872929643E+02 -0.60425753472E+02  0.67535438004E+02  0.00000000000E+00 0.  1.
          1    1    1    2  501    0 -0.19707851144E+03 -0.32146946824E+02 -0.15972613343E+03  0.25570647931E+03  0.00000000000E+00 0. -1.
<scales pt_clust_5="13000.00000" pt_clust_6="13000.00000" pt_clust_7="13000.00000" pt_clust_8="13000.00000" pt_clust_9="197.71032"></scales>
<clustering>
<clus scale="   80.403">  5  6 -1 -1</clus>
<clus scale="   90.493">  7  8 -1 -1</clus>
<clus scale="   94.718">  2  5  1 -1</clus>
<clus scale="  197.710">  1  9  2 -1</clus>
<clus scale="  197.710">  1  5  2 -1</clus>
</clustering>
</event>
<event>
 9    2  0.1325014E-004  0.1231731E+03  0.7546771E-02  0.1241101E+00
          2   -1    0    0  502    0 -0.00000000000E+00  0.00000000000E+00  0.45724758606E+03  0.45724758606E+03  0.00000000000E+00 0. -1.
         21   -1    0    0  501  502  0.00000000000E+00 -0.00000000000E+00 -0.44583038106E+02  0.44583038106E+02  0.00000000000E+00 0.  1.
         24    2    1    2    0    0  0.68918986236E+02  0.55475543033E+02  0.28992763904E+03  0.31347755945E+03  0.79892314159E+02 0.  0.
         23    2    1    2    0    0 -0.46099347631E+02 -0.58296548721E+02  0.11477870774E+03  0.16402146088E+03  0.90582837412E+02 0.  0.
        -13    1    3    3    0    0  0.80335242299E+02  0.55649293631E+02  0.19759147330E+03  0.22043816675E+03  0.00000000000E+00 0.  1.
         14    1    3    3    0    0 -0.11416256062E+02 -0.17375059797E+00  0.92336165737E+02  0.93039392704E+02  0.00000000000E+00 0. -1.
        -11    1    4    4    0    0 -0.62929835320E+02 -0.38624009667E+02  0.11666003438E+03  0.13806354304E+03  0.00000000000E+00 0. -1.
         11    1    4    4    0    0  0.16830487689E+02 -0.19672539053E+02 -0.18813266352E+01  0.25957917839E+02  0.00000000000E+00 0.  1.
          1    1    1    2  501    0 -0.22819638605E+02  0.28210056872E+01  0.79582011708E+01  0.24331603832E+02  0.00000000000E+00 0. -1.
<scales pt_clust_5="13000.00000" pt_clust_6="13000.00000" pt_clust_7="13000.00000" pt_clust_8="13000.00000" pt_clust_9="22.99335"></scales>
<clustering>
<clus scale="   22.993">  2  9  1 -1</clus>
<clus scale="   79.892">  5  6 -1 -1</clus>
<clus scale="   90.583">  7  8 -1 -1</clus>
<clus scale="  115.538">  1  5  2 -1</clus>
<clus scale="   22.993">  2  5  1 -1</clus>
</clustering>
</event>
<event>
 9    2  0.1325014E-004  0.2720868E+03  0.7546771E-02  0.1136655E+00
          2   -1    0    0  502    0 -0.00000000000E+00  0.00000000000E+00  0.20610115313E+04  0.20610115313E+04  0.00000000000E+00 0. -1.
         21   -1    0    0  501  502  0.00000000000E+00 -0.00000000000E+00 -0.58259895675E+02  0.58259895675E+02  0.00000000000E+00 0. -1.
         23    2    1    2    0    0 -0.37454869629E+01  0.56147843114E+02  0.47815195430E+03  0.49035482129E+03  0.93015861035E+02 0.  0.
         24    2    1    2    0    0 -0.25545990454E+03 -0.59575894712E+02  0.48228418028E+03  0.55484920080E+03  0.80315347322E+02 0.  0.
        -13    1    4    4    0    0 -0.27696176694E+02 -0.48939662558E+01  0.14377086827E+02  0.31586860161E+02  0.00000000000E+00 0.  1.
         14    1    4    4    0    0 -0.22776372785E+03 -0.54681928457E+02  0.46790709346E+03  0.52326234064E+03  0.00000000000E+00 0. -1.
        -13    1    3    3    0    0  0.29366601312E+02  0.66637256806E+02  0.35537445947E+03  0.36275877344E+03  0.00000000000E+00 0. -1.
         13    1    3    3    0    0 -0.33112088275E+02 -0.10489413693E+02  0.12277749484E+03  0.12759604785E+03  0.00000000000E+00 0.  1.
          1    1    1    2  501    0  0.25920539151E+03  0.34280515989E+01  0.10423155011E+04  0.10740674049E+04  0.00000000000E+00 0. -1.
<scales pt_clust_5="13000.00000" pt_clust_6="13000.00000" pt_clust_7="13000.00000" pt_clust_8="13000.00000" pt_clust_9="259.96295"></scales>
<clustering>
<clus scale="   80.315">  5  6 -1 -1</clus>
<clus scale="   93.016">  7  8 -1 -1</clus>
<clus scale="  108.713">  1  7  2 -1</clus>
<clus scale="  259.963">  2  9  1 -1</clus>
<clus scale="  259.963">  2  5  1 -1</clus>
</clustering>
</event>
<event>
 9    2  0.1325014E-004  0.1135579E+03  0.7546771E-02  0.1262348E+00
         -1   -1    0    0    0  501 -0.00000000000E+00  0.00000000000E+00  0.10102325616E+03  0.10102325616E+03  0.00000000000E+00 0.  1.
         21   -1    0    0  501  502  0.00000000000E+00 -0.00000000000E+00 -0.22144285626E+03  0.22144285626E+03  0.00000000000E+00 0. -1.
         23    2    1    2    0    0 -0.38257887598E+02  0.67176176315E+02  0.30605331383E+02  0.12441038536E+03  0.92547031547E+02 0.  0.
         24    2    1    2    0    0  0.16218562995E+02 -0.28644200476E+02 -0.12280707284E+03  0.14545636834E+03  0.70657242696E+02 0.  0.
        -13    1    4    4    0    0  0.11726767296E+02  0.17527808651E+02 -0.97139954804E+01  0.23218588577E+02  0.00000000000E+00 0.  1.
         14    1    4    4    0    0  0.44917956998E+01 -0.46172009127E+02 -0.11309307736E+03  0.12223777977E+03  0.00000000000E+00 0. -1.
        -11    1    3    3    0    0  0.85247134427E+01  0.57617710365E+02  0.46023601666E+02  0.74233706612E+02  0.00000000000E+00 0.  1.
         11    1    3    3    0    0 -0.46782601041E+02  0.95584659502E+01 -0.15418270284E+02  0.50176678746E+02  0.00000000000E+00 0. -1.
         -2    1    1    2    0  502  0.22039324602E+02 -0.38531975839E+02 -0.28217858639E+02  0.52599358714E+02  0.00000000000E+00 0.  1.
<scales pt_clust_5="13000.00000" pt_clust_6="13000.00000" pt_clust_7="13000.00000" pt_clust_8="13000.00000" pt_clust_9="44.38969"></scales>
<clustering>
<clus scale="   44.390">  2  9  1 -1</clus>
<clus scale="   70.657">  5  6 -1 -1</clus>
<clus scale="   92.547">  7  8 -1 -1</clus>
<clus scale="   96.555">  2  5  1 -1</clus>
<clus scale="   44.390">  2  5  1 -1</clus>
</clustering>
</event>
<event>
 9    2  0.1325014E-004  0.1406149E+03  0.7546771E-02  0.1228108E+00
         21   -1    0    0  501  502  0.00000000000E+00  0.00000000000E+00  0.20346718628E+03  0.20346718628E+03  0.00000000000E+00 0.  1.
          4   -1    0    0  502    0 -0.00000000000E+00 -0.00000000000E+00 -0.19862773582E+03  0.19862773582E+03  0.00000000000E+00 0. -1.
         23    2    1    2    0    0  0.57313110371E+02  0.41817176202E+02 -0.37234570452E+02  0.10797077486E+03  0.72372689195E+02 0.  0.
         24    2    1    2    0    0  0.80060138558E+02  0.45420496022E+02  0.47976691070E+02  0.13128477089E+03  0.80382093387E+02 0.  0.
        -11    1    4    4    0    0  0.85832849948E+02  0.17440276377E+02  0.17140781576E+02  0.89248236752E+02  0.00000000000E+00 0.  1.
         12    1    4    4    0    0 -0.57727113897E+01  0.27980219645E+02  0.30835909495E+02  0.42036534140E+02  0.00000000000E+00 0. -1.
        -13    1    3    3    0    0  0.36377264389E+02  0.22980182132E+02  0.17472622382E+02  0.46440140699E+02  0.00000000000E+00 0.  1.
         13    1    3    3    0    0  0.20935845982E+02  0.18836994070E+02 -0.54707192834E+02  0.61530634162E+02  0.00000000000E+00 0. -1.
          3    1    1    2  501    0 -0.13737324893E+03 -0.87237672224E+02 -0.59026701613E+01  0.16283937635E+03  0.00000000000E+00 0. -1.
<scales pt_clust_5="13000.00000" pt_clust_6="13000.00000" pt_clust_7="13000.00000" pt_clust_8="13000.00000" pt_clust_9="115.37458"></scales>
<clustering>
<clus scale="   72.373">  7  8 -1 -1</clus>
<clus scale="   80.382">  5  6 -1 -1</clus>
<clus scale="  101.347">  2  7  1 -1</clus>
<clus scale="  115.375">  1  9  2 -1</clus>
<clus scale="  115.375">  1  5  2 -1</clus>
</clustering>
</event>
<event>
 9    2  0.1325014E-004  0.2420238E+03  0.7546771E-02  0.1153180E+00
         21   -1    0    0  501  502  0.00000000000E+00  0.00000000000E+00  0.22199200074E+03  0.22199200074E+03  0.00000000000E+00 0.  1.
         -1   -1    0    0    0  501 -0.00000000000E+00 -0.00000000000E+00 -0.38933468985E+03  0.38933468985E+03  0.00000000000E+00 0.  1.
         23    2    1    2    0    0 -0.43417098076E+02 -0.46514101962E+02  0.16518382050E+01  0.10406065204E+03  0.82324265232E+02 0.  0.
         24    2    1    2    0    0  0.96688206126E+02 -0.19414550615E+03 -0.66824382786E+02  0.24044475686E+03  0.79417228657E+02 0.  0.
        -13    1    4    4    0    0  0.26569853185E+02 -0.91908132767E+02  0.73898911607E+01  0.95956617585E+02  0.00000000000E+00 0.  1.
         14    1    4    4    0    0  0.70118352941E+02 -0.10223737338E+03 -0.74214273947E+02  0.14448813928E+03  0.00000000000E+00 0. -1.
        -11    1    3    3    0    0  0.13374678857E+02 -0.23894124927E+02 -0.25273012944E+02  0.37263070510E+02  0.00000000000E+00 0.  1.
         11    1    3    3    0    0 -0.56791776934E+02 -0.22619977035E+02  0.26924851149E+02  0.66797581526E+02  0.00000000000E+00 0. -1.
         -2    1    1    2    0  502 -0.53271108050E+02  0.24065960811E+03 -0.10217014453E+03  0.26682128169E+03  0.00000000000E+00 0.  1.
<scales pt_clust_5="13000.00000" pt_clust_6="13000.00000" pt_clust_7="13000.00000" pt_clust_8="13000.00000" pt_clust_9="228.62300"></scales>
<clustering>
<clus scale="   79.417">  5  6 -1 -1</clus>
<clus scale="   82.324">  7  8 -1 -1</clus>
<clus scale="  104.048">  2  7  1 -1</clus>
<clus scale="  228.623">  1  9  2 -1</clus>
<clus scale="  228.623">  1  5  2 -1</clus>
</clustering>
</event>
<event>
 9    2  0.1325014E-004  0.1057435E+03  0.7546771E-02  0.1280078E+00
         21   -1    0    0  501  502  0.00000000000E+00  0.00000000000E+00  0.16443055435E+02  0.16443055435E+02  0.00000000000E+00 0. -1.
          2   -1    0    0  502    0 -0.00000000000E+00 -0.00000000000E+00 -0.14303473456E+04  0.14303473456E+04  0.00000000000E+00 0. -1.
         24    2    1    2    0    0 -0.64776340140E+01 -0.40616114747E+02 -0.50786895276E+03  0.51574978216E+03  0.79845701815E+02 0.  0.
         23    2    1    2    0    0  0.56769574164E+02 -0.30061259301E+02 -0.40263855649E+03  0.42022471321E+03  0.10170810469E+03 0.  0.
        -13    1    3    3    0    0 -0.15927327149E+02 -0.14052035648E+02 -0.28458329290E+02  0.35510786558E+02  0.00000000000E+00 0.  1.
         14    1    3    3    0    0  0.94496931351E+01 -0.26564079099E+02 -0.47941062347E+03  0.48023899560E+03  0.00000000000E+00 0. -1.
        -11    1    4    4    0    0 -0.56045193906E+01 -0.48617421066E+02 -0.24212077104E+03  0.24701727072E+03  0.00000000000E+00 0.  1.
         11    1    4    4    0    0  0.62374093554E+02  0.18556161765E+02 -0.16051778546E+03  0.17320744249E+03  0.00000000000E+00 0. -1.
          1    1    1    2  501    0 -0.50291940150E+02  0.70677374048E+02 -0.50339678093E+03  0.51081590568E+03  0.00000000000E+00 0. -1.
<scales pt_clust_5="13000.00000" pt_clust_6="13000.00000" pt_clust_7="13000.00000" pt_clust_8="13000.00000" pt_clust_9="86.74433"></scales>
<clustering>
<clus scale="   79.846">  5  6 -1 -1</clus>
<clus scale="   86.744">  1  9  2 -1</clus>
<clus scale="   84.926">  2  5  1 -1</clus>
<clus scale="  101.708">  7  8 -1 -1</clus>
<clus scale="   86.744">  1  5  2 -1</clus>
</clustering>
</event>
<event>
 9    2  0.1325014E-004  0.9686516E+02  0.7546771E-02  0.1296466E+00
         21   -1    0    0  501  502  0.00000000000E+00  0.00000000000E+00  0.12182728182E+03  0.12182728182E+03  0.00000000000E+00 0. -1.
          2   -1    0    0  502    0 -0.00000000000E+00 -0.00000000000E+00 -0.17505020276E+03  0.17505020276E+03  0.00000000000E+00 0. -1.
         23    2    1    2    0    0 -0.35644205696E+01  0.45985435949E+01 -0.78073697818E+02  0.12243217226E+03  0.94129075299E+02 0.  0.
         24    2    1    2    0    0 -0.46160557295E+01 -0.71029755173E+02  0.11210180738E+02  0.10613651400E+03  0.77927898484E+02 0.  0.
        -11    1    4    4    0    0  0.34504544596E+02 -0.18483711302E+02 -0.24416485042E+01  0.39219546513E+02  0.00000000000E+00 0.  1.
         12    1    4    4    0    0 -0.39120600326E+02 -0.52546043871E+02  0.13651829242E+02  0.66916967490E+02  0.00000000000E+00 0. -1.
        -11    1    3    3    0    0 -0.39633020536E+02  0.29387031889E+02 -0.31581487278E+02  0.58581262352E+02  0.00000000000E+00 0.  1.
         11    1    3    3    0    0  0.36068599967E+02 -0.24788488294E+02 -0.46492210540E+02  0.63850909910E+02  0.00000000000E+00 0. -1.
          1    1    1    2  501    0  0.81804762991E+01  0.66431211578E+02  0.13640596141E+02  0.68308798315E+02  0.00000000000E+00 0. -1.
<scales pt_clust_5="13000.00000" pt_clust_6="13000.00000" pt_clust_7="13000.00000" pt_clust_8="13000.00000" pt_clust_9="66.93300"></scales>
<clustering>
<clus scale="   66.933">  1  9  2 -1</clus>
<clus scale="   77.928">  5  6 -1 -1</clus>
<clus scale="   81.212">  1  5  2 -1</clus>
<clus scale="   94.129">  7  8 -1 -1</clus>
<clus scale="   66.933">  1  5  2 -1</clus>
</clustering>
</event>
<event>
 9    2  0.1325014E-004  0.1325856E+03  0.7546771E-02  0.1241554E+00
         21   -1    0    0  501  502  0.00000000000E+00  0.00000000000E+00  0.29454248907E+02  0.29454248907E+02  0.00000000000E+00 0. -1.
          2   -1    0    0  502    0 -0.00000000000E+00 -0.00000000000E+00 -0.15243197582E+04  0.15243197582E+04  0.00000000000E+00 0. -1.
         24    2    1    2    0    0  0.67470977956E+02  0.21816262022E+02 -0.97704928335E+02  0.13405759188E+03  0.58282954320E+02 0.  0.
         23    2    1    2    0    0  0.50148675186E+02  0.43979840101E+02 -0.55715099447E+03  0.56896403336E+03  0.94094232885E+02 0.  0.
        -13    1    3    3    0    0  0.58783673221E+02  0.21944265656E+02 -0.10526073370E+03  0.12254343349E+03  0.00000000000E+00 0.  1.
         14    1    3    3    0    0  0.86873047345E+01 -0.12800363443E+00  0.75558053701E+01  0.11514158383E+02  0.00000000000E+00 0. -1.
        -13    1    4    4    0    0 -0.26599819889E+02  0.14898288850E+02 -0.10148682685E+03  0.10596737919E+03  0.00000000000E+00 0.  1.
         13    1    4    4    0    0  0.76748495075E+02  0.29081551251E+02 -0.45566416762E+03  0.46299665417E+03  0.00000000000E+00 0. -1.
          1    1    1    2  501    0 -0.11761965314E+03 -0.65796102123E+02 -0.84000958644E+03  0.85075238182E+03  0.00000000000E+00 0. -1.
<scales pt_clust_5="13000.00000" pt_clust_6="13000.00000" pt_clust_7="13000.00000" pt_clust_8="13000.00000" pt_clust_9="93.40892"></scales>
<clustering>
<clus scale="   58.283">  5  6 -1 -1</clus>
<clus scale="   91.789">  2  5  1 -1</clus>
<clus scale="   93.409">  1  9  2 -1</clus>
<clus scale="   94.094">  7  8 -1 -1</clus>
<clus scale="   93.409">  1  5  2 -1</clus>
</clustering>
</event>
<event>
 9    2  0.1325014E-004  0.1691433E+03  0.7546771E-02  0.1188167E+00
          2   -1    0    0  502    0 -0.00000000000E+00  0.00000000000E+00  0.73966609330E+02  0.73966609330E+02  0.00000000000E+00 0. -1.
         21   -1    0    0  501  502  0.00000000000E+00 -0.00000000000E+00 -0.80602083402E+03  0.80602083402E+03  0.00000000000E+00 0.  1.
         24    2    1    2    0    0 -0.10108997887E+03 -0.44749004681E+02 -0.33892422399E+03  0.36557690174E+03  0.80964092199E+02 0.  0.
         23    2    1    2    0    0  0.31499910775E+02  0.16621244909E+03 -0.22959007945E+03  0.29913989395E+03  0.90300880155E+02 0.  0.
        -13    1    3    3    0    0 -0.92206491802E+02 -0.88125414647E+01 -0.28862619145E+03  0.30312501779E+03  0.00000000000E+00 0.  1.
         14    1    3    3    0    0 -0.88834870673E+01 -0.35936463216E+02 -0.50298032539E+02  0.62451883945E+02  0.00000000000E+00 0. -1.
        -13    1    4    4    0    0 -0.11483813427E+02  0.12292407822E+03 -0.11211304280E+03  0.16676792660E+03  0.00000000000E+00 0.  1.
         13    1    4    4    0    0  0.42983724202E+02  0.43288370876E+02 -0.11747703666E+03  0.13237196735E+03  0.00000000000E+00 0. -1.
          1    1    1    2  501    0  0.69590068095E+02 -0.12146344441E+03 -0.16353992125E+03  0.21527064767E+03  0.00000000000E+00 0. -1.
<scales pt_clust_5="13000.00000" pt_clust_6="13000.00000" pt_clust_7="13000.00000" pt_clust_8="13000.00000" pt_clust_9="143.02168"></scales>
<clustering>
<clus scale="   80.964">  5  6 -1 -1</clus>
<clus scale="   90.301">  7  8 -1 -1</clus>
<clus scale="  137.029">  1  5  2 -1</clus>
<clus scale="  143.022">  2  9  1 -1</clus>
<clus scale="  143.022">  2  5  1 -1</clus>
</clustering>
</event>
<event>
 9    2  0.1325014E-004  0.1997632E+03  0.7546771E-02  0.1150942E+00
          2   -1    0    0  502    0 -0.00000000000E+00  0.00000000000E+00  0.76953187236E+03  0.76953187236E+03  0.00000000000E+00 0. -1.
         21   -1    0    0  501  502  0.00000000000E+00 -0.00000000000E+00 -0.76539086273E+02  0.76539086273E+02  0.00000000000E+00 0.  1.
         24    2    1    2    0    0  0.14513239771E+03 -0.10292570080E+03  0.50147328096E+03  0.53803266422E+03  0.79665447329E+02 0.  0.
         23    2    1    2    0    0 -0.16146270440E+03  0.79530936399E+02  0.19361797242E+03  0.27943064713E+03  0.90543870891E+02 0.  0.
        -11    1    3    3    0    0  0.58645092804E+02  0.22687775659E+01  0.15785400967E+03  0.16841105258E+03  0.00000000000E+00 0.  1.
         12    1    3    3    0    0  0.86487304904E+02 -0.10519447837E+03  0.34361927130E+03  0.36962161165E+03  0.00000000000E+00 0. -1.
        -13    1    4    4    0    0 -0.44131307883E+02  0.13421561250E+02  0.32496454649E+01  0.46241440694E+02  0.00000000000E+00 0.  1.
         13    1    4    4    0    0 -0.11733139651E+03  0.66109375150E+02  0.19036832696E+03  0.23318920644E+03  0.00000000000E+00 0. -1.
          1    1    1    2  501    0  0.16330306687E+02  0.23394764406E+02 -0.20984672965E+01  0.28607647283E+02  0.00000000000E+00 0. -1.
<scales pt_clust_5="13000.00000" pt_clust_6="13000.00000" pt_clust_7="13000.00000" pt_clust_8="13000.00000" pt_clust_9="28.53058"></scales>
<clustering>
<clus scale="   28.531">  2  9  1 -1</clus>
<clus scale="   79.665">  5  6 -1 -1</clus>
<clus scale="   90.544">  7  8 -1 -1</clus>
<clus scale="  195.074">  1  5  2 -1</clus>
<clus scale="   28.531">  2  5  1 -1</clus>
</clustering>
</event>
<event>
 9    2  0.1325014E-004  0.1296085E+03  0.7546771E-02  0.1231597E+00
         21   -1    0    0  501  502  0.00000000000E+00  0.00000000000E+00  0.11167204810E+03  0.11167204810E+03  0.00000000000E+00 0.  1.
          2   -1    0    0  502    0 -0.00000000000E+00 -0.00000000000E+00 -0.22274882374E+03  0.22274882374E+03  0.00000000000E+00 0. -1.
         23    2    1    2    0    0  0.58933743968E+02  0.64379500818E+02 -0.11366852502E+03  0.17115433125E+03  0.93570108601E+02 0.  0.
         24    2    1    2    0    0 -0.51127769310E+02 -0.83110106817E+02  0.29262394042E+02  0.12975397387E+03  0.80364590340E+02 0.  0.
        -11    1    4    4    0    0 -0.51480637734E+02 -0.47674672752E+02  0.52277467245E+02  0.87498937508E+02  0.00000000000E+00 0.  1.
         12    1    4    4    0    0  0.35286842376E+00 -0.35435434065E+02 -0.23015073203E+02  0.42255036363E+02  0.00000000000E+00 0. -1.
        -13    1    3    3    0    0 -0.24768051717E+02  0.20674116949E+02 -0.40010843459E+02  0.51397889955E+02  0.00000000000E+00 0.  1.
         13    1    3    3    0    0  0.83701795685E+02  0.43705383868E+02 -0.73657681558E+02  0.11975644130E+03  0.00000000000E+00 0. -1.
          1    1    1    2  501    0 -0.78059746576E+01  0.18730605999E+02 -0.26670644658E+02  0.33512566716E+02  0.00000000000E+00 0. -1.
<scales pt_clust_5="13000.00000" pt_clust_6="13000.00000" pt_clust_7="13000.00000" pt_clust_8="13000.00000" pt_clust_9="20.29210"></scales>
<clustering>
<clus scale="   20.292">  1  9  2 -1</clus>
<clus scale="   80.365">  5  6 -1 -1</clus>
<clus scale="   93.570">  7  8 -1 -1</clus>
<clus scale="  120.422">  1  5  2 -1</clus>
<clus scale="   20.292">  1  5  2 -1</clus>
</clustering>
</event>
<event>
 9    2  0.1325014E-004  0.1093594E+03  0.7546771E-02  0.1267135E+00
         21   -1    0    0  501  502  0.00000000000E+00  0.00000000000E+00  0.42600861047E+02  0.42600861047E+02  0.00000000000E+00 0.  1.
          2   -1    0    0  502    0 -0.00000000000E+00 -0.00000000000E+00 -0.51169764393E+03  0.51169764393E+03  0.00000000000E+00 0. -1.
         24    2    1    2    0    0  0.44420836011E+02  0.57554769596E+01 -0.17949942541E+03  0.20032903351E+03  0.76846221492E+02 0.  0.
         23    2    1    2    0    0 -0.89454740310E+02  0.42993956748E+02 -0.22062586131E+03  0.25825308255E+03  0.90378388399E+02 0.  0.
        -13    1    3    3    0    0 -0.18429741431E+02  0.16997796228E+02 -0.52896119017E+02  0.58536995592E+02  0.00000000000E+00 0.  1.
         14    1    3    3    0    0  0.62850577442E+02 -0.11242319269E+02 -0.12660330640E+03  0.14179203792E+03  0.00000000000E+00 0. -1.
        -11    1    4    4    0    0 -0.61380224475E+02 -0.49256280679E+01 -0.51607155564E+02  0.80343588878E+02  0.00000000000E+00 0.  1.
         11    1    4    4    0    0 -0.28074515835E+02  0.47919584816E+02 -0.16901870574E+03  0.17790949368E+03  0.00000000000E+00 0. -1.
          1    1    1    2  501    0  0.45033904299E+02 -0.48749433708E+02 -0.68971496161E+02  0.95716388910E+02  0.00000000000E+00 0. -1.
<scales pt_clust_5="13000.00000" pt_clust_6="13000.00000" pt_clust_7="13000.00000" pt_clust_8="13000.00000" pt_clust_9="66.36686"></scales>
<clustering>
<clus scale="   66.367">  1  9  2 -1</clus>
<clus scale="   76.846">  5  6 -1 -1</clus>
<clus scale="   90.378">  7  8 -1 -1</clus>
<clus scale="   98.471">  2  5  1 -1</clus>
<clus scale="   66.367">  1  5  2 -1</clus>
</clustering>
</event>
<event>
 9    2  0.1325014E-004  0.2264817E+03  0.7546771E-02  0.1153744E+00
         21   -1    0    0  501  502  0.00000000000E+00  0.00000000000E+00  0.22711434503E+03  0.22711434503E+03  0.00000000000E+00 0. -1.
          2   -1    0    0  502    0 -0.00000000000E+00 -0.00000000000E+00 -0.70745365151E+03  0.70745365151E+03  0.00000000000E+00 0. -1.
         23    2    1    2    0    0 -0.50434942451E+02  0.70277757643E+02  0.36996424082E+02  0.13064414375E+03  0.90644968216E+02 0.  0.
         24    2    1    2    0    0 -0.29056848279E+02  0.13884943043E+03 -0.55373977527E+03  0.57725585757E+03  0.80455712149E+02 0.  0.
        -11    1    4    4    0    0 -0.20774309867E+02  0.45964495200E+00 -0.39210176238E+02  0.44375907253E+02  0.00000000000E+00 0.  1.
         12    1    4    4    0    0 -0.82825384126E+01  0.13838978548E+03 -0.51452959904E+03  0.53287995032E+03  0.00000000000E+00 0. -1.
        -11    1    3    3    0    0 -0.14170260022E+01 -0.21154691188E+02  0.10022271848E+02  0.23451542699E+02  0.00000000000E+00 0. -1.
         11    1    3    3    0    0 -0.49017916449E+02  0.91432448831E+02  0.26974152234E+02  0.10719260105E+03  0.00000000000E+00 0.  1.
          1    1    1    2  501    0  0.79491790730E+02 -0.20912718807E+03  0.36404044716E+02  0.22666799522E+03  0.00000000000E+00 0. -1.
<scales pt_clust_5="13000.00000" pt_clust_6="13000.00000" pt_clust_7="13000.00000" pt_clust_8="13000.00000" pt_clust_9="211.70934"></scales>
<clustering>
<clus scale="   80.456">  5  6 -1 -1</clus>
<clus scale="   90.645">  7  8 -1 -1</clus>
<clus scale="  125.296">  2  7  1 -1</clus>
<clus scale="  211.709">  1  9  2 -1</clus>
<clus scale="  211.709">  1  5  2 -1</clus>
</clustering>
</event>
<event>
 9    2  0.1325014E-004  0.1087013E+03  0.7546771E-02  0.1269639E+00
         21   -1    0    0  501  502  0.00000000000E+00  0.00000000000E+00  0.12402551420E+03  0.12402551420E+03  0.00000000000E+00 0.  1.
          2   -1    0    0  502    0 -0.00000000000E+00 -0.00000000000E+00 -0.94961918908E+03  0.94961918908E+03  0.00000000000E+00 0. -1.
         24    2    1    2    0    0  0.11396838325E+02 -0.51546288020E+02 -0.84006653843E+03  0.84538897149E+03  0.78637245568E+02 0.  0.
         23    2    1    2    0    0  0.43216498846E+02  0.10769238350E+03  0.96791714917E+01  0.14978293320E+03  0.94212130222E+02 0.  0.
        -11    1    3    3    0    0  0.25669651363E+02 -0.25666078907E+02 -0.13780461092E+03  0.14250540129E+03  0.00000000000E+00 0.  1.
         12    1    3    3    0    0 -0.14272813038E+02 -0.25880209113E+02 -0.70226192752E+03  0.70288357020E+03  0.00000000000E+00 0. -1.
        -13    1    4    4    0    0  0.37683795434E+02  0.65268197294E+02 -0.39095862414E+02  0.84902841379E+02  0.00000000000E+00 0.  1.
         13    1    4    4    0    0  0.55327034124E+01  0.42424186207E+02  0.48775033906E+02  0.64880091822E+02  0.00000000000E+00 0. -1.
          1    1    1    2  501    0 -0.54613337172E+02 -0.56146095481E+02  0.47936920558E+01  0.78472798588E+02  0.00000000000E+00 0. -1.
<scales pt_clust_5="13000.00000" pt_clust_6="13000.00000" pt_clust_7="13000.00000" pt_clust_8="13000.00000" pt_clust_9="78.32624"></scales>
<clustering>
<clus scale="   78.326">  1  9  2 -1</clus>
<clus scale="   78.637">  5  6 -1 -1</clus>
<clus scale="   94.212">  7  8 -1 -1</clus>
<clus scale="   95.519">  2  5  1 -1</clus>
<clus scale="   78.326">  1  5  2 -1</clus>
</clustering>
</event>
<event>
 9    2  0.1325014E-004  0.1515987E+03  0.7546771E-02  0.1199987E+00
         -1   -1    0    0    0  501 -0.00000000000E+00  0.00000000000E+00  0.38640284682E+03  0.38640284682E+03  0.00000000000E+00 0.  1.
         21   -1    0    0  501  502  0.00000000000E+00 -0.00000000000E+00 -0.78021975868E+02  0.78021975868E+02  0.00000000000E+00 0.  1.
         24    2    1    2    0    0  0.40325193239E+02  0.11731993667E+03  0.20545695670E+03  0.25328599396E+03  0.80939143371E+02 0.  0.
         23    2    1    2    0    0 -0.68838445444E+02 -0.10129090071E+03  0.82096203228E+02  0.17236088278E+03  0.89274347893E+02 0.  0.
        -11    1    3    3    0    0  0.59920904844E+02  0.81964717578E+02  0.17629565126E+03  0.20344258752E+03  0.00000000000E+00 0.  1.
         12    1    3    3    0    0 -0.19595711605E+02  0.35355219089E+02  0.29161305444E+02  0.49843406438E+02  0.00000000000E+00 0. -1.
        -11    1    4    4    0    0  0.52954620210E+01 -0.68640347055E+02  0.50635747066E+02  0.85460622761E+02  0.00000000000E+00 0. -1.
         11    1    4    4    0    0 -0.74133907465E+02 -0.32650553656E+02  0.31460456162E+02  0.86900260023E+02  0.00000000000E+00 0.  1.
         -2    1    1    2    0  502  0.28513252205E+02 -0.16029035956E+02  0.20827711017E+02  0.38777945939E+02  0.00000000000E+00 0.  1.
<scales pt_clust_5="13000.00000" pt_clust_6="13000.00000" pt_clust_7="13000.00000" pt_clust_8="13000.00000" pt_clust_9="32.70987"></scales>
<clustering>
<clus scale="   32.710">  2  9  1 -1</clus>
<clus scale="   80.939">  5  6 -1 -1</clus>
<clus scale="   89.274">  7  8 -1 -1</clus>
<clus scale="  146.845">  1  5  2 -1</clus>
<clus scale="   32.710">  2  5  1 -1</clus>
</clustering>
</event>
<event>
 9    2  0.1325014E-004  0.2409081E+03  0.7546771E-02  0.1119788E+00
          2   -1    0    0  502    0 -0.00000000000E+00  0.00000000000E+00  0.13765291246E+03  0.13765291246E+03  0.00000000000E+00 0. -1.
         21   -1    0    0  501  502  0.00000000000E+00 -0.00000000000E+00 -0.55066174264E+03  0.55066174264E+03  0.00000000000E+00 0.  1.
         24    2    1    2    0    0  0.14171480615E+03 -0.18000096575E+03 -0.69798995441E+02  0.25271496991E+03  0.80681610664E+02 0.  0.
         23    2    1    2    0    0 -0.14437621355E+03  0.15613643050E+03 -0.25508275955E+03  0.34425976779E+03  0.90689015464E+02 0.  0.
        -13    1    3    3    0    0  0.69930114614E+02 -0.14915006689E+03 -0.48906078477E+02  0.17183645683E+03  0.00000000000E+00 0.  1.
         14    1    3    3    0    0  0.71784691533E+02 -0.30850898860E+02 -0.20892916965E+02  0.80878513081E+02  0.00000000000E+00 0. -1.
        -13    1    4    4    0    0 -0.41243645022E+02  0.66335807676E+01 -0.88266801686E+02  0.97652808092E+02  0.00000000000E+00 0.  1.
         13    1    4    4    0    0 -0.10313256853E+03  0.14950284974E+03 -0.16681595787E+03  0.24660695970E+03  0.00000000000E+00 0. -1.
          1    1    1    2  501    0  0.26614074066E+01  0.23864535246E+02 -0.88127075182E+02  0.91339917408E+02  0.00000000000E+00 0. -1.
<scales pt_clust_5="13000.00000" pt_clust_6="13000.00000" pt_clust_7="13000.00000" pt_clust_8="13000.00000" pt_clust_9="24.01248"></scales>
<clustering>
<clus scale="   24.012">  2  9  1 -1</clus>
<clus scale="   80.682">  5  6 -1 -1</clus>
<clus scale="   90.689">  7  8 -1 -1</clus>
<clus scale="  237.322">  1  5  2 -1</clus>
<clus scale="   24.012">  2  5  1 -1</clus>
</clustering>
</event>
<event>
 9    2  0.1325014E-004  0.1928165E+03  0.7546771E-02  0.1178794E+00
         21   -1    0    0  501  502  0.00000000000E+00  0.00000000000E+00  0.18028661167E+03  0.18028661167E+03  0.00000000000E+00 0. -1.
          2   -1    0    0  502    0 -0.00000000000E+00 -0.00000000000E+00 -0.75579479842E+03  0.75579479842E+03  0.00000000000E+00 0. -1.
         24    2    1    2    0    0  0.53648441419E+02  0.59717828646E+02 -0.46426815078E+03  0.47807188297E+03  0.81015030306E+02 0.  0.
         23    2    1    2    0    0  0.10034109534E+03  0.11444461025E+03  0.40832863374E+02  0.18021194025E+03  0.87424918916E+02 0.  0.
        -13    1    3    3    0    0 -0.66110370511E+01  0.50954414049E+02 -0.17119189092E+03  0.17873645861E+03  0.00000000000E+00 0.  1.
         14    1    3    3    0    0  0.60259478470E+02  0.87634145965E+01 -0.29307625986E+03  0.29933542436E+03  0.00000000000E+00 0. -1.
        -11    1    4    4    0    0 -0.43062998329E+01  0.35579447592E+02 -0.13580764600E+02  0.38325950429E+02  0.00000000000E+00 0.  1.
         11    1    4    4    0    0  0.10464739517E+03  0.78865162655E+02  0.54413627974E+02  0.14188598982E+03  0.00000000000E+00 0. -1.
          1    1    1    2  501    0 -0.15398953676E+03 -0.17416243889E+03 -0.15207289934E+03  0.27779758686E+03  0.00000000000E+00 0. -1.
<scales pt_clust_5="13000.00000" pt_clust_6="13000.00000" pt_clust_7="13000.00000" pt_clust_8="13000.00000" pt_clust_9="171.85786"></scales>
<clustering>
<clus scale="   81.015">  5  6 -1 -1</clus>
<clus scale="   87.425">  7  8 -1 -1</clus>
<clus scale="  114.052">  2  5  1 -1</clus>
<clus scale="  171.858">  1  9  2 -1</clus>
<clus scale="  171.858">  1  5  2 -1</clus>
</clustering>
</event>
<event>
 9    2  0.1325014E-004  0.1049635E+03  0.7546771E-02  0.1272057E+00
         -1   -1    0    0    0  501 -0.00000000000E+00  0.00000000000E+00  0.67583717776E+03  0.67583717776E+03  0.00000000000E+00 0.  1.
         21   -1    0    0  501  502  0.00000000000E+00 -0.00000000000E+00 -0.22987949664E+02  0.22987949664E+02  0.00000000000E+00 0.  1.
         23    2    1    2    0    0 -0.30754475519E+02 -0.52515937147E+02  0.38161834140E+03  0.39678356882E+03  0.90004891948E+02 0.  0.
         24    2    1    2    0    0  0.32814364841E+01  0.48417486101E+02  0.24414824751E+03  0.26324678421E+03  0.85647427574E+02 0.  0.
        -13    1    4    4    0    0  0.19760495061E+02  0.54251524839E+02  0.23770354225E+03  0.24461536973E+03  0.00000000000E+00 0.  1.
         14    1    4    4    0    0 -0.16479058577E+02 -0.58340387375E+01  0.64447052622E+01  0.18631414479E+02  0.00000000000E+00 0. -1.
        -13    1    3    3    0    0  0.24672853570E+02  0.72892235796E+01  0.12109522167E+03  0.12379796119E+03  0.00000000000E+00 0. -1.
         13    1    3    3    0    0 -0.55427329089E+02 -0.59805160726E+02  0.26052311973E+03  0.27298560763E+03  0.00000000000E+00 0.  1.
         -2    1    1    2    0  502  0.27473039035E+02  0.40984510453E+01  0.27082639187E+02  0.38794774392E+02  0.00000000000E+00 0.  1.
<scales pt_clust_5="13000.00000" pt_clust_6="13000.00000" pt_clust_7="13000.00000" pt_clust_8="13000.00000" pt_clust_9="27.77706"></scales>
<clustering>
<clus scale="   27.777">  2  9  1 -1</clus>
<clus scale="   85.647">  5  6 -1 -1</clus>
<clus scale="   90.005">  7  8 -1 -1</clus>
<clus scale="  101.252">  2  5  1 -1</clus>
<clus scale="   27.777">  2  5  1 -1</clus>
</clustering>
</event>
<event>
 9    2  0.1325014E-004  0.1039072E+03  0.7546771E-02  0.1288449E+00
         21   -1    0    0  501  502  0.00000000000E+00  0.00000000000E+00  0.47558233079E+03  0.47558233079E+03  0.00000000000E+00 0. -1.
          2   -1    0    0  502    0 -0.00000000000E+00 -0.00000000000E+00 -0.62371469106E+02  0.62371469106E+02  0.00000000000E+00 0. -1.
         24    2    1    2    0    0 -0.16560332682E+02  0.38997409286E+02 -0.17243068222E+02  0.77002996125E+02  0.61944293207E+02 0.  0.
         23    2    1    2    0    0  0.97525977184E+01 -0.76700712944E+02  0.36928631169E+03  0.38877489450E+03  0.93783932835E+02 0.  0.
        -11    1    3    3    0    0 -0.31951811087E+02  0.18764333900E+02 -0.30807703501E+02  0.48188515784E+02  0.00000000000E+00 0.  1.
         12    1    3    3    0    0  0.15391478405E+02  0.20233075385E+02  0.13564635279E+02  0.28814480340E+02  0.00000000000E+00 0. -1.
        -13    1    4    4    0    0  0.34458245528E+02 -0.77607527767E+01  0.50126737803E+02  0.61321201972E+02  0.00000000000E+00 0.  1.
         13    1    4    4    0    0 -0.24705647810E+02 -0.68939960167E+02  0.31915957389E+03  0.32745369252E+03  0.00000000000E+00 0. -1.
          1    1    1    2  501    0  0.68077349634E+01  0.37703303659E+02  0.61167618218E+02  0.72175909281E+02  0.00000000000E+00 0. -1.
<scales pt_clust_5="13000.00000" pt_clust_6="13000.00000" pt_clust_7="13000.00000" pt_clust_8="13000.00000" pt_clust_9="38.31298"></scales>
<clustering>
<clus scale="   38.313">  1  9  2 -1</clus>
<clus scale="   61.944">  5  6 -1 -1</clus>
<clus scale="   76.409">  2  5  1 -1</clus>
<clus scale="   93.784">  7  8 -1 -1</clus>
<clus scale="   38.313">  1  5  2 -1</clus>
</clustering>
</event>
<event>
 9    2  0.1325014E-004  0.1838402E+03  0.7546771E-02  0.1166151E+00
         21   -1    0    0  501  502  0.00000000000E+00  0.00000000000E+00  0.75141048041E+02  0.75141048041E+02  0.00000000000E+00 0. -1.
          2   -1    0    0  502    0 -0.00000000000E+00 -0.00000000000E+00 -0.90688407184E+03  0.90688407184E+03  0.00000000000E+00 0. -1.
         24    2    1    2    0    0 -0.15240566702E+03 -0.45091504582E+02 -0.69418642173E+03  0.71633799723E+03  0.77360241935E+02 0.  0.
         23    2    1    2    0    0  0.13939151294E+03  0.64268632884E+02 -0.15406423148E+03  0.23723308453E+03  0.94780261246E+02 0.  0.
        -13    1    3    3    0    0 -0.14188357085E+03 -0.55989266619E+02 -0.53167561985E+03  0.55312269018E+03  0.00000000000E+00 0.  1.
         14    1    3    3    0    0 -0.10522096166E+02  0.10897762037E+02 -0.16251080189E+03  0.16321530705E+03  0.00000000000E+00 0. -1.
        -11    1    4    4    0    0  0.21210497726E+02 -0.16725649112E+02 -0.22731287516E+00  0.27012667827E+02  0.00000000000E+00 0.  1.
         11    1    4    4    0    0  0.11818101522E+03  0.80994281996E+02 -0.15383691860E+03  0.21022041670E+03  0.00000000000E+00 0. -1.
          1    1    1    2  501    0  0.13014154079E+02 -0.19177128302E+02  0.16507629414E+02  0.28454038117E+02  0.00000000000E+00 0. -1.
<scales pt_clust_5="13000.00000" pt_clust_6="13000.00000" pt_clust_7="13000.00000" pt_clust_8="13000.00000" pt_clust_9="23.17608"></scales>
<clustering>
<clus scale="   23.176">  1  9  2 -1</clus>
<clus scale="   77.360">  5  6 -1 -1</clus>
<clus scale="   94.780">  7  8 -1 -1</clus>
<clus scale="  175.495">  2  5  1 -1</clus>
<clus scale="   23.176">  1  5  2 -1</clus>
</clustering>
</event>
<event>
 9    2  0.1325014E-004  0.1169724E+03  0.7546771E-02  0.1250065E+00
          2   -1    0    0  502    0 -0.00000000000E+00  0.00000000000E+00  0.16421381432E+03  0.16421381432E+03  0.00000000000E+00 0. -1.
         21   -1    0    0  501  502  0.00000000000E+00 -0.00000000000E+00 -0.11390746143E+03  0.11390746143E+03  0.00000000000E+00 0.  1.
         24    2    1    2    0    0  0.39874086768E+02 -0.79794046129E+02  0.50636835794E+02  0.13264416152E+03  0.84103221418E+02 0.  0.
         23    2    1    2    0    0 -0.37403321238E+02  0.41839982257E+02 -0.95327099127E+01  0.10634532883E+03  0.89826854846E+02 0.  0.
        -11    1    3    3    0    0  0.51362140632E+02 -0.10655172498E+02  0.19696289330E+02  0.56031651811E+02  0.00000000000E+00 0.  1.
         12    1    3    3    0    0 -0.11488053864E+02 -0.69138873631E+02  0.30940546464E+02  0.76612509710E+02  0.00000000000E+00 0. -1.
        -13    1    4    4    0    0 -0.49207130125E+02  0.24661234632E+02 -0.40977530021E+02  0.68619793903E+02  0.00000000000E+00 0.  1.
         13    1    4    4    0    0  0.11803808887E+02  0.17178747625E+02  0.31444820108E+02  0.37725534931E+02  0.00000000000E+00 0. -1.
          1    1    1    2  501    0 -0.24707655298E+01  0.37954063872E+02  0.92022270115E+01  0.39131785401E+02  0.00000000000E+00 0. -1.
<scales pt_clust_5="13000.00000" pt_clust_6="13000.00000" pt_clust_7="13000.00000" pt_clust_8="13000.00000" pt_clust_9="38.03442"></scales>
<clustering>
<clus scale="   38.034">  2  9  1 -1</clus>
<clus scale="   84.103">  5  6 -1 -1</clus>
<clus scale="   89.827">  7  8 -1 -1</clus>
<clus scale="  112.637">  1  5  2 -1</clus>
<clus scale="   38.034">  2  5  1 -1</clus>
</clustering>
</event>
<event>
 9    2  0.1325014E-004  0.1098696E+03  0.7546771E-02  0.1264658E+00
         21   -1    0    0  501  502  0.00000000000E+00  0.00000000000E+00  0.33311704635E+02  0.33311704635E+02  0.00000000000E+00 0.  1.
         -1   -1    0    0    0  501 -0.00000000000E+00 -0.00000000000E+00 -0.69610268173E+03  0.69610268173E+03  0.00000000000E+00 0.  1.
         23    2    1    2    0    0  0.11713862050E+02 -0.77886572635E+02 -0.45779552999E+03  0.47339109123E+03  0.91207703728E+02 0.  0.
         24    2    1    2    0    0  0.26732274443E+02  0.27913349517E+02 -0.11441273804E+03  0.14565728759E+03  0.81437099796E+02 0.  0.
        -11    1    4    4    0    0  0.55836280137E+02  0.17764401570E+02 -0.83465599679E+02  0.10197926491E+03  0.00000000000E+00 0.  1.
         12    1    4    4    0    0 -0.29104005694E+02  0.10148947946E+02 -0.30947138363E+02  0.43678022674E+02  0.00000000000E+00 0. -1.
        -11    1    3    3    0    0  0.39768046319E+02 -0.43884924587E+01 -0.19549080753E+03  0.19954300841E+03  0.00000000000E+00 0.  1.
         11    1    3    3    0    0 -0.28054184269E+02 -0.73498080176E+02 -0.26230472246E+03  0.27384808283E+03  0.00000000000E+00 0. -1.
         -2    1    1    2    0  502 -0.38446136493E+02  0.49973223118E+02 -0.90582709061E+02  0.11036600754E+03  0.00000000000E+00 0.  1.
<scales pt_clust_5="13000.00000" pt_clust_6="13000.00000" pt_clust_7="13000.00000" pt_clust_8="13000.00000" pt_clust_9="63.05100"></scales>
<clustering>
<clus scale="   63.051">  1  9  2 -1</clus>
<clus scale="   81.437">  5  6 -1 -1</clus>
<clus scale="   91.208">  7  8 -1 -1</clus>
<clus scale="  101.904">  1  5  2 -1</clus>
<clus scale="   63.051">  1  5  2 -1</clus>
</clustering>
</event>
<event>
 9    2  0.1325014E-004  0.1430330E+03  0.7546771E-02  0.1211449E+00
         21   -1    0    0  501  502  0.00000000000E+00  0.00000000000E+00  0.73148802882E+02  0.73148802882E+02  0.00000000000E+00 0. -1.
          2   -1    0    0  502    0 -0.00000000000E+00 -0.00000000000E+00 -0.15528006341E+04  0.15528006341E+04  0.00000000000E+00 0. -1.
         24    2    1    2    0    0 -0.30512294956E+02 -0.99645544574E+02 -0.10431836610E+04  0.10514393630E+04  0.80201925071E+02 0.  0.
         23    2    1    2    0    0  0.48742350433E+02  0.19893410854E+03 -0.14693607831E+03  0.26788426604E+03  0.90670682228E+02 0.  0.
        -13    1    3    3    0    0  0.16550266146E+02 -0.22368734630E+02 -0.96211160938E+02  0.10015417659E+03  0.00000000000E+00 0.  1.
         14    1    3    3    0    0 -0.47062561102E+02 -0.77276809945E+02 -0.94697250004E+03  0.95128518639E+03  0.00000000000E+00 0. -1.
        -13    1    4    4    0    0  0.66983782210E+02  0.93667046945E+02 -0.58320034686E+02  0.12907970099E+03  0.00000000000E+00 0.  1.
         13    1    4    4    0    0 -0.18241431778E+02  0.10526706159E+03 -0.88616043623E+02  0.13880456504E+03  0.00000000000E+00 0. -1.
          1    1    1    2  501    0 -0.18230055477E+02 -0.99288563963E+02 -0.28953209197E+03  0.30662580801E+03  0.00000000000E+00 0. -1.
<scales pt_clust_5="13000.00000" pt_clust_6="13000.00000" pt_clust_7="13000.00000" pt_clust_8="13000.00000" pt_clust_9="100.94832"></scales>
<clustering>
<clus scale="   80.202">  5  6 -1 -1</clus>
<clus scale="   90.671">  7  8 -1 -1</clus>
<clus scale="  100.948">  1  9  2 -1</clus>
<clus scale="  136.637">  2  5  1 -1</clus>
<clus scale="  100.948">  1  5  2 -1</clus>
</clustering>
</event>
<event>
 9    2  0.1325014E-004  0.3125070E+03  0.7546771E-02  0.1106458E+00
         21   -1    0    0  501  502  0.00000000000E+00  0.00000000000E+00  0.15639449435E+03  0.15639449435E+03  0.00000000000E+00 0. -1.
          2   -1    0    0  502    0 -0.00000000000E+00 -0.00000000000E+00 -0.11914977423E+04  0.11914977423E+04  0.00000000000E+00 0. -1.
         24    2    1    2    0    0  0.94834613889E+01 -0.13054410123E+03 -0.25355455298E+02  0.15447732540E+03  0.78029779857E+02 0.  0.
         23    2    1    2    0    0 -0.39638055978E+02 -0.24268274954E+03 -0.42423084602E+03  0.49840579152E+03  0.89277264194E+02 0.  0.
        -13    1    3    3    0    0  0.36660081387E+02 -0.38511621528E+02 -0.24423437748E+02  0.58511630224E+02  0.00000000000E+00 0.  1.
         14    1    3    3    0    0 -0.27176619998E+02 -0.92032479702E+02 -0.93201755050E+00  0.95965695180E+02  0.00000000000E+00 0. -1.
        -11    1    4    4    0    0 -0.92792493685E+01 -0.56321857330E+02 -0.18518753043E+03  0.19378513232E+03  0.00000000000E+00 0.  1.
         11    1    4    4    0    0 -0.30358806609E+02 -0.18636089221E+03 -0.23904331560E+03  0.30462065921E+03  0.00000000000E+00 0. -1.
          1    1    1    2  501    0  0.30154594589E+02  0.37322685077E+03 -0.58551694661E+03  0.69500911971E+03  0.00000000000E+00 0. -1.
<scales pt_clust_5="13000.00000" pt_clust_6="13000.00000" pt_clust_7="13000.00000" pt_clust_8="13000.00000" pt_clust_9="299.48335"></scales>
<clustering>
<clus scale="   78.030">  5  6 -1 -1</clus>
<clus scale="   89.277">  7  8 -1 -1</clus>
<clus scale="  152.382">  2  5  1 -1</clus>
<clus scale="  299.483">  1  9  2 -1</clus>
<clus scale="  299.483">  1  5  2 -1</clus>
</clustering>
</event>
<event>
 9    2  0.1325014E-004  0.1302952E+03  0.7546771E-02  0.1243935E+00
         21   -1    0    0  501  502  0.00000000000E+00  0.00000000000E+00  0.33078289549E+02  0.33078289549E+02  0.00000000000E+00 0.  1.
          2   -1    0    0  502    0 -0.00000000000E+00 -0.00000000000E+00 -0.93209996823E+03  0.93209996823E+03  0.00000000000E+00 0. -1.
         24    2    1    2    0    0 -0.18192390405E+02 -0.44695644064E+02 -0.24662837186E+03  0.26328893299E+03  0.78529260553E+02 0.  0.
         23    2    1    2    0    0  0.19898896776E+02 -0.76979496370E+02 -0.20463555461E+03  0.23789066463E+03  0.91621226541E+02 0.  0.
        -11    1    3    3    0    0 -0.43820804103E+02 -0.84865143704E+01 -0.89414074770E+02  0.99935782207E+02  0.00000000000E+00 0.  1.
         12    1    3    3    0    0  0.25628413699E+02 -0.36209129694E+02 -0.15721429709E+03  0.16335315079E+03  0.00000000000E+00 0. -1.
        -11    1    4    4    0    0 -0.29007856371E+02 -0.60848462182E+02 -0.13882609537E+03  0.15432652344E+03  0.00000000000E+00 0. -1.
         11    1    4    4    0    0  0.48906753147E+02 -0.16131034188E+02 -0.65809459242E+02  0.83564141192E+02  0.00000000000E+00 0.  1.
          1    1    1    2  501    0 -0.17065063713E+01  0.12167514043E+03 -0.44775775221E+03  0.46399866016E+03  0.00000000000E+00 0. -1.
<scales pt_clust_5="13000.00000" pt_clust_6="13000.00000" pt_clust_7="13000.00000" pt_clust_8="13000.00000" pt_clust_9="92.64130"></scales>
<clustering>
<clus scale="   78.529">  5  6 -1 -1</clus>
<clus scale="   91.621">  7  8 -1 -1</clus>
<clus scale="   92.171">  2  5  1 -1</clus>
<clus scale="   92.641">  1  9  2 -1</clus>
<clus scale="   92.641">  1  5  2 -1</clus>
</clustering>
</event>
<event>
 9    2  0.1325014E-004  0.9273165E+02  0.7546771E-02  0.1302413E+00
          2   -1    0    0  502    0 -0.00000000000E+00  0.00000000000E+00  0.29608677770E+03  0.29608677770E+03  0.00000000000E+00 0. -1.
         21   -1    0    0  501  502  0.00000000000E+00 -0.00000000000E+00 -0.13886574422E+03  0.13886574422E+03  0.00000000000E+00 0. -1.
         23    2    1    2    0    0  0.15641265600E+02  0.11478307222E+02  0.24770527926E+03  0.26466779187E+03  0.91185163014E+02 0.  0.
         24    2    1    2    0    0  0.13726717026E+02 -0.18798474577E+02 -0.10951424722E+02  0.85187533378E+02  0.81210693464E+02 0.  0.
        -13    1    4    4    0    0 -0.22710288632E+02 -0.14278461980E+02  0.22882323479E+02  0.35259501047E+02  0.00000000000E+00 0.  1.
         14    1    4    4    0    0  0.36437005657E+02 -0.45200125964E+01 -0.33833748201E+02  0.49928032332E+02  0.00000000000E+00 0. -1.
        -13    1    3    3    0    0  0.30520361710E+01 -0.38355801016E+02  0.72487027857E+02  0.82066141642E+02  0.00000000000E+00 0. -1.
         13    1    3    3    0    0  0.12589229429E+02  0.49834108238E+02  0.17521825141E+03  0.18260165023E+03  0.00000000000E+00 0.  1.
          1    1    1    2  501    0 -0.29367982626E+02  0.73201673552E+01 -0.79532821069E+02  0.85097196668E+02  0.00000000000E+00 0. -1.
<scales pt_clust_5="13000.00000" pt_clust_6="13000.00000" pt_clust_7="13000.00000" pt_clust_8="13000.00000" pt_clust_9="30.26654"></scales>
<clustering>
<clus scale="   30.267">  2  9  1 -1</clus>
<clus scale="   81.211">  5  6 -1 -1</clus>
<clus scale="   82.943">  2  5  1 -1</clus>
<clus scale="   91.185">  7  8 -1 -1</clus>
<clus scale="   30.267">  2  5  1 -1</clus>
</clustering>
</event>
<event>
 9    2  0.1325014E-004  0.1922770E+03  0.7546771E-02  0.1157471E+00
         21   -1    0    0  501  502  0.00000000000E+00  0.00000000000E+00  0.84074204083E+03  0.84074204083E+03  0.00000000000E+00 0.  1.
         -1   -1    0    0    0  501 -0.00000000000E+00 -0.00000000000E+00 -0.61627977626E+02  0.61627977626E+02  0.00000000000E+00 0.  1.
         24    2    1    2    0    0 -0.85482127692E+02  0.11384078653E+03  0.25718718908E+03  0.30587983892E+03  0.84559486726E+02 0.  0.
         23    2    1    2    0    0  0.11593109847E+03 -0.16725567564E+03  0.37157184443E+03  0.43404965149E+03  0.94440371448E+02 0.  0.
        -11    1    3    3    0    0 -0.33003785115E+02  0.19329132364E+02  0.15783349922E+02  0.41376071885E+02  0.00000000000E+00 0.  1.
         12    1    3    3    0    0 -0.52478342577E+02  0.94511654166E+02  0.24140383916E+03  0.26450376703E+03  0.00000000000E+00 0. -1.
        -13    1    4    4    0    0  0.83006197470E+02 -0.44228153430E+02  0.19320099633E+03  0.21487853163E+03  0.00000000000E+00 0.  1.
         13    1    4    4    0    0  0.32924900996E+02 -0.12302752221E+03  0.17837084810E+03  0.21917111985E+03  0.00000000000E+00 0. -1.
         -2    1    1    2    0  502 -0.30448970773E+02  0.53414889108E+02  0.15035502969E+03  0.16244052805E+03  0.00000000000E+00 0.  1.
<scales pt_clust_5="13000.00000" pt_clust_6="13000.00000" pt_clust_7="13000.00000" pt_clust_8="13000.00000" pt_clust_9="61.48406"></scales>
<clustering>
<clus scale="   61.484">  1  9  2 -1</clus>
<clus scale="   84.559">  5  6 -1 -1</clus>
<clus scale="   94.440">  7  8 -1 -1</clus>
<clus scale="  187.621">  2  5  1 -1</clus>
<clus scale="   61.484">  1  5  2 -1</clus>
</clustering>
</event>
<event>
 9    2  0.1325014E-004  0.1464714E+03  0.7546771E-02  0.1205672E+00
          2   -1    0    0  502    0 -0.00000000000E+00  0.00000000000E+00  0.75659045618E+03  0.75659045618E+03  0.00000000000E+00 0. -1.
         21   -1    0    0  501  502  0.00000000000E+00 -0.00000000000E+00 -0.84311762692E+02  0.84311762692E+02  0.00000000000E+00 0. -1.
         24    2    1    2    0    0  0.77689782929E+01  0.13734224814E+03  0.34593090548E+03  0.38060466768E+03  0.79173679647E+02 0.  0.
         23    2    1    2    0    0  0.11368107258E+03 -0.63361820281E+02  0.75934419758E+02  0.17232173005E+03  0.83610023390E+02 0.  0.
        -13    1    3    3    0    0  0.82147668335E+01  0.71297016683E+02  0.84043123160E+02  0.11051693776E+03  0.00000000000E+00 0.  1.
         14    1    3    3    0    0 -0.44578854061E+00  0.66045231459E+02  0.26188778232E+03  0.27008772992E+03  0.00000000000E+00 0. -1.
        -11    1    4    4    0    0  0.11912065339E+03 -0.34442094691E+02  0.69682902795E+02  0.14223816257E+03  0.00000000000E+00 0. -1.
         11    1    4    4    0    0 -0.54395808122E+01 -0.28919725590E+02  0.62515169631E+01  0.30083567474E+02  0.00000000000E+00 0.  1.
          1    1    1    2  501    0 -0.12145005087E+03 -0.73980427862E+02  0.25041336825E+03  0.28797582114E+03  0.00000000000E+00 0. -1.
<scales pt_clust_5="13000.00000" pt_clust_6="13000.00000" pt_clust_7="13000.00000" pt_clust_8="13000.00000" pt_clust_9="142.20843"></scales>
<clustering>
<clus scale="   79.174">  5  6 -1 -1</clus>
<clus scale="   83.610">  7  8 -1 -1</clus>
<clus scale="  142.208">  2  9  1 -1</clus>
<clus scale="  143.985">  1  5  2 -1</clus>
<clus scale="  142.208">  2  5  1 -1</clus>
</clustering>
</event>
<event>
 9    2  0.1325014E-004  0.1199927E+03  0.7546771E-02  0.1246202E+00
          2   -1    0    0  502    0 -0.00000000000E+00  0.00000000000E+00  0.22178364256E+03  0.22178364256E+03  0.00000000000E+00 0. -1.
         21   -1    0    0  501  502  0.00000000000E+00 -0.00000000000E+00 -0.23474162313E+03  0.23474162313E+03  0.00000000000E+00 0. -1.
         23    2    1    2    0    0 -0.75777618747E+02 -0.49391397605E+02  0.13371630913E+03  0.18534242102E+03  0.91049459330E+02 0.  0.
         24    2    1    2    0    0  0.69783912051E+02 -0.38166435831E+02 -0.17543709745E+02  0.11505147244E+03  0.81256312705E+02 0.  0.
        -13    1    4    4    0    0  0.78257247024E+02 -0.38507090260E+01 -0.11468955679E+02  0.79186877803E+02  0.00000000000E+00 0.  1.
         14    1    4    4    0    0 -0.84733349727E+01 -0.34315726805E+02 -0.60747540658E+01  0.35864594640E+02  0.00000000000E+00 0. -1.
        -11    1    3    3    0    0 -0.69635848591E+02 -0.71334686239E+02  0.12726406263E+03  0.16165992239E+03  0.00000000000E+00 0. -1.
         11    1    3    3    0    0 -0.61417701553E+01  0.21943288635E+02  0.64522464978E+01  0.23682498635E+02  0.00000000000E+00 0.  1.
          1    1    1    2  501    0  0.59937066956E+01  0.87557833436E+02 -0.12913057995E+03  0.15613137223E+03  0.00000000000E+00 0. -1.
<scales pt_clust_5="13000.00000" pt_clust_6="13000.00000" pt_clust_7="13000.00000" pt_clust_8="13000.00000" pt_clust_9="87.76274"></scales>
<clustering>
<clus scale="   81.256">  5  6 -1 -1</clus>
<clus scale="   87.763">  2  9  1 -1</clus>
<clus scale="   91.049">  7  8 -1 -1</clus>
<clus scale="  112.742">  2  5  1 -1</clus>
<clus scale="   87.763">  2  5  1 -1</clus>
</clustering>
</event>
<event>
 9    2  0.1325014E-004  0.9436652E+02  0.7546771E-02  0.1299379E+00
         21   -1    0    0  501  502  0.00000000000E+00  0.00000000000E+00  0.10482410737E+03  0.10482410737E+03  0.00000000000E+00 0.  1.
         -1   -1    0    0    0  501 -0.00000000000E+00 -0.00000000000E+00 -0.15677518304E+03  0.15677518304E+03  0.00000000000E+00 0.  1.
         24    2    1    2    0    0  0.33628355560E+02  0.29777324444E+02 -0.56272397261E+02  0.10754650278E+03  0.79888123131E+02 0.  0.
         23    2    1    2    0    0  0.79070003295E+01  0.14738988677E+02 -0.79164622595E+00  0.92954257677E+02  0.91433630985E+02 0.  0.
        -11    1    3    3    0    0  0.96516284859E+00  0.27235888851E+02 -0.67595831490E+02  0.72882930894E+02  0.00000000000E+00 0.  1.
         12    1    3    3    0    0  0.32663192711E+02  0.25414355930E+01  0.11323434229E+02  0.34663571883E+02  0.00000000000E+00 0. -1.
        -11    1    4    4    0    0  0.43118569932E+02 -0.13905432235E+02  0.97785833858E+01  0.46348600968E+02  0.00000000000E+00 0. -1.
         11    1    4    4    0    0 -0.35211569602E+02  0.28644420912E+02 -0.10570229612E+02  0.46605656709E+02  0.00000000000E+00 0.  1.
         -2    1    1    2    0  502 -0.41535355889E+02 -0.44516313120E+02  0.51129678144E+01  0.61098529954E+02  0.00000000000E+00 0.  1.
<scales pt_clust_5="13000.00000" pt_clust_6="13000.00000" pt_clust_7="13000.00000" pt_clust_8="13000.00000" pt_clust_9="60.88422"></scales>
<clustering>
<clus scale="   60.884">  1  9  2 -1</clus>
<clus scale="   79.888">  5  6 -1 -1</clus>
<clus scale="   83.229">  2  5  1 -1</clus>
<clus scale="   91.434">  7  8 -1 -1</clus>
<clus scale="   60.884">  1  5  2 -1</clus>
</clustering>
</event>
<event>
 9    2  0.1325014E-004  0.4823843E+03  0.7546771E-02  0.1018594E+00
         21   -1    0    0  501  502  0.00000000000E+00  0.00000000000E+00  0.19785385641E+04  0.19785385641E+04  0.00000000000E+00 0. -1.
          2   -1    0    0  502    0 -0.00000000000E+00 -0.00000000000E+00 -0.14421726567E+03  0.14421726567E+03  0.00000000000E+00 0. -1.
         24    2    1    2    0    0  0.36783861965E+03  0.32250708754E+03  0.82533314289E+03  0.96304037802E+03  0.83402046309E+02 0.  0.
         23    2    1    2    0    0 -0.35365443798E+03 -0.28603592549E+03  0.10186539312E+04  0.11194070917E+04  0.92349299418E+02 0.  0.
        -13    1    3    3    0    0  0.52087809845E+02  0.57186234887E+02  0.80457255576E+02  0.11160992505E+03  0.00000000000E+00 0.  1.
         14    1    3    3    0    0  0.31575080981E+03  0.26532085265E+03  0.74487588731E+03  0.85143045297E+03  0.00000000000E+00 0. -1.
        -11    1    4    4    0    0 -0.33461526034E+02 -0.46186677302E+02  0.73215651813E+02  0.92808483207E+02  0.00000000000E+00 0.  1.
         11    1    4    4    0    0 -0.32019291195E+03 -0.23984924818E+03  0.94543827943E+03  0.10265986085E+04  0.00000000000E+00 0. -1.
          1    1    1    2  501    0 -0.14184181669E+02 -0.36471162049E+02 -0.96657757052E+01  0.40308360061E+02  0.00000000000E+00 0. -1.
<scales pt_clust_5="13000.00000" pt_clust_6="13000.00000" pt_clust_7="13000.00000" pt_clust_8="13000.00000" pt_clust_9="39.13232"></scales>
<clustering>
<clus scale="   39.132">  1  9  2 -1</clus>
<clus scale="   83.402">  5  6 -1 -1</clus>
<clus scale="   92.349">  7  8 -1 -1</clus>
<clus scale="  480.752">  2  5  1 -1</clus>
<clus scale="   39.132">  1  5  2 -1</clus>
</clustering>
</event>
<event>
 9    2  0.1325014E-004  0.1149711E+03  0.7546771E-02  0.1255115E+00
          2   -1    0    0  502    0 -0.00000000000E+00  0.00000000000E+00  0.34477866305E+03  0.34477866305E+03  0.00000000000E+00 0. -1.
         21   -1    0    0  501  502  0.00000000000E+00 -0.00000000000E+00 -0.88072870779E+02  0.88072870779E+02  0.00000000000E+00 0.  1.
         23    2    1    2    0    0  0.42832089518E+02 -0.61924021332E+02  0.23870973476E+03  0.26637975650E+03  0.91140906796E+02 0.  0.
         24    2    1    2    0    0 -0.18987713752E+02  0.57963900147E+02  0.60023988984E+02  0.11798895729E+03  0.81229106825E+02 0.  0.
        -11    1    4    4    0    0 -0.37115100919E+02  0.41874234529E+02  0.30092132143E+01  0.56036038384E+02  0.00000000000E+00 0.  1.
         12    1    4    4    0    0  0.18127387167E+02  0.16089665618E+02  0.57014775770E+02  0.61952918909E+02  0.00000000000E+00 0. -1.
        -11    1    3    3    0    0  0.49355127799E+02 -0.81721212782E+02  0.21195838670E+03  0.23246643403E+03  0.00000000000E+00 0. -1.
         11    1    3    3    0    0 -0.65230382809E+01  0.19797191449E+02  0.26751348066E+02  0.33913322471E+02  0.00000000000E+00 0.  1.
          1    1    1    2  501    0 -0.23844375766E+02  0.39601211852E+01 -0.42027931471E+02  0.48482820042E+02  0.00000000000E+00 0. -1.
<scales pt_clust_5="13000.00000" pt_clust_6="13000.00000" pt_clust_7="13000.00000" pt_clust_8="13000.00000" pt_clust_9="24.17099"></scales>
<clustering>
<clus scale="   24.171">  2  9  1 -1</clus>
<clus scale="   81.229">  5  6 -1 -1</clus>
<clus scale="   91.141">  7  8 -1 -1</clus>
<clus scale="  107.284">  2  5  1 -1</clus>
<clus scale="   24.171">  2  5  1 -1</clus>
</clustering>
</event>
<event>
 9    2  0.1325014E-004  0.1264304E+03  0.7546771E-02  0.1235986E+00
         21   -1    0    0  501  502  0.00000000000E+00  0.00000000000E+00  0.18211374799E+03  0.18211374799E+03  0.00000000000E+00 0.  1.
          2   -1    0    0  502    0 -0.00000000000E+00 -0.00000000000E+00 -0.33841968459E+03  0.33841968459E+03  0.00000000000E+00 0. -1.
         23    2    1    2    0    0 -0.14951404996E+02  0.85281554436E+02 -0.26444048844E+03  0.29275199858E+03  0.90986112722E+02 0.  0.
         24    2    1    2    0    0  0.66592044997E+02 -0.88513099264E+02  0.11108931869E+03  0.17595548269E+03  0.79689559942E+02 0.  0.
        -11    1    4    4    0    0  0.67172614287E+02 -0.76579644985E+02  0.49569196532E+02  0.11328595403E+03  0.00000000000E+00 0.  1.
         12    1    4    4    0    0 -0.58056929079E+00 -0.11933454279E+02  0.61520122161E+02  0.62669528660E+02  0.00000000000E+00 0. -1.
        -13    1    3    3    0    0 -0.30535320602E+02  0.98141532851E+02 -0.23971709449E+03  0.26082264408E+03  0.00000000000E+00 0. -1.
         13    1    3    3    0    0  0.15583915606E+02 -0.12859978415E+02 -0.24723393959E+02  0.31929354508E+02  0.00000000000E+00 0.  1.
          1    1    1    2  501    0 -0.51640640001E+02  0.32315448274E+01 -0.29547668542E+01  0.51825951307E+02  0.00000000000E+00 0. -1.
<scales pt_clust_5="13000.00000" pt_clust_6="13000.00000" pt_clust_7="13000.00000" pt_clust_8="13000.00000" pt_clust_9="51.74165"></scales>
<clustering>
<clus scale="   51.742">  1  9  2 -1</clus>
<clus scale="   79.690">  5  6 -1 -1</clus>
<clus scale="   90.986">  7  8 -1 -1</clus>
<clus scale="  118.561">  1  5  2 -1</clus>
<clus scale="   51.742">  1  5  2 -1</clus>
</clustering>
</event>
<event>
 9    2  0.1325014E-004  0.7845469E+02  0.7546771E-02  0.1335182E+00
         21   -1    0    0  501  502  0.00000000000E+00  0.00000000000E+00  0.31620465955E+02  0.31620465955E+02  0.00000000000E+00 0.  1.
          2   -1    0    0  502    0 -0.00000000000E+00 -0.00000000000E+00 -0.44750533490E+03  0.44750533490E+03  0.00000000000E+00 0. -1.
         23    2    1    2    0    0  0.14929427395E+01 -0.76092495254E+01 -0.30540227710E+03  0.31482456186E+03  0.76051458491E+02 0.  0.
         24    2    1    2    0    0  0.95183547173E+01 -0.13020777253E+02 -0.38783082597E+02  0.88884620777E+02  0.78333955588E+02 0.  0.
        -13    1    4    4    0    0  0.19444076557E+02 -0.43647282538E+02 -0.23197018081E+02  0.53115525357E+02  0.00000000000E+00 0.  1.
         14    1    4    4    0    0 -0.99257218394E+01  0.30626505285E+02 -0.15586064516E+02  0.35769095419E+02  0.00000000000E+00 0. -1.
        -13    1    3    3    0    0  0.37816634681E+02 -0.73627166098E+01 -0.12503883841E+03  0.13083966740E+03  0.00000000000E+00 0. -1.
         13    1    3    3    0    0 -0.36323691941E+02 -0.24653291561E+00 -0.18036343869E+03  0.18398489446E+03  0.00000000000E+00 0.  1.
          1    1    1    2  501    0 -0.11011297457E+02  0.20630026778E+02 -0.71699509247E+02  0.75416618214E+02  0.00000000000E+00 0. -1.
<scales pt_clust_5="13000.00000" pt_clust_6="13000.00000" pt_clust_7="13000.00000" pt_clust_8="13000.00000" pt_clust_9="23.38476"></scales>
<clustering>
<clus scale="   23.385">  1  9  2 -1</clus>
<clus scale="   76.051">  7  8 -1 -1</clus>
<clus scale="   76.176">  2  7  1 -1</clus>
<clus scale="   78.334">  5  6 -1 -1</clus>
<clus scale="   23.385">  1  5  2 -1</clus>
</clustering>
</event>
<event>
 9    2  0.1325014E-004  0.1115353E+03  0.7546771E-02  0.1262153E+00
         21   -1    0    0  501  502  0.00000000000E+00  0.00000000000E+00  0.88879214043E+02  0.88879214043E+02  0.00000000000E+00 0.  1.
          2   -1    0    0  502    0 -0.00000000000E+00 -0.00000000000E+00 -0.22805861692E+03  0.22805861692E+03  0.00000000000E+00 0. -1.
         24    2    1    2    0    0 -0.64152307200E+02  0.29767843322E+02 -0.13590164462E+03  0.17294819476E+03  0.80250719894E+02 0.  0.
         23    2    1    2    0    0  0.46916785292E+02 -0.12641960838E+02 -0.29814693556E+02  0.10800953058E+03  0.91739516176E+02 0.  0.
        -13    1    3    3    0    0 -0.80184569128E+02  0.19288958335E+02 -0.84417063370E+02  0.11801639559E+03  0.00000000000E+00 0.  1.
         14    1    3    3    0    0  0.16032261928E+02  0.10478884986E+02 -0.51484581251E+02  0.54931799167E+02  0.00000000000E+00 0. -1.
        -13    1    4    4    0    0  0.51861297378E+02  0.28301377128E+02 -0.31064011265E+02  0.66749793325E+02  0.00000000000E+00 0. -1.
         13    1    4    4    0    0 -0.49445120863E+01 -0.40943337966E+02  0.12493177083E+01  0.41259737254E+02  0.00000000000E+00 0.  1.
          1    1    1    2  501    0  0.17235521908E+02 -0.17125882484E+02  0.26536935297E+02  0.35980105632E+02  0.00000000000E+00 0. -1.
<scales pt_clust_5="13000.00000" pt_clust_6="13000.00000" pt_clust_7="13000.00000" pt_clust_8="13000.00000" pt_clust_9="24.29731"></scales>
<clustering>
<clus scale="   24.297">  1  9  2 -1</clus>
<clus scale="   80.251">  5  6 -1 -1</clus>
<clus scale="   91.740">  7  8 -1 -1</clus>
<clus scale="  102.294">  2  5  1 -1</clus>
<clus scale="   24.297">  1  5  2 -1</clus>
</clustering>
</event>
<event>
 9    2  0.1325014E-004  0.1035752E+03  0.7546771E-02  0.1277867E+00
         21   -1    0    0  501  502  0.00000000000E+00  0.00000000000E+00  0.48740783124E+03  0.48740783124E+03  0.00000000000E+00 0.  1.
          2   -1    0    0  502    0 -0.00000000000E+00 -0.00000000000E+00 -0.72688859660E+02  0.72688859660E+02  0.00000000000E+00 0. -1.
         24    2    1    2    0    0  0.42770509884E+02 -0.13741842101E+02 -0.23137498260E+02  0.95932214498E+02  0.81544412517E+02 0.  0.
         23    2    1    2    0    0 -0.69020389208E+02 -0.25141765556E+01  0.27065758873E+03  0.29413865439E+03  0.92151410507E+02 0.  0.
        -11    1    3    3    0    0 -0.24047862685E+02 -0.21033938926E+01  0.39049988731E+00  0.24142834460E+02  0.00000000000E+00 0.  1.
         12    1    3    3    0    0  0.66818372569E+02 -0.11638448208E+02 -0.23527998147E+02  0.71789380038E+02  0.00000000000E+00 0. -1.
        -13    1    4    4    0    0  0.14065920921E+02  0.22020618349E+02  0.91114406317E+02  0.94787091961E+02  0.00000000000E+00 0.  1.
         13    1    4    4    0    0 -0.83086310128E+02 -0.24534794904E+02  0.17954318242E+03  0.19935156243E+03  0.00000000000E+00 0. -1.
          1    1    1    2  501    0  0.26249879324E+02  0.16256018656E+02  0.16719888110E+03  0.17002582201E+03  0.00000000000E+00 0. -1.
<scales pt_clust_5="13000.00000" pt_clust_6="13000.00000" pt_clust_7="13000.00000" pt_clust_8="13000.00000" pt_clust_9="30.87579"></scales>
<clustering>
<clus scale="   30.876">  1  9  2 -1</clus>
<clus scale="   81.544">  5  6 -1 -1</clus>
<clus scale="   92.151">  7  8 -1 -1</clus>
<clus scale="   94.263">  2  5  1 -1</clus>
<clus scale="   30.876">  1  5  2 -1</clus>
</clustering>
</event>
<event>
 9    2  0.1325014E-004  0.2653603E+03  0.7546771E-02  0.1104506E+00
         21   -1    0    0  501  502  0.00000000000E+00  0.00000000000E+00  0.10456950147E+03  0.10456950147E+03  0.00000000000E+00 0.  1.
          2   -1    0    0  502    0 -0.00000000000E+00 -0.00000000000E+00 -0.12183799647E+04  0.12183799647E+04  0.00000000000E+00 0. -1.
         23    2    1    2    0    0  0.19888206040E+01 -0.24330196605E+03 -0.79303693413E+03  0.83453597007E+03  0.91339500494E+02 0.  0.
         24    2    1    2    0    0 -0.21458711473E+02  0.27186728391E+03 -0.16456125446E+03  0.32842184387E+03  0.80051262975E+02 0.  0.
        -11    1    4    4    0    0 -0.12649290999E+02  0.27432921860E+03 -0.15570817643E+03  0.31569219336E+03  0.00000000000E+00 0.  1.
         12    1    4    4    0    0 -0.88094204738E+01 -0.24619346925E+01 -0.88530780316E+01  0.12729650512E+02  0.00000000000E+00 0. -1.
        -11    1    3    3    0    0  0.34933085786E+02 -0.44386154475E+02 -0.13614599741E+03  0.14739804545E+03  0.00000000000E+00 0.  1.
         11    1    3    3    0    0 -0.32944265182E+02 -0.19891581158E+03 -0.65689093672E+03  0.68713792461E+03  0.00000000000E+00 0. -1.
          1    1    1    2  501    0  0.19469890869E+02 -0.28565317857E+02 -0.15621227470E+03  0.15999165228E+03  0.00000000000E+00 0. -1.
<scales pt_clust_5="13000.00000" pt_clust_6="13000.00000" pt_clust_7="13000.00000" pt_clust_8="13000.00000" pt_clust_9="34.56957"></scales>
<clustering>
<clus scale="   34.570">  1  9  2 -1</clus>
<clus scale="   80.051">  5  6 -1 -1</clus>
<clus scale="   91.340">  7  8 -1 -1</clus>
<clus scale="  261.689">  1  5  2 -1</clus>
<clus scale="   34.570">  1  5  2 -1</clus>
</clustering>
</event>
<event>
 9    2  0.1325014E-004  0.1342690E+03  0.7546771E-02  0.1237478E+00
         -3   -1    0    0    0  501 -0.00000000000E+00  0.00000000000E+00  0.89337827972E+02  0.89337827972E+02  0.00000000000E+00 0.  1.
         21   -1    0    0  501  502  0.00000000000E+00 -0.00000000000E+00 -0.42431448386E+03  0.42431448386E+03  0.00000000000E+00 0.  1.
         23    2    1    2    0    0  0.34139542239E+02  0.62143348827E+01 -0.12544509148E+03  0.15797198964E+03  0.89524031581E+02 0.  0.
         24    2    1    2    0    0 -0.12606454584E+03  0.37344786757E+02 -0.42357507334E+02  0.15998983003E+03  0.80719789820E+02 0.  0.
        -13    1    4    4    0    0 -0.11021761781E+03  0.38613263380E+02 -0.22070600568E+01  0.11680658585E+03  0.00000000000E+00 0.  1.
         14    1    4    4    0    0 -0.15846928034E+02 -0.12684766234E+01 -0.40150447277E+02  0.43183244176E+02  0.00000000000E+00 0. -1.
        -13    1    3    3    0    0 -0.25136367345E+02 -0.26726744106E+01 -0.76563461797E+02  0.80628430681E+02  0.00000000000E+00 0.  1.
         13    1    3    3    0    0  0.59275909584E+02  0.88870092933E+01 -0.48881629686E+02  0.77343558956E+02  0.00000000000E+00 0. -1.
         -4    1    1    2    0  502  0.91925003606E+02 -0.43559121639E+02 -0.16717405707E+03  0.19569049216E+03  0.00000000000E+00 0.  1.
<scales pt_clust_5="13000.00000" pt_clust_6="13000.00000" pt_clust_7="13000.00000" pt_clust_8="13000.00000" pt_clust_9="107.29627"></scales>
<clustering>
<clus scale="   80.720">  5  6 -1 -1</clus>
<clus scale="   89.524">  7  8 -1 -1</clus>
<clus scale="   96.014">  1  7  2 -1</clus>
<clus scale="  107.296">  2  9  1 -1</clus>
<clus scale="  107.296">  2  5  1 -1</clus>
</clustering>
</event>
<event>
 9    2  0.1325014E-004  0.1436533E+03  0.7546771E-02  0.1210509E+00
          2   -1    0    0  502    0 -0.00000000000E+00  0.00000000000E+00  0.69567621310E+03  0.69567621310E+03  0.00000000000E+00 0. -1.
         21   -1    0    0  501  502  0.00000000000E+00 -0.00000000000E+00 -0.77467239336E+02  0.77467239336E+02  0.00000000000E+00 0.  1.
         24    2    1    2    0    0 -0.10608174540E+03 -0.72432405017E+02  0.47125450008E+03  0.49521690033E+03  0.81603826624E+02 0.  0.
         23    2    1    2    0    0  0.33136669326E+02  0.11970806691E+02 -0.58153650142E+01  0.98162226919E+02  0.91436673477E+02 0.  0.
        -13    1    3    3    0    0 -0.21741808767E+02 -0.36492781552E+02  0.57861005948E+02  0.71779700217E+02  0.00000000000E+00 0.  1.
         14    1    3    3    0    0 -0.84339936630E+02 -0.35939623465E+02  0.41339349413E+03  0.42343720011E+03  0.00000000000E+00 0. -1.
        -11    1    4    4    0    0  0.20421803867E+02 -0.28906391194E+02 -0.32222561542E+02  0.47863587385E+02  0.00000000000E+00 0.  1.
         11    1    4    4    0    0  0.12714865460E+02  0.40877197885E+02  0.26407196527E+02  0.50298639534E+02  0.00000000000E+00 0. -1.
          1    1    1    2  501    0  0.72945076071E+02  0.60461598326E+02  0.15276983870E+03  0.17976432519E+03  0.00000000000E+00 0. -1.
<scales pt_clust_5="13000.00000" pt_clust_6="13000.00000" pt_clust_7="13000.00000" pt_clust_8="13000.00000" pt_clust_9="94.74491"></scales>
<clustering>
<clus scale="   81.604">  5  6 -1 -1</clus>
<clus scale="   91.437">  7  8 -1 -1</clus>
<clus scale="   94.745">  2  9  1 -1</clus>
<clus scale="  137.604">  1  5  2 -1</clus>
<clus scale="   94.745">  2  5  1 -1</clus>
</clustering>
</event>
<event>
 9    2  0.1325014E-004  0.8718921E+02  0.7546771E-02  0.1315079E+00
          2   -1    0    0  502    0 -0.00000000000E+00  0.00000000000E+00  0.25288633650E+03  0.25288633650E+03  0.00000000000E+00 0. -1.
         21   -1    0    0  501  502  0.00000000000E+00 -0.00000000000E+00 -0.53085780178E+02  0.53085780178E+02  0.00000000000E+00 0.  1.
         24    2    1    2    0    0 -0.20860646060E+02  0.23911336252E+01  0.16569934233E+03  0.18406339472E+03  0.77344535372E+02 0.  0.
         23    2    1    2    0    0  0.11659954966E+01  0.19430685356E+01  0.38705674504E+01  0.85569259122E+02  0.85451634001E+02 0.  0.
        -11    1    3    3    0    0 -0.19932996572E+02 -0.34231331084E+02  0.57445937815E+02  0.69779253017E+02  0.00000000000E+00 0.  1.
         12    1    3    3    0    0 -0.92764948736E+00  0.36622464709E+02  0.10825340452E+03  0.11428414170E+03  0.00000000000E+00 0. -1.
        -11    1    4    4    0    0  0.33367224942E+02 -0.21944723110E+02 -0.13101446333E+02  0.42030827600E+02  0.00000000000E+00 0.  1.
         11    1    4    4    0    0 -0.32201229445E+02  0.23887791646E+02  0.16972013783E+02  0.43538431522E+02  0.00000000000E+00 0. -1.
          1    1    1    2  501    0  0.19694650563E+02 -0.43342021608E+01  0.30230646542E+02  0.36339462840E+02  0.00000000000E+00 0. -1.
<scales pt_clust_5="13000.00000" pt_clust_6="13000.00000" pt_clust_7="13000.00000" pt_clust_8="13000.00000" pt_clust_9="20.16594"></scales>
<clustering>
<clus scale="   20.166">  2  9  1 -1</clus>
<clus scale="   77.345">  5  6 -1 -1</clus>
<clus scale="   79.260">  1  5  2 -1</clus>
<clus scale="   85.452">  7  8 -1 -1</clus>
<clus scale="   20.166">  2  5  1 -1</clus>
</clustering>
</event>
<event>
 9    2  0.1325014E-004  0.2514699E+03  0.7546771E-02  0.1130288E+00
         21   -1    0    0  501  502  0.00000000000E+00  0.00000000000E+00  0.76244261223E+03  0.76244261223E+03  0.00000000000E+00 0.  1.
         -1   -1    0    0    0  501 -0.00000000000E+00 -0.00000000000E+00 -0.25518547366E+03  0.25518547366E+03  0.00000000000E+00 0.  1.
         23    2    1    2    0    0  0.38264939353E+02  0.12667085341E+03  0.47775988954E+02  0.16779912415E+03  0.91456493793E+02 0.  0.
         24    2    1    2    0    0  0.17645640678E+03  0.38601188072E+01 -0.11312156966E+03  0.22451506831E+03  0.80366425606E+02 0.  0.
        -13    1    4    4    0    0  0.13056604473E+03 -0.21200997140E+02 -0.11016631330E+03  0.17214409924E+03  0.00000000000E+00 0.  1.
         14    1    4    4    0    0  0.45890362046E+02  0.25061115947E+02 -0.29552563628E+01  0.52370969070E+02  0.00000000000E+00 0. -1.
        -13    1    3    3    0    0 -0.23206495941E+02  0.26444803030E+02 -0.10303362954E+02  0.36660992203E+02  0.00000000000E+00 0.  1.
         13    1    3    3    0    0  0.61471435293E+02  0.10022605038E+03  0.58079351908E+02  0.13113813194E+03  0.00000000000E+00 0. -1.
         -2    1    1    2    0  502 -0.21472134613E+03 -0.13053097222E+03  0.57260271928E+03  0.62531389343E+03  0.00000000000E+00 0.  1.
<scales pt_clust_5="13000.00000" pt_clust_6="13000.00000" pt_clust_7="13000.00000" pt_clust_8="13000.00000" pt_clust_9="238.28212"></scales>
<clustering>
<clus scale="   80.366">  5  6 -1 -1</clus>
<clus scale="   91.456">  7  8 -1 -1</clus>
<clus scale="  160.854">  2  7  1 -1</clus>
<clus scale="  238.282">  1  9  2 -1</clus>
<clus scale="  238.282">  1  5  2 -1</clus>
</clustering>
</event>
<event>
 9    2  0.1325014E-004  0.1378349E+03  0.7546771E-02  0.1218924E+00
          2   -1    0    0  502    0 -0.00000000000E+00  0.00000000000E+00  0.63229205973E+03  0.63229205973E+03  0.00000000000E+00 0. -1.
         21   -1    0    0  501  502  0.00000000000E+00 -0.00000000000E+00 -0.47036944138E+02  0.47036944138E+02  0.00000000000E+00 0.  1.
         24    2    1    2    0    0 -0.84014054471E+02  0.64501122497E+02  0.41715993499E+03  0.43768966865E+03  0.79568074834E+02 0.  0.
         23    2    1    2    0    0  0.57030900757E+02 -0.79412866612E+02  0.10045302922E+03  0.16730286139E+03  0.91326388989E+02 0.  0.
        -11    1    3    3    0    0 -0.86073678993E+02  0.77660353906E+02  0.39656534976E+03  0.41316326726E+03  0.00000000000E+00 0.  1.
         12    1    3    3    0    0  0.20596245218E+01 -0.13159231409E+02  0.20594585235E+02  0.24526401396E+02  0.00000000000E+00 0. -1.
        -11    1    4    4    0    0  0.53409371893E+02 -0.17558845092E+02  0.91502153611E+01  0.56961394717E+02  0.00000000000E+00 0.  1.
         11    1    4    4    0    0  0.36215288638E+01 -0.61854021520E+02  0.91302813856E+02  0.11034146667E+03  0.00000000000E+00 0. -1.
          1    1    1    2  501    0  0.26983153714E+02  0.14911744115E+02  0.67642151388E+02  0.74336473829E+02  0.00000000000E+00 0. -1.
<scales pt_clust_5="13000.00000" pt_clust_6="13000.00000" pt_clust_7="13000.00000" pt_clust_8="13000.00000" pt_clust_9="30.82940"></scales>
<clustering>
<clus scale="   30.829">  2  9  1 -1</clus>
<clus scale="   79.568">  5  6 -1 -1</clus>
<clus scale="   91.326">  7  8 -1 -1</clus>
<clus scale="  130.342">  1  5  2 -1</clus>
<clus scale="   30.829">  2  5  1 -1</clus>
</clustering>
</event>
<event>
 9    2  0.1325014E-004  0.1118368E+03  0.7546771E-02  0.1258235E+00
         21   -1    0    0  501  502  0.00000000000E+00  0.00000000000E+00  0.13183736883E+03  0.13183736883E+03  0.00000000000E+00 0. -1.
          2   -1    0    0  502    0 -0.00000000000E+00 -0.00000000000E+00 -0.38344644845E+03  0.38344644845E+03  0.00000000000E+00 0. -1.
         24    2    1    2    0    0  0.74499260975E+01 -0.68534730587E+02 -0.29222926079E+03  0.31278439462E+03  0.87656294480E+02 0.  0.
         23    2    1    2    0    0  0.21355050753E+02  0.55604730792E+02 -0.40362461084E+02  0.11557934482E+03  0.90451823668E+02 0.  0.
        -13    1    3    3    0    0 -0.29021119607E+02 -0.43148542827E+02 -0.76329781469E+02  0.92359394057E+02  0.00000000000E+00 0.  1.
         14    1    3    3    0    0  0.36471045704E+02 -0.25386187760E+02 -0.21589947932E+03  0.22042500056E+03  0.00000000000E+00 0. -1.
        -13    1    4    4    0    0  0.47828481850E+02  0.66140530817E+01 -0.35001948217E+02  0.59635943468E+02  0.00000000000E+00 0. -1.
         13    1    4    4    0    0 -0.26473431098E+02  0.48990677710E+02 -0.53605128672E+01  0.55943401351E+02  0.00000000000E+00 0.  1.
          1    1    1    2  501    0 -0.28804976850E+02  0.12929999796E+02  0.80982642246E+02  0.86920077837E+02  0.00000000000E+00 0. -1.
<scales pt_clust_5="13000.00000" pt_clust_6="13000.00000" pt_clust_7="13000.00000" pt_clust_8="13000.00000" pt_clust_9="31.57391"></scales>
<clustering>
<clus scale="   31.574">  1  9  2 -1</clus>
<clus scale="   87.656">  5  6 -1 -1</clus>
<clus scale="   90.452">  7  8 -1 -1</clus>
<clus scale="  109.588">  2  5  1 -1</clus>
<clus scale="   31.574">  1  5  2 -1</clus>
</clustering>
</event>
<event>
 9    2  0.1325014E-004  0.1037334E+03  0.7546771E-02  0.1276128E+00
         21   -1    0    0  501  502  0.00000000000E+00  0.00000000000E+00  0.27832318889E+03  0.27832318889E+03  0.00000000000E+00 0.  1.
         -1   -1    0    0    0  501 -0.00000000000E+00 -0.00000000000E+00 -0.86721277418E+02  0.86721277418E+02  0.00000000000E+00 0.  1.
         24    2    1    2    0    0 -0.22219086105E+02 -0.47864303970E+02 -0.11950053237E+02  0.98979474180E+02  0.82882164274E+02 0.  0.
         23    2    1    2    0    0  0.65443682181E+02  0.81070086018E+01  0.14304390704E+03  0.18174279289E+03  0.90665783520E+02 0.  0.
        -13    1    3    3    0    0  0.47945223433E+01 -0.38046104202E+02 -0.42357801992E+02  0.57137350997E+02  0.00000000000E+00 0.  1.
         14    1    3    3    0    0 -0.27013608448E+02 -0.98181997687E+01  0.30407748755E+02  0.41842123183E+02  0.00000000000E+00 0. -1.
        -13    1    4    4    0    0  0.32270797726E+02  0.42511792809E+02  0.11384836226E+03  0.12573824598E+03  0.00000000000E+00 0.  1.
         13    1    4    4    0    0  0.33172884455E+02 -0.34404784207E+02  0.29195544778E+02  0.56004546907E+02  0.00000000000E+00 0. -1.
         -2    1    1    2    0  502 -0.43224596077E+02  0.39757295369E+02  0.60508057670E+02  0.84322199236E+02  0.00000000000E+00 0.  1.
<scales pt_clust_5="13000.00000" pt_clust_6="13000.00000" pt_clust_7="13000.00000" pt_clust_8="13000.00000" pt_clust_9="58.72826"></scales>
<clustering>
<clus scale="   58.728">  1  9  2 -1</clus>
<clus scale="   82.882">  5  6 -1 -1</clus>
<clus scale="   90.666">  7  8 -1 -1</clus>
<clus scale="   97.004">  2  5  1 -1</clus>
<clus scale="   58.728">  1  5  2 -1</clus>
</clustering>
</event>
<event>
 9    2  0.1325014E-004  0.1258037E+03  0.7546771E-02  0.1234198E+00
         21   -1    0    0  501  502  0.00000000000E+00  0.00000000000E+00  0.65367080287E+03  0.65367080287E+03  0.00000000000E+00 0.  1.
         -1   -1    0    0    0  501 -0.00000000000E+00 -0.00000000000E+00 -0.72316804373E+02  0.72316804373E+02  0.00000000000E+00 0.  1.
         24    2    1    2    0    0  0.49323151595E+01  0.10435805453E+03  0.46584735812E+02  0.13925852088E+03  0.79422079743E+02 0.  0.
         23    2    1    2    0    0 -0.73219510629E+02 -0.71874869117E+02  0.16507492289E+03  0.20938017186E+03  0.77866762177E+02 0.  0.
        -13    1    3    3    0    0  0.23696513053E+02  0.36648455846E+02 -0.14672959692E+02  0.46042695326E+02  0.00000000000E+00 0.  1.
         14    1    3    3    0    0 -0.18764197893E+02  0.67709598681E+02  0.61257695504E+02  0.93215825558E+02  0.00000000000E+00 0. -1.
        -11    1    4    4    0    0 -0.13934035202E+02 -0.32918024847E+02  0.12028537472E+03  0.12548436184E+03  0.00000000000E+00 0. -1.
         11    1    4    4    0    0 -0.59285475427E+02 -0.38956844270E+02  0.44789548178E+02  0.83895810015E+02  0.00000000000E+00 0.  1.
         -2    1    1    2    0  502  0.68287195470E+02 -0.32483185410E+02  0.36969433979E+03  0.37734891450E+03  0.00000000000E+00 0.  1.
<scales pt_clust_5="13000.00000" pt_clust_6="13000.00000" pt_clust_7="13000.00000" pt_clust_8="13000.00000" pt_clust_9="75.61943"></scales>
<clustering>
<clus scale="   75.619">  1  9  2 -1</clus>
<clus scale="   77.867">  7  8 -1 -1</clus>
<clus scale="   79.422">  5  6 -1 -1</clus>
<clus scale="  124.828">  1  7  2 -1</clus>
<clus scale="   75.619">  1  5  2 -1</clus>
</clustering>
</event>
<event>
 9    2  0.1325014E-004  0.1253963E+03  0.7546771E-02  0.1236605E+00
          2   -1    0    0  502    0 -0.00000000000E+00  0.00000000000E+00  0.61001718528E+03  0.61001718528E+03  0.00000000000E+00 0. -1.
         21   -1    0    0  501  502  0.00000000000E+00 -0.00000000000E+00 -0.36866792701E+02  0.36866792701E+02  0.00000000000E+00 0. -1.
         23    2    1    2    0    0  0.73719517271E+02  0.42466852757E+02  0.39144763703E+03  0.41087432696E+03  0.91369903162E+02 0.  0.
         24    2    1    2    0    0 -0.88149594185E+02 -0.19958128928E+02  0.15707888497E+03  0.19966127045E+03  0.83798382735E+02 0.  0.
        -13    1    4    4    0    0 -0.43570881740E+02  0.31401631256E+02  0.85144578147E+02  0.10066818449E+03  0.00000000000E+00 0.  1.
         14    1    4    4    0    0 -0.44578712445E+02 -0.51359760184E+02  0.71934306828E+02  0.98993085961E+02  0.00000000000E+00 0. -1.
        -13    1    3    3    0    0  0.24355464205E+02  0.65831561249E+02  0.21504436532E+03  0.22621021672E+03  0.00000000000E+00 0. -1.
         13    1    3    3    0    0  0.49364053067E+02 -0.23364708493E+02  0.17640327171E+03  0.18466411023E+03  0.00000000000E+00 0.  1.
          1    1    1    2  501    0  0.14430076914E+02 -0.22508723829E+02  0.24623870571E+02  0.36348380570E+02  0.00000000000E+00 0. -1.
<scales pt_clust_5="13000.00000" pt_clust_6="13000.00000" pt_clust_7="13000.00000" pt_clust_8="13000.00000" pt_clust_9="26.73705"></scales>
<clustering>
<clus scale="   26.737">  2  9  1 -1</clus>
<clus scale="   83.798">  5  6 -1 -1</clus>
<clus scale="   91.370">  7  8 -1 -1</clus>
<clus scale="  119.991">  2  5  1 -1</clus>
<clus scale="   26.737">  2  5  1 -1</clus>
</clustering>
</event>
<event>
 9    2  0.1325014E-004  0.2096448E+03  0.7546771E-02  0.1143198E+00
          2   -1    0    0  502    0 -0.00000000000E+00  0.00000000000E+00  0.19307828366E+03  0.19307828366E+03  0.00000000000E+00 0. -1.
         21   -1    0    0  501  502  0.00000000000E+00 -0.00000000000E+00 -0.45274298763E+03  0.45274298763E+03  0.00000000000E+00 0.  1.
         23    2    1    2    0    0 -0.81952384481E+02 -0.20465825666E+03  0.47216767655E+02  0.24409590636E+03  0.93553156078E+02 0.  0.
         24    2    1    2    0    0  0.78965326092E+02  0.90391793568E+02 -0.19562287942E+03  0.24221291575E+03  0.77411798413E+02 0.  0.
        -13    1    4    4    0    0  0.82410848539E+02  0.65030056387E+02 -0.18830865783E+03  0.21559361495E+03  0.00000000000E+00 0.  1.
         14    1    4    4    0    0 -0.34455224467E+01  0.25361737181E+02 -0.73142215857E+01  0.26619300801E+02  0.00000000000E+00 0. -1.
        -11    1    3    3    0    0 -0.74185071902E+02 -0.14037397371E+03  0.72554018536E+02  0.17456334952E+03  0.00000000000E+00 0. -1.
         11    1    3    3    0    0 -0.77673125793E+01 -0.64284282947E+02 -0.25337250881E+02  0.69532556842E+02  0.00000000000E+00 0.  1.
          1    1    1    2  501    0  0.29870583888E+01  0.11426646309E+03 -0.11125859221E+03  0.15951244919E+03  0.00000000000E+00 0. -1.
<scales pt_clust_5="13000.00000" pt_clust_6="13000.00000" pt_clust_7="13000.00000" pt_clust_8="13000.00000" pt_clust_9="114.30550"></scales>
<clustering>
<clus scale="   77.412">  5  6 -1 -1</clus>
<clus scale="   93.553">  7  8 -1 -1</clus>
<clus scale="  114.305">  2  9  1 -1</clus>
<clus scale="  202.956">  2  5  1 -1</clus>
<clus scale="  114.305">  2  5  1 -1</clus>
</clustering>
</event>
<event>
 9    2  0.1325014E-004  0.1370327E+03  0.7546771E-02  0.1220397E+00
         21   -1    0    0  501  502  0.00000000000E+00  0.00000000000E+00  0.17114550248E+03  0.17114550248E+03  0.00000000000E+00 0.  1.
          4   -1    0    0  502    0 -0.00000000000E+00 -0.00000000000E+00 -0.21861284160E+03  0.21861284160E+03  0.00000000000E+00 0. -1.
         23    2    1    2    0    0  0.10837477530E+03  0.25454907174E+02 -0.14654284785E+03  0.20631911737E+03  0.93272330915E+02 0.  0.
         24    2    1    2    0    0 -0.69750538056E+02 -0.11439360147E+02  0.46462576196E+02  0.11668304399E+03  0.80375153180E+02 0.  0.
        -13    1    4    4    0    0 -0.10652550096E+02 -0.31102917613E+02  0.43236201705E+02  0.54316088275E+02  0.00000000000E+00 0.  1.
         14    1    4    4    0    0 -0.59097987960E+02  0.19663557466E+02  0.32263744912E+01  0.62366955717E+02  0.00000000000E+00 0. -1.
        -13    1    3    3    0    0  0.41454210241E+02 -0.11706054899E+02 -0.24360428488E+01  0.43144148767E+02  0.00000000000E+00 0.  1.
         13    1    3    3    0    0  0.66920565057E+02  0.37160962073E+02 -0.14410680500E+03  0.16317496860E+03  0.00000000000E+00 0. -1.
          3    1    1    2  501    0 -0.38624237243E+02 -0.14015547027E+02  0.52612932537E+02  0.66756182719E+02  0.00000000000E+00 0. -1.
<scales pt_clust_5="13000.00000" pt_clust_6="13000.00000" pt_clust_7="13000.00000" pt_clust_8="13000.00000" pt_clust_9="41.08853"></scales>
<clustering>
<clus scale="   41.089">  1  9  2 -1</clus>
<clus scale="   80.375">  5  6 -1 -1</clus>
<clus scale="   93.272">  7  8 -1 -1</clus>
<clus scale="  128.602">  1  5  2 -1</clus>
<clus scale="   41.089">  1  5  2 -1</clus>
</clustering>
</event>
<event>
 9    2  0.1325014E-004  0.1049486E+03  0.7546771E-02  0.1275416E+00
         21   -1    0    0  501  502  0.00000000000E+00  0.00000000000E+00  0.36346623697E+02  0.36346623697E+02  0.00000000000E+00 0.  1.
          2   -1    0    0  502    0 -0.00000000000E+00 -0.00000000000E+00 -0.11534213986E+04  0.11534213986E+04  0.00000000000E+00 0. -1.
         24    2    1    2    0    0  0.59137193463E+01 -0.59022368520E+02 -0.98292896366E+03  0.98786325300E+03  0.78777198139E+02 0.  0.
         23    2    1    2    0    0 -0.18124801196E+02  0.31440830145E+01 -0.95373667106E+02  0.13280504085E+03  0.90568475867E+02 0.  0.
        -13    1    3    3    0    0 -0.11656733266E+02 -0.23050554985E+02 -0.80412538080E+02  0.84459361802E+02  0.00000000000E+00 0.  1.
         14    1    3    3    0    0  0.17570452612E+02 -0.35971813535E+02 -0.90251642558E+03  0.90340389119E+03  0.00000000000E+00 0. -1.
        -13    1    4    4    0    0 -0.34106864885E+02  0.36003294425E+02 -0.30137422252E+02  0.58032574144E+02  0.00000000000E+00 0.  1.
         13    1    4    4    0    0  0.15982063689E+02 -0.32859211411E+02 -0.65236244854E+02  0.74772466704E+02  0.00000000000E+00 0. -1.
          1    1    1    2  501    0  0.12211081850E+02  0.55878285506E+02 -0.38772144122E+02  0.69099728443E+02  0.00000000000E+00 0. -1.
<scales pt_clust_5="13000.00000" pt_clust_6="13000.00000" pt_clust_7="13000.00000" pt_clust_8="13000.00000" pt_clust_9="57.19697"></scales>
<clustering>
<clus scale="   57.197">  1  9  2 -1</clus>
<clus scale="   78.777">  5  6 -1 -1</clus>
<clus scale="   90.568">  7  8 -1 -1</clus>
<clus scale="   94.960">  2  5  1 -1</clus>
<clus scale="   57.197">  1  5  2 -1</clus>
</clustering>
</event>
<event>
 9    2  0.1325014E-004  0.2220475E+03  0.7546771E-02  0.1133056E+00
         21   -1    0    0  501  502  0.00000000000E+00  0.00000000000E+00  0.75404043910E+02  0.75404043910E+02  0.00000000000E+00 0. -1.
          2   -1    0    0  502    0 -0.00000000000E+00 -0.00000000000E+00 -0.14102673580E+04  0.14102673580E+04  0.00000000000E+00 0. -1.
         24    2    1    2    0    0  0.14053153358E+03 -0.11590441272E+03 -0.62401827995E+03  0.65503958657E+03  0.80592192223E+02 0.  0.
         23    2    1    2    0    0 -0.17595695945E+03  0.21359380150E+03 -0.35044980576E+03  0.45555462579E+03  0.90176422116E+02 0.  0.
        -13    1    3    3    0    0  0.67563998288E+02 -0.36589037938E+02 -0.38861949402E+03  0.39614235155E+03  0.00000000000E+00 0.  1.
         14    1    3    3    0    0  0.72967535292E+02 -0.79315374783E+02 -0.23539878593E+03  0.25889723502E+03  0.00000000000E+00 0. -1.
        -11    1    4    4    0    0 -0.83741992389E+02  0.11377294362E+03 -0.24782530577E+03  0.28526196061E+03  0.00000000000E+00 0.  1.
         11    1    4    4    0    0 -0.92214967061E+02  0.99820857879E+02 -0.10262449999E+03  0.17029266519E+03  0.00000000000E+00 0. -1.
          1    1    1    2  501    0  0.35425425870E+02 -0.97689388776E+02 -0.36039522835E+03  0.37507718951E+03  0.00000000000E+00 0. -1.
<scales pt_clust_5="13000.00000" pt_clust_6="13000.00000" pt_clust_7="13000.00000" pt_clust_8="13000.00000" pt_clust_9="103.91433"></scales>
<clustering>
<clus scale="   80.592">  5  6 -1 -1</clus>
<clus scale="   90.176">  7  8 -1 -1</clus>
<clus scale="  103.914">  1  9  2 -1</clus>
<clus scale="  218.331">  2  5  1 -1</clus>
<clus scale="  103.914">  1  5  2 -1</clus>
</clustering>
</event>
<event>
 9    2  0.1325014E-004  0.1307187E+03  0.7546771E-02  0.1228688E+00
          2   -1    0    0  502    0 -0.00000000000E+00  0.00000000000E+00  0.35138748617E+03  0.35138748617E+03  0.00000000000E+00 0. -1.
         21   -1    0    0  501  502  0.00000000000E+00 -0.00000000000E+00 -0.11261374855E+03  0.11261374855E+03  0.00000000000E+00 0. -1.
         24    2    1    2    0    0 -0.11111483320E+03  0.15575358357E+02  0.20821223810E+03  0.24991818508E+03  0.80732058022E+02 0.  0.
         23    2    1    2    0    0  0.29862704276E+02 -0.45603698496E+02 -0.28948986433E+02  0.10898734276E+03  0.89826046575E+02 0.  0.
        -11    1    3    3    0    0 -0.32943183322E+02 -0.21642133511E+02  0.23419325782E+02  0.45848665088E+02  0.00000000000E+00 0.  1.
         12    1    3    3    0    0 -0.78171649882E+02  0.37217491868E+02  0.18479291232E+03  0.20406951999E+03  0.00000000000E+00 0. -1.
        -11    1    4    4    0    0 -0.26459290754E+02 -0.73590329852E+01 -0.30300220978E+02  0.40894410682E+02  0.00000000000E+00 0. -1.
         11    1    4    4    0    0  0.56321995030E+02 -0.38244665511E+02  0.13512345457E+01  0.68092932078E+02  0.00000000000E+00 0.  1.
          1    1    1    2  501    0  0.81252128928E+02  0.30028340139E+02  0.59510485957E+02  0.10509570689E+03  0.00000000000E+00 0. -1.
<scales pt_clust_5="13000.00000" pt_clust_6="13000.00000" pt_clust_7="13000.00000" pt_clust_8="13000.00000" pt_clust_9="86.62342"></scales>
<clustering>
<clus scale="   80.732">  5  6 -1 -1</clus>
<clus scale="   86.623">  2  9  1 -1</clus>
<clus scale="   89.826">  7  8 -1 -1</clus>
<clus scale="  124.645">  1  5  2 -1</clus>
<clus scale="   86.623">  2  5  1 -1</clus>
</clustering>
</event>
<event>
 9    2  0.1325014E-004  0.1378026E+03  0.7546771E-02  0.1230873E+00
         -1   -1    0    0    0  501 -0.00000000000E+00  0.00000000000E+00  0.25444227098E+03  0.25444227098E+03  0.00000000000E+00 0.  1.
         21   -1    0    0  501  502  0.00000000000E+00 -0.00000000000E+00 -0.13818349579E+03  0.13818349579E+03  0.00000000000E+00 0.  1.
         24    2    1    2    0    0 -0.26715924415E+02  0.52727816305E+02  0.52921577356E+01  0.10183500788E+03  0.82755052218E+02 0.  0.
         23    2    1    2    0    0  0.15605504757E+02  0.63027824207E+02  0.13133154318E+03  0.17273340021E+03  0.91503086905E+02 0.  0.
        -11    1    3    3    0    0 -0.34318235270E+02  0.71603704946E+02 -0.39155855466E+01  0.79499456880E+02  0.00000000000E+00 0.  1.
         12    1    3    3    0    0  0.76023108548E+01 -0.18875888641E+02  0.92077432822E+01  0.22335551004E+02  0.00000000000E+00 0. -1.
        -13    1    4    4    0    0 -0.13652644533E+02  0.61901220219E+02  0.12854071072E+03  0.14332086407E+03  0.00000000000E+00 0.  1.
         13    1    4    4    0    0  0.29258149290E+02  0.11266039881E+01  0.27908324618E+01  0.29412536141E+02  0.00000000000E+00 0. -1.
         -2    1    1    2    0  502  0.11110419658E+02 -0.11575564051E+03 -0.20364925727E+02  0.11805735867E+03  0.00000000000E+00 0.  1.
<scales pt_clust_5="13000.00000" pt_clust_6="13000.00000" pt_clust_7="13000.00000" pt_clust_8="13000.00000" pt_clust_9="103.03756"></scales>
<clustering>
<clus scale="   82.755">  5  6 -1 -1</clus>
<clus scale="   91.503">  7  8 -1 -1</clus>
<clus scale="  101.697">  1  5  2 -1</clus>
<clus scale="  103.038">  2  9  1 -1</clus>
<clus scale="  103.038">  2  5  1 -1</clus>
</clustering>
</event>
<event>
 9    2  0.1325014E-004  0.3294360E+03  0.7546771E-02  0.1095284E+00
         21   -1    0    0  501  502  0.00000000000E+00  0.00000000000E+00  0.30311205620E+03  0.30311205620E+03  0.00000000000E+00 0.  1.
         -1   -1    0    0    0  501 -0.00000000000E+00 -0.00000000000E+00 -0.69157533530E+03  0.69157533530E+03  0.00000000000E+00 0.  1.
         23    2    1    2    0    0 -0.11745854510E+03 -0.88274543500E+02 -0.48373015282E+02  0.18035555597E+03  0.92732265770E+02 0.  0.
         24    2    1    2    0    0 -0.66090397681E+02 -0.21664565035E+03 -0.38673417667E+03  0.45538588748E+03  0.80682740613E+02 0.  0.
        -13    1    4    4    0    0 -0.23939593587E+02 -0.18258455281E+03 -0.27168009770E+03  0.32820770642E+03  0.00000000000E+00 0.  1.
         14    1    4    4    0    0 -0.42150804094E+02 -0.34061097538E+02 -0.11505407896E+03  0.12717818106E+03  0.00000000000E+00 0. -1.
        -13    1    3    3    0    0 -0.20333117781E+02 -0.54778483234E+02 -0.51037495263E+02  0.77581852432E+02  0.00000000000E+00 0. -1.
         13    1    3    3    0    0 -0.97125427322E+02 -0.33496060265E+02  0.26644799805E+01  0.10277370354E+03  0.00000000000E+00 0.  1.
         -2    1    1    2    0  502  0.18354894278E+03  0.30492019385E+03  0.46643912843E+02  0.35894594805E+03  0.00000000000E+00 0.  1.
<scales pt_clust_5="13000.00000" pt_clust_6="13000.00000" pt_clust_7="13000.00000" pt_clust_8="13000.00000" pt_clust_9="319.40314"></scales>
<clustering>
<clus scale="   80.683">  5  6 -1 -1</clus>
<clus scale="   92.732">  7  8 -1 -1</clus>
<clus scale="  173.748">  2  7  1 -1</clus>
<clus scale="  319.403">  1  9  2 -1</clus>
<clus scale="  319.403">  1  5  2 -1</clus>
</clustering>
</event>
<event>
 9    2  0.1325014E-004  0.1002510E+03  0.7546771E-02  0.1284543E+00
          4   -1    0    0  502    0 -0.00000000000E+00  0.00000000000E+00  0.72396064122E+03  0.72396064122E+03  0.00000000000E+00 0. -1.
         21   -1    0    0  501  502  0.00000000000E+00 -0.00000000000E+00 -0.39810569528E+02  0.39810569528E+02  0.00000000000E+00 0. -1.
         24    2    1    2    0    0  0.35155683570E+02  0.30464638607E+02  0.48229239480E+03  0.49131001000E+03  0.81336065497E+02 0.  0.
         23    2    1    2    0    0 -0.34635535122E+02  0.25383485000E+02  0.53540579414E+02  0.11397699059E+03  0.90995709441E+02 0.  0.
        -13    1    3    3    0    0  0.16021313075E+02  0.57643623704E+02  0.28180725294E+03  0.28808817684E+03  0.00000000000E+00 0.  1.
         14    1    3    3    0    0  0.19134370496E+02 -0.27178985097E+02  0.20048514186E+03  0.20322183316E+03  0.00000000000E+00 0. -1.
        -11    1    4    4    0    0  0.20629668426E+02  0.12300091076E+02 -0.12334516272E+02  0.27000291693E+02  0.00000000000E+00 0. -1.
         11    1    4    4    0    0 -0.55265203548E+02  0.13083393923E+02  0.65875095686E+02  0.86976698899E+02  0.00000000000E+00 0.  1.
          3    1    1    2  501    0 -0.52014844856E+00 -0.55848123607E+02  0.14831709748E+03  0.15848421016E+03  0.00000000000E+00 0. -1.
<scales pt_clust_5="13000.00000" pt_clust_6="13000.00000" pt_clust_7="13000.00000" pt_clust_8="13000.00000" pt_clust_9="55.85057"></scales>
<clustering>
<clus scale="   55.851">  2  9  1 -1</clus>
<clus scale="   81.336">  5  6 -1 -1</clus>
<clus scale="   90.996">  7  8 -1 -1</clus>
<clus scale="   91.573">  1  5  2 -1</clus>
<clus scale="   55.851">  2  5  1 -1</clus>
</clustering>
</event>
<event>
 9    2  0.1325014E-004  0.1187486E+03  0.7546771E-02  0.1246748E+00
         21   -1    0    0  501  502  0.00000000000E+00  0.00000000000E+00  0.42206225148E+03  0.42206225148E+03  0.00000000000E+00 0. -1.
         -3   -1    0    0    0  501 -0.00000000000E+00 -0.00000000000E+00 -0.88721050043E+02  0.88721050043E+02  0.00000000000E+00 0.  1.
         24    2    1    2    0    0 -0.36809732089E+02  0.71470681605E+02 -0.18687621106E+02  0.11971943198E+03  0.86720819326E+02 0.  0.
         23    2    1    2    0    0  0.33761325900E+02 -0.31486963388E+02  0.32945730585E+03  0.34504796068E+03  0.91568132020E+02 0.  0.
        -13    1    3    3    0    0 -0.17866915817E+02  0.87477525211E+02 -0.10547776223E+01  0.89289734313E+02  0.00000000000E+00 0.  1.
         14    1    3    3    0    0 -0.18942816272E+02 -0.16006843606E+02 -0.17632843484E+02  0.30429697663E+02  0.00000000000E+00 0. -1.
        -11    1    4    4    0    0  0.76234294996E+00 -0.58690237455E+02  0.21478339164E+03  0.22265900041E+03  0.00000000000E+00 0. -1.
         11    1    4    4    0    0  0.32998982950E+02  0.27203274068E+02  0.11467391421E+03  0.12238896027E+03  0.00000000000E+00 0.  1.
         -4    1    1    2    0  502  0.30484061897E+01 -0.39983718217E+02  0.22571516689E+02  0.46015908862E+02  0.00000000000E+00 0.  1.
<scales pt_clust_5="13000.00000" pt_clust_6="13000.00000" pt_clust_7="13000.00000" pt_clust_8="13000.00000" pt_clust_9="40.09978"></scales>
<clustering>
<clus scale="   40.100">  1  9  2 -1</clus>
<clus scale="   86.721">  5  6 -1 -1</clus>
<clus scale="   91.568">  7  8 -1 -1</clus>
<clus scale="  115.052">  2  5  1 -1</clus>
<clus scale="   40.100">  1  5  2 -1</clus>
</clustering>
</event>
<event>
 9    2  0.1325014E-004  0.1262465E+03  0.7546771E-02  0.1242855E+00
         21   -1    0    0  501  502  0.00000000000E+00  0.00000000000E+00  0.43578819265E+03  0.43578819265E+03  0.00000000000E+00 0. -1.
          4   -1    0    0  502    0 -0.00000000000E+00 -0.00000000000E+00 -0.55995943172E+02  0.55995943172E+02  0.00000000000E+00 0. -1.
         24    2    1    2    0    0 -0.53027390852E+02 -0.63578134502E+02  0.58071049436E+02  0.12802476901E+03  0.78511217858E+02 0.  0.
         23    2    1    2    0    0  0.36559749650E+02  0.14158966456E+02  0.18113718948E+03  0.21383504790E+03  0.10666608960E+03 0.  0.
        -11    1    3    3    0    0 -0.36375275407E+02 -0.36461217867E+02  0.75766370543E+02  0.91613994425E+02  0.00000000000E+00 0.  1.
         12    1    3    3    0    0 -0.16652115445E+02 -0.27116916636E+02 -0.17695321107E+02  0.36410774583E+02  0.00000000000E+00 0. -1.
        -11    1    4    4    0    0 -0.17013826607E+02  0.44139792740E+02  0.11078842600E+03  0.12046521047E+03  0.00000000000E+00 0. -1.
         11    1    4    4    0    0  0.53573576257E+02 -0.29980826284E+02  0.70348763485E+02  0.93369837429E+02  0.00000000000E+00 0.  1.
          3    1    1    2  501    0  0.16467641202E+02  0.49419168046E+02  0.14058401055E+03  0.14992431891E+03  0.00000000000E+00 0. -1.
<scales pt_clust_5="13000.00000" pt_clust_6="13000.00000" pt_clust_7="13000.00000" pt_clust_8="13000.00000" pt_clust_9="52.09066"></scales>
<clustering>
<clus scale="   52.091">  1  9  2 -1</clus>
<clus scale="   78.511">  5  6 -1 -1</clus>
<clus scale="  103.559">  2  5  1 -1</clus>
<clus scale="  106.666">  7  8 -1 -1</clus>
<clus scale="   52.091">  1  5  2 -1</clus>
</clustering>
</event>
<event>
 9    2  0.1325014E-004  0.9781444E+02  0.7546771E-02  0.1292479E+00
         21   -1    0    0  501  502  0.00000000000E+00  0.00000000000E+00  0.22040540622E+02  0.22040540622E+02  0.00000000000E+00 0. -1.
         -1   -1    0    0    0  501 -0.00000000000E+00 -0.00000000000E+00 -0.62313892740E+03  0.62313892740E+03  0.00000000000E+00 0.  1.
         23    2    1    2    0    0 -0.20070022917E+02 -0.24741239384E+02 -0.43692727668E+03  0.44769944740E+03  0.92273589691E+02 0.  0.
         24    2    1    2    0    0  0.36286626881E+02  0.12144991483E+02 -0.11668038092E+03  0.14574016110E+03  0.78496262053E+02 0.  0.
        -13    1    4    4    0    0  0.50051930953E+02 -0.11152390724E+02 -0.10378975161E+03  0.11576650703E+03  0.00000000000E+00 0.  1.
         14    1    4    4    0    0 -0.13765304072E+02  0.23297382207E+02 -0.12890629306E+02  0.29973654062E+02  0.00000000000E+00 0. -1.
        -13    1    3    3    0    0  0.32427964314E+02  0.10027128790E+02 -0.12828092771E+03  0.13269556358E+03  0.00000000000E+00 0. -1.
         13    1    3    3    0    0 -0.52497987232E+02 -0.34768368174E+02 -0.30864634897E+03  0.31500388382E+03  0.00000000000E+00 0.  1.
         -2    1    1    2    0  502 -0.16216603964E+02  0.12596247901E+02 -0.47490729185E+02  0.51739859526E+02  0.00000000000E+00 0.  1.
<scales pt_clust_5="13000.00000" pt_clust_6="13000.00000" pt_clust_7="13000.00000" pt_clust_8="13000.00000" pt_clust_9="20.53396"></scales>
<clustering>
<clus scale="   20.534">  1  9  2 -1</clus>
<clus scale="   78.496">  5  6 -1 -1</clus>
<clus scale="   84.941">  1  5  2 -1</clus>
<clus scale="   92.274">  7  8 -1 -1</clus>
<clus scale="   20.534">  1  5  2 -1</clus>
</clustering>
</event>
<event>
 9    2  0.1325014E-004  0.1504590E+03  0.7546771E-02  0.1212795E+00
         21   -1    0    0  501  502  0.00000000000E+00  0.00000000000E+00  0.25541873029E+03  0.25541873029E+03  0.00000000000E+00 0. -1.
          2   -1    0    0  502    0 -0.00000000000E+00 -0.00000000000E+00 -0.24624044821E+03  0.24624044821E+03  0.00000000000E+00 0. -1.
         23    2    1    2    0    0 -0.33112859378E+02 -0.58094000982E+02  0.67662286104E+02  0.13263074470E+03  0.92419451812E+02 0.  0.
         24    2    1    2    0    0  0.11676423730E+03 -0.45578688077E+02 -0.14804129476E+03  0.20851024851E+03  0.76478721630E+02 0.  0.
        -13    1    4    4    0    0  0.65909756429E+02 -0.27477333900E+02 -0.27655531584E+02  0.76576290704E+02  0.00000000000E+00 0.  1.
         14    1    4    4    0    0  0.50854480867E+02 -0.18101354178E+02 -0.12038576318E+03  0.13193395781E+03  0.00000000000E+00 0. -1.
        -13    1    3    3    0    0 -0.58958489772E+02 -0.11763627255E+02  0.27609072366E+02  0.66156989950E+02  0.00000000000E+00 0.  1.
         13    1    3    3    0    0  0.25845630393E+02 -0.46330373727E+02  0.40053213738E+02  0.66473754752E+02  0.00000000000E+00 0. -1.
          1    1    1    2  501    0 -0.83651377918E+02  0.10367268906E+03  0.89557290733E+02  0.16051818529E+03  0.00000000000E+00 0. -1.
<scales pt_clust_5="13000.00000" pt_clust_6="13000.00000" pt_clust_7="13000.00000" pt_clust_8="13000.00000" pt_clust_9="129.57209"></scales>
<clustering>
<clus scale="   76.479">  5  6 -1 -1</clus>
<clus scale="   92.419">  7  8 -1 -1</clus>
<clus scale="  114.073">  2  7  1 -1</clus>
<clus scale="  129.572">  1  9  2 -1</clus>
<clus scale="  129.572">  1  5  2 -1</clus>
</clustering>
</event>
<event>
 9    2  0.1325014E-004  0.1400667E+03  0.7546771E-02  0.1232061E+00
         21   -1    0    0  501  502  0.00000000000E+00  0.00000000000E+00  0.85027895520E+02  0.85027895520E+02  0.00000000000E+00 0.  1.
          2   -1    0    0  502    0 -0.00000000000E+00 -0.00000000000E+00 -0.91320302203E+03  0.91320302203E+03  0.00000000000E+00 0. -1.
         23    2    1    2    0    0 -0.77628101456E+01  0.21659827563E+02 -0.37726753639E+03  0.38892417205E+03  0.91661378120E+02 0.  0.
         24    2    1    2    0    0 -0.87342333445E+01  0.10922197464E+03  0.17701013309E+01  0.13779927904E+03  0.83545086435E+02 0.  0.
        -11    1    4    4    0    0  0.18853332249E+02  0.10854067176E+03  0.34316782482E+00  0.11016643466E+03  0.00000000000E+00 0.  1.
         12    1    4    4    0    0 -0.27587565593E+02  0.68130288724E+00  0.14269335061E+01  0.27632844374E+02  0.00000000000E+00 0. -1.
        -13    1    3    3    0    0  0.41092826644E+02  0.15290053211E+02 -0.21115061466E+03  0.21565478942E+03  0.00000000000E+00 0. -1.
         13    1    3    3    0    0 -0.48855636789E+02  0.63697743520E+01 -0.16611692173E+03  0.17326938262E+03  0.00000000000E+00 0.  1.
          1    1    1    2  501    0  0.16497043490E+02 -0.13088180221E+03 -0.45267769145E+03  0.47150746646E+03  0.00000000000E+00 0. -1.
<scales pt_clust_5="13000.00000" pt_clust_6="13000.00000" pt_clust_7="13000.00000" pt_clust_8="13000.00000" pt_clust_9="112.42293"></scales>
<clustering>
<clus scale="   83.545">  5  6 -1 -1</clus>
<clus scale="   91.661">  7  8 -1 -1</clus>
<clus scale="   94.505">  2  7  1 -1</clus>
<clus scale="  112.423">  1  9  2 -1</clus>
<clus scale="  112.423">  1  5  2 -1</clus>
</clustering>
</event>
<event>
 9    2  0.1325014E-004  0.1265888E+03  0.7546771E-02  0.1234980E+00
         21   -1    0    0  501  502  0.00000000000E+00  0.00000000000E+00  0.11055104162E+03  0.11055104162E+03  0.00000000000E+00 0.  1.
         -3   -1    0    0    0  501 -0.00000000000E+00 -0.00000000000E+00 -0.29653724502E+03  0.29653724502E+03  0.00000000000E+00 0.  1.
         24    2    1    2    0    0 -0.23420299742E+01  0.12616800501E+03 -0.13533417514E+03  0.20177693512E+03  0.80465781509E+02 0.  0.
         23    2    1    2    0    0 -0.54279008356E+01 -0.33427060693E+02  0.72306688265E+01  0.95713627095E+02  0.89229957671E+02 0.  0.
        -13    1    3    3    0    0  0.33166310221E+02  0.26793261325E+02 -0.26600665358E+02  0.50254137975E+02  0.00000000000E+00 0.  1.
         14    1    3    3    0    0 -0.35508340195E+02  0.99374743681E+02 -0.10873350978E+03  0.15152279715E+03  0.00000000000E+00 0. -1.
        -11    1    4    4    0    0 -0.41883165239E+02 -0.19849589757E+02  0.25317782584E+02  0.52812838013E+02  0.00000000000E+00 0.  1.
         11    1    4    4    0    0  0.36455264404E+02 -0.13577470937E+02 -0.18087113758E+02  0.42900789082E+02  0.00000000000E+00 0. -1.
         -4    1    1    2    0  502  0.77699308099E+01 -0.92740944313E+02 -0.57882697081E+02  0.10959772442E+03  0.00000000000E+00 0.  1.
<scales pt_clust_5="13000.00000" pt_clust_6="13000.00000" pt_clust_7="13000.00000" pt_clust_8="13000.00000" pt_clust_9="93.06591"></scales>
<clustering>
<clus scale="   80.466">  5  6 -1 -1</clus>
<clus scale="   89.230">  7  8 -1 -1</clus>
<clus scale="   93.066">  1  9  2 -1</clus>
<clus scale="  120.571">  2  5  1 -1</clus>
<clus scale="   93.066">  1  5  2 -1</clus>
</clustering>
</event>
<event>
 9    2  0.1325014E-004  0.1515771E+03  0.7546771E-02  0.1226698E+00
         21   -1    0    0  501  502  0.00000000000E+00  0.00000000000E+00  0.73331228705E+02  0.73331228705E+02  0.00000000000E+00 0. -1.
          2   -1    0    0  502    0 -0.00000000000E+00 -0.00000000000E+00 -0.53992546595E+03  0.53992546595E+03  0.00000000000E+00 0. -1.
         24    2    1    2    0    0 -0.89276861952E+00 -0.16467614960E+01 -0.21336217284E+03  0.22905016812E+03  0.83288977989E+02 0.  0.
         23    2    1    2    0    0 -0.11130530568E+03  0.41722125141E+02 -0.73034332463E+02  0.16818415445E+03  0.93927042385E+02 0.  0.
        -13    1    3    3    0    0  0.30774230642E+02  0.24648552085E+02 -0.75513637419E+02  0.85187521549E+02  0.00000000000E+00 0.  1.
         14    1    3    3    0    0 -0.31666999261E+02 -0.26295313581E+02 -0.13784853543E+03  0.14386264657E+03  0.00000000000E+00 0. -1.
        -11    1    4    4    0    0 -0.38796900943E+02  0.23540762176E+02 -0.81165238764E+02  0.92990123078E+02  0.00000000000E+00 0.  1.
         11    1    4    4    0    0 -0.72508404736E+02  0.18181362966E+02  0.81309063005E+01  0.75194031372E+02  0.00000000000E+00 0. -1.
          1    1    1    2  501    0  0.11219807430E+03 -0.40075363645E+02 -0.18019773194E+03  0.21602237209E+03  0.00000000000E+00 0. -1.
<scales pt_clust_5="13000.00000" pt_clust_6="13000.00000" pt_clust_7="13000.00000" pt_clust_8="13000.00000" pt_clust_9="118.96777"></scales>
<clustering>
<clus scale="   83.289">  5  6 -1 -1</clus>
<clus scale="   83.310">  2  5  1 -1</clus>
<clus scale="   93.927">  7  8 -1 -1</clus>
<clus scale="  118.968">  1  9  2 -1</clus>
<clus scale="  118.968">  1  5  2 -1</clus>
</clustering>
</event>
<event>
 9    2  0.1325014E-004  0.2791868E+03  0.7546771E-02  0.1108263E+00
         21   -1    0    0  501  502  0.00000000000E+00  0.00000000000E+00  0.12502872605E+03  0.12502872605E+03  0.00000000000E+00 0. -1.
          4   -1    0    0  502    0 -0.00000000000E+00 -0.00000000000E+00 -0.14178770855E+04  0.14178770855E+04  0.00000000000E+00 0. -1.
         24    2    1    2    0    0 -0.48277411856E+02 -0.18120708693E+03 -0.15433582430E+03  0.25585751103E+03  0.80478583752E+02 0.  0.
         23    2    1    2    0    0 -0.15171726860E+03  0.30720472507E+03 -0.77955784007E+03  0.85725561776E+03  0.98913575802E+02 0.  0.
        -13    1    3    3    0    0 -0.36662521793E+02 -0.12755526497E+03 -0.15074640627E+03  0.20084562512E+03  0.00000000000E+00 0.  1.
         14    1    3    3    0    0 -0.11614890062E+02 -0.53651821955E+02 -0.35894180307E+01  0.55011885916E+02  0.00000000000E+00 0. -1.
        -13    1    4    4    0    0 -0.22446610810E+02  0.19508328516E+02 -0.23033850131E+02  0.37616266032E+02  0.00000000000E+00 0.  1.
         13    1    4    4    0    0 -0.12927065779E+03  0.28769639655E+03 -0.75652398994E+03  0.81963935173E+03  0.00000000000E+00 0. -1.
          3    1    1    2  501    0  0.19999468045E+03 -0.12599763814E+03 -0.35895469508E+03  0.42979268275E+03  0.00000000000E+00 0. -1.
<scales pt_clust_5="13000.00000" pt_clust_6="13000.00000" pt_clust_7="13000.00000" pt_clust_8="13000.00000" pt_clust_9="261.07734"></scales>
<clustering>
<clus scale="   80.479">  5  6 -1 -1</clus>
<clus scale="   98.914">  7  8 -1 -1</clus>
<clus scale="  204.068">  2  5  1 -1</clus>
<clus scale="  261.077">  1  9  2 -1</clus>
<clus scale="  261.077">  1  5  2 -1</clus>
</clustering>
</event>
<event>
 9    2  0.1325014E-004  0.1752691E+03  0.7546771E-02  0.1175596E+00
         21   -1    0    0  501  502  0.00000000000E+00  0.00000000000E+00  0.18311663026E+03  0.18311663026E+03  0.00000000000E+00 0.  1.
         -3   -1    0    0    0  501 -0.00000000000E+00 -0.00000000000E+00 -0.37224891304E+03  0.37224891304E+03  0.00000000000E+00 0.  1.
         24    2    1    2    0    0  0.14646329017E+03 -0.20146557635E+01 -0.20878799841E+03  0.26620040883E+03  0.76254017427E+02 0.  0.
         23    2    1    2    0    0 -0.12857182809E+03  0.91670735596E+02  0.49364229184E+02  0.19303546765E+03  0.99456653388E+02 0.  0.
        -13    1    3    3    0    0  0.12592899577E+03  0.14174624806E+02 -0.12332974273E+03  0.17683115508E+03  0.00000000000E+00 0.  1.
         14    1    3    3    0    0  0.20534294402E+02 -0.16189280569E+02 -0.85458255683E+02  0.89369253753E+02  0.00000000000E+00 0. -1.
        -13    1    4    4    0    0 -0.36462271699E+02  0.73304673066E+02 -0.91414612503E+01  0.82381057681E+02  0.00000000000E+00 0. -1.
         13    1    4    4    0    0 -0.92109556394E+02  0.18366062530E+02  0.58505690434E+02  0.11065440997E+03  0.00000000000E+00 0.  1.
         -4    1    1    2    0  502 -0.17891462076E+02 -0.89656079833E+02 -0.29708513543E+02  0.96129666821E+02  0.00000000000E+00 0.  1.
<scales pt_clust_5="13000.00000" pt_clust_6="13000.00000" pt_clust_7="13000.00000" pt_clust_8="13000.00000" pt_clust_9="91.42383"></scales>
<clustering>
<clus scale="   76.254">  5  6 -1 -1</clus>
<clus scale="   91.424">  1  9  2 -1</clus>
<clus scale="   99.457">  7  8 -1 -1</clus>
<clus scale="  163.225">  2  5  1 -1</clus>
<clus scale="   91.424">  1  5  2 -1</clus>
</clustering>
</event>
<event>
 9    2  0.1325014E-004  0.1286421E+03  0.7546771E-02  0.1232481E+00
         -3   -1    0    0    0  501 -0.00000000000E+00  0.00000000000E+00  0.94696900488E+03  0.94696900488E+03  0.00000000000E+00 0.  1.
         21   -1    0    0  501  502  0.00000000000E+00 -0.00000000000E+00 -0.37920006194E+02  0.37920006194E+02  0.00000000000E+00 0.  1.
         23    2    1    2    0    0  0.94813454568E+02 -0.89192061783E+02  0.52158816340E+03  0.54540660524E+03  0.92029005133E+02 0.  0.
         24    2    1    2    0    0 -0.66594747489E+02 -0.70313821793E+01  0.22936814194E+03  0.25226983605E+03  0.80907508393E+02 0.  0.
        -11    1    4    4    0    0 -0.69434213659E+02 -0.34027333495E+02  0.18058102626E+03  0.19643949831E+03  0.00000000000E+00 0.  1.
         12    1    4    4    0    0  0.28394661697E+01  0.26995951316E+02  0.48787115679E+02  0.55830337737E+02  0.00000000000E+00 0. -1.
        -13    1    3    3    0    0  0.24584330354E+02 -0.63093281528E+02  0.12857463350E+03  0.14531547699E+03  0.00000000000E+00 0. -1.
         13    1    3    3    0    0  0.70229124214E+02 -0.26098780255E+02  0.39301352990E+03  0.40009112825E+03  0.00000000000E+00 0.  1.
         -4    1    1    2    0  502 -0.28218707079E+02  0.96223443963E+02  0.15809269334E+03  0.18721256978E+03  0.00000000000E+00 0.  1.
<scales pt_clust_5="13000.00000" pt_clust_6="13000.00000" pt_clust_7="13000.00000" pt_clust_8="13000.00000" pt_clust_9="100.27585"></scales>
<clustering>
<clus scale="   80.908">  5  6 -1 -1</clus>
<clus scale="   92.029">  7  8 -1 -1</clus>
<clus scale="  100.276">  2  9  1 -1</clus>
<clus scale="  120.936">  2  5  1 -1</clus>
<clus scale="  100.276">  2  5  1 -1</clus>
</clustering>
</event>
<event>
 9    2  0.1325014E-004  0.1354063E+03  0.7546771E-02  0.1222804E+00
          2   -1    0    0  502    0 -0.00000000000E+00  0.00000000000E+00  0.70731820464E+03  0.70731820464E+03  0.00000000000E+00 0. -1.
         21   -1    0    0  501  502  0.00000000000E+00 -0.00000000000E+00 -0.41617087047E+02  0.41617087047E+02  0.00000000000E+00 0.  1.
         24    2    1    2    0    0 -0.31495075485E+02  0.93141386131E+02  0.40897314387E+03  0.42826108572E+03  0.80506319914E+02 0.  0.
         23    2    1    2    0    0 -0.12791536935E+02 -0.10345929296E+03  0.15310540686E+03  0.20751326039E+03  0.93557676920E+02 0.  0.
        -11    1    3    3    0    0  0.18883453651E+02  0.26170388895E+02  0.49079321639E+02  0.58738861831E+02  0.00000000000E+00 0.  1.
         12    1    3    3    0    0 -0.50378529135E+02  0.66970997236E+02  0.35989382223E+03  0.36952222389E+03  0.00000000000E+00 0. -1.
        -11    1    4    4    0    0 -0.18789630442E+02 -0.25173459100E+02 -0.42094610445E+01  0.31693419151E+02  0.00000000000E+00 0.  1.
         11    1    4    4    0    0  0.59980935076E+01 -0.78285833858E+02  0.15731486791E+03  0.17581984124E+03  0.00000000000E+00 0. -1.
          1    1    1    2  501    0  0.44286612419E+02  0.10317906827E+02  0.10362256686E+03  0.11316094558E+03  0.00000000000E+00 0. -1.
<scales pt_clust_5="13000.00000" pt_clust_6="13000.00000" pt_clust_7="13000.00000" pt_clust_8="13000.00000" pt_clust_9="45.47269"></scales>
<clustering>
<clus scale="   45.473">  2  9  1 -1</clus>
<clus scale="   80.506">  5  6 -1 -1</clus>
<clus scale="   93.558">  7  8 -1 -1</clus>
<clus scale="  126.740">  1  5  2 -1</clus>
<clus scale="   45.473">  2  5  1 -1</clus>
</clustering>
</event>
<event>
 9    2  0.1325014E-004  0.1355387E+03  0.7546771E-02  0.1233286E+00
          2   -1    0    0  502    0 -0.00000000000E+00  0.00000000000E+00  0.76313778186E+03  0.76313778186E+03  0.00000000000E+00 0. -1.
         21   -1    0    0  501  502  0.00000000000E+00 -0.00000000000E+00 -0.12390058509E+03  0.12390058509E+03  0.00000000000E+00 0. -1.
         24    2    1    2    0    0  0.11932834547E+02 -0.65923382925E+02  0.43349380115E+03  0.44526413014E+03  0.76517873746E+02 0.  0.
         23    2    1    2    0    0 -0.98050467137E+02  0.83255931244E+01  0.28284438914E+03  0.31262968511E+03  0.89739411260E+02 0.  0.
        -13    1    3    3    0    0  0.23797963406E+02  0.87283320171E+01  0.86782057360E+02  0.90408253615E+02  0.00000000000E+00 0.  1.
         14    1    3    3    0    0 -0.11865128860E+02 -0.74651714942E+02  0.34671174379E+03  0.35485587653E+03  0.00000000000E+00 0. -1.
        -13    1    4    4    0    0 -0.28412943260E+01  0.26148003319E+02  0.12255973031E+03  0.12535022347E+03  0.00000000000E+00 0.  1.
         13    1    4    4    0    0 -0.95209172811E+02 -0.17822410194E+02  0.16028465883E+03  0.18727946163E+03  0.00000000000E+00 0. -1.
          1    1    1    2  501    0  0.86117632590E+02  0.57597789800E+02 -0.77100993525E+02  0.12914455171E+03  0.00000000000E+00 0. -1.
<scales pt_clust_5="13000.00000" pt_clust_6="13000.00000" pt_clust_7="13000.00000" pt_clust_8="13000.00000" pt_clust_9="101.57543"></scales>
<clustering>
<clus scale="   76.518">  5  6 -1 -1</clus>
<clus scale="   89.739">  7  8 -1 -1</clus>
<clus scale="  101.702">  1  5  2 -1</clus>
<clus scale="  101.575">  2  9  1 -1</clus>
<clus scale="  101.575">  2  5  1 -1</clus>
</clustering>
</event>
<event>
 9    2  0.1325014E-004  0.1138824E+03  0.7546771E-02  0.1260809E+00
         -1   -1    0    0    0  501 -0.00000000000E+00  0.00000000000E+00  0.39702970807E+02  0.39702970807E+02  0.00000000000E+00 0.  1.
         21   -1    0    0  501  502  0.00000000000E+00 -0.00000000000E+00 -0.80603274260E+03  0.80603274260E+03  0.00000000000E+00 0. -1.
         23    2    1    2    0    0 -0.53371737628E+02  0.95603895354E+01 -0.68871325704E+02  0.13162558468E+03  0.98194152644E+02 0.  0.
         24    2    1    2    0    0  0.67177512414E+02 -0.46125570743E+02 -0.51950324246E+03  0.53191334941E+03  0.80048772015E+02 0.  0.
        -11    1    4    4    0    0  0.98016184885E+01 -0.53038737820E+02 -0.19586264080E+03  0.20315352198E+03  0.00000000000E+00 0.  1.
         12    1    4    4    0    0  0.57375893926E+02  0.69131670774E+01 -0.32364060167E+03  0.32875982743E+03  0.00000000000E+00 0. -1.
        -13    1    3    3    0    0 -0.18640227284E+02  0.42930574787E+02  0.93897278884E+00  0.46812113760E+02  0.00000000000E+00 0.  1.
         13    1    3    3    0    0 -0.34731510343E+02 -0.33370185251E+02 -0.69810298493E+02  0.84813470924E+02  0.00000000000E+00 0. -1.
         -2    1    1    2    0  502 -0.13805774787E+02  0.36565181207E+02 -0.17795520363E+03  0.18219677931E+03  0.00000000000E+00 0.  1.
<scales pt_clust_5="13000.00000" pt_clust_6="13000.00000" pt_clust_7="13000.00000" pt_clust_8="13000.00000" pt_clust_9="39.08468"></scales>
<clustering>
<clus scale="   39.085">  2  9  1 -1</clus>
<clus scale="   80.049">  5  6 -1 -1</clus>
<clus scale="   98.194">  7  8 -1 -1</clus>
<clus scale="   98.666">  2  5  1 -1</clus>
<clus scale="   39.085">  2  5  1 -1</clus>
</clustering>
</event>
<event>
 9    2  0.1325014E-004  0.1217544E+03  0.7546771E-02  0.1243584E+00
         21   -1    0    0  501  502  0.00000000000E+00  0.00000000000E+00  0.12401504471E+03  0.12401504471E+03  0.00000000000E+00 0.  1.
          2   -1    0    0  502    0 -0.00000000000E+00 -0.00000000000E+00 -0.17532062593E+03  0.17532062593E+03  0.00000000000E+00 0. -1.
         23    2    1    2    0    0 -0.82207307363E+02  0.37204204091E+02 -0.37079188847E+02  0.13371913036E+03  0.91453514934E+02 0.  0.
         24    2    1    2    0    0  0.63153409869E+02 -0.19121534896E+02  0.35000141984E+02  0.10981971581E+03  0.80506979613E+02 0.  0.
        -11    1    4    4    0    0  0.75362866799E+01  0.29357969822E+02  0.98169446043E+01  0.31859981331E+02  0.00000000000E+00 0.  1.
         12    1    4    4    0    0  0.55617123189E+02 -0.48479504719E+02  0.25183197379E+02  0.77959734478E+02  0.00000000000E+00 0. -1.
        -13    1    3    3    0    0 -0.76987522778E+01  0.38330667109E+02  0.15986331294E+02  0.42238295608E+02  0.00000000000E+00 0. -1.
         13    1    3    3    0    0 -0.74508555085E+02 -0.11264630175E+01 -0.53065520141E+02  0.91480834756E+02  0.00000000000E+00 0.  1.
          1    1    1    2  501    0  0.19053897494E+02 -0.18082669195E+02 -0.49226534358E+02  0.55796824460E+02  0.00000000000E+00 0. -1.
<scales pt_clust_5="13000.00000" pt_clust_6="13000.00000" pt_clust_7="13000.00000" pt_clust_8="13000.00000" pt_clust_9="26.26851"></scales>
<clustering>
<clus scale="   26.269">  1  9  2 -1</clus>
<clus scale="   80.507">  5  6 -1 -1</clus>
<clus scale="   91.454">  7  8 -1 -1</clus>
<clus scale="  113.762">  1  5  2 -1</clus>
<clus scale="   26.269">  1  5  2 -1</clus>
</clustering>
</event>
<event>
 9    2  0.1325014E-004  0.1052508E+03  0.7546771E-02  0.1274723E+00
          2   -1    0    0  502    0 -0.00000000000E+00  0.00000000000E+00  0.61844425261E+02  0.61844425261E+02  0.00000000000E+00 0. -1.
         21   -1    0    0  501  502  0.00000000000E+00 -0.00000000000E+00 -0.59516282906E+03  0.59516282906E+03  0.00000000000E+00 0. -1.
         23    2    1    2    0    0  0.28986177319E+02 -0.58708312160E+02 -0.43099436061E+02  0.12068435787E+03  0.91762129730E+02 0.  0.
         24    2    1    2    0    0  0.52547332478E+02  0.38727690185E+02 -0.12843811953E+03  0.16493048861E+03  0.80278635931E+02 0.  0.
        -11    1    4    4    0    0 -0.13740201794E+02  0.29213972772E+02 -0.21613304716E+02  0.38850795245E+02  0.00000000000E+00 0.  1.
         12    1    4    4    0    0  0.66287534272E+02  0.95137174127E+01 -0.10682481481E+03  0.12607969336E+03  0.00000000000E+00 0. -1.
        -11    1    3    3    0    0 -0.30724622998E+02 -0.36689642151E+02 -0.97645556828E+01  0.48841364100E+02  0.00000000000E+00 0.  1.
         11    1    3    3    0    0  0.59710800316E+02 -0.22018670010E+02 -0.33334880378E+02  0.71842993766E+02  0.00000000000E+00 0. -1.
          1    1    1    2  501    0 -0.81533509797E+02  0.19980621976E+02 -0.36178084821E+03  0.37139240784E+03  0.00000000000E+00 0. -1.
<scales pt_clust_5="13000.00000" pt_clust_6="13000.00000" pt_clust_7="13000.00000" pt_clust_8="13000.00000" pt_clust_9="83.94605"></scales>
<clustering>
<clus scale="   80.279">  5  6 -1 -1</clus>
<clus scale="   83.946">  2  9  1 -1</clus>
<clus scale="   91.762">  7  8 -1 -1</clus>
<clus scale="   95.405">  2  5  1 -1</clus>
<clus scale="   83.946">  2  5  1 -1</clus>
</clustering>
</event>
<event>
 9    2  0.1325014E-004  0.9193811E+02  0.7546771E-02  0.1304893E+00
         21   -1    0    0  501  502  0.00000000000E+00  0.00000000000E+00  0.20614827409E+03  0.20614827409E+03  0.00000000000E+00 0. -1.
          2   -1    0    0  502    0 -0.00000000000E+00 -0.00000000000E+00 -0.15242731325E+03  0.15242731325E+03  0.00000000000E+00 0. -1.
         24    2    1    2    0    0 -0.80937980822E+01  0.11727249816E+02 -0.10947662314E+03  0.13668125272E+03  0.80582851000E+02 0.  0.
         23    2    1    2    0    0 -0.33892741715E+02  0.97286463391E+01  0.13573089038E+03  0.16732653952E+03  0.91279415670E+02 0.  0.
        -13    1    3    3    0    0  0.28458297753E+02  0.39276093193E+01 -0.10005972486E+02  0.30420721743E+02  0.00000000000E+00 0.  1.
         14    1    3    3    0    0 -0.36552095836E+02  0.77996404963E+01 -0.99470650659E+02  0.10626053098E+03  0.00000000000E+00 0. -1.
        -13    1    4    4    0    0 -0.32970045462E+02  0.46301059379E+02  0.10562484029E+03  0.11994756723E+03  0.00000000000E+00 0. -1.
         13    1    4    4    0    0 -0.92269625273E+00 -0.36572413039E+02  0.30106050091E+02  0.47378972298E+02  0.00000000000E+00 0.  1.
          1    1    1    2  501    0  0.41986539797E+02 -0.21455896155E+02  0.27466693599E+02  0.54567795092E+02  0.00000000000E+00 0. -1.
<scales pt_clust_5="13000.00000" pt_clust_6="13000.00000" pt_clust_7="13000.00000" pt_clust_8="13000.00000" pt_clust_9="47.15109"></scales>
<clustering>
<clus scale="   47.151">  1  9  2 -1</clus>
<clus scale="   80.583">  5  6 -1 -1</clus>
<clus scale="   81.328">  2  5  1 -1</clus>
<clus scale="   91.279">  7  8 -1 -1</clus>
<clus scale="   47.151">  1  5  2 -1</clus>
</clustering>
</event>
<event>
 9    2  0.1325014E-004  0.2339483E+03  0.7546771E-02  0.1153096E+00
         21   -1    0    0  501  502  0.00000000000E+00  0.00000000000E+00  0.10840248544E+03  0.10840248544E+03  0.00000000000E+00 0.  1.
          2   -1    0    0  502    0 -0.00000000000E+00 -0.00000000000E+00 -0.10286541339E+04  0.10286541339E+04  0.00000000000E+00 0. -1.
         23    2    1    2    0    0 -0.30024265085E+02 -0.63127589674E+02 -0.49439232114E+03  0.50768805662E+03  0.91852308401E+02 0.  0.
         24    2    1    2    0    0  0.15208747526E+03 -0.13481819356E+03 -0.27554149492E+03  0.35246169914E+03  0.83663543408E+02 0.  0.
        -13    1    4    4    0    0  0.86251493730E+02 -0.10535030739E+03 -0.12197961092E+03  0.18280326287E+03  0.00000000000E+00 0.  1.
         14    1    4    4    0    0  0.65835981526E+02 -0.29467886168E+02 -0.15356188400E+03  0.16965843627E+03  0.00000000000E+00 0. -1.
        -11    1    3    3    0    0 -0.62706000586E+02 -0.42269739309E+02 -0.29328382739E+03  0.30287650417E+03  0.00000000000E+00 0. -1.
         11    1    3    3    0    0  0.32681735501E+02 -0.20857850365E+02 -0.20110849375E+03  0.20481155244E+03  0.00000000000E+00 0.  1.
          1    1    1    2  501    0 -0.12206321017E+03  0.19794578323E+03 -0.15031783245E+03  0.27690686363E+03  0.00000000000E+00 0. -1.
<scales pt_clust_5="13000.00000" pt_clust_6="13000.00000" pt_clust_7="13000.00000" pt_clust_8="13000.00000" pt_clust_9="218.47708"></scales>
<clustering>
<clus scale="   83.664">  5  6 -1 -1</clus>
<clus scale="   91.852">  7  8 -1 -1</clus>
<clus scale="  115.427">  2  7  1 -1</clus>
<clus scale="  218.477">  1  9  2 -1</clus>
<clus scale="  218.477">  1  5  2 -1</clus>
</clustering>
</event>
<event>
 9    2  0.1325014E-004  0.9662554E+02  0.7546771E-02  0.1292501E+00
         21   -1    0    0  501  502  0.00000000000E+00  0.00000000000E+00  0.36628717181E+02  0.36628717181E+02  0.00000000000E+00 0.  1.
          2   -1    0    0  502    0 -0.00000000000E+00 -0.00000000000E+00 -0.42558852743E+03  0.42558852743E+03  0.00000000000E+00 0. -1.
         23    2    1    2    0    0  0.31152445758E+02  0.23088112393E+00 -0.29075896151E+03  0.30603320536E+03  0.90249769540E+02 0.  0.
         24    2    1    2    0    0 -0.43512958926E+02 -0.22264159753E+02 -0.66570916253E+02  0.11570317609E+03  0.81033743977E+02 0.  0.
        -11    1    4    4    0    0 -0.39580707222E+02  0.19299341173E+02 -0.95946557161E+01  0.45068330035E+02  0.00000000000E+00 0.  1.
         12    1    4    4    0    0 -0.39322517047E+01 -0.41563500926E+02 -0.56976260537E+02  0.70634846056E+02  0.00000000000E+00 0. -1.
        -11    1    3    3    0    0 -0.13504771670E+02 -0.35640480819E+02 -0.12242658592E+03  0.12822204050E+03  0.00000000000E+00 0.  1.
         11    1    3    3    0    0  0.44657217427E+02  0.35871361943E+02 -0.16833237560E+03  0.17781116486E+03  0.00000000000E+00 0. -1.
          1    1    1    2  501    0  0.12360513169E+02  0.22033278629E+02 -0.31629932486E+02  0.40480863158E+02  0.00000000000E+00 0. -1.
<scales pt_clust_5="13000.00000" pt_clust_6="13000.00000" pt_clust_7="13000.00000" pt_clust_8="13000.00000" pt_clust_9="25.26356"></scales>
<clustering>
<clus scale="   25.264">  1  9  2 -1</clus>
<clus scale="   81.034">  5  6 -1 -1</clus>
<clus scale="   88.079">  1  5  2 -1</clus>
<clus scale="   90.250">  7  8 -1 -1</clus>
<clus scale="   25.264">  1  5  2 -1</clus>
</clustering>
</event>
<event>
 9    2  0.1325014E-004  0.1553478E+03  0.7546771E-02  0.1219203E+00
          2   -1    0    0  502    0 -0.00000000000E+00  0.00000000000E+00  0.69704312265E+03  0.69704312265E+03  0.00000000000E+00 0. -1.
         21   -1    0    0  501  502  0.00000000000E+00 -0.00000000000E+00 -0.16655625536E+03  0.16655625536E+03  0.00000000000E+00 0.  1.
         24    2    1    2    0    0 -0.16169708830E+02 -0.43091968859E+02 -0.34304671170E+00  0.90510968719E+02  0.77934206312E+02 0.  0.
         23    2    1    2    0    0 -0.10009198770E+03  0.91708057794E+02  0.60515302040E+03  0.62678656267E+03  0.90677688464E+02 0.  0.
        -11    1    3    3    0    0 -0.38004205634E+02 -0.36563174769E+02 -0.23753520754E+02  0.57839563823E+02  0.00000000000E+00 0.  1.
         12    1    3    3    0    0  0.21834496804E+02 -0.65287940902E+01  0.23410474042E+02  0.32671404895E+02  0.00000000000E+00 0. -1.
        -13    1    4    4    0    0 -0.82176486775E+02  0.17408490858E+02  0.37433141019E+03  0.38364050254E+03  0.00000000000E+00 0.  1.
         13    1    4    4    0    0 -0.17915500920E+02  0.74299566936E+02  0.23082161020E+03  0.24314606013E+03  0.00000000000E+00 0. -1.
          1    1    1    2  501    0  0.11626169652E+03 -0.48616088935E+02 -0.74323106394E+02  0.14630184663E+03  0.00000000000E+00 0. -1.
<scales pt_clust_5="13000.00000" pt_clust_6="13000.00000" pt_clust_7="13000.00000" pt_clust_8="13000.00000" pt_clust_9="126.13684"></scales>
<clustering>
<clus scale="   77.934">  5  6 -1 -1</clus>
<clus scale="   90.510">  1  5  2 -1</clus>
<clus scale="   90.678">  7  8 -1 -1</clus>
<clus scale="  126.137">  2  9  1 -1</clus>
<clus scale="  126.137">  2  5  1 -1</clus>
</clustering>
</event>
<event>
 9    2  0.1325014E-004  0.1293227E+03  0.7546771E-02  0.1229700E+00
          2   -1    0    0  502    0 -0.00000000000E+00  0.00000000000E+00  0.74197772541E+03  0.74197772541E+03  0.00000000000E+00 0. -1.
         21   -1    0    0  501  502  0.00000000000E+00 -0.00000000000E+00 -0.20882643864E+03  0.20882643864E+03  0.00000000000E+00 0.  1.
         24    2    1    2    0    0 -0.31518141727E+02  0.88438683450E+02  0.66665028379E+03  0.67816960479E+03  0.81710574578E+02 0.  0.
         23    2    1    2    0    0  0.49194158327E+02 -0.11953650148E+03 -0.24030238660E+02  0.15746978641E+03  0.86661645860E+02 0.  0.
        -13    1    3    3    0    0 -0.54498981203E+02  0.31231983455E+02  0.33754474992E+03  0.34333953158E+03  0.00000000000E+00 0.  1.
         14    1    3    3    0    0  0.22980839476E+02  0.57206699995E+02  0.32910553387E+03  0.33483007321E+03  0.00000000000E+00 0. -1.
        -13    1    4    4    0    0  0.15202012037E+02 -0.95069044681E+02 -0.49698748182E+02  0.10834754265E+03  0.00000000000E+00 0.  1.
         13    1    4    4    0    0  0.33992146290E+02 -0.24467456798E+02  0.25668509521E+02  0.49122243766E+02  0.00000000000E+00 0. -1.
          1    1    1    2  501    0 -0.17676016600E+02  0.31097818029E+02 -0.10946875836E+03  0.11516477285E+03  0.00000000000E+00 0. -1.
<scales pt_clust_5="13000.00000" pt_clust_6="13000.00000" pt_clust_7="13000.00000" pt_clust_8="13000.00000" pt_clust_9="35.77032"></scales>
<clustering>
<clus scale="   35.770">  2  9  1 -1</clus>
<clus scale="   81.711">  5  6 -1 -1</clus>
<clus scale="   86.662">  7  8 -1 -1</clus>
<clus scale="  126.058">  1  5  2 -1</clus>
<clus scale="   35.770">  2  5  1 -1</clus>
</clustering>
</event>
<event>
 9    2  0.1325014E-004  0.1051883E+03  0.7546771E-02  0.1273309E+00
         21   -1    0    0  501  502  0.00000000000E+00  0.00000000000E+00  0.22538551199E+03  0.22538551199E+03  0.00000000000E+00 0.  1.
          4   -1    0    0  502    0 -0.00000000000E+00 -0.00000000000E+00 -0.15489962896E+03  0.15489962896E+03  0.00000000000E+00 0. -1.
         23    2    1    2    0    0 -0.25859638322E+02 -0.32785782929E+02 -0.81246130917E+02  0.12976648537E+03  0.92167122554E+02 0.  0.
         24    2    1    2    0    0  0.47046342460E+02  0.93625429031E+02  0.11114885340E+03  0.17437844353E+03  0.84111204102E+02 0.  0.
        -13    1    4    4    0    0  0.67335630721E+02  0.46198873318E+02  0.78858064688E+02  0.11352099994E+03  0.00000000000E+00 0.  1.
         14    1    4    4    0    0 -0.20289288261E+02  0.47426555713E+02  0.32290788714E+02  0.60857443593E+02  0.00000000000E+00 0. -1.
        -13    1    3    3    0    0  0.13399857652E+02 -0.16668297930E+02  0.13953296518E+02  0.25535912451E+02  0.00000000000E+00 0.  1.
         13    1    3    3    0    0 -0.39259495974E+02 -0.16117484999E+02 -0.95199427436E+02  0.10423057292E+03  0.00000000000E+00 0. -1.
          3    1    1    2  501    0 -0.21186704138E+02 -0.60839646102E+02  0.40583160545E+02  0.76140212043E+02  0.00000000000E+00 0. -1.
<scales pt_clust_5="13000.00000" pt_clust_6="13000.00000" pt_clust_7="13000.00000" pt_clust_8="13000.00000" pt_clust_9="64.42312"></scales>
<clustering>
<clus scale="   64.423">  1  9  2 -1</clus>
<clus scale="   84.111">  5  6 -1 -1</clus>
<clus scale="   92.167">  7  8 -1 -1</clus>
<clus scale="   98.206">  1  5  2 -1</clus>
<clus scale="   64.423">  1  5  2 -1</clus>
</clustering>
</event>
<event>
 9    2  0.1325014E-004  0.1050694E+03  0.7546771E-02  0.1285873E+00
         21   -1    0    0  501  502  0.00000000000E+00  0.00000000000E+00  0.30583401368E+02  0.30583401368E+02  0.00000000000E+00 0. -1.
          2   -1    0    0  502    0 -0.00000000000E+00 -0.00000000000E+00 -0.65794789540E+03  0.65794789540E+03  0.00000000000E+00 0. -1.
         23    2    1    2    0    0 -0.28033063123E+02 -0.61735533978E+01 -0.36239155309E+03  0.37760816878E+03  0.10215833782E+03 0.  0.
         24    2    1    2    0    0 -0.11029798588E+02  0.46976601291E+02 -0.85186264937E+02  0.12247142396E+03  0.73580516634E+02 0.  0.
        -11    1    4    4    0    0  0.93077930034E+01  0.31272009816E+02 -0.90526564397E+02  0.96226984106E+02  0.00000000000E+00 0.  1.
         12    1    4    4    0    0 -0.20337591592E+02  0.15704591475E+02  0.53402994601E+01  0.26244439858E+02  0.00000000000E+00 0. -1.
        -13    1    3    3    0    0 -0.63939199338E+02 -0.20927442563E+02 -0.23317355189E+03  0.24268515481E+03  0.00000000000E+00 0. -1.
         13    1    3    3    0    0  0.35906136214E+02  0.14753889165E+02 -0.12921800120E+03  0.13492301396E+03  0.00000000000E+00 0.  1.
          1    1    1    2  501    0  0.39062861712E+02 -0.40803047893E+02 -0.17978667601E+03  0.18845170403E+03  0.00000000000E+00 0. -1.
<scales pt_clust_5="13000.00000" pt_clust_6="13000.00000" pt_clust_7="13000.00000" pt_clust_8="13000.00000" pt_clust_9="56.48716"></scales>
<clustering>
<clus scale="   56.487">  1  9  2 -1</clus>
<clus scale="   73.581">  5  6 -1 -1</clus>
<clus scale="   77.572">  1  5  2 -1</clus>
<clus scale="  102.158">  7  8 -1 -1</clus>
<clus scale="   56.487">  1  5  2 -1</clus>
</clustering>
</event>
<event>
 9    2  0.1325014E-004  0.8934727E+02  0.7546771E-02  0.1305406E+00
          2   -1    0    0  502    0 -0.00000000000E+00  0.00000000000E+00  0.14040347920E+03  0.14040347920E+03  0.00000000000E+00 0. -1.
         21   -1    0    0  501  502  0.00000000000E+00 -0.00000000000E+00 -0.20137414851E+03  0.20137414851E+03  0.00000000000E+00 0. -1.
         24    2    1    2    0    0  0.48193216591E+02 -0.16694585217E+02  0.79441539347E+02  0.12420579193E+03  0.80714467558E+02 0.  0.
         23    2    1    2    0    0  0.30249933600E+02  0.19002697933E+02 -0.85784077312E+02  0.12195338605E+03  0.78978221282E+02 0.  0.
        -13    1    3    3    0    0 -0.21493115383E+02  0.45029358964E+01  0.12445755918E+02  0.25241380329E+02  0.00000000000E+00 0.  1.
         14    1    3    3    0    0  0.69686331974E+02 -0.21197521113E+02  0.66995783429E+02  0.98964411596E+02  0.00000000000E+00 0. -1.
        -13    1    4    4    0    0  0.16705781163E+02 -0.29587837504E+02 -0.21374502599E+02  0.40142155071E+02  0.00000000000E+00 0.  1.
         13    1    4    4    0    0  0.13544152437E+02  0.48590535437E+02 -0.64409574712E+02  0.81811230977E+02  0.00000000000E+00 0. -1.
          1    1    1    2  501    0 -0.78443150190E+02 -0.23081127165E+01 -0.54628131342E+02  0.95618449736E+02  0.00000000000E+00 0. -1.
<scales pt_clust_5="13000.00000" pt_clust_6="13000.00000" pt_clust_7="13000.00000" pt_clust_8="13000.00000" pt_clust_9="78.47710"></scales>
<clustering>
<clus scale="   78.477">  2  9  1 -1</clus>
<clus scale="   78.978">  7  8 -1 -1</clus>
<clus scale="   80.714">  5  6 -1 -1</clus>
<clus scale="   87.782">  2  7  1 -1</clus>
<clus scale="   78.477">  2  5  1 -1</clus>
</clustering>
</event>
<event>
 9    2  0.1325014E-004  0.1232606E+03  0.7546771E-02  0.1258017E+00
         21   -1    0    0  501  502  0.00000000000E+00  0.00000000000E+00  0.36323583583E+03  0.36323583583E+03  0.00000000000E+00 0.  1.
         -1   -1    0    0    0  501 -0.00000000000E+00 -0.00000000000E+00 -0.72532599117E+02  0.72532599117E+02  0.00000000000E+00 0.  1.
         24    2    1    2    0    0 -0.13724573652E+02 -0.12211099027E+02  0.18106696737E+03  0.19885497981E+03  0.80128530874E+02 0.  0.
         23    2    1    2    0    0 -0.30567267408E+02  0.83384181780E+02  0.58281582847E+02  0.13860435730E+03  0.89034517773E+02 0.  0.
        -13    1    3    3    0    0 -0.22407637661E+01 -0.43756137886E+02  0.13444781050E+03  0.14140662776E+03  0.00000000000E+00 0.  1.
         14    1    3    3    0    0 -0.11483809886E+02  0.31545038859E+02  0.46619156869E+02  0.57448352050E+02  0.00000000000E+00 0. -1.
        -11    1    4    4    0    0 -0.55482353995E+02  0.64145636065E+02  0.16680540285E+02  0.86436072651E+02  0.00000000000E+00 0.  1.
         11    1    4    4    0    0  0.24915086587E+02  0.19238545715E+02  0.41601042562E+02  0.52168284648E+02  0.00000000000E+00 0. -1.
         -2    1    1    2    0  502  0.44291841060E+02 -0.71173082752E+02  0.51354686492E+02  0.98309097838E+02  0.00000000000E+00 0.  1.
<scales pt_clust_5="13000.00000" pt_clust_6="13000.00000" pt_clust_7="13000.00000" pt_clust_8="13000.00000" pt_clust_9="85.24105"></scales>
<clustering>
<clus scale="   80.129">  5  6 -1 -1</clus>
<clus scale="   82.207">  2  5  1 -1</clus>
<clus scale="   85.241">  1  9  2 -1</clus>
<clus scale="   89.035">  7  8 -1 -1</clus>
<clus scale="   85.241">  1  5  2 -1</clus>
</clustering>
</event>
<event>
 9    2  0.1333485E-004  0.9591449E+02  0.7546771E-02  0.1294493E+00
         21   -1    0    0  501  502  0.00000000000E+00  0.00000000000E+00  0.39303510756E+02  0.39303510756E+02  0.00000000000E+00 0. -1.
         -1   -1    0    0    0  501 -0.00000000000E+00 -0.00000000000E+00 -0.57577083035E+03  0.57577083035E+03  0.00000000000E+00 0.  1.
         23    2    1    2    0    0  0.55583946127E+02  0.45942830277E+01 -0.16918577943E+03  0.20006006470E+03  0.91046795781E+02 0.  0.
         24    2    1    2    0    0  0.45891487373E+01  0.58913566286E-01 -0.58308752931E+02  0.10020221051E+03  0.81360362377E+02 0.  0.
        -13    1    4    4    0    0 -0.17210735443E+02  0.33200967718E+02 -0.44662504118E+02  0.58251634707E+02  0.00000000000E+00 0.  1.
         14    1    4    4    0    0  0.21799884181E+02 -0.33142054151E+02 -0.13646248813E+02  0.41950575805E+02  0.00000000000E+00 0. -1.
        -13    1    3    3    0    0 -0.19436401608E+02 -0.62276234789E+01 -0.82143870769E+02  0.84641434928E+02  0.00000000000E+00 0.  1.
         13    1    3    3    0    0  0.75020347735E+02  0.10821906507E+02 -0.87041908660E+02  0.11541862977E+03  0.00000000000E+00 0. -1.
         -2    1    1    2    0  502 -0.60173094864E+02 -0.46531965940E+01 -0.30897278723E+03  0.31481206590E+03  0.00000000000E+00 0.  1.
<scales pt_clust_5="13000.00000" pt_clust_6="13000.00000" pt_clust_7="13000.00000" pt_clust_8="13000.00000" pt_clust_9="60.35277"></scales>
<clustering>
<clus scale="   60.353">  1  9  2 -1</clus>
<clus scale="   81.360">  5  6 -1 -1</clus>
<clus scale="   86.773">  1  5  2 -1</clus>
<clus scale="   91.047">  7  8 -1 -1</clus>
<clus scale="   60.353">  1  5  2 -1</clus>
</clustering>
</event>
<event>
 9    2  0.1325014E-004  0.1010910E+03  0.7546771E-02  0.1281416E+00
         -3   -1    0    0    0  501 -0.00000000000E+00  0.00000000000E+00  0.59699026477E+03  0.59699026477E+03  0.00000000000E+00 0.  1.
         21   -1    0    0  501  502  0.00000000000E+00 -0.00000000000E+00 -0.26090317836E+02  0.26090317836E+02  0.00000000000E+00 0.  1.
         24    2    1    2    0    0 -0.41768503749E+02 -0.29733385371E+02  0.31502302465E+03  0.32922581330E+03  0.80755482588E+02 0.  0.
         23    2    1    2    0    0  0.52195985098E+02  0.57570689628E+00  0.13718835865E+03  0.17119313016E+03  0.88100452706E+02 0.  0.
        -13    1    3    3    0    0 -0.55458195175E+02  0.69979279656E+01  0.20234302576E+03  0.20992208670E+03  0.00000000000E+00 0.  1.
         14    1    3    3    0    0  0.13689691427E+02 -0.36731313337E+02  0.11267999889E+03  0.11930372660E+03  0.00000000000E+00 0. -1.
        -13    1    4    4    0    0 -0.60290292489E+01  0.33895230895E+02  0.36227803300E+02  0.49976890690E+02  0.00000000000E+00 0. -1.
         13    1    4    4    0    0  0.58225014347E+02 -0.33319523999E+02  0.10096055535E+03  0.12121623947E+03  0.00000000000E+00 0.  1.
         -4    1    1    2    0  502 -0.10427481349E+02  0.29157678475E+02  0.11868856363E+03  0.12266163915E+03  0.00000000000E+00 0.  1.
<scales pt_clust_5="13000.00000" pt_clust_6="13000.00000" pt_clust_7="13000.00000" pt_clust_8="13000.00000" pt_clust_9="30.96617"></scales>
<clustering>
<clus scale="   30.966">  2  9  1 -1</clus>
<clus scale="   80.755">  5  6 -1 -1</clus>
<clus scale="   88.100">  7  8 -1 -1</clus>
<clus scale="   94.758">  1  5  2 -1</clus>
<clus scale="   30.966">  2  5  1 -1</clus>
</clustering>
</event>
<event>
 9    2  0.1325014E-004  0.9396005E+02  0.7546771E-02  0.1300713E+00
         21   -1    0    0  501  502  0.00000000000E+00  0.00000000000E+00  0.76330354091E+02  0.76330354091E+02  0.00000000000E+00 0. -1.
          2   -1    0    0  502    0 -0.00000000000E+00 -0.00000000000E+00 -0.28107560011E+03  0.28107560011E+03  0.00000000000E+00 0. -1.
         23    2    1    2    0    0  0.17780881278E+02  0.23196625345E+02 -0.14490233909E+03  0.17379166869E+03  0.91392631354E+02 0.  0.
         24    2    1    2    0    0  0.55385038615E+02 -0.16565013562E+02 -0.47787070108E+02  0.10916582475E+03  0.79320054502E+02 0.  0.
        -11    1    4    4    0    0  0.23620930044E+02 -0.21471547179E+02 -0.65211855022E+02  0.72605521208E+02  0.00000000000E+00 0.  1.
         12    1    4    4    0    0  0.31764108571E+02  0.49065336171E+01  0.17424784915E+02  0.36560303538E+02  0.00000000000E+00 0. -1.
        -11    1    3    3    0    0  0.20166506368E+02  0.55068751989E+02 -0.11894852433E+03  0.13261978309E+03  0.00000000000E+00 0.  1.
         11    1    3    3    0    0 -0.23856250893E+01 -0.31872126644E+02 -0.25953814762E+02  0.41171885609E+02  0.00000000000E+00 0. -1.
          1    1    1    2  501    0 -0.73165919894E+02 -0.66316117827E+01 -0.12055836819E+02  0.74448460764E+02  0.00000000000E+00 0. -1.
<scales pt_clust_5="13000.00000" pt_clust_6="13000.00000" pt_clust_7="13000.00000" pt_clust_8="13000.00000" pt_clust_9="73.46584"></scales>
<clustering>
<clus scale="   73.466">  1  9  2 -1</clus>
<clus scale="   79.320">  5  6 -1 -1</clus>
<clus scale="   82.265">  1  5  2 -1</clus>
<clus scale="   91.393">  7  8 -1 -1</clus>
<clus scale="   73.466">  1  5  2 -1</clus>
</clustering>
</event>
<event>
 9    2  0.1325014E-004  0.1233167E+03  0.7546771E-02  0.1237798E+00
         21   -1    0    0  501  502  0.00000000000E+00  0.00000000000E+00  0.50982617616E+03  0.50982617616E+03  0.00000000000E+00 0. -1.
         -3   -1    0    0    0  501 -0.00000000000E+00 -0.00000000000E+00 -0.80240451264E+02  0.80240451264E+02  0.00000000000E+00 0.  1.
         23    2    1    2    0    0  0.26272218605E+02  0.75411834015E+02 -0.56946079692E+01  0.12192546676E+03  0.91957689757E+02 0.  0.
         24    2    1    2    0    0 -0.51442570964E+02 -0.78512988916E+02  0.26378157204E+03  0.29477741369E+03  0.92208342020E+02 0.  0.
        -11    1    4    4    0    0 -0.49497458722E+02  0.31344177019E+01  0.89983428746E+02  0.10274648628E+03  0.00000000000E+00 0.  1.
         12    1    4    4    0    0 -0.19451122416E+01 -0.81647406618E+02  0.17379814329E+03  0.19203092741E+03  0.00000000000E+00 0. -1.
        -13    1    3    3    0    0  0.21987072713E+02  0.85808052738E+01 -0.40180208730E+02  0.46599471663E+02  0.00000000000E+00 0.  1.
         13    1    3    3    0    0  0.42851458921E+01  0.66831028741E+02  0.34485600761E+02  0.75325995099E+02  0.00000000000E+00 0. -1.
         -4    1    1    2    0  502  0.25170352359E+02  0.31011549017E+01  0.17149876082E+03  0.17336374697E+03  0.00000000000E+00 0.  1.
<scales pt_clust_5="13000.00000" pt_clust_6="13000.00000" pt_clust_7="13000.00000" pt_clust_8="13000.00000" pt_clust_9="25.36067"></scales>
<clustering>
<clus scale="   25.361">  1  9  2 -1</clus>
<clus scale="   91.958">  7  8 -1 -1</clus>
<clus scale="   92.208">  5  6 -1 -1</clus>
<clus scale="  123.129">  2  7  1 -1</clus>
<clus scale="   25.361">  1  5  2 -1</clus>
</clustering>
</event>
<event>
 9    2  0.1325014E-004  0.9736644E+02  0.7546771E-02  0.1292719E+00
         21   -1    0    0  501  502  0.00000000000E+00  0.00000000000E+00  0.18281696263E+03  0.18281696263E+03  0.00000000000E+00 0.  1.
         -3   -1    0    0    0  501 -0.00000000000E+00 -0.00000000000E+00 -0.10386015872E+03  0.10386015872E+03  0.00000000000E+00 0.  1.
         23    2    1    2    0    0 -0.51833565373E+01 -0.58193842830E+01 -0.89318508343E+01  0.93964365057E+02  0.93213687422E+02 0.  0.
         24    2    1    2    0    0  0.48131301708E+02  0.52622502358E+02  0.58011348543E+02  0.12251509764E+03  0.80986928764E+02 0.  0.
        -11    1    4    4    0    0 -0.65181644360E+01  0.19533376677E+02  0.54807804059E+02  0.58548566658E+02  0.00000000000E+00 0.  1.
         12    1    4    4    0    0  0.54649466144E+02  0.33089125681E+02  0.32035444848E+01  0.63966530979E+02  0.00000000000E+00 0. -1.
        -11    1    3    3    0    0  0.14617956828E+02  0.35715891251E+02 -0.24119456458E+02  0.45508875283E+02  0.00000000000E+00 0. -1.
         11    1    3    3    0    0 -0.19801313365E+02 -0.41535275534E+02  0.15187605624E+02  0.48455489774E+02  0.00000000000E+00 0.  1.
         -4    1    1    2    0  502 -0.42947945170E+02 -0.46803118075E+02  0.29877306199E+02  0.70197658662E+02  0.00000000000E+00 0.  1.
<scales pt_clust_5="13000.00000" pt_clust_6="13000.00000" pt_clust_7="13000.00000" pt_clust_8="13000.00000" pt_clust_9="63.52211"></scales>
<clustering>
<clus scale="   63.522">  1  9  2 -1</clus>
<clus scale="   80.987">  5  6 -1 -1</clus>
<clus scale="   85.734">  1  5  2 -1</clus>
<clus scale="   93.214">  7  8 -1 -1</clus>
<clus scale="   63.522">  1  5  2 -1</clus>
</clustering>
</event>
<event>
 9    2  0.1325014E-004  0.1218153E+03  0.7546771E-02  0.1246236E+00
         21   -1    0    0  501  502  0.00000000000E+00  0.00000000000E+00  0.34809780415E+03  0.34809780415E+03  0.00000000000E+00 0.  1.
          2   -1    0    0  502    0 -0.00000000000E+00 -0.00000000000E+00 -0.19381528590E+03  0.19381528590E+03  0.00000000000E+00 0. -1.
         23    2    1    2    0    0  0.58387873882E+02  0.55509740405E+02 -0.12985560021E+03  0.18066755398E+03  0.96373300562E+02 0.  0.
         24    2    1    2    0    0 -0.63787083887E+02  0.42988399469E+02  0.21361263778E+03  0.23998186281E+03  0.77744073094E+02 0.  0.
        -13    1    4    4    0    0 -0.64254441120E+02  0.22605970214E+02  0.20795110840E+03  0.21882259156E+03  0.00000000000E+00 0.  1.
         14    1    4    4    0    0  0.46735723238E+00  0.20382429255E+02  0.56615293812E+01  0.21159271255E+02  0.00000000000E+00 0. -1.
        -11    1    3    3    0    0  0.81859190064E+02  0.25095097659E+02 -0.10223128275E+03  0.13334888862E+03  0.00000000000E+00 0. -1.
         11    1    3    3    0    0 -0.23471316182E+02  0.30414642745E+02 -0.27624317462E+02  0.47318665364E+02  0.00000000000E+00 0.  1.
          1    1    1    2  501    0  0.53992100055E+01 -0.98498139874E+02  0.70525480676E+02  0.12126367326E+03  0.00000000000E+00 0. -1.
<scales pt_clust_5="13000.00000" pt_clust_6="13000.00000" pt_clust_7="13000.00000" pt_clust_8="13000.00000" pt_clust_9="98.64601"></scales>
<clustering>
<clus scale="   77.744">  5  6 -1 -1</clus>
<clus scale="   96.373">  7  8 -1 -1</clus>
<clus scale="   98.646">  1  9  2 -1</clus>
<clus scale="  107.682">  1  5  2 -1</clus>
<clus scale="   98.646">  1  5  2 -1</clus>
</clustering>
</event>
<event>
 9    2  0.1325014E-004  0.2578581E+03  0.7546771E-02  0.1154080E+00
          2   -1    0    0  502    0 -0.00000000000E+00  0.00000000000E+00  0.38306609460E+03  0.38306609460E+03  0.00000000000E+00 0. -1.
         21   -1    0    0  501  502  0.00000000000E+00 -0.00000000000E+00 -0.23425867059E+03  0.23425867059E+03  0.00000000000E+00 0. -1.
         24    2    1    2    0    0 -0.21416259219E+02  0.18468474316E+02  0.25325228805E+02  0.87953098082E+02  0.79338764458E+02 0.  0.
         23    2    1    2    0    0  0.17286503573E+03  0.17017550194E+03  0.12548998700E+03  0.28744747874E+03  0.89645380005E+02 0.  0.
        -13    1    3    3    0    0 -0.27756248073E+02  0.34568057635E+02  0.44023399037E+02  0.62477352524E+02  0.00000000000E+00 0.  1.
         14    1    3    3    0    0  0.63399888535E+01 -0.16099583319E+02 -0.18698170232E+02  0.25475745558E+02  0.00000000000E+00 0. -1.
        -11    1    4    4    0    0  0.16998898156E+03  0.13616057851E+03  0.83316947138E+02  0.23319020278E+03  0.00000000000E+00 0. -1.
         11    1    4    4    0    0  0.28760541763E+01  0.34014923437E+02  0.42173039861E+02  0.54257275965E+02  0.00000000000E+00 0.  1.
          1    1    1    2  501    0 -0.15144877651E+03 -0.18864397626E+03 -0.20077917924E+01  0.24192418836E+03  0.00000000000E+00 0. -1.
<scales pt_clust_5="13000.00000" pt_clust_6="13000.00000" pt_clust_7="13000.00000" pt_clust_8="13000.00000" pt_clust_9="241.77370"></scales>
<clustering>
<clus scale="   79.339">  5  6 -1 -1</clus>
<clus scale="   84.228">  1  5  2 -1</clus>
<clus scale="   89.645">  7  8 -1 -1</clus>
<clus scale="  241.774">  2  9  1 -1</clus>
<clus scale="  241.774">  2  5  1 -1</clus>
</clustering>
</event>
<event>
 9    2  0.1325014E-004  0.1382939E+03  0.7546771E-02  0.1217761E+00
          4   -1    0    0  502    0 -0.00000000000E+00  0.00000000000E+00  0.17247437893E+03  0.17247437893E+03  0.00000000000E+00 0. -1.
         21   -1    0    0  501  502  0.00000000000E+00 -0.00000000000E+00 -0.33977203102E+03  0.33977203102E+03  0.00000000000E+00 0. -1.
         23    2    1    2    0    0  0.79559196695E+02 -0.57482068837E+02  0.95827369381E+02  0.16656516368E+03  0.94483940505E+02 0.  0.
         24    2    1    2    0    0 -0.69682756608E+02  0.91780097689E+02 -0.90913947572E+02  0.16981040495E+03  0.85387088406E+02 0.  0.
        -11    1    4    4    0    0  0.16726638839E+02  0.12170831783E+02 -0.32685902190E+02  0.38681750155E+02  0.00000000000E+00 0.  1.
         12    1    4    4    0    0 -0.86409395447E+02  0.79609265906E+02 -0.58228045383E+02  0.13112865480E+03  0.00000000000E+00 0. -1.
        -11    1    3    3    0    0 -0.12325898641E+02 -0.20468395704E+02 -0.58620021259E+01  0.24601749306E+02  0.00000000000E+00 0. -1.
         11    1    3    3    0    0  0.91885095336E+02 -0.37013673133E+02  0.10168937151E+03  0.14196341438E+03  0.00000000000E+00 0.  1.
          3    1    1    2  501    0 -0.98764400870E+01 -0.34298028851E+02 -0.17221107390E+03  0.17587084132E+03  0.00000000000E+00 0. -1.
<scales pt_clust_5="13000.00000" pt_clust_6="13000.00000" pt_clust_7="13000.00000" pt_clust_8="13000.00000" pt_clust_9="35.69172"></scales>
<clustering>
<clus scale="   35.692">  2  9  1 -1</clus>
<clus scale="   85.387">  5  6 -1 -1</clus>
<clus scale="   94.484">  7  8 -1 -1</clus>
<clus scale="  132.246">  2  5  1 -1</clus>
<clus scale="   35.692">  2  5  1 -1</clus>
</clustering>
</event>
<event>
 9    2  0.1325014E-004  0.1339880E+03  0.7546771E-02  0.1223994E+00
          2   -1    0    0  502    0 -0.00000000000E+00  0.00000000000E+00  0.50869381790E+03  0.50869381790E+03  0.00000000000E+00 0. -1.
         21   -1    0    0  501  502  0.00000000000E+00 -0.00000000000E+00 -0.11172505450E+03  0.11172505450E+03  0.00000000000E+00 0.  1.
         24    2    1    2    0    0 -0.77840898784E+02  0.50296029673E+02  0.27237146482E+03  0.29857136023E+03  0.79810689644E+02 0.  0.
         23    2    1    2    0    0  0.16007277933E+03 -0.33871694802E+01  0.26319998843E+02  0.18538890677E+03  0.89674616323E+02 0.  0.
        -13    1    3    3    0    0  0.11917157653E+01  0.30472517138E+02  0.29631018368E+02  0.42520486083E+02  0.00000000000E+00 0.  1.
         14    1    3    3    0    0 -0.79032614549E+02  0.19823512535E+02  0.24274044645E+03  0.25605087415E+03  0.00000000000E+00 0. -1.
        -13    1    4    4    0    0  0.11921665663E+02 -0.30636919505E+02  0.46919864870E+01  0.33207855789E+02  0.00000000000E+00 0. -1.
         13    1    4    4    0    0  0.14815111367E+03  0.27249750025E+02  0.21628012356E+02  0.15218105098E+03  0.00000000000E+00 0.  1.
          1    1    1    2  501    0 -0.82231880548E+02 -0.46908860193E+02  0.98277299738E+02  0.13645860540E+03  0.00000000000E+00 0. -1.
<scales pt_clust_5="13000.00000" pt_clust_6="13000.00000" pt_clust_7="13000.00000" pt_clust_8="13000.00000" pt_clust_9="94.67065"></scales>
<clustering>
<clus scale="   79.811">  5  6 -1 -1</clus>
<clus scale="   89.675">  7  8 -1 -1</clus>
<clus scale="   94.671">  2  9  1 -1</clus>
<clus scale="  127.597">  1  5  2 -1</clus>
<clus scale="   94.671">  2  5  1 -1</clus>
</clustering>
</event>
<event>
 9    2  0.1325014E-004  0.9703217E+02  0.7546771E-02  0.1295251E+00
          2   -1    0    0  502    0 -0.00000000000E+00  0.00000000000E+00  0.71955257081E+03  0.71955257081E+03  0.00000000000E+00 0. -1.
         21   -1    0    0  501  502  0.00000000000E+00 -0.00000000000E+00 -0.48179597704E+02  0.48179597704E+02  0.00000000000E+00 0. -1.
         24    2    1    2    0    0 -0.99438390707E+00 -0.36377533773E+01  0.45073852083E+03  0.45798916652E+03  0.81084156550E+02 0.  0.
         23    2    1    2    0    0 -0.55912873289E+01  0.63727739991E+02  0.22111651887E+03  0.24929128618E+03  0.95713860583E+02 0.  0.
        -13    1    3    3    0    0 -0.91137054430E+00 -0.33042744785E+02  0.87064584017E+02  0.93128381115E+02  0.00000000000E+00 0.  1.
         14    1    3    3    0    0 -0.83013362763E-01  0.29404991407E+02  0.36367393681E+03  0.36486078541E+03  0.00000000000E+00 0. -1.
        -13    1    4    4    0    0  0.41225841017E+02  0.13890371454E+02  0.11602501855E+03  0.12391253898E+03  0.00000000000E+00 0.  1.
         13    1    4    4    0    0 -0.46817128346E+02  0.49837368537E+02  0.10509150032E+03  0.12537874720E+03  0.00000000000E+00 0. -1.
          1    1    1    2  501    0  0.65856712360E+01 -0.60089986613E+02 -0.48206659458E+00  0.60451715815E+02  0.00000000000E+00 0. -1.
<scales pt_clust_5="13000.00000" pt_clust_6="13000.00000" pt_clust_7="13000.00000" pt_clust_8="13000.00000" pt_clust_9="60.44979"></scales>
<clustering>
<clus scale="   60.450">  2  9  1 -1</clus>
<clus scale="   81.084">  5  6 -1 -1</clus>
<clus scale="   82.636">  1  5  2 -1</clus>
<clus scale="   95.714">  7  8 -1 -1</clus>
<clus scale="   60.450">  2  5  1 -1</clus>
</clustering>
</event>
<event>
 9    2  0.1325014E-004  0.9244928E+02  0.7546771E-02  0.1301737E+00
         21   -1    0    0  501  502  0.00000000000E+00  0.00000000000E+00  0.39136429854E+03  0.39136429854E+03  0.00000000000E+00 0. -1.
          2   -1    0    0  502    0 -0.00000000000E+00 -0.00000000000E+00 -0.10401294631E+03  0.10401294631E+03  0.00000000000E+00 0. -1.
         23    2    1    2    0    0  0.17270378058E+02 -0.27675638650E+02 -0.46498666377E+02  0.10740836390E+03  0.91160428517E+02 0.  0.
         24    2    1    2    0    0  0.39639212873E+02 -0.35127730522E+02  0.94353095940E+02  0.13391821537E+03  0.78907268640E+02 0.  0.
        -13    1    4    4    0    0  0.61347818442E+02 -0.30862767203E+02  0.86491503416E+02  0.11043932900E+03  0.00000000000E+00 0.  1.
         14    1    4    4    0    0 -0.21708605570E+02 -0.42649633195E+01  0.78615925245E+01  0.23478886364E+02  0.00000000000E+00 0. -1.
        -13    1    3    3    0    0 -0.32816522331E+02 -0.28539924872E+02 -0.35453917681E+02  0.56110887790E+02  0.00000000000E+00 0.  1.
         13    1    3    3    0    0  0.50086900389E+02  0.86428622209E+00 -0.11044748696E+02  0.51297476108E+02  0.00000000000E+00 0. -1.
          1    1    1    2  501    0 -0.56909590931E+02  0.62803369172E+02  0.23949692266E+03  0.25405066558E+03  0.00000000000E+00 0. -1.
<scales pt_clust_5="13000.00000" pt_clust_6="13000.00000" pt_clust_7="13000.00000" pt_clust_8="13000.00000" pt_clust_9="84.75237"></scales>
<clustering>
<clus scale="   78.907">  5  6 -1 -1</clus>
<clus scale="   84.752">  1  9  2 -1</clus>
<clus scale="   84.752">  1  5  2 -1</clus>
<clus scale="   91.160">  7  8 -1 -1</clus>
<clus scale="   84.752">  1  5  2 -1</clus>
</clustering>
</event>
<event>
 9    2  0.1325014E-004  0.1556843E+03  0.7546771E-02  0.1207924E+00
          2   -1    0    0  502    0 -0.00000000000E+00  0.00000000000E+00  0.10649897179E+04  0.10649897179E+04  0.00000000000E+00 0. -1.
         21   -1    0    0  501  502  0.00000000000E+00 -0.00000000000E+00 -0.73532830425E+02  0.73532830425E+02  0.00000000000E+00 0. -1.
         24    2    1    2    0    0 -0.59766147556E+02  0.55928617870E+02  0.28291491900E+03  0.30511264971E+03  0.79704924157E+02 0.  0.
         23    2    1    2    0    0 -0.22471785003E+01  0.11718217600E+03  0.62050905364E+02  0.16127621083E+03  0.91776844238E+02 0.  0.
        -13    1    3    3    0    0 -0.47000152361E+02  0.70154560783E+02  0.16191177977E+03  0.18260914859E+03  0.00000000000E+00 0.  1.
         14    1    3    3    0    0 -0.12765995195E+02 -0.14225942913E+02  0.12100313923E+03  0.12250350113E+03  0.00000000000E+00 0. -1.
        -13    1    4    4    0    0 -0.18971901416E+02  0.66772698847E+02  0.79341511985E+02  0.10542106943E+03  0.00000000000E+00 0. -1.
         13    1    4    4    0    0  0.16724722916E+02  0.50409477154E+02 -0.17290606621E+02  0.55855141401E+02  0.00000000000E+00 0.  1.
          1    1    1    2  501    0  0.62013326056E+02 -0.17311079387E+03  0.64649106309E+03  0.67213368775E+03  0.00000000000E+00 0. -1.
<scales pt_clust_5="13000.00000" pt_clust_6="13000.00000" pt_clust_7="13000.00000" pt_clust_8="13000.00000" pt_clust_9="125.75617"></scales>
<clustering>
<clus scale="   79.705">  5  6 -1 -1</clus>
<clus scale="   91.777">  7  8 -1 -1</clus>
<clus scale="  114.249">  1  5  2 -1</clus>
<clus scale="  125.756">  2  9  1 -1</clus>
<clus scale="  125.756">  2  5  1 -1</clus>
</clustering>
</event>
<event>
 9    2  0.1493489E-004  0.3314883E+03  0.7546771E-02  0.1070698E+00
         21   -1    0    0  501  502  0.00000000000E+00  0.00000000000E+00  0.20875476216E+03  0.20875476216E+03  0.00000000000E+00 0. -1.
          2   -1    0    0  502    0 -0.00000000000E+00 -0.00000000000E+00 -0.12730471360E+04  0.12730471360E+04  0.00000000000E+00 0. -1.
         23    2    1    2    0    0 -0.15375412718E+03  0.22774232009E+03 -0.40867195926E+03  0.50097839730E+03  0.91976563805E+02 0.  0.
         24    2    1    2    0    0  0.18671633694E+03 -0.41692831328E+03 -0.23986428898E+03  0.52285952492E+03  0.84587214059E+02 0.  0.
        -11    1    4    4    0    0  0.34914675861E+02 -0.46072113750E+02 -0.41598678448E+01  0.57956697252E+02  0.00000000000E+00 0.  1.
         12    1    4    4    0    0  0.15180166108E+03 -0.37085619953E+03 -0.23570442113E+03  0.46490282767E+03  0.00000000000E+00 0. -1.
        -11    1    3    3    0    0 -0.14075852332E+03  0.16194153354E+03 -0.35614940891E+03  0.41578891716E+03  0.00000000000E+00 0. -1.
         11    1    3    3    0    0 -0.12995603869E+02  0.65800786548E+02 -0.52522550356E+02  0.85189480138E+02  0.00000000000E+00 0.  1.
          1    1    1    2  501    0 -0.32962209758E+02  0.18918599319E+03 -0.41575612563E+03  0.45796397598E+03  0.00000000000E+00 0. -1.
<scales pt_clust_5="13000.00000" pt_clust_6="13000.00000" pt_clust_7="13000.00000" pt_clust_8="13000.00000" pt_clust_9="192.03615"></scales>
<clustering>
<clus scale="   84.587">  5  6 -1 -1</clus>
<clus scale="   91.977">  7  8 -1 -1</clus>
<clus scale="  192.036">  1  9  2 -1</clus>
<clus scale="  329.515">  1  5  2 -1</clus>
<clus scale="  192.036">  1  5  2 -1</clus>
</clustering>
</event>
<event>
 9    2  0.1325014E-004  0.1778238E+03  0.7546771E-02  0.1211978E+00
         -1   -1    0    0    0  501 -0.00000000000E+00  0.00000000000E+00  0.25122159712E+03  0.25122159712E+03  0.00000000000E+00 0.  1.
         21   -1    0    0  501  502  0.00000000000E+00 -0.00000000000E+00 -0.63593162840E+03  0.63593162840E+03  0.00000000000E+00 0. -1.
         24    2    1    2    0    0  0.21834472742E+02  0.32418248957E+02  0.18250516797E+03  0.19558003297E+03  0.58444211799E+02 0.  0.
         23    2    1    2    0    0  0.12210081558E+03 -0.90992919306E+02 -0.48318331187E+03  0.51491047060E+03  0.92078006799E+02 0.  0.
        -11    1    3    3    0    0  0.37361119883E+02  0.18486114014E+02  0.15795989688E+03  0.16336743468E+03  0.00000000000E+00 0.  1.
         12    1    3    3    0    0 -0.15526647141E+02  0.13932134944E+02  0.24545271089E+02  0.32212598286E+02  0.00000000000E+00 0. -1.
        -11    1    4    4    0    0  0.70678706438E+02 -0.50947980978E+00 -0.24478410084E+03  0.25478421289E+03  0.00000000000E+00 0.  1.
         11    1    4    4    0    0  0.51422109141E+02 -0.90483439497E+02 -0.23839921103E+03  0.26012625771E+03  0.00000000000E+00 0. -1.
         -2    1    1    2    0  502 -0.14393528832E+03  0.58574670349E+02 -0.84031887392E+02  0.17666272196E+03  0.00000000000E+00 0.  1.
<scales pt_clust_5="13000.00000" pt_clust_6="13000.00000" pt_clust_7="13000.00000" pt_clust_8="13000.00000" pt_clust_9="152.12810"></scales>
<clustering>
<clus scale="   58.444">  5  6 -1 -1</clus>
<clus scale="   70.309">  1  5  2 -1</clus>
<clus scale="   92.078">  7  8 -1 -1</clus>
<clus scale="  152.128">  2  9  1 -1</clus>
<clus scale="  152.128">  2  5  1 -1</clus>
</clustering>
</event>
<event>
 9    2  0.1325014E-004  0.1388479E+03  0.7546771E-02  0.1217416E+00
         21   -1    0    0  501  502  0.00000000000E+00  0.00000000000E+00  0.52902364435E+03  0.52902364435E+03  0.00000000000E+00 0. -1.
          2   -1    0    0  502    0 -0.00000000000E+00 -0.00000000000E+00 -0.19151165885E+03  0.19151165885E+03  0.00000000000E+00 0. -1.
         24    2    1    2    0    0 -0.10066044431E+03 -0.26178811675E+02 -0.42977611029E+02  0.13838115804E+03  0.80525863058E+02 0.  0.
         23    2    1    2    0    0  0.10812886708E+03  0.98052539631E+00  0.46891229046E+03  0.48990825760E+03  0.91861588245E+02 0.  0.
        -11    1    3    3    0    0 -0.37636920571E+02 -0.17981003188E+02  0.22280234771E+02  0.47289143862E+02  0.00000000000E+00 0.  1.
         12    1    3    3    0    0 -0.63023523737E+02 -0.81978084870E+01 -0.65257845801E+02  0.91092014177E+02  0.00000000000E+00 0. -1.
        -11    1    4    4    0    0  0.27889804190E+02 -0.41298988068E+02  0.13524512564E+03  0.14413428323E+03  0.00000000000E+00 0.  1.
         11    1    4    4    0    0  0.80239062889E+02  0.42279513465E+02  0.33366716482E+03  0.34577397437E+03  0.00000000000E+00 0. -1.
          1    1    1    2  501    0 -0.74684227702E+01  0.25198286278E+02 -0.88422693935E+02  0.92245887565E+02  0.00000000000E+00 0. -1.
<scales pt_clust_5="13000.00000" pt_clust_6="13000.00000" pt_clust_7="13000.00000" pt_clust_8="13000.00000" pt_clust_9="26.28177"></scales>
<clustering>
<clus scale="   26.282">  1  9  2 -1</clus>
<clus scale="   80.526">  5  6 -1 -1</clus>
<clus scale="   91.862">  7  8 -1 -1</clus>
<clus scale="  131.623">  2  5  1 -1</clus>
<clus scale="   26.282">  1  5  2 -1</clus>
</clustering>
</event>
<event>
 9    2  0.1325014E-004  0.1413253E+03  0.7546771E-02  0.1214245E+00
         21   -1    0    0  501  502  0.00000000000E+00  0.00000000000E+00  0.11249727959E+03  0.11249727959E+03  0.00000000000E+00 0.  1.
          2   -1    0    0  502    0 -0.00000000000E+00 -0.00000000000E+00 -0.46796036617E+03  0.46796036617E+03  0.00000000000E+00 0. -1.
         23    2    1    2    0    0 -0.53760470393E+02 -0.78582837156E+02 -0.39296219672E+02  0.13813873648E+03  0.92047092096E+02 0.  0.
         24    2    1    2    0    0 -0.33806568341E+02  0.13634107709E+03 -0.72300359304E+02  0.17684786738E+03  0.79473598625E+02 0.  0.
        -13    1    4    4    0    0 -0.53224805983E+02  0.71751245097E+02 -0.20122995576E+02  0.91575412070E+02  0.00000000000E+00 0.  1.
         14    1    4    4    0    0  0.19418237642E+02  0.64589831991E+02 -0.52177363728E+02  0.85272455314E+02  0.00000000000E+00 0. -1.
        -11    1    3    3    0    0 -0.80097072461E+02 -0.56317669147E+02 -0.27761799371E+02  0.10177395727E+03  0.00000000000E+00 0.  1.
         11    1    3    3    0    0  0.26336602068E+02 -0.22265168009E+02 -0.11534420301E+02  0.36364779205E+02  0.00000000000E+00 0. -1.
          1    1    1    2  501    0  0.87567038734E+02 -0.57758239931E+02 -0.24386650761E+03  0.26547104190E+03  0.00000000000E+00 0. -1.
<scales pt_clust_5="13000.00000" pt_clust_6="13000.00000" pt_clust_7="13000.00000" pt_clust_8="13000.00000" pt_clust_9="104.90001"></scales>
<clustering>
<clus scale="   79.474">  5  6 -1 -1</clus>
<clus scale="   92.047">  7  8 -1 -1</clus>
<clus scale="  104.900">  1  9  2 -1</clus>
<clus scale="  133.477">  1  5  2 -1</clus>
<clus scale="  104.900">  1  5  2 -1</clus>
</clustering>
</event>
<event>
 9    2  0.1325014E-004  0.2169133E+03  0.7546771E-02  0.1173218E+00
          4   -1    0    0  502    0 -0.00000000000E+00  0.00000000000E+00  0.39057835311E+02  0.39057835311E+02  0.00000000000E+00 0. -1.
         21   -1    0    0  501  502  0.00000000000E+00 -0.00000000000E+00 -0.19970880414E+04  0.19970880414E+04  0.00000000000E+00 0.  1.
         23    2    1    2    0    0  0.36840663739E+01  0.73049236543E+01 -0.30217395770E+03  0.31554583840E+03  0.90515971855E+02 0.  0.
         24    2    1    2    0    0 -0.18400372954E+03 -0.89061389105E+02 -0.12504741916E+04  0.12694527092E+04  0.77686379932E+02 0.  0.
        -13    1    4    4    0    0 -0.18984652288E+03 -0.91303169098E+02 -0.12335479810E+04  0.12514066455E+04  0.00000000000E+00 0.  1.
         14    1    4    4    0    0  0.58427933458E+01  0.22417799932E+01 -0.16926210532E+02  0.18046063687E+02  0.00000000000E+00 0. -1.
        -13    1    3    3    0    0  0.27607604598E+02  0.41014013319E+02 -0.17224189521E+03  0.17919709704E+03  0.00000000000E+00 0.  1.
         13    1    3    3    0    0 -0.23923538224E+02 -0.33709089665E+02 -0.12993206249E+03  0.13634874136E+03  0.00000000000E+00 0. -1.
          3    1    1    2  501    0  0.18031966317E+03  0.81756465451E+02 -0.40538205679E+03  0.45114732908E+03  0.00000000000E+00 0. -1.
<scales pt_clust_5="13000.00000" pt_clust_6="13000.00000" pt_clust_7="13000.00000" pt_clust_8="13000.00000" pt_clust_9="202.52472"></scales>
<clustering>
<clus scale="   77.686">  5  6 -1 -1</clus>
<clus scale="   90.516">  7  8 -1 -1</clus>
<clus scale="   90.885">  1  7  2 -1</clus>
<clus scale="  202.525">  2  9  1 -1</clus>
<clus scale="  202.525">  2  5  1 -1</clus>
</clustering>
</event>
<event>
 9    2  0.1325014E-004  0.1999728E+03  0.7546771E-02  0.1157734E+00
         21   -1    0    0  501  502  0.00000000000E+00  0.00000000000E+00  0.11729522883E+03  0.11729522883E+03  0.00000000000E+00 0. -1.
          2   -1    0    0  502    0 -0.00000000000E+00 -0.00000000000E+00 -0.72205838564E+03  0.72205838564E+03  0.00000000000E+00 0. -1.
         23    2    1    2    0    0  0.79538881333E+02 -0.11261154675E+03 -0.24560918257E+03  0.29631190414E+03  0.92027603812E+02 0.  0.
         24    2    1    2    0    0 -0.12105758329E+03 -0.10289440348E+03 -0.21887466241E+03  0.28257116972E+03  0.81842234649E+02 0.  0.
        -11    1    4    4    0    0 -0.10780326812E+02 -0.44496616180E+02 -0.25434009348E+02  0.52374164711E+02  0.00000000000E+00 0.  1.
         12    1    4    4    0    0 -0.11027725648E+03 -0.58397787296E+02 -0.19344065306E+03  0.23019700501E+03  0.00000000000E+00 0. -1.
        -11    1    3    3    0    0 -0.19900619124E+02 -0.14400320268E+02 -0.24214040474E+02  0.34492370481E+02  0.00000000000E+00 0.  1.
         11    1    3    3    0    0  0.99439500457E+02 -0.98211226485E+02 -0.22139514210E+03  0.26181953365E+03  0.00000000000E+00 0. -1.
          1    1    1    2  501    0  0.41518701962E+02  0.21550595023E+03 -0.14027931183E+03  0.26047054060E+03  0.00000000000E+00 0. -1.
<scales pt_clust_5="13000.00000" pt_clust_6="13000.00000" pt_clust_7="13000.00000" pt_clust_8="13000.00000" pt_clust_9="182.45815"></scales>
<clustering>
<clus scale="   81.842">  5  6 -1 -1</clus>
<clus scale="   92.028">  7  8 -1 -1</clus>
<clus scale="  165.761">  2  7  1 -1</clus>
<clus scale="  182.458">  1  9  2 -1</clus>
<clus scale="  182.458">  1  5  2 -1</clus>
</clustering>
</event>
<event>
 9    2  0.1325014E-004  0.2118555E+03  0.7546771E-02  0.1152821E+00
         21   -1    0    0  501  502  0.00000000000E+00  0.00000000000E+00  0.21409151020E+03  0.21409151020E+03  0.00000000000E+00 0.  1.
         -3   -1    0    0    0  501 -0.00000000000E+00 -0.00000000000E+00 -0.44517748183E+03  0.44517748183E+03  0.00000000000E+00 0.  1.
         24    2    1    2    0    0  0.11106545487E+03 -0.75148941685E+02 -0.39644683228E+02  0.16138723921E+03  0.80568240453E+02 0.  0.
         23    2    1    2    0    0 -0.72288699785E+02  0.24522727992E+03 -0.17432303919E+03  0.32260108553E+03  0.91218767048E+02 0.  0.
        -11    1    3    3    0    0  0.91108992965E+02 -0.66408236053E+02  0.37774983588E+01  0.11280590370E+03  0.00000000000E+00 0.  1.
         12    1    3    3    0    0  0.19956461909E+02 -0.87407056322E+01 -0.43422181586E+02  0.48581335517E+02  0.00000000000E+00 0. -1.
        -11    1    4    4    0    0 -0.38203570176E+02  0.54351549553E+02 -0.88246658662E+02  0.11045848305E+03  0.00000000000E+00 0.  1.
         11    1    4    4    0    0 -0.34085129610E+02  0.19087573036E+03 -0.86076380529E+02  0.21214260248E+03  0.00000000000E+00 0. -1.
         -4    1    1    2    0  502 -0.38776755089E+02 -0.17007833823E+03 -0.17118249212E+02  0.17528066729E+03  0.00000000000E+00 0.  1.
<scales pt_clust_5="13000.00000" pt_clust_6="13000.00000" pt_clust_7="13000.00000" pt_clust_8="13000.00000" pt_clust_9="191.21159"></scales>
<clustering>
<clus scale="   80.568">  5  6 -1 -1</clus>
<clus scale="   91.219">  7  8 -1 -1</clus>
<clus scale="  156.442">  2  5  1 -1</clus>
<clus scale="  191.212">  1  9  2 -1</clus>
<clus scale="  191.212">  1  5  2 -1</clus>
</clustering>
</event>
<event>
 9    2  0.1325014E-004  0.2246742E+03  0.7546771E-02  0.1131224E+00
          2   -1    0    0  502    0 -0.00000000000E+00  0.00000000000E+00  0.83688526341E+03  0.83688526341E+03  0.00000000000E+00 0. -1.
         21   -1    0    0  501  502  0.00000000000E+00 -0.00000000000E+00 -0.72200231573E+02  0.72200231573E+02  0.00000000000E+00 0. -1.
         23    2    1    2    0    0 -0.20283509890E+03 -0.35113768669E+01  0.40660294782E+03  0.46330504692E+03  0.90394702359E+02 0.  0.
         24    2    1    2    0    0  0.20860038967E+03  0.31118764130E+02  0.26154759271E+03  0.34521050016E+03  0.79250527553E+02 0.  0.
        -11    1    4    4    0    0  0.91355339066E+02  0.50627367012E+02  0.99560720720E+02  0.14429575661E+03  0.00000000000E+00 0.  1.
         12    1    4    4    0    0  0.11724505060E+03 -0.19508602882E+02  0.16198687199E+03  0.20091474354E+03  0.00000000000E+00 0. -1.
        -11    1    3    3    0    0 -0.28579288271E+02 -0.34732445032E+02  0.87590660947E+02  0.98464421702E+02  0.00000000000E+00 0.  1.
         11    1    3    3    0    0 -0.17425581063E+03  0.31221068165E+02  0.31901228687E+03  0.36484062522E+03  0.00000000000E+00 0. -1.
          1    1    1    2  501    0 -0.57652907707E+01 -0.27607387263E+02  0.96534491308E+02  0.10056994790E+03  0.00000000000E+00 0. -1.
<scales pt_clust_5="13000.00000" pt_clust_6="13000.00000" pt_clust_7="13000.00000" pt_clust_8="13000.00000" pt_clust_9="28.20296"></scales>
<clustering>
<clus scale="   28.203">  2  9  1 -1</clus>
<clus scale="   79.251">  5  6 -1 -1</clus>
<clus scale="   90.395">  7  8 -1 -1</clus>
<clus scale="  220.427">  2  5  1 -1</clus>
<clus scale="   28.203">  2  5  1 -1</clus>
</clustering>
</event>
<event>
 9    2  0.1325014E-004  0.1192491E+03  0.7546771E-02  0.1247062E+00
         21   -1    0    0  501  502  0.00000000000E+00  0.00000000000E+00  0.95055340957E+02  0.95055340957E+02  0.00000000000E+00 0. -1.
          2   -1    0    0  502    0 -0.00000000000E+00 -0.00000000000E+00 -0.94463679422E+03  0.94463679422E+03  0.00000000000E+00 0. -1.
         24    2    1    2    0    0  0.69588759911E+02  0.11186329264E+02 -0.69653325580E+03  0.70488904350E+03  0.82111252193E+02 0.  0.
         23    2    1    2    0    0 -0.11865577120E+03  0.14361060691E+01 -0.21057411850E+03  0.25814717826E+03  0.90649058599E+02 0.  0.
        -11    1    3    3    0    0  0.73796271369E+01 -0.30568375096E+02 -0.15141047010E+03  0.15464156915E+03  0.00000000000E+00 0.  1.
         12    1    3    3    0    0  0.62209132774E+02  0.41754704360E+02 -0.54512278570E+03  0.55024747435E+03  0.00000000000E+00 0. -1.
        -13    1    4    4    0    0 -0.12005662925E+03  0.24648348977E+02 -0.15287723157E+03  0.19594025433E+03  0.00000000000E+00 0. -1.
         13    1    4    4    0    0  0.14008580518E+01 -0.23212242908E+02 -0.57696886929E+02  0.62206923935E+02  0.00000000000E+00 0.  1.
          1    1    1    2  501    0  0.49067011290E+02 -0.12622435333E+02  0.57525921036E+02  0.76655913416E+02  0.00000000000E+00 0. -1.
<scales pt_clust_5="13000.00000" pt_clust_6="13000.00000" pt_clust_7="13000.00000" pt_clust_8="13000.00000" pt_clust_9="50.66456"></scales>
<clustering>
<clus scale="   50.665">  1  9  2 -1</clus>
<clus scale="   82.111">  5  6 -1 -1</clus>
<clus scale="   90.649">  7  8 -1 -1</clus>
<clus scale="  112.895">  2  5  1 -1</clus>
<clus scale="   50.665">  1  5  2 -1</clus>
</clustering>
</event>
<event>
 9    2  0.1325014E-004  0.9817330E+02  0.7546771E-02  0.1288709E+00
         21   -1    0    0  501  502  0.00000000000E+00  0.00000000000E+00  0.36497192424E+02  0.36497192424E+02  0.00000000000E+00 0.  1.
          2   -1    0    0  502    0 -0.00000000000E+00 -0.00000000000E+00 -0.11490137045E+04  0.11490137045E+04  0.00000000000E+00 0. -1.
         24    2    1    2    0    0 -0.17724081217E+01 -0.39295216906E+02 -0.93105276391E+03  0.93555878983E+03  0.82847719048E+02 0.  0.
         23    2    1    2    0    0  0.21323098247E+02 -0.13610121653E+02 -0.50896357395E+02  0.10772324973E+03  0.91509285902E+02 0.  0.
        -13    1    3    3    0    0 -0.17109884585E+02 -0.21930545229E+02 -0.90302288811E+02  0.94489154558E+02  0.00000000000E+00 0.  1.
         14    1    3    3    0    0  0.15337476464E+02 -0.17364671677E+02 -0.84075047510E+03  0.84106963527E+03  0.00000000000E+00 0. -1.
        -13    1    4    4    0    0  0.18510753558E+02  0.38193803665E+02 -0.29040579668E+02  0.51427326424E+02  0.00000000000E+00 0.  1.
         13    1    4    4    0    0  0.28123446895E+01 -0.51803925318E+02 -0.21855777726E+02  0.56295923307E+02  0.00000000000E+00 0. -1.
          1    1    1    2  501    0 -0.19550690125E+02  0.52905338559E+02 -0.13056739077E+03  0.14222885735E+03  0.00000000000E+00 0. -1.
<scales pt_clust_5="13000.00000" pt_clust_6="13000.00000" pt_clust_7="13000.00000" pt_clust_8="13000.00000" pt_clust_9="56.40217"></scales>
<clustering>
<clus scale="   56.402">  1  9  2 -1</clus>
<clus scale="   82.848">  5  6 -1 -1</clus>
<clus scale="   90.154">  2  5  1 -1</clus>
<clus scale="   91.509">  7  8 -1 -1</clus>
<clus scale="   56.402">  1  5  2 -1</clus>
</clustering>
</event>
<event>
 9    2  0.1325014E-004  0.1164963E+03  0.7546771E-02  0.1249284E+00
         21   -1    0    0  501  502  0.00000000000E+00  0.00000000000E+00  0.36139534303E+03  0.36139534303E+03  0.00000000000E+00 0. -1.
          2   -1    0    0  502    0 -0.00000000000E+00 -0.00000000000E+00 -0.23027342917E+03  0.23027342917E+03  0.00000000000E+00 0. -1.
         24    2    1    2    0    0  0.33635040214E+02  0.63711773815E+02 -0.20055794285E+03  0.23225047730E+03  0.92337910467E+02 0.  0.
         23    2    1    2    0    0 -0.40804918678E+02 -0.41819335892E+02  0.21919485645E+03  0.24459860461E+03  0.91477833598E+02 0.  0.
        -11    1    3    3    0    0  0.35152536664E+02  0.31047803128E+02 -0.23989660465E+02  0.52679889163E+02  0.00000000000E+00 0.  1.
         12    1    3    3    0    0 -0.15174964496E+01  0.32663970687E+02 -0.17656828239E+03  0.17957058813E+03  0.00000000000E+00 0. -1.
        -11    1    4    4    0    0 -0.66852477164E+02 -0.46001615989E+02  0.17877781743E+03  0.19633367103E+03  0.00000000000E+00 0. -1.
         11    1    4    4    0    0  0.26047558486E+02  0.41822800970E+01  0.40417039025E+02  0.48264933579E+02  0.00000000000E+00 0.  1.
          1    1    1    2  501    0  0.71698784640E+01 -0.21892437923E+02  0.11248500026E+03  0.11481969029E+03  0.00000000000E+00 0. -1.
<scales pt_clust_5="13000.00000" pt_clust_6="13000.00000" pt_clust_7="13000.00000" pt_clust_8="13000.00000" pt_clust_9="23.03662"></scales>
<clustering>
<clus scale="   23.037">  1  9  2 -1</clus>
<clus scale="   91.478">  7  8 -1 -1</clus>
<clus scale="   92.338">  5  6 -1 -1</clus>
<clus scale="  115.816">  1  7  2 -1</clus>
<clus scale="   23.037">  1  5  2 -1</clus>
</clustering>
</event>
<event>
 9    2  0.1325014E-004  0.1422827E+03  0.7546771E-02  0.1211908E+00
         21   -1    0    0  501  502  0.00000000000E+00  0.00000000000E+00  0.89292830088E+02  0.89292830088E+02  0.00000000000E+00 0.  1.
          2   -1    0    0  502    0 -0.00000000000E+00 -0.00000000000E+00 -0.57294634466E+03  0.57294634466E+03  0.00000000000E+00 0. -1.
         24    2    1    2    0    0 -0.10607804196E+03  0.15068169790E+02 -0.39767744138E+03  0.41961044400E+03  0.80286839590E+02 0.  0.
         23    2    1    2    0    0  0.12067218620E+03 -0.67606211481E+02 -0.91395446291E+02  0.18783270465E+03  0.88292813861E+02 0.  0.
        -11    1    3    3    0    0 -0.15926606515E+02 -0.14179303976E+02 -0.16882189406E+02  0.27197753133E+02  0.00000000000E+00 0.  1.
         12    1    3    3    0    0 -0.90151435445E+02  0.29247473766E+02 -0.38079525197E+03  0.39241269087E+03  0.00000000000E+00 0. -1.
        -11    1    4    4    0    0  0.15899210330E+02 -0.21909447379E+02 -0.65154818401E+02  0.70554653528E+02  0.00000000000E+00 0. -1.
         11    1    4    4    0    0  0.10477297587E+03 -0.45696764102E+02 -0.26240627890E+02  0.11727805112E+03  0.00000000000E+00 0.  1.
          1    1    1    2  501    0 -0.14594144245E+02  0.52538041691E+02  0.54193730942E+01  0.54796026094E+02  0.00000000000E+00 0. -1.
<scales pt_clust_5="13000.00000" pt_clust_6="13000.00000" pt_clust_7="13000.00000" pt_clust_8="13000.00000" pt_clust_9="54.52738"></scales>
<clustering>
<clus scale="   54.527">  1  9  2 -1</clus>
<clus scale="   80.287">  5  6 -1 -1</clus>
<clus scale="   88.293">  7  8 -1 -1</clus>
<clus scale="  137.458">  2  5  1 -1</clus>
<clus scale="   54.527">  1  5  2 -1</clus>
</clustering>
</event>
<event>
 9    2  0.1325014E-004  0.1775225E+03  0.7546771E-02  0.1171553E+00
         21   -1    0    0  501  502  0.00000000000E+00  0.00000000000E+00  0.74499414266E+02  0.74499414266E+02  0.00000000000E+00 0. -1.
          2   -1    0    0  502    0 -0.00000000000E+00 -0.00000000000E+00 -0.66807526953E+03  0.66807526953E+03  0.00000000000E+00 0. -1.
         23    2    1    2    0    0  0.48293458917E+02 -0.13951972653E+03 -0.45320266541E+03  0.48541906304E+03  0.91874907140E+02 0.  0.
         24    2    1    2    0    0 -0.77348159493E+02  0.14703784175E+03 -0.12693755786E+03  0.22427380376E+03  0.81134029679E+02 0.  0.
        -11    1    4    4    0    0  0.10039139381E+01  0.54383790370E+02 -0.91351569530E+01  0.55154832887E+02  0.00000000000E+00 0.  1.
         12    1    4    4    0    0 -0.78352073431E+02  0.92654051381E+02 -0.11780240091E+03  0.16911897087E+03  0.00000000000E+00 0. -1.
        -13    1    3    3    0    0 -0.12443268876E+02 -0.83922379651E+02 -0.29651114184E+03  0.30840988632E+03  0.00000000000E+00 0. -1.
         13    1    3    3    0    0  0.60736727794E+02 -0.55597346884E+02 -0.15669152357E+03  0.17700917672E+03  0.00000000000E+00 0.  1.
          1    1    1    2  501    0  0.29054700576E+02 -0.75181152161E+01 -0.13435631987E+02  0.32881816994E+02  0.00000000000E+00 0. -1.
<scales pt_clust_5="13000.00000" pt_clust_6="13000.00000" pt_clust_7="13000.00000" pt_clust_8="13000.00000" pt_clust_9="30.01163"></scales>
<clustering>
<clus scale="   30.012">  1  9  2 -1</clus>
<clus scale="   81.134">  5  6 -1 -1</clus>
<clus scale="   91.875">  7  8 -1 -1</clus>
<clus scale="  172.209">  1  5  2 -1</clus>
<clus scale="   30.012">  1  5  2 -1</clus>
</clustering>
</event>
<event>
 9    2  0.1325014E-004  0.8800788E+02  0.7546771E-02  0.1309327E+00
         21   -1    0    0  501  502  0.00000000000E+00  0.00000000000E+00  0.73297757814E+03  0.73297757814E+03  0.00000000000E+00 0. -1.
          2   -1    0    0  502    0 -0.00000000000E+00 -0.00000000000E+00 -0.13455160319E+03  0.13455160319E+03  0.00000000000E+00 0. -1.
         24    2    1    2    0    0  0.24545015845E+01 -0.33319009584E+02 -0.96236376838E+02  0.13042798799E+03  0.81448381482E+02 0.  0.
         23    2    1    2    0    0  0.48975798891E+02 -0.38097452377E+02  0.12979680902E+03  0.16542080340E+03  0.81650387692E+02 0.  0.
        -11    1    3    3    0    0  0.18672578855E+02  0.20846785440E+02 -0.15896642208E+02  0.32186284311E+02  0.00000000000E+00 0.  1.
         12    1    3    3    0    0 -0.16218077271E+02 -0.54165795024E+02 -0.80339734630E+02  0.98241703676E+02  0.00000000000E+00 0. -1.
        -11    1    4    4    0    0 -0.18241378694E+02 -0.29338121100E+02  0.38793028145E+02  0.51945859113E+02  0.00000000000E+00 0.  1.
         11    1    4    4    0    0  0.67217177584E+02 -0.87593312773E+01  0.91003780876E+02  0.11347494429E+03  0.00000000000E+00 0. -1.
          1    1    1    2  501    0 -0.51430300475E+02  0.71416461961E+02  0.56486554276E+03  0.57168038994E+03  0.00000000000E+00 0. -1.
<scales pt_clust_5="13000.00000" pt_clust_6="13000.00000" pt_clust_7="13000.00000" pt_clust_8="13000.00000" pt_clust_9="88.00788"></scales>
<clustering>
<clus scale="   81.448">  5  6 -1 -1</clus>
<clus scale="   81.650">  7  8 -1 -1</clus>
<clus scale="   88.008">  1  9  2 -1</clus>
<clus scale="   85.518">  2  5  1 -1</clus>
<clus scale="   88.008">  1  5  2 -1</clus>
</clustering>
</event>
<event>
 9    2  0.1325014E-004  0.9921079E+02  0.7546771E-02  0.1287481E+00
          2   -1    0    0  502    0 -0.00000000000E+00  0.00000000000E+00  0.57231146935E+03  0.57231146935E+03  0.00000000000E+00 0. -1.
         21   -1    0    0  501  502  0.00000000000E+00 -0.00000000000E+00 -0.16902961848E+03  0.16902961848E+03  0.00000000000E+00 0. -1.
         24    2    1    2    0    0 -0.14304522152E+02  0.29480231343E+02  0.33436249793E+03  0.34533109413E+03  0.79884799291E+02 0.  0.
         23    2    1    2    0    0  0.58410751838E+01 -0.58937306953E+02  0.21819598281E+03  0.24361950363E+03  0.90737265343E+02 0.  0.
        -11    1    3    3    0    0 -0.39104175757E+02  0.35831141318E+02  0.14795756401E+03  0.15717648678E+03  0.00000000000E+00 0.  1.
         12    1    3    3    0    0  0.24799653605E+02 -0.63509099747E+01  0.18640493393E+03  0.18815460735E+03  0.00000000000E+00 0. -1.
        -13    1    4    4    0    0 -0.25540439612E+02 -0.93983204264E+01  0.12909512652E+02  0.30121387739E+02  0.00000000000E+00 0.  1.
         13    1    4    4    0    0  0.31381514796E+02 -0.49538986526E+02  0.20528647016E+03  0.21349811589E+03  0.00000000000E+00 0. -1.
          1    1    1    2  501    0  0.84634469678E+01  0.29457075609E+02 -0.14927662987E+03  0.15239049007E+03  0.00000000000E+00 0. -1.
<scales pt_clust_5="13000.00000" pt_clust_6="13000.00000" pt_clust_7="13000.00000" pt_clust_8="13000.00000" pt_clust_9="30.64880"></scales>
<clustering>
<clus scale="   30.649">  2  9  1 -1</clus>
<clus scale="   79.885">  5  6 -1 -1</clus>
<clus scale="   89.393">  1  5  2 -1</clus>
<clus scale="   90.737">  7  8 -1 -1</clus>
<clus scale="   30.649">  2  5  1 -1</clus>
</clustering>
</event>
<event>
 9    2  0.1325014E-004  0.1052489E+03  0.7546771E-02  0.1284812E+00
         21   -1    0    0  501  502  0.00000000000E+00  0.00000000000E+00  0.12501026544E+03  0.12501026544E+03  0.00000000000E+00 0.  1.
          2   -1    0    0  502    0 -0.00000000000E+00 -0.00000000000E+00 -0.13787179720E+03  0.13787179720E+03  0.00000000000E+00 0. -1.
         24    2    1    2    0    0  0.61974811670E+01 -0.24656772024E+02 -0.81824909399E+02  0.11308730643E+03  0.73804186178E+02 0.  0.
         23    2    1    2    0    0  0.88366319823E+01  0.41694198858E+02  0.58911706142E+02  0.12494853776E+03  0.10161228117E+03 0.  0.
        -11    1    3    3    0    0  0.28768904959E+02  0.13959417424E+02 -0.23997530007E+02  0.39979953399E+02  0.00000000000E+00 0.  1.
         12    1    3    3    0    0 -0.22571423792E+02 -0.38616189448E+02 -0.57827379391E+02  0.73107353028E+02  0.00000000000E+00 0. -1.
        -11    1    4    4    0    0 -0.31529291820E+02  0.35614431069E+02  0.68137712515E+02  0.83097724456E+02  0.00000000000E+00 0.  1.
         11    1    4    4    0    0  0.40365923802E+02  0.60797677893E+01 -0.92260063729E+01  0.41850813306E+02  0.00000000000E+00 0. -1.
          1    1    1    2  501    0 -0.15034113149E+02 -0.17037426834E+02  0.10051671503E+02  0.24846218451E+02  0.00000000000E+00 0. -1.
<scales pt_clust_5="13000.00000" pt_clust_6="13000.00000" pt_clust_7="13000.00000" pt_clust_8="13000.00000" pt_clust_9="22.72220"></scales>
<clustering>
<clus scale="   22.722">  1  9  2 -1</clus>
<clus scale="   73.804">  5  6 -1 -1</clus>
<clus scale="   78.736">  2  5  1 -1</clus>
<clus scale="  101.612">  7  8 -1 -1</clus>
<clus scale="   22.722">  1  5  2 -1</clus>
</clustering>
</event>
<event>
 9    2  0.1325014E-004  0.1814606E+03  0.7546771E-02  0.1193349E+00
         21   -1    0    0  501  502  0.00000000000E+00  0.00000000000E+00  0.38644589643E+03  0.38644589643E+03  0.00000000000E+00 0.  1.
         -3   -1    0    0    0  501 -0.00000000000E+00 -0.00000000000E+00 -0.12760744053E+03  0.12760744053E+03  0.00000000000E+00 0.  1.
         24    2    1    2    0    0  0.57281989812E+02 -0.21415867348E+02  0.69159681667E+02  0.12075186955E+03  0.77833711855E+02 0.  0.
         23    2    1    2    0    0 -0.18646787168E+03 -0.17266129545E+02  0.13400460123E+03  0.24740800457E+03  0.90471548983E+02 0.  0.
        -11    1    3    3    0    0  0.43628046696E+02 -0.33260561765E+02  0.81943539082E+02  0.98612448629E+02  0.00000000000E+00 0.  1.
         12    1    3    3    0    0  0.13653943116E+02  0.11844694417E+02 -0.12783857415E+02  0.22139420924E+02  0.00000000000E+00 0. -1.
        -11    1    4    4    0    0 -0.44297520354E+02  0.79217845757E+01 -0.70608692537E+01  0.45550860091E+02  0.00000000000E+00 0. -1.
         11    1    4    4    0    0 -0.14217035133E+03 -0.25187914121E+02  0.14106547048E+03  0.20185714448E+03  0.00000000000E+00 0.  1.
         -4    1    1    2    0  502  0.12918588187E+03  0.38681996893E+02  0.55674172998E+02  0.14589346283E+03  0.00000000000E+00 0.  1.
<scales pt_clust_5="13000.00000" pt_clust_6="13000.00000" pt_clust_7="13000.00000" pt_clust_8="13000.00000" pt_clust_9="157.29861"></scales>
<clustering>
<clus scale="   77.834">  5  6 -1 -1</clus>
<clus scale="   90.472">  7  8 -1 -1</clus>
<clus scale="   98.985">  2  5  1 -1</clus>
<clus scale="  157.299">  1  9  2 -1</clus>
<clus scale="  157.299">  1  5  2 -1</clus>
</clustering>
</event>
<event>
 9    2  0.1325014E-004  0.2439573E+03  0.7546771E-02  0.1157545E+00
          2   -1    0    0  502    0 -0.00000000000E+00  0.00000000000E+00  0.17436287357E+04  0.17436287357E+04  0.00000000000E+00 0. -1.
         21   -1    0    0  501  502  0.00000000000E+00 -0.00000000000E+00 -0.71095147021E+02  0.71095147021E+02  0.00000000000E+00 0.  1.
         24    2    1    2    0    0  0.27883600905E+02  0.19422764802E+02  0.16521056064E+03  0.18895354669E+03  0.85171441622E+02 0.  0.
         23    2    1    2    0    0 -0.81189895759E+01  0.22291590498E+03  0.25701903703E+03  0.35204401509E+03  0.90104297783E+02 0.  0.
        -11    1    3    3    0    0  0.39980623270E+02 -0.22327082195E+02  0.10628905894E+03  0.11573380183E+03  0.00000000000E+00 0.  1.
         12    1    3    3    0    0 -0.12097022366E+02  0.41749846997E+02  0.58921501702E+02  0.73219744859E+02  0.00000000000E+00 0. -1.
        -13    1    4    4    0    0  0.29982757421E+02  0.34741282179E+02  0.72195967044E+02  0.85546362211E+02  0.00000000000E+00 0. -1.
         13    1    4    4    0    0 -0.38101746997E+02  0.18817462280E+03  0.18482306999E+03  0.26649765288E+03  0.00000000000E+00 0.  1.
          1    1    1    2  501    0 -0.19764611329E+02 -0.24233866978E+03  0.12503039910E+04  0.12737263210E+04  0.00000000000E+00 0. -1.
<scales pt_clust_5="13000.00000" pt_clust_6="13000.00000" pt_clust_7="13000.00000" pt_clust_8="13000.00000" pt_clust_9="226.70780"></scales>
<clustering>
<clus scale="   85.171">  5  6 -1 -1</clus>
<clus scale="   90.104">  7  8 -1 -1</clus>
<clus scale="   91.700">  1  5  2 -1</clus>
<clus scale="  226.708">  2  9  1 -1</clus>
<clus scale="  226.708">  2  5  1 -1</clus>
</clustering>
</event>
<event>
 9    2  0.1325014E-004  0.1173293E+03  0.7546771E-02  0.1251362E+00
          2   -1    0    0  502    0 -0.00000000000E+00  0.00000000000E+00  0.24915436027E+03  0.24915436027E+03  0.00000000000E+00 0. -1.
         21   -1    0    0  501  502  0.00000000000E+00 -0.00000000000E+00 -0.12524484285E+03  0.12524484285E+03  0.00000000000E+00 0.  1.
         23    2    1    2    0    0  0.84141941868E+02 -0.46237364922E+02  0.68878894463E+02  0.14921866879E+03  0.91127101988E+02 0.  0.
         24    2    1    2    0    0 -0.52207786668E+02 -0.34066059088E+02 -0.28293012477E+02  0.10513363350E+03  0.79789955301E+02 0.  0.
        -13    1    4    4    0    0 -0.12612508739E+02 -0.36489958335E+02  0.19310283131E+02  0.43168037604E+02  0.00000000000E+00 0.  1.
         14    1    4    4    0    0 -0.39595277929E+02  0.24238992465E+01 -0.47603295607E+02  0.61965595894E+02  0.00000000000E+00 0. -1.
        -11    1    3    3    0    0  0.12331797110E+02 -0.50097990781E+02  0.56030159902E+02  0.76166007634E+02  0.00000000000E+00 0. -1.
         11    1    3    3    0    0  0.71810144757E+02  0.38606258593E+01  0.12848734561E+02  0.73052661156E+02  0.00000000000E+00 0.  1.
          1    1    1    2  501    0 -0.31934155199E+02  0.80303424010E+02  0.83323635434E+02  0.12004690083E+03  0.00000000000E+00 0. -1.
<scales pt_clust_5="13000.00000" pt_clust_6="13000.00000" pt_clust_7="13000.00000" pt_clust_8="13000.00000" pt_clust_9="86.42012"></scales>
<clustering>
<clus scale="   79.790">  5  6 -1 -1</clus>
<clus scale="   86.420">  2  9  1 -1</clus>
<clus scale="   91.127">  7  8 -1 -1</clus>
<clus scale="  108.759">  2  5  1 -1</clus>
<clus scale="   86.420">  2  5  1 -1</clus>
</clustering>
</event>
<event>
 9    2  0.1325014E-004  0.9404818E+02  0.7546771E-02  0.1300637E+00
          2   -1    0    0  502    0 -0.00000000000E+00  0.00000000000E+00  0.48130920844E+03  0.48130920844E+03  0.00000000000E+00 0. -1.
         21   -1    0    0  501  502  0.00000000000E+00 -0.00000000000E+00 -0.53671159768E+02  0.53671159768E+02  0.00000000000E+00 0. -1.
         24    2    1    2    0    0  0.69442085772E+01 -0.25836450803E+02  0.40077991514E+03  0.40926187360E+03  0.78453786315E+02 0.  0.
         23    2    1    2    0    0 -0.18485713253E+02 -0.60179477335E+00  0.28029600383E+02  0.96847064192E+02  0.90838381720E+02 0.  0.
        -11    1    3    3    0    0  0.10916423914E+02  0.18554950234E+02  0.37355684497E+02  0.43114981775E+02  0.00000000000E+00 0.  1.
         12    1    3    3    0    0 -0.39722153364E+01 -0.44391401037E+02  0.36342423064E+03  0.36614689183E+03  0.00000000000E+00 0. -1.
        -11    1    4    4    0    0 -0.37514301683E+02 -0.34571183930E+02  0.41759611486E+01  0.51185234596E+02  0.00000000000E+00 0. -1.
         11    1    4    4    0    0  0.19028588430E+02  0.33969389157E+02  0.23853639235E+02  0.45661829596E+02  0.00000000000E+00 0.  1.
          1    1    1    2  501    0  0.11541504676E+02  0.26438245576E+02 -0.11714668494E+01  0.28871430410E+02  0.00000000000E+00 0. -1.
<scales pt_clust_5="13000.00000" pt_clust_6="13000.00000" pt_clust_7="13000.00000" pt_clust_8="13000.00000" pt_clust_9="28.84765"></scales>
<clustering>
<clus scale="   28.848">  2  9  1 -1</clus>
<clus scale="   78.454">  5  6 -1 -1</clus>
<clus scale="   82.149">  1  5  2 -1</clus>
<clus scale="   90.838">  7  8 -1 -1</clus>
<clus scale="   28.848">  2  5  1 -1</clus>
</clustering>
</event>
<event>
 9    2  0.1325014E-004  0.1029613E+03  0.7546771E-02  0.1282803E+00
         21   -1    0    0  501  502  0.00000000000E+00  0.00000000000E+00  0.37118022207E+02  0.37118022207E+02  0.00000000000E+00 0.  1.
          2   -1    0    0  502    0 -0.00000000000E+00 -0.00000000000E+00 -0.55475089887E+03  0.55475089887E+03  0.00000000000E+00 0. -1.
         24    2    1    2    0    0  0.24601586313E+02  0.38403872312E+02 -0.41526574244E+03  0.42470376017E+03  0.76469285352E+02 0.  0.
         23    2    1    2    0    0 -0.25166851192E+02 -0.17283398222E+02 -0.10693659071E+03  0.14554864216E+03  0.93898277663E+02 0.  0.
        -11    1    3    3    0    0  0.43176786914E+02  0.11273854962E+01 -0.14663911151E+03  0.15286770408E+03  0.00000000000E+00 0.  1.
         12    1    3    3    0    0 -0.18575200601E+02  0.37276486816E+02 -0.26862663093E+03  0.27183605609E+03  0.00000000000E+00 0. -1.
        -13    1    4    4    0    0  0.77659865997E+01 -0.22747634495E+02  0.84122150761E+01  0.25466267600E+02  0.00000000000E+00 0.  1.
         13    1    4    4    0    0 -0.32932837791E+02  0.54642362733E+01 -0.11534880578E+03  0.12008237456E+03  0.00000000000E+00 0. -1.
          1    1    1    2  501    0  0.56526487827E+00 -0.21120474090E+02  0.45694564876E+01  0.21616518747E+02  0.00000000000E+00 0. -1.
<scales pt_clust_5="13000.00000" pt_clust_6="13000.00000" pt_clust_7="13000.00000" pt_clust_8="13000.00000" pt_clust_9="21.12804"></scales>
<clustering>
<clus scale="   21.128">  1  9  2 -1</clus>
<clus scale="   76.469">  5  6 -1 -1</clus>
<clus scale="   87.360">  2  5  1 -1</clus>
<clus scale="   93.898">  7  8 -1 -1</clus>
<clus scale="   21.128">  1  5  2 -1</clus>
</clustering>
</event>
<event>
 9    2  0.1325014E-004  0.1339781E+03  0.7546771E-02  0.1224340E+00
          2   -1    0    0  502    0 -0.00000000000E+00  0.00000000000E+00  0.69336871668E+03  0.69336871668E+03  0.00000000000E+00 0. -1.
         21   -1    0    0  501  502  0.00000000000E+00 -0.00000000000E+00 -0.43634645516E+02  0.43634645516E+02  0.00000000000E+00 0.  1.
         24    2    1    2    0    0  0.99624113173E+02 -0.78006478137E+01  0.35449724589E+03  0.37711439437E+03  0.81000957194E+02 0.  0.
         23    2    1    2    0    0 -0.87351355314E+02  0.32584693141E+02  0.10554432991E+03  0.16819099630E+03  0.91959687685E+02 0.  0.
        -11    1    3    3    0    0  0.21186094494E+02  0.19335177299E+02  0.27456703224E+02  0.39706047815E+02  0.00000000000E+00 0.  1.
         12    1    3    3    0    0  0.78438018679E+02 -0.27135825113E+02  0.32704054266E+03  0.33740834655E+03  0.00000000000E+00 0. -1.
        -13    1    4    4    0    0 -0.31402146815E+02  0.58222206863E+02  0.73214308445E+02  0.98672464029E+02  0.00000000000E+00 0.  1.
         13    1    4    4    0    0 -0.55949208499E+02 -0.25637513722E+02  0.32330021464E+02  0.69518532273E+02  0.00000000000E+00 0. -1.
          1    1    1    2  501    0 -0.12272757859E+02 -0.24784045327E+02  0.18969249537E+03  0.19169797153E+03  0.00000000000E+00 0. -1.
<scales pt_clust_5="13000.00000" pt_clust_6="13000.00000" pt_clust_7="13000.00000" pt_clust_8="13000.00000" pt_clust_9="27.65629"></scales>
<clustering>
<clus scale="   27.656">  2  9  1 -1</clus>
<clus scale="   81.001">  5  6 -1 -1</clus>
<clus scale="   91.960">  7  8 -1 -1</clus>
<clus scale="  126.707">  1  5  2 -1</clus>
<clus scale="   27.656">  2  5  1 -1</clus>
</clustering>
</event>
<event>
 9    2  0.2711145E-004  0.2243061E+03  0.7546771E-02  0.1160531E+00
         -1   -1    0    0    0  501 -0.00000000000E+00  0.00000000000E+00  0.51437534646E+03  0.51437534646E+03  0.00000000000E+00 0.  1.
         21   -1    0    0  501  502  0.00000000000E+00 -0.00000000000E+00 -0.51826275235E+03  0.51826275235E+03  0.00000000000E+00 0.  1.
         23    2    1    2    0    0 -0.21615883085E+01 -0.59454191864E+02  0.38682982327E+03  0.40217631847E+03  0.92568923337E+02 0.  0.
         24    2    1    2    0    0 -0.10882315668E+03 -0.16210778321E+03 -0.29955524476E+03  0.36642043923E+03  0.80057359546E+02 0.  0.
        -13    1    4    4    0    0 -0.52319600830E+02 -0.14084771269E+03 -0.20324096393E+03  0.25274949697E+03  0.00000000000E+00 0.  1.
         14    1    4    4    0    0 -0.56503555846E+02 -0.21260070515E+02 -0.96314280831E+02  0.11367094226E+03  0.00000000000E+00 0. -1.
        -11    1    3    3    0    0 -0.59321443504E+01 -0.82393866556E+02  0.34003046525E+03  0.34992092947E+03  0.00000000000E+00 0.  1.
         11    1    3    3    0    0  0.37705560420E+01  0.22939674693E+02  0.46799358023E+02  0.52255388997E+02  0.00000000000E+00 0. -1.
         -2    1    1    2    0  502  0.11098474499E+03  0.22156197507E+03 -0.91161984408E+02  0.26404134112E+03  0.00000000000E+00 0.  1.
<scales pt_clust_5="13000.00000" pt_clust_6="13000.00000" pt_clust_7="13000.00000" pt_clust_8="13000.00000" pt_clust_9="209.53304"></scales>
<clustering>
<clus scale="   80.057">  5  6 -1 -1</clus>
<clus scale="   92.569">  7  8 -1 -1</clus>
<clus scale="  110.039">  1  7  2 -1</clus>
<clus scale="  209.533">  2  9  1 -1</clus>
<clus scale="  209.533">  2  5  1 -1</clus>
</clustering>
</event>
<event>
 9    2  0.1325014E-004  0.1423018E+03  0.7546771E-02  0.1213092E+00
         21   -1    0    0  501  502  0.00000000000E+00  0.00000000000E+00  0.57709822423E+02  0.57709822423E+02  0.00000000000E+00 0. -1.
          2   -1    0    0  502    0 -0.00000000000E+00 -0.00000000000E+00 -0.51670778343E+03  0.51670778343E+03  0.00000000000E+00 0. -1.
         23    2    1    2    0    0 -0.10325608132E+03 -0.55084758328E+02 -0.30672422331E+03  0.34118929506E+03  0.92920594946E+02 0.  0.
         24    2    1    2    0    0  0.74778939328E+02  0.62234168810E+02 -0.15941151496E+03  0.20301226289E+03  0.79605064209E+02 0.  0.
        -11    1    4    4    0    0  0.48994771264E+02 -0.88164590679E+01 -0.56091707741E+02  0.74996648185E+02  0.00000000000E+00 0.  1.
         12    1    4    4    0    0  0.25784168064E+02  0.71050627878E+02 -0.10331980722E+03  0.12801561471E+03  0.00000000000E+00 0. -1.
        -11    1    3    3    0    0 -0.12064025297E+03 -0.43681385589E+02 -0.25548693126E+03  0.28589457170E+03  0.00000000000E+00 0. -1.
         11    1    3    3    0    0  0.17384171654E+02 -0.11403372738E+02 -0.51237292056E+02  0.55294723357E+02  0.00000000000E+00 0.  1.
          1    1    1    2  501    0  0.28477141990E+02 -0.71494104825E+01  0.71377772748E+01  0.30216047898E+02  0.00000000000E+00 0. -1.
<scales pt_clust_5="13000.00000" pt_clust_6="13000.00000" pt_clust_7="13000.00000" pt_clust_8="13000.00000" pt_clust_9="29.36089"></scales>
<clustering>
<clus scale="   29.361">  1  9  2 -1</clus>
<clus scale="   79.605">  5  6 -1 -1</clus>
<clus scale="   92.921">  7  8 -1 -1</clus>
<clus scale="  133.987">  1  5  2 -1</clus>
<clus scale="   29.361">  1  5  2 -1</clus>
</clustering>
</event>
<event>
 9    2  0.1325014E-004  0.3774231E+03  0.7546771E-02  0.1052110E+00
         21   -1    0    0  501  502  0.00000000000E+00  0.00000000000E+00  0.30327462626E+03  0.30327462626E+03  0.00000000000E+00 0.  1.
          2   -1    0    0  502    0 -0.00000000000E+00 -0.00000000000E+00 -0.69354755060E+03  0.69354755060E+03  0.00000000000E+00 0. -1.
         23    2    1    2    0    0 -0.22088370075E+03  0.20118469031E+03 -0.93591327219E+02  0.32589791621E+03  0.90472240973E+02 0.  0.
         24    2    1    2    0    0  0.30377984405E+03 -0.31300405571E+03 -0.29329066504E+03  0.53168762943E+03  0.80116094239E+02 0.  0.
        -13    1    4    4    0    0  0.29749909756E+03 -0.30946589636E+03 -0.26956887987E+03  0.50689469819E+03  0.00000000000E+00 0.  1.
         14    1    4    4    0    0  0.62807464880E+01 -0.35381593437E+01 -0.23721785169E+02  0.24792931243E+02  0.00000000000E+00 0. -1.
        -13    1    3    3    0    0 -0.15088555322E+03  0.78936052271E+02 -0.38129224796E+02  0.17450268853E+03  0.00000000000E+00 0. -1.
         13    1    3    3    0    0 -0.69998147523E+02  0.12224863804E+03 -0.55462102423E+02  0.15139522768E+03  0.00000000000E+00 0.  1.
          1    1    1    2  501    0 -0.82896143305E+02  0.11181936540E+03 -0.33909320922E+01  0.13923663122E+03  0.00000000000E+00 0. -1.
<scales pt_clust_5="13000.00000" pt_clust_6="13000.00000" pt_clust_7="13000.00000" pt_clust_8="13000.00000" pt_clust_9="139.19533"></scales>
<clustering>
<clus scale="   80.116">  5  6 -1 -1</clus>
<clus scale="   90.472">  7  8 -1 -1</clus>
<clus scale="  139.195">  1  9  2 -1</clus>
<clus scale="  375.075">  1  5  2 -1</clus>
<clus scale="  139.195">  1  5  2 -1</clus>
</clustering>
</event>
<event>
 9    2  0.1325014E-004  0.1013610E+03  0.7546771E-02  0.1282603E+00
         21   -1    0    0  501  502  0.00000000000E+00  0.00000000000E+00  0.10297652369E+03  0.10297652369E+03  0.00000000000E+00 0.  1.
          2   -1    0    0  502    0 -0.00000000000E+00 -0.00000000000E+00 -0.29488335831E+03  0.29488335831E+03  0.00000000000E+00 0. -1.
         24    2    1    2    0    0 -0.39898963766E+02  0.25416515466E+01 -0.23582131382E+03  0.25282499439E+03  0.81917021669E+02 0.  0.
         23    2    1    2    0    0  0.58541800820E+02  0.16047807698E+02  0.43215951083E+02  0.11869838613E+03  0.92395962393E+02 0.  0.
        -11    1    3    3    0    0  0.33337478349E+01 -0.34221285529E+02 -0.86475748580E+02  0.93060546691E+02  0.00000000000E+00 0.  1.
         12    1    3    3    0    0 -0.43232711601E+02  0.36762937076E+02 -0.14934556523E+03  0.15976444770E+03  0.00000000000E+00 0. -1.
        -13    1    4    4    0    0  0.58966228028E+02 -0.27196792420E+02  0.13773180604E+02  0.66380585036E+02  0.00000000000E+00 0.  1.
         13    1    4    4    0    0 -0.42442720722E+00  0.43244600118E+02  0.29442770479E+02  0.52317801094E+02  0.00000000000E+00 0. -1.
          1    1    1    2  501    0 -0.18642837055E+02 -0.18589459244E+02  0.69852811172E+00  0.26336501475E+02  0.00000000000E+00 0. -1.
<scales pt_clust_5="13000.00000" pt_clust_6="13000.00000" pt_clust_7="13000.00000" pt_clust_8="13000.00000" pt_clust_9="26.32724"></scales>
<clustering>
<clus scale="   26.327">  1  9  2 -1</clus>
<clus scale="   81.917">  5  6 -1 -1</clus>
<clus scale="   91.910">  2  5  1 -1</clus>
<clus scale="   92.396">  7  8 -1 -1</clus>
<clus scale="   26.327">  1  5  2 -1</clus>
</clustering>
</event>
<event>
 9    2  0.1325014E-004  0.1241235E+03  0.7546771E-02  0.1239519E+00
          2   -1    0    0  502    0 -0.00000000000E+00  0.00000000000E+00  0.25854725279E+03  0.25854725279E+03  0.00000000000E+00 0. -1.
         21   -1    0    0  501  502  0.00000000000E+00 -0.00000000000E+00 -0.31618581737E+03  0.31618581737E+03  0.00000000000E+00 0.  1.
         24    2    1    2    0    0  0.17256878855E+02  0.81222238337E+02  0.21972951978E+03  0.24831881491E+03  0.80537693696E+02 0.  0.
         23    2    1    2    0    0 -0.40265961931E+02 -0.10067507512E+03 -0.23609155450E+03  0.27531060881E+03  0.91103736339E+02 0.  0.
        -13    1    3    3    0    0  0.25428838355E+02 -0.33666901529E+01  0.87099660428E+02  0.90798189791E+02  0.00000000000E+00 0.  1.
         14    1    3    3    0    0 -0.81719595002E+01  0.84588928490E+02  0.13262985935E+03  0.15752062512E+03  0.00000000000E+00 0. -1.
        -11    1    4    4    0    0 -0.70679961525E+01 -0.26218797342E+02 -0.17693417176E+01  0.27212358843E+02  0.00000000000E+00 0. -1.
         11    1    4    4    0    0 -0.33197965778E+02 -0.74456277782E+02 -0.23432221278E+03  0.24809824996E+03  0.00000000000E+00 0.  1.
          1    1    1    2  501    0  0.23009083076E+02  0.19452836786E+02 -0.41276529860E+02  0.51103646448E+02  0.00000000000E+00 0. -1.
<scales pt_clust_5="13000.00000" pt_clust_6="13000.00000" pt_clust_7="13000.00000" pt_clust_8="13000.00000" pt_clust_9="30.13023"></scales>
<clustering>
<clus scale="   30.130">  2  9  1 -1</clus>
<clus scale="   80.538">  5  6 -1 -1</clus>
<clus scale="   91.104">  7  8 -1 -1</clus>
<clus scale="  116.589">  1  5  2 -1</clus>
<clus scale="   30.130">  2  5  1 -1</clus>
</clustering>
</event>
<event>
 9    2  0.1325014E-004  0.2562907E+03  0.7546771E-02  0.1111621E+00
          2   -1    0    0  502    0 -0.00000000000E+00  0.00000000000E+00  0.85582592440E+03  0.85582592440E+03  0.00000000000E+00 0. -1.
         21   -1    0    0  501  502  0.00000000000E+00 -0.00000000000E+00 -0.17515284207E+03  0.17515284207E+03  0.00000000000E+00 0. -1.
         23    2    1    2    0    0  0.59648671810E+02  0.26026785103E+03  0.63171048041E+03  0.69518736908E+03  0.11371028426E+03 0.  0.
         24    2    1    2    0    0 -0.11158456243E+03 -0.11918310539E+03  0.42381842998E+02  0.18530701756E+03  0.76725112939E+02 0.  0.
        -13    1    4    4    0    0 -0.34871104812E+01 -0.46110903072E+02  0.27949558547E+02  0.54032889471E+02  0.00000000000E+00 0.  1.
         14    1    4    4    0    0 -0.10809745195E+03 -0.73072202323E+02  0.14432284451E+02  0.13127412809E+03  0.00000000000E+00 0. -1.
        -11    1    3    3    0    0 -0.31382231650E+02  0.74090660970E+02  0.22016008436E+03  0.23440292927E+03  0.00000000000E+00 0.  1.
         11    1    3    3    0    0  0.91030903460E+02  0.18617719006E+03  0.41155039605E+03  0.46078443981E+03  0.00000000000E+00 0. -1.
          1    1    1    2  501    0  0.51935890620E+02 -0.14108474563E+03  0.65807589246E+01  0.15048437983E+03  0.00000000000E+00 0. -1.
<scales pt_clust_5="13000.00000" pt_clust_6="13000.00000" pt_clust_7="13000.00000" pt_clust_8="13000.00000" pt_clust_9="150.34042"></scales>
<clustering>
<clus scale="   76.725">  5  6 -1 -1</clus>
<clus scale="  113.710">  7  8 -1 -1</clus>
<clus scale="  150.340">  2  9  1 -1</clus>
<clus scale="  242.160">  2  5  1 -1</clus>
<clus scale="  150.340">  2  5  1 -1</clus>
</clustering>
</event>
<event>
 9    2  0.1325014E-004  0.1396580E+03  0.7546771E-02  0.1214499E+00
          2   -1    0    0  502    0 -0.00000000000E+00  0.00000000000E+00  0.90632493095E+03  0.90632493095E+03  0.00000000000E+00 0. -1.
         21   -1    0    0  501  502  0.00000000000E+00 -0.00000000000E+00 -0.13415987989E+03  0.13415987989E+03  0.00000000000E+00 0.  1.
         24    2    1    2    0    0 -0.62808371939E+01 -0.10851982442E+03  0.52229079988E+03  0.53954217020E+03  0.80635430018E+02 0.  0.
         23    2    1    2    0    0  0.98920526971E+01  0.18791347455E+03 -0.34020814649E+02  0.20613286984E+03  0.76967639792E+02 0.  0.
        -13    1    3    3    0    0 -0.34348228454E+02 -0.10038982390E+03  0.41326452508E+03  0.42666788633E+03  0.00000000000E+00 0.  1.
         14    1    3    3    0    0  0.28067391260E+02 -0.81300005203E+01  0.10902627480E+03  0.11287428387E+03  0.00000000000E+00 0. -1.
        -13    1    4    4    0    0  0.28085903154E+02  0.13475925344E+03 -0.51992785458E+02  0.14714660745E+03  0.00000000000E+00 0.  1.
         13    1    4    4    0    0 -0.18193850457E+02  0.53154221103E+02  0.17971970809E+02  0.58986262386E+02  0.00000000000E+00 0. -1.
          1    1    1    2  501    0 -0.36112155032E+01 -0.79393650130E+02  0.28389506583E+03  0.29480977081E+03  0.00000000000E+00 0. -1.
<scales pt_clust_5="13000.00000" pt_clust_6="13000.00000" pt_clust_7="13000.00000" pt_clust_8="13000.00000" pt_clust_9="79.47578"></scales>
<clustering>
<clus scale="   76.968">  7  8 -1 -1</clus>
<clus scale="   79.476">  2  9  1 -1</clus>
<clus scale="   80.635">  5  6 -1 -1</clus>
<clus scale="  137.573">  2  7  1 -1</clus>
<clus scale="   79.476">  2  5  1 -1</clus>
</clustering>
</event>
<event>
 9    2  0.1325014E-004  0.3039474E+03  0.7546771E-02  0.1096747E+00
          2   -1    0    0  502    0 -0.00000000000E+00  0.00000000000E+00  0.12433987135E+04  0.12433987135E+04  0.00000000000E+00 0. -1.
         21   -1    0    0  501  502  0.00000000000E+00 -0.00000000000E+00 -0.17601296788E+03  0.17601296788E+03  0.00000000000E+00 0. -1.
         24    2    1    2    0    0 -0.13568371036E+03 -0.14758156079E+03  0.28575772725E+03  0.35636231112E+03  0.71737241065E+02 0.  0.
         23    2    1    2    0    0 -0.25452079119E+03  0.54798713215E+02  0.14961018900E+03  0.31450762361E+03  0.93531302426E+02 0.  0.
        -13    1    3    3    0    0 -0.35208186461E+02 -0.89830287920E+02  0.11714349622E+03  0.15176197062E+03  0.00000000000E+00 0.  1.
         14    1    3    3    0    0 -0.10047552390E+03 -0.57751272874E+02  0.16861423104E+03  0.20460034049E+03  0.00000000000E+00 0. -1.
        -11    1    4    4    0    0 -0.46968326271E+02  0.25117538624E+02 -0.57268879629E+01  0.53569689797E+02  0.00000000000E+00 0.  1.
         11    1    4    4    0    0 -0.20755246492E+03  0.29681174591E+02  0.15533707697E+03  0.26093793381E+03  0.00000000000E+00 0. -1.
          1    1    1    2  501    0  0.39020450156E+03  0.92782847579E+02  0.63201782933E+03  0.74854174662E+03  0.00000000000E+00 0. -1.
<scales pt_clust_5="13000.00000" pt_clust_6="13000.00000" pt_clust_7="13000.00000" pt_clust_8="13000.00000" pt_clust_9="289.19890"></scales>
<clustering>
<clus scale="   71.737">  5  6 -1 -1</clus>
<clus scale="   93.531">  7  8 -1 -1</clus>
<clus scale="  212.924">  1  5  2 -1</clus>
<clus scale="  289.199">  2  9  1 -1</clus>
<clus scale="  289.199">  2  5  1 -1</clus>
</clustering>
</event>
<event>
 9    2  0.1325014E-004  0.1007679E+03  0.7546771E-02  0.1284751E+00
         21   -1    0    0  501  502  0.00000000000E+00  0.00000000000E+00  0.11044044910E+03  0.11044044910E+03  0.00000000000E+00 0. -1.
          4   -1    0    0  502    0 -0.00000000000E+00 -0.00000000000E+00 -0.44416367194E+03  0.44416367194E+03  0.00000000000E+00 0. -1.
         24    2    1    2    0    0  0.37160880366E+01 -0.38324265964E+02 -0.26390352013E+03  0.27833170078E+03  0.79629825133E+02 0.  0.
         23    2    1    2    0    0 -0.47687061523E+02  0.76769924284E+02  0.53755324504E+02  0.13958920071E+03  0.91803229421E+02 0.  0.
        -11    1    3    3    0    0  0.31492614228E+02 -0.43153100672E+02 -0.11526836475E+03  0.12704633313E+03  0.00000000000E+00 0.  1.
         12    1    3    3    0    0 -0.27776526191E+02  0.48288347074E+01 -0.14863515538E+03  0.15128536765E+03  0.00000000000E+00 0. -1.
        -11    1    4    4    0    0 -0.13050679762E+02  0.66149955023E+02 -0.80956424169E+01  0.67909323498E+02  0.00000000000E+00 0.  1.
         11    1    4    4    0    0 -0.34636381761E+02  0.10619969261E+02  0.61850966921E+02  0.71679877216E+02  0.00000000000E+00 0. -1.
          3    1    1    2  501    0  0.43970973486E+02 -0.38445658319E+02 -0.12357502722E+03  0.13668321955E+03  0.00000000000E+00 0. -1.
<scales pt_clust_5="13000.00000" pt_clust_6="13000.00000" pt_clust_7="13000.00000" pt_clust_8="13000.00000" pt_clust_9="58.40821"></scales>
<clustering>
<clus scale="   58.408">  1  9  2 -1</clus>
<clus scale="   79.630">  5  6 -1 -1</clus>
<clus scale="   89.818">  2  5  1 -1</clus>
<clus scale="   91.803">  7  8 -1 -1</clus>
<clus scale="   58.408">  1  5  2 -1</clus>
</clustering>
</event>
<event>
 9    2  0.1325014E-004  0.8858393E+02  0.7546771E-02  0.1316909E+00
         21   -1    0    0  501  502  0.00000000000E+00  0.00000000000E+00  0.41294311751E+02  0.41294311751E+02  0.00000000000E+00 0. -1.
          2   -1    0    0  502    0 -0.00000000000E+00 -0.00000000000E+00 -0.51825502728E+03  0.51825502728E+03  0.00000000000E+00 0. -1.
         24    2    1    2    0    0 -0.23153518729E+01  0.45231357029E+02 -0.34465011273E+03  0.35721902275E+03  0.82283008569E+02 0.  0.
         23    2    1    2    0    0  0.34984205517E+02  0.18255193474E+02 -0.41766082431E+02  0.87021573063E+02  0.65354432231E+02 0.  0.
        -11    1    3    3    0    0  0.33674970161E+02 -0.73339159695E+00 -0.16206134527E+03  0.16552468429E+03  0.00000000000E+00 0.  1.
         12    1    3    3    0    0 -0.35990322034E+02  0.45964748626E+02 -0.18258876746E+03  0.19169433846E+03  0.00000000000E+00 0. -1.
        -11    1    4    4    0    0  0.91035596280E+01  0.33629396789E+02 -0.44815512313E+02  0.56764789000E+02  0.00000000000E+00 0.  1.
         11    1    4    4    0    0  0.25880645889E+02 -0.15374203316E+02  0.30494298814E+01  0.30256784063E+02  0.00000000000E+00 0. -1.
          1    1    1    2  501    0 -0.32668853644E+02 -0.63486550503E+02 -0.90544520367E+02  0.11530874321E+03  0.00000000000E+00 0. -1.
<scales pt_clust_5="13000.00000" pt_clust_6="13000.00000" pt_clust_7="13000.00000" pt_clust_8="13000.00000" pt_clust_9="71.39885"></scales>
<clustering>
<clus scale="   65.354">  7  8 -1 -1</clus>
<clus scale="   71.399">  1  9  2 -1</clus>
<clus scale="   73.129">  1  7  2 -1</clus>
<clus scale="   82.283">  5  6 -1 -1</clus>
<clus scale="   71.399">  1  5  2 -1</clus>
</clustering>
</event>
<event>
 9    2  0.1325014E-004  0.1357977E+03  0.7546771E-02  0.1221054E+00
         21   -1    0    0  501  502  0.00000000000E+00  0.00000000000E+00  0.13411623035E+03  0.13411623035E+03  0.00000000000E+00 0.  1.
          2   -1    0    0  502    0 -0.00000000000E+00 -0.00000000000E+00 -0.42183985852E+03  0.42183985852E+03  0.00000000000E+00 0. -1.
         23    2    1    2    0    0 -0.70943789524E+02 -0.78475596843E+02 -0.34390712639E+03  0.37099778752E+03  0.90420164728E+02 0.  0.
         24    2    1    2    0    0  0.56804474098E+02  0.60895598148E+02 -0.77912518181E+01  0.11712213667E+03  0.81987005932E+02 0.  0.
        -13    1    4    4    0    0  0.64400396817E+02  0.11707994911E+02 -0.14087502148E+02  0.66954805442E+02  0.00000000000E+00 0.  1.
         14    1    4    4    0    0 -0.75959227190E+01  0.49187603237E+02  0.62962503304E+01  0.50167331227E+02  0.00000000000E+00 0. -1.
        -13    1    3    3    0    0 -0.47404040651E+02 -0.21033827538E+01 -0.20792146760E+03  0.21326721261E+03  0.00000000000E+00 0. -1.
         13    1    3    3    0    0 -0.23539748874E+02 -0.76372214089E+02 -0.13598565880E+03  0.15773057491E+03  0.00000000000E+00 0.  1.
          1    1    1    2  501    0  0.14139315426E+02  0.17579998695E+02  0.63974750040E+02  0.67836164673E+02  0.00000000000E+00 0. -1.
<scales pt_clust_5="13000.00000" pt_clust_6="13000.00000" pt_clust_7="13000.00000" pt_clust_8="13000.00000" pt_clust_9="22.56051"></scales>
<clustering>
<clus scale="   22.561">  1  9  2 -1</clus>
<clus scale="   81.987">  5  6 -1 -1</clus>
<clus scale="   90.420">  7  8 -1 -1</clus>
<clus scale="  130.334">  1  5  2 -1</clus>
<clus scale="   22.561">  1  5  2 -1</clus>
</clustering>
</event>
<event>
 9    2  0.1325014E-004  0.3316564E+03  0.7546771E-02  0.1131689E+00
         21   -1    0    0  501  502  0.00000000000E+00  0.00000000000E+00  0.60920335403E+03  0.60920335403E+03  0.00000000000E+00 0. -1.
          2   -1    0    0  502    0 -0.00000000000E+00 -0.00000000000E+00 -0.32245384341E+03  0.32245384341E+03  0.00000000000E+00 0. -1.
         23    2    1    2    0    0 -0.57151039817E+01  0.89324528003E+01 -0.12352463248E+03  0.14088424387E+03  0.66914753346E+02 0.  0.
         24    2    1    2    0    0  0.40793322420E+02 -0.32303766725E+03  0.31674545905E+03  0.46116685247E+03  0.79559728307E+02 0.  0.
        -11    1    4    4    0    0  0.58402778086E+02 -0.16415667563E+03  0.18372770639E+03  0.25320775805E+03  0.00000000000E+00 0.  1.
         12    1    4    4    0    0 -0.17609455666E+02 -0.15888099162E+03  0.13301775266E+03  0.20795909442E+03  0.00000000000E+00 0. -1.
        -13    1    3    3    0    0  0.15331381053E+02  0.32596276391E+02 -0.62795406731E+02  0.72393588018E+02  0.00000000000E+00 0.  1.
         13    1    3    3    0    0 -0.21046485035E+02 -0.23663823590E+02 -0.60729225746E+02  0.68490655851E+02  0.00000000000E+00 0. -1.
          1    1    1    2  501    0 -0.35078218438E+02  0.31410521445E+03  0.93528684044E+02  0.32960610111E+03  0.00000000000E+00 0. -1.
<scales pt_clust_5="13000.00000" pt_clust_6="13000.00000" pt_clust_7="13000.00000" pt_clust_8="13000.00000" pt_clust_9="321.97253"></scales>
<clustering>
<clus scale="   66.915">  7  8 -1 -1</clus>
<clus scale="   67.750">  2  7  1 -1</clus>
<clus scale="   79.560">  5  6 -1 -1</clus>
<clus scale="  321.973">  1  9  2 -1</clus>
<clus scale="  321.973">  1  5  2 -1</clus>
</clustering>
</event>
<event>
 9    2  0.1325014E-004  0.1182343E+03  0.7546771E-02  0.1246622E+00
          2   -1    0    0  502    0 -0.00000000000E+00  0.00000000000E+00  0.81061959477E+03  0.81061959477E+03  0.00000000000E+00 0. -1.
         21   -1    0    0  501  502  0.00000000000E+00 -0.00000000000E+00 -0.27521189766E+02  0.27521189766E+02  0.00000000000E+00 0.  1.
         24    2    1    2    0    0  0.52870298189E+02  0.59442972793E+02  0.40968632566E+03  0.42493319854E+03  0.79978761826E+02 0.  0.
         23    2    1    2    0    0 -0.60762389038E+02 -0.86788691684E+02  0.21331065797E+03  0.25059596721E+03  0.77926613240E+02 0.  0.
        -11    1    3    3    0    0  0.60283416594E+02  0.13165906345E+02  0.28794470928E+03  0.29448189589E+03  0.00000000000E+00 0.  1.
         12    1    3    3    0    0 -0.74131184049E+01  0.46277066448E+02  0.12174161639E+03  0.13045130265E+03  0.00000000000E+00 0. -1.
        -13    1    4    4    0    0  0.17137242213E+02 -0.30612094821E+02  0.65939566328E+02  0.74691444138E+02  0.00000000000E+00 0. -1.
         13    1    4    4    0    0 -0.77899631251E+02 -0.56176596863E+02  0.14737109164E+03  0.17590452307E+03  0.00000000000E+00 0.  1.
          1    1    1    2  501    0  0.78920908488E+01  0.27345718891E+02  0.16010142137E+03  0.16261161879E+03  0.00000000000E+00 0. -1.
<scales pt_clust_5="13000.00000" pt_clust_6="13000.00000" pt_clust_7="13000.00000" pt_clust_8="13000.00000" pt_clust_9="28.46180"></scales>
<clustering>
<clus scale="   28.462">  2  9  1 -1</clus>
<clus scale="   77.927">  7  8 -1 -1</clus>
<clus scale="   79.979">  5  6 -1 -1</clus>
<clus scale="  116.856">  2  7  1 -1</clus>
<clus scale="   28.462">  2  5  1 -1</clus>
</clustering>
</event>
<event>
 9    2  0.1325014E-004  0.9507265E+02  0.7546771E-02  0.1296663E+00
         21   -1    0    0  501  502  0.00000000000E+00  0.00000000000E+00  0.41474218446E+02  0.41474218446E+02  0.00000000000E+00 0.  1.
         -3   -1    0    0    0  501 -0.00000000000E+00 -0.00000000000E+00 -0.37885370920E+03  0.37885370920E+03  0.00000000000E+00 0.  1.
         23    2    1    2    0    0  0.32133028633E+02 -0.22709338886E+02 -0.13271586870E+03  0.16588870226E+03  0.91418346785E+02 0.  0.
         24    2    1    2    0    0  0.25471644635E+01  0.14685213899E+02 -0.52315525239E+02  0.97987811279E+02  0.81501861477E+02 0.  0.
        -13    1    4    4    0    0 -0.18323062944E+02  0.43145083239E+02 -0.36017399004E+02  0.59114176594E+02  0.00000000000E+00 0.  1.
         14    1    4    4    0    0  0.20870227408E+02 -0.28459869340E+02 -0.16298126235E+02  0.38873634686E+02  0.00000000000E+00 0. -1.
        -13    1    3    3    0    0 -0.26455571701E+02 -0.25988496031E+02 -0.74552814674E+02  0.83267168655E+02  0.00000000000E+00 0. -1.
         13    1    3    3    0    0  0.58588600334E+02  0.32791571451E+01 -0.58163054031E+02  0.82621533603E+02  0.00000000000E+00 0.  1.
         -4    1    1    2    0  502 -0.34680193096E+02  0.80241249867E+01 -0.15234809681E+03  0.15645141411E+03  0.00000000000E+00 0.  1.
<scales pt_clust_5="13000.00000" pt_clust_6="13000.00000" pt_clust_7="13000.00000" pt_clust_8="13000.00000" pt_clust_9="35.59640"></scales>
<clustering>
<clus scale="   35.596">  1  9  2 -1</clus>
<clus scale="   81.502">  5  6 -1 -1</clus>
<clus scale="   85.581">  1  5  2 -1</clus>
<clus scale="   91.418">  7  8 -1 -1</clus>
<clus scale="   35.596">  1  5  2 -1</clus>
</clustering>
</event>
<event>
 9    2  0.1325014E-004  0.8878557E+02  0.7546771E-02  0.1307537E+00
         21   -1    0    0  501  502  0.00000000000E+00  0.00000000000E+00  0.89169022481E+02  0.89169022481E+02  0.00000000000E+00 0.  1.
          4   -1    0    0  502    0 -0.00000000000E+00 -0.00000000000E+00 -0.21289516324E+03  0.21289516324E+03  0.00000000000E+00 0. -1.
         23    2    1    2    0    0 -0.16346441597E+02 -0.21758341020E+00 -0.14943087626E+03  0.17358597512E+03  0.86805820571E+02 0.  0.
         24    2    1    2    0    0  0.23778157143E+02  0.20942764022E+02 -0.58858593617E+01  0.89971987841E+02  0.84001875774E+02 0.  0.
        -13    1    4    4    0    0 -0.25391636970E+02  0.54030258128E+01  0.19525877384E+02  0.32483654406E+02  0.00000000000E+00 0.  1.
         14    1    4    4    0    0  0.49169794113E+02  0.15539738209E+02 -0.25411736745E+02  0.57488333435E+02  0.00000000000E+00 0. -1.
        -13    1    3    3    0    0 -0.17329475330E+02 -0.23371579576E+02 -0.14748727281E+03  0.15032976116E+03  0.00000000000E+00 0. -1.
         13    1    3    3    0    0  0.98303373354E+00  0.23153996166E+02 -0.19436034442E+01  0.23256213968E+02  0.00000000000E+00 0.  1.
          3    1    1    2  501    0 -0.74317155468E+01 -0.20725180612E+02  0.31590594861E+02  0.38506222757E+02  0.00000000000E+00 0. -1.
<scales pt_clust_5="13000.00000" pt_clust_6="13000.00000" pt_clust_7="13000.00000" pt_clust_8="13000.00000" pt_clust_9="22.01735"></scales>
<clustering>
<clus scale="   22.017">  1  9  2 -1</clus>
<clus scale="   84.002">  5  6 -1 -1</clus>
<clus scale="   86.046">  1  5  2 -1</clus>
<clus scale="   86.806">  7  8 -1 -1</clus>
<clus scale="   22.017">  1  5  2 -1</clus>
</clustering>
</event>
<event>
 9    2  0.1325014E-004  0.9727070E+02  0.7546771E-02  0.1287639E+00
          2   -1    0    0  502    0 -0.00000000000E+00  0.00000000000E+00  0.66864738177E+03  0.66864738177E+03  0.00000000000E+00 0. -1.
         21   -1    0    0  501  502  0.00000000000E+00 -0.00000000000E+00 -0.71332868834E+02  0.71332868834E+02  0.00000000000E+00 0.  1.
         23    2    1    2    0    0  0.28007013233E+02 -0.14798064534E+02  0.31775953592E+03  0.33151146227E+03  0.89024442961E+02 0.  0.
         24    2    1    2    0    0 -0.91765031245E+02  0.49547220999E+02  0.17262424266E+02  0.13631079752E+03  0.86063314837E+02 0.  0.
        -11    1    4    4    0    0 -0.10026939900E+03  0.40206878464E+02 -0.77309824023E+01  0.10830657201E+03  0.00000000000E+00 0.  1.
         12    1    4    4    0    0  0.85043677539E+01  0.93403425349E+01  0.24993406668E+02  0.28004225511E+02  0.00000000000E+00 0. -1.
        -13    1    3    3    0    0  0.45657786539E+02  0.23495349475E+02  0.15048751759E+03  0.15900678560E+03  0.00000000000E+00 0. -1.
         13    1    3    3    0    0 -0.17650773306E+02 -0.38293414008E+02  0.16727201833E+03  0.17250467667E+03  0.00000000000E+00 0.  1.
          1    1    1    2  501    0  0.63758018012E+02 -0.34749156465E+02  0.26229255275E+03  0.27215799081E+03  0.00000000000E+00 0. -1.
<scales pt_clust_5="13000.00000" pt_clust_6="13000.00000" pt_clust_7="13000.00000" pt_clust_8="13000.00000" pt_clust_9="72.61263"></scales>
<clustering>
<clus scale="   72.613">  2  9  1 -1</clus>
<clus scale="   86.063">  5  6 -1 -1</clus>
<clus scale="   89.024">  7  8 -1 -1</clus>
<clus scale="   94.568">  2  5  1 -1</clus>
<clus scale="   72.613">  2  5  1 -1</clus>
</clustering>
</event>
<event>
 9    2  0.1325014E-004  0.1057078E+03  0.7546771E-02  0.1276047E+00
         21   -1    0    0  501  502  0.00000000000E+00  0.00000000000E+00  0.11644854796E+03  0.11644854796E+03  0.00000000000E+00 0. -1.
          2   -1    0    0  502    0 -0.00000000000E+00 -0.00000000000E+00 -0.43923430189E+03  0.43923430189E+03  0.00000000000E+00 0. -1.
         24    2    1    2    0    0  0.54474969182E+02  0.30513751652E+02 -0.32776545746E+03  0.34197824195E+03  0.74968737191E+02 0.  0.
         23    2    1    2    0    0 -0.24376304963E+02  0.55265879118E+02 -0.34050228087E+02  0.11477326705E+03  0.91460172524E+02 0.  0.
        -11    1    3    3    0    0  0.39338393601E+02 -0.17033359504E+02 -0.20548268076E+03  0.20990659027E+03  0.00000000000E+00 0.  1.
         12    1    3    3    0    0  0.15136575580E+02  0.47547111156E+02 -0.12228277670E+03  0.13207165167E+03  0.00000000000E+00 0. -1.
        -13    1    4    4    0    0 -0.16165867267E+02 -0.19493915397E+02 -0.30273240203E+02  0.39469191459E+02  0.00000000000E+00 0.  1.
         13    1    4    4    0    0 -0.82104376957E+01  0.74759794515E+02 -0.37769878837E+01  0.75304075591E+02  0.00000000000E+00 0. -1.
          1    1    1    2  501    0 -0.30098664219E+02 -0.85779630770E+02  0.39029931610E+02  0.98931340860E+02  0.00000000000E+00 0. -1.
<scales pt_clust_5="13000.00000" pt_clust_6="13000.00000" pt_clust_7="13000.00000" pt_clust_8="13000.00000" pt_clust_9="90.90696"></scales>
<clustering>
<clus scale="   74.969">  5  6 -1 -1</clus>
<clus scale="   90.907">  1  9  2 -1</clus>
<clus scale="   91.460">  7  8 -1 -1</clus>
<clus scale="   91.812">  2  5  1 -1</clus>
<clus scale="   90.907">  1  5  2 -1</clus>
</clustering>
</event>
<event>
 9    2  0.1325014E-004  0.1102126E+03  0.7546771E-02  0.1264871E+00
          4   -1    0    0  502    0 -0.00000000000E+00  0.00000000000E+00  0.69961683771E+02  0.69961683771E+02  0.00000000000E+00 0. -1.
         21   -1    0    0  501  502  0.00000000000E+00 -0.00000000000E+00 -0.31751234821E+03  0.31751234821E+03  0.00000000000E+00 0. -1.
         24    2    1    2    0    0  0.39923497593E+02 -0.56687614036E+02 -0.34753538207E+02  0.11221897046E+03  0.81104362811E+02 0.  0.
         23    2    1    2    0    0  0.23953152365E+02  0.54139836135E+02 -0.14512261280E+03  0.18216071502E+03  0.92828217626E+02 0.  0.
        -13    1    3    3    0    0  0.28585167388E+02  0.14051508119E+02 -0.23761209899E+02  0.39738542637E+02  0.00000000000E+00 0.  1.
         14    1    3    3    0    0  0.11338330205E+02 -0.70739122155E+02 -0.10992328308E+02  0.72480427818E+02  0.00000000000E+00 0. -1.
        -11    1    4    4    0    0  0.32895369496E+02 -0.16948239648E+02 -0.63998649102E+02  0.73926823605E+02  0.00000000000E+00 0. -1.
         11    1    4    4    0    0 -0.89422171312E+01  0.71088075783E+02 -0.81123963698E+02  0.10823389142E+03  0.00000000000E+00 0.  1.
          3    1    1    2  501    0 -0.63876649958E+02  0.25477779010E+01 -0.67674513428E+02  0.93094346498E+02  0.00000000000E+00 0. -1.
<scales pt_clust_5="13000.00000" pt_clust_6="13000.00000" pt_clust_7="13000.00000" pt_clust_8="13000.00000" pt_clust_9="63.92744"></scales>
<clustering>
<clus scale="   63.927">  2  9  1 -1</clus>
<clus scale="   81.104">  5  6 -1 -1</clus>
<clus scale="   92.828">  7  8 -1 -1</clus>
<clus scale="  100.537">  1  5  2 -1</clus>
<clus scale="   63.927">  2  5  1 -1</clus>
</clustering>
</event>
<event>
 9    2  0.1325014E-004  0.2530035E+03  0.7546771E-02  0.1111861E+00
         21   -1    0    0  501  502  0.00000000000E+00  0.00000000000E+00  0.91284948569E+02  0.91284948569E+02  0.00000000000E+00 0. -1.
          2   -1    0    0  502    0 -0.00000000000E+00 -0.00000000000E+00 -0.10515410311E+04  0.10515410311E+04  0.00000000000E+00 0. -1.
         23    2    1    2    0    0 -0.71368212966E-01 -0.27691896776E+03 -0.54032460227E+03  0.61354020564E+03  0.88299424209E+02 0.  0.
         24    2    1    2    0    0 -0.59316340383E+02  0.19032005073E+03 -0.25055356325E+03  0.32999916852E+03  0.79888755269E+02 0.  0.
        -11    1    4    4    0    0  0.11867017476E+02  0.74687430232E+02 -0.11859862588E+03  0.14065799800E+03  0.00000000000E+00 0.  1.
         12    1    4    4    0    0 -0.71183357859E+02  0.11563262050E+03 -0.13195493736E+03  0.18934117052E+03  0.00000000000E+00 0. -1.
        -13    1    3    3    0    0  0.23180627376E+02 -0.23888908785E+03 -0.49418795934E+03  0.54938791117E+03  0.00000000000E+00 0. -1.
         13    1    3    3    0    0 -0.23251995589E+02 -0.38029879911E+02 -0.46136642927E+02  0.64152294468E+02  0.00000000000E+00 0.  1.
          1    1    1    2  501    0  0.59387708596E+02  0.86598917032E+02 -0.16937791697E+03  0.19928660547E+03  0.00000000000E+00 0. -1.
<scales pt_clust_5="13000.00000" pt_clust_6="13000.00000" pt_clust_7="13000.00000" pt_clust_8="13000.00000" pt_clust_9="105.00611"></scales>
<clustering>
<clus scale="   79.889">  5  6 -1 -1</clus>
<clus scale="   88.299">  7  8 -1 -1</clus>
<clus scale="  105.006">  1  9  2 -1</clus>
<clus scale="  250.192">  1  5  2 -1</clus>
<clus scale="  105.006">  1  5  2 -1</clus>
</clustering>
</event>
<event>
 9    2  0.1325014E-004  0.3318525E+03  0.7546771E-02  0.1124203E+00
         21   -1    0    0  501  502  0.00000000000E+00  0.00000000000E+00  0.13656952137E+03  0.13656952137E+03  0.00000000000E+00 0.  1.
          2   -1    0    0  502    0 -0.00000000000E+00 -0.00000000000E+00 -0.20838041235E+04  0.20838041235E+04  0.00000000000E+00 0. -1.
         24    2    1    2    0    0 -0.39678977513E+01  0.15791495262E+02 -0.41956354157E+02  0.91519411815E+02  0.79689093040E+02 0.  0.
         23    2    1    2    0    0  0.31242634019E+03 -0.67329067953E+02 -0.18580266897E+03  0.38117033745E+03  0.92869655576E+02 0.  0.
        -13    1    3    3    0    0  0.28029848691E+02  0.21908365077E+02 -0.46584219318E+02  0.58615171819E+02  0.00000000000E+00 0.  1.
         14    1    3    3    0    0 -0.31997746442E+02 -0.61168698143E+01  0.46278651604E+01  0.32904239995E+02  0.00000000000E+00 0. -1.
        -11    1    4    4    0    0  0.29328614339E+03 -0.84285817335E+02 -0.18202341389E+03  0.35532152216E+03  0.00000000000E+00 0.  1.
         11    1    4    4    0    0  0.19140196793E+02  0.16956749383E+02 -0.37792550775E+01  0.25848815289E+02  0.00000000000E+00 0. -1.
          1    1    1    2  501    0 -0.30845844243E+03  0.51537572690E+02 -0.17194755790E+04  0.17476838956E+04  0.00000000000E+00 0. -1.
<scales pt_clust_5="13000.00000" pt_clust_6="13000.00000" pt_clust_7="13000.00000" pt_clust_8="13000.00000" pt_clust_9="318.59291"></scales>
<clustering>
<clus scale="   79.689">  5  6 -1 -1</clus>
<clus scale="   81.336">  2  5  1 -1</clus>
<clus scale="   92.870">  7  8 -1 -1</clus>
<clus scale="  318.593">  1  9  2 -1</clus>
<clus scale="  318.593">  1  5  2 -1</clus>
</clustering>
</event>
<event>
 9    2  0.1325014E-004  0.8823956E+02  0.7546771E-02  0.1310726E+00
         21   -1    0    0  501  502  0.00000000000E+00  0.00000000000E+00  0.60232299687E+03  0.60232299687E+03  0.00000000000E+00 0.  1.
          4   -1    0    0  502    0 -0.00000000000E+00 -0.00000000000E+00 -0.20462012205E+03  0.20462012205E+03  0.00000000000E+00 0. -1.
         24    2    1    2    0    0  0.18699424777E+02  0.85811383694E+01 -0.18911542502E+03  0.20635973791E+03  0.79977453234E+02 0.  0.
         23    2    1    2    0    0 -0.45940494161E+02 -0.18005412288E+02  0.44170350664E+03  0.45263340295E+03  0.85675467950E+02 0.  0.
        -13    1    3    3    0    0  0.41273095166E+02 -0.11361139216E+02 -0.59554569162E+02  0.73343647148E+02  0.00000000000E+00 0.  1.
         14    1    3    3    0    0 -0.22573670389E+02  0.19942277585E+02 -0.12956085586E+03  0.13301609076E+03  0.00000000000E+00 0. -1.
        -11    1    4    4    0    0 -0.71259189170E+02 -0.92399276723E+01  0.33471343883E+03  0.34233950172E+03  0.00000000000E+00 0.  1.
         11    1    4    4    0    0  0.25318695009E+02 -0.87654846160E+01  0.10699006781E+03  0.11029390122E+03  0.00000000000E+00 0. -1.
          3    1    1    2  501    0  0.27241069383E+02  0.94242739189E+01  0.14511479320E+03  0.14794997805E+03  0.00000000000E+00 0. -1.
<scales pt_clust_5="13000.00000" pt_clust_6="13000.00000" pt_clust_7="13000.00000" pt_clust_8="13000.00000" pt_clust_9="28.82521"></scales>
<clustering>
<clus scale="   28.825">  1  9  2 -1</clus>
<clus scale="   79.977">  5  6 -1 -1</clus>
<clus scale="   82.718">  2  5  1 -1</clus>
<clus scale="   85.675">  7  8 -1 -1</clus>
<clus scale="   28.825">  1  5  2 -1</clus>
</clustering>
</event>
<event>
 9    2  0.1325014E-004  0.1156711E+03  0.7546771E-02  0.1253467E+00
          2   -1    0    0  502    0 -0.00000000000E+00  0.00000000000E+00  0.72110903156E+03  0.72110903156E+03  0.00000000000E+00 0. -1.
         21   -1    0    0  501  502  0.00000000000E+00 -0.00000000000E+00 -0.27308766546E+02  0.27308766546E+02  0.00000000000E+00 0.  1.
         24    2    1    2    0    0  0.20233727904E+02 -0.74287466172E+02  0.48993795128E+03  0.50289959304E+03  0.83311302988E+02 0.  0.
         23    2    1    2    0    0 -0.15096915940E+02  0.47994055793E+02  0.13060624648E+03  0.16751704061E+03  0.92046841404E+02 0.  0.
        -11    1    3    3    0    0 -0.17290625167E+02 -0.34238967966E+02  0.73939415040E+02  0.83296516989E+02  0.00000000000E+00 0.  1.
         12    1    3    3    0    0  0.37524353072E+02 -0.40048498206E+02  0.41599853624E+03  0.41960307606E+03  0.00000000000E+00 0. -1.
        -11    1    4    4    0    0  0.96425969050E+01  0.67401321672E+02  0.62161539120E+02  0.92195307820E+02  0.00000000000E+00 0.  1.
         11    1    4    4    0    0 -0.24739512845E+02 -0.19407265879E+02  0.68444707364E+02  0.75321732793E+02  0.00000000000E+00 0. -1.
          1    1    1    2  501    0 -0.51368119640E+01  0.26293410379E+02  0.73256067248E+02  0.78001164447E+02  0.00000000000E+00 0. -1.
<scales pt_clust_5="13000.00000" pt_clust_6="13000.00000" pt_clust_7="13000.00000" pt_clust_8="13000.00000" pt_clust_9="26.79050"></scales>
<clustering>
<clus scale="   26.791">  2  9  1 -1</clus>
<clus scale="   83.311">  5  6 -1 -1</clus>
<clus scale="   92.047">  7  8 -1 -1</clus>
<clus scale="  108.848">  1  5  2 -1</clus>
<clus scale="   26.791">  2  5  1 -1</clus>
</clustering>
</event>
<event>
 9    2  0.1325014E-004  0.1252662E+03  0.7546771E-02  0.1237625E+00
         21   -1    0    0  501  502  0.00000000000E+00  0.00000000000E+00  0.58527675227E+02  0.58527675227E+02  0.00000000000E+00 0.  1.
          2   -1    0    0  502    0 -0.00000000000E+00 -0.00000000000E+00 -0.41692760569E+03  0.41692760569E+03  0.00000000000E+00 0. -1.
         23    2    1    2    0    0 -0.46705441406E+02  0.62398012814E+02 -0.21845775160E+03  0.24796572853E+03  0.87682968897E+02 0.  0.
         24    2    1    2    0    0  0.77671131679E+02 -0.87097451818E+02 -0.10663264554E+03  0.17573569966E+03  0.76770725089E+02 0.  0.
        -13    1    4    4    0    0  0.39393402927E+02 -0.75781399987E+02 -0.10558780525E+03  0.13580664709E+03  0.00000000000E+00 0.  1.
         14    1    4    4    0    0  0.38277728752E+02 -0.11316051831E+02 -0.10448402901E+01  0.39929052564E+02  0.00000000000E+00 0. -1.
        -13    1    3    3    0    0  0.72239242397E+00  0.40534980042E+02 -0.17614833224E+03  0.18075353775E+03  0.00000000000E+00 0. -1.
         13    1    3    3    0    0 -0.47427833830E+02  0.21863032773E+02 -0.42309419356E+02  0.67212190785E+02  0.00000000000E+00 0.  1.
          1    1    1    2  501    0 -0.30965690273E+02  0.24699439004E+02 -0.33309533331E+02  0.51753852725E+02  0.00000000000E+00 0. -1.
<scales pt_clust_5="13000.00000" pt_clust_6="13000.00000" pt_clust_7="13000.00000" pt_clust_8="13000.00000" pt_clust_9="39.60980"></scales>
<clustering>
<clus scale="   39.610">  1  9  2 -1</clus>
<clus scale="   76.771">  5  6 -1 -1</clus>
<clus scale="   87.683">  7  8 -1 -1</clus>
<clus scale="  117.886">  1  5  2 -1</clus>
<clus scale="   39.610">  1  5  2 -1</clus>
</clustering>
</event>
<event>
 9    2  0.1325014E-004  0.1569663E+03  0.7546771E-02  0.1220117E+00
          2   -1    0    0  502    0 -0.00000000000E+00  0.00000000000E+00  0.12720907132E+04  0.12720907132E+04  0.00000000000E+00 0. -1.
         21   -1    0    0  501  502  0.00000000000E+00 -0.00000000000E+00 -0.29124778398E+02  0.29124778398E+02  0.00000000000E+00 0. -1.
         24    2    1    2    0    0  0.11583430285E+02 -0.22996098251E+02  0.17909234407E+03  0.19870109842E+03  0.82128328954E+02 0.  0.
         23    2    1    2    0    0 -0.63944822218E+01  0.13814143631E+03  0.49502675047E+03  0.52210755162E+03  0.91765276359E+02 0.  0.
        -13    1    3    3    0    0 -0.31924447738E+02 -0.19931940181E+02  0.50976272087E+02  0.63364287407E+02  0.00000000000E+00 0.  1.
         14    1    3    3    0    0  0.43507878022E+02 -0.30641580705E+01  0.12811607198E+03  0.13533681101E+03  0.00000000000E+00 0. -1.
        -13    1    4    4    0    0  0.15014762905E+02  0.84349802615E+02  0.15423938488E+03  0.17643729808E+03  0.00000000000E+00 0. -1.
         13    1    4    4    0    0 -0.21409245127E+02  0.53791633690E+02  0.34078736559E+03  0.34567025353E+03  0.00000000000E+00 0.  1.
          1    1    1    2  501    0 -0.51889480631E+01 -0.11514533805E+03  0.56884684031E+03  0.58040684161E+03  0.00000000000E+00 0. -1.
<scales pt_clust_5="13000.00000" pt_clust_6="13000.00000" pt_clust_7="13000.00000" pt_clust_8="13000.00000" pt_clust_9="127.34826"></scales>
<clustering>
<clus scale="   82.128">  5  6 -1 -1</clus>
<clus scale="   86.070">  1  5  2 -1</clus>
<clus scale="   91.765">  7  8 -1 -1</clus>
<clus scale="  127.348">  2  9  1 -1</clus>
<clus scale="  127.348">  2  5  1 -1</clus>
</clustering>
</event>
<event>
 9    2  0.1325014E-004  0.1778032E+03  0.7546771E-02  0.1170944E+00
         21   -1    0    0  501  502  0.00000000000E+00  0.00000000000E+00  0.70901606121E+02  0.70901606121E+02  0.00000000000E+00 0. -1.
          2   -1    0    0  502    0 -0.00000000000E+00 -0.00000000000E+00 -0.68627798592E+03  0.68627798592E+03  0.00000000000E+00 0. -1.
         24    2    1    2    0    0  0.11881513578E+03  0.11015051343E+03 -0.48158074792E+03  0.51460342433E+03  0.81526041610E+02 0.  0.
         23    2    1    2    0    0 -0.85046702911E+02 -0.96479307847E+02 -0.76055098297E+02  0.17430334634E+03  0.89755668619E+02 0.  0.
        -11    1    3    3    0    0  0.48386129984E+02  0.82536464687E+02 -0.18195199050E+03  0.20557240191E+03  0.00000000000E+00 0.  1.
         12    1    3    3    0    0  0.70429005794E+02  0.27614048742E+02 -0.29962875742E+03  0.30903102242E+03  0.00000000000E+00 0. -1.
        -13    1    4    4    0    0 -0.63077900542E+02 -0.92035584244E+02 -0.93759928429E+02  0.14574050392E+03  0.00000000000E+00 0.  1.
         13    1    4    4    0    0 -0.21968802369E+02 -0.44437236029E+01  0.17704830133E+02  0.28562842418E+02  0.00000000000E+00 0. -1.
          1    1    1    2  501    0 -0.33768432867E+02 -0.13671205582E+02 -0.57740533577E+02  0.68272821373E+02  0.00000000000E+00 0. -1.
<scales pt_clust_5="13000.00000" pt_clust_6="13000.00000" pt_clust_7="13000.00000" pt_clust_8="13000.00000" pt_clust_9="36.43090"></scales>
<clustering>
<clus scale="   36.431">  1  9  2 -1</clus>
<clus scale="   81.526">  5  6 -1 -1</clus>
<clus scale="   89.756">  7  8 -1 -1</clus>
<clus scale="  173.794">  2  5  1 -1</clus>
<clus scale="   36.431">  1  5  2 -1</clus>
</clustering>
</event>
<event>
 9    2  0.1325014E-004  0.1746443E+03  0.7546771E-02  0.1175203E+00
         21   -1    0    0  501  502  0.00000000000E+00  0.00000000000E+00  0.23106987481E+03  0.23106987481E+03  0.00000000000E+00 0.  1.
         -1   -1    0    0    0  501 -0.00000000000E+00 -0.00000000000E+00 -0.44522481465E+03  0.44522481465E+03  0.00000000000E+00 0.  1.
         24    2    1    2    0    0  0.10773924149E+03  0.11097225650E+03 -0.34049089225E+03  0.38200055045E+03  0.77896000965E+02 0.  0.
         23    2    1    2    0    0 -0.12813454675E+03 -0.27433328336E+02  0.28154333621E+02  0.16377842629E+03  0.94125750155E+02 0.  0.
        -11    1    3    3    0    0  0.76053646441E+02  0.47030456769E+02 -0.11615493866E+03  0.14658782615E+03  0.00000000000E+00 0.  1.
         12    1    3    3    0    0  0.31685595054E+02  0.63941799733E+02 -0.22433595360E+03  0.23541272430E+03  0.00000000000E+00 0. -1.
        -13    1    4    4    0    0 -0.61419983736E+02  0.12225905689E+02  0.53256122322E+02  0.82207674440E+02  0.00000000000E+00 0.  1.
         13    1    4    4    0    0 -0.66714563018E+02 -0.39659234025E+02 -0.25101788701E+02  0.81570751855E+02  0.00000000000E+00 0. -1.
         -2    1    1    2    0  502  0.20395305260E+02 -0.83538928166E+02  0.98181618794E+02  0.13051571271E+03  0.00000000000E+00 0.  1.
<scales pt_clust_5="13000.00000" pt_clust_6="13000.00000" pt_clust_7="13000.00000" pt_clust_8="13000.00000" pt_clust_9="85.99256"></scales>
<clustering>
<clus scale="   77.896">  5  6 -1 -1</clus>
<clus scale="   85.993">  1  9  2 -1</clus>
<clus scale="   94.126">  7  8 -1 -1</clus>
<clus scale="  166.459">  2  5  1 -1</clus>
<clus scale="   85.993">  1  5  2 -1</clus>
</clustering>
</event>
<event>
 9    2  0.1325014E-004  0.1291217E+03  0.7546771E-02  0.1231428E+00
         21   -1    0    0  501  502  0.00000000000E+00  0.00000000000E+00  0.11164555839E+03  0.11164555839E+03  0.00000000000E+00 0. -1.
          2   -1    0    0  502    0 -0.00000000000E+00 -0.00000000000E+00 -0.23895297093E+03  0.23895297093E+03  0.00000000000E+00 0. -1.
         24    2    1    2    0    0 -0.96584712050E+02  0.22085492774E+02 -0.68713084186E+02  0.14506124791E+03  0.80652973369E+02 0.  0.
         23    2    1    2    0    0  0.82781293327E+02  0.19899721131E+02  0.89939762600E+01  0.12478165328E+03  0.90779006171E+02 0.  0.
        -11    1    3    3    0    0 -0.54337445902E+02  0.45389540600E+02 -0.65910669848E+02  0.96731508945E+02  0.00000000000E+00 0.  1.
         12    1    3    3    0    0 -0.42247266147E+02 -0.23304047826E+02 -0.28024143380E+01  0.48329738962E+02  0.00000000000E+00 0. -1.
        -11    1    4    4    0    0  0.22314768450E+02 -0.23075569038E+02  0.33749402480E+02  0.46577386628E+02  0.00000000000E+00 0.  1.
         11    1    4    4    0    0  0.60466524877E+02  0.42975290169E+02 -0.24755426220E+02  0.78204266656E+02  0.00000000000E+00 0. -1.
          1    1    1    2  501    0  0.13803418722E+02 -0.41985213905E+02 -0.67588304609E+02  0.80755628132E+02  0.00000000000E+00 0. -1.
<scales pt_clust_5="13000.00000" pt_clust_6="13000.00000" pt_clust_7="13000.00000" pt_clust_8="13000.00000" pt_clust_9="44.19609"></scales>
<clustering>
<clus scale="   44.196">  1  9  2 -1</clus>
<clus scale="   80.653">  5  6 -1 -1</clus>
<clus scale="   90.779">  7  8 -1 -1</clus>
<clus scale="  122.215">  2  5  1 -1</clus>
<clus scale="   44.196">  1  5  2 -1</clus>
</clustering>
</event>
<event>
 9    2  0.1325014E-004  0.9480913E+02  0.7546771E-02  0.1296944E+00
         21   -1    0    0  501  502  0.00000000000E+00  0.00000000000E+00  0.56882816231E+02  0.56882816231E+02  0.00000000000E+00 0.  1.
         -1   -1    0    0    0  501 -0.00000000000E+00 -0.00000000000E+00 -0.35782121934E+03  0.35782121934E+03  0.00000000000E+00 0.  1.
         24    2    1    2    0    0 -0.36901433191E+02  0.27086257180E+01 -0.23640426304E+03  0.25238674580E+03  0.80268558291E+02 0.  0.
         23    2    1    2    0    0  0.12857218469E+02 -0.12863516299E+02 -0.88138009051E+02  0.12712654248E+03  0.89789036330E+02 0.  0.
        -11    1    3    3    0    0 -0.55009569935E+02  0.15847059523E+02 -0.21056395832E+03  0.21820715530E+03  0.00000000000E+00 0.  1.
         12    1    3    3    0    0  0.18108136744E+02 -0.13138433805E+02 -0.25840304716E+02  0.34179590504E+02  0.00000000000E+00 0. -1.
        -13    1    4    4    0    0  0.38585988237E+02 -0.33038437382E+02 -0.26359744589E+02  0.57229825858E+02  0.00000000000E+00 0. -1.
         13    1    4    4    0    0 -0.25728769769E+02  0.20174921084E+02 -0.61778264463E+02  0.69896716622E+02  0.00000000000E+00 0.  1.
         -2    1    1    2    0  502  0.24044214722E+02  0.10154890581E+02  0.23603868976E+02  0.35190747292E+02  0.00000000000E+00 0.  1.
<scales pt_clust_5="13000.00000" pt_clust_6="13000.00000" pt_clust_7="13000.00000" pt_clust_8="13000.00000" pt_clust_9="26.10069"></scales>
<clustering>
<clus scale="   26.101">  1  9  2 -1</clus>
<clus scale="   80.269">  5  6 -1 -1</clus>
<clus scale="   85.847">  2  5  1 -1</clus>
<clus scale="   89.789">  7  8 -1 -1</clus>
<clus scale="   26.101">  1  5  2 -1</clus>
</clustering>
</event>
<event>
 9    2  0.1325014E-004  0.1219096E+03  0.7546771E-02  0.1242977E+00
          2   -1    0    0  502    0 -0.00000000000E+00  0.00000000000E+00  0.38937507277E+03  0.38937507277E+03  0.00000000000E+00 0. -1.
         21   -1    0    0  501  502  0.00000000000E+00 -0.00000000000E+00 -0.59098712563E+02  0.59098712563E+02  0.00000000000E+00 0.  1.
         23    2    1    2    0    0 -0.50116991233E+01  0.74781438513E+02  0.18499472391E+03  0.21943097006E+03  0.91156579975E+02 0.  0.
         24    2    1    2    0    0 -0.30550146422E+02 -0.87456490377E+02  0.14627029886E+03  0.19127670278E+03  0.81300845905E+02 0.  0.
        -11    1    4    4    0    0 -0.53669307232E+02 -0.32974895072E+02  0.62741058082E+02  0.88905447601E+02  0.00000000000E+00 0.  1.
         12    1    4    4    0    0  0.23119160810E+02 -0.54481595305E+02  0.83529240773E+02  0.10237125518E+03  0.00000000000E+00 0. -1.
        -11    1    3    3    0    0 -0.65882971229E+01  0.29023382339E+02  0.95024307257E+00  0.29776926357E+02  0.00000000000E+00 0.  1.
         11    1    3    3    0    0  0.15765979995E+01  0.45758056174E+02  0.18404448084E+03  0.18965404371E+03  0.00000000000E+00 0. -1.
          1    1    1    2  501    0  0.35561845546E+02  0.12675051864E+02 -0.98866256547E+00  0.37766112483E+02  0.00000000000E+00 0. -1.
<scales pt_clust_5="13000.00000" pt_clust_6="13000.00000" pt_clust_7="13000.00000" pt_clust_8="13000.00000" pt_clust_9="37.75317"></scales>
<clustering>
<clus scale="   37.753">  2  9  1 -1</clus>
<clus scale="   81.301">  5  6 -1 -1</clus>
<clus scale="   91.157">  7  8 -1 -1</clus>
<clus scale="  114.727">  2  5  1 -1</clus>
<clus scale="   37.753">  2  5  1 -1</clus>
</clustering>
</event>
<event>
 9    2  0.1325014E-004  0.9578600E+02  0.7546771E-02  0.1297334E+00
         21   -1    0    0  501  502  0.00000000000E+00  0.00000000000E+00  0.45553915788E+03  0.45553915788E+03  0.00000000000E+00 0.  1.
          2   -1    0    0  502    0 -0.00000000000E+00 -0.00000000000E+00 -0.10380855794E+03  0.10380855794E+03  0.00000000000E+00 0. -1.
         23    2    1    2    0    0 -0.68851657243E+01 -0.15390017061E+02 -0.73764062267E+02  0.12105451299E+03  0.94492328265E+02 0.  0.
         24    2    1    2    0    0 -0.95613949973E+01  0.12561385105E+01  0.36481428242E+03  0.37385436071E+03  0.81145697404E+02 0.  0.
        -11    1    4    4    0    0 -0.43485496764E+02  0.47367481543E+01  0.14644717774E+03  0.15284044321E+03  0.00000000000E+00 0.  1.
         12    1    4    4    0    0  0.33924101767E+02 -0.34806096438E+01  0.21836710468E+03  0.22101391751E+03  0.00000000000E+00 0. -1.
        -13    1    3    3    0    0  0.28925523381E+02 -0.41988168678E+02 -0.33887580943E+02  0.61221404377E+02  0.00000000000E+00 0.  1.
         13    1    3    3    0    0 -0.35810689105E+02  0.26598151616E+02 -0.39876481323E+02  0.59833108613E+02  0.00000000000E+00 0. -1.
          1    1    1    2  501    0  0.16446560722E+02  0.14133878551E+02  0.60680379784E+02  0.64438842116E+02  0.00000000000E+00 0. -1.
<scales pt_clust_5="13000.00000" pt_clust_6="13000.00000" pt_clust_7="13000.00000" pt_clust_8="13000.00000" pt_clust_9="21.68538"></scales>
<clustering>
<clus scale="   21.685">  1  9  2 -1</clus>
<clus scale="   81.146">  5  6 -1 -1</clus>
<clus scale="   82.649">  1  5  2 -1</clus>
<clus scale="   94.492">  7  8 -1 -1</clus>
<clus scale="   21.685">  1  5  2 -1</clus>
</clustering>
</event>
<event>
 9    2  0.1325014E-004  0.1146589E+03  0.7546771E-02  0.1256151E+00
         21   -1    0    0  501  502  0.00000000000E+00  0.00000000000E+00  0.20006110728E+03  0.20006110728E+03  0.00000000000E+00 0.  1.
         -1   -1    0    0    0  501 -0.00000000000E+00 -0.00000000000E+00 -0.61022530868E+03  0.61022530868E+03  0.00000000000E+00 0.  1.
         24    2    1    2    0    0  0.14514666289E+02  0.75467301568E+02 -0.55160071941E+03  0.56268699897E+03  0.80295180493E+02 0.  0.
         23    2    1    2    0    0  0.20345799227E+02  0.91350824546E+01  0.21189061334E+02  0.96495921750E+02  0.91460840345E+02 0.  0.
        -11    1    3    3    0    0 -0.29312635607E+02  0.47319298698E+02 -0.21543265494E+03  0.22250747280E+03  0.00000000000E+00 0.  1.
         12    1    3    3    0    0  0.43827301896E+02  0.28148002870E+02 -0.33616806447E+03  0.34017952617E+03  0.00000000000E+00 0. -1.
        -13    1    4    4    0    0  0.26288440970E+02  0.39453444229E+02  0.38507562135E+02  0.61077726969E+02  0.00000000000E+00 0.  1.
         13    1    4    4    0    0 -0.59426417433E+01 -0.30318361774E+02 -0.17318500801E+02  0.35418194781E+02  0.00000000000E+00 0. -1.
         -2    1    1    2    0  502 -0.34860465515E+02 -0.84602384023E+02  0.12024745668E+03  0.15110349525E+03  0.00000000000E+00 0.  1.
<scales pt_clust_5="13000.00000" pt_clust_6="13000.00000" pt_clust_7="13000.00000" pt_clust_8="13000.00000" pt_clust_9="91.50309"></scales>
<clustering>
<clus scale="   80.295">  5  6 -1 -1</clus>
<clus scale="   91.461">  7  8 -1 -1</clus>
<clus scale="   91.503">  1  9  2 -1</clus>
<clus scale="  105.966">  2  5  1 -1</clus>
<clus scale="   91.503">  1  5  2 -1</clus>
</clustering>
</event>
<event>
 9    2  0.1325014E-004  0.1056631E+03  0.7546771E-02  0.1275323E+00
          2   -1    0    0  502    0 -0.00000000000E+00  0.00000000000E+00  0.84126386890E+02  0.84126386890E+02  0.00000000000E+00 0. -1.
         21   -1    0    0  501  502  0.00000000000E+00 -0.00000000000E+00 -0.20293437137E+03  0.20293437137E+03  0.00000000000E+00 0. -1.
         24    2    1    2    0    0 -0.21321314496E+02  0.36913797384E+02 -0.97370358022E+01  0.92971041531E+02  0.82046193135E+02 0.  0.
         23    2    1    2    0    0  0.59653303299E+02 -0.12398246637E+02 -0.88975431824E+02  0.14434855277E+03  0.95956469848E+02 0.  0.
        -11    1    3    3    0    0  0.42564893651E+01 -0.24879588352E+02 -0.62446808639E+01  0.26002070252E+02  0.00000000000E+00 0.  1.
         12    1    3    3    0    0 -0.25577803861E+02  0.61793385736E+02 -0.34923549382E+01  0.66968971279E+02  0.00000000000E+00 0. -1.
        -13    1    4    4    0    0  0.50097164652E+02 -0.34792793660E+02 -0.10038284918E+03  0.11746055000E+03  0.00000000000E+00 0. -1.
         13    1    4    4    0    0  0.95561386462E+01  0.22394547023E+02  0.11407417360E+02  0.26888002771E+02  0.00000000000E+00 0.  1.
          1    1    1    2  501    0 -0.38331988802E+02 -0.24515550747E+02 -0.20095516854E+02  0.49741163955E+02  0.00000000000E+00 0. -1.
<scales pt_clust_5="13000.00000" pt_clust_6="13000.00000" pt_clust_7="13000.00000" pt_clust_8="13000.00000" pt_clust_9="45.50116"></scales>
<clustering>
<clus scale="   45.501">  2  9  1 -1</clus>
<clus scale="   82.046">  5  6 -1 -1</clus>
<clus scale="   93.213">  1  5  2 -1</clus>
<clus scale="   95.956">  7  8 -1 -1</clus>
<clus scale="   45.501">  2  5  1 -1</clus>
</clustering>
</event>
<event>
 9    2  0.1325014E-004  0.1750931E+03  0.7546771E-02  0.1174038E+00
         -1   -1    0    0    0  501 -0.00000000000E+00  0.00000000000E+00  0.22515868448E+03  0.22515868448E+03  0.00000000000E+00 0.  1.
         21   -1    0    0  501  502  0.00000000000E+00 -0.00000000000E+00 -0.25825800566E+03  0.25825800566E+03  0.00000000000E+00 0.  1.
         24    2    1    2    0    0 -0.31480574743E+02  0.97056081377E+02 -0.21486227425E+02  0.13155639781E+03  0.80215449364E+02 0.  0.
         23    2    1    2    0    0  0.63722102244E+02 -0.20400390516E+03  0.26369860925E+02  0.23387699710E+03  0.91241331490E+02 0.  0.
        -13    1    3    3    0    0 -0.11643865392E+02  0.74866075148E+02  0.21967502622E+02  0.78886500624E+02  0.00000000000E+00 0.  1.
         14    1    3    3    0    0 -0.19836709351E+02  0.22190006229E+02 -0.43453730047E+02  0.52669897183E+02  0.00000000000E+00 0. -1.
        -13    1    4    4    0    0  0.69762647774E+02 -0.16825813874E+03 -0.10135529744E+02  0.18242904714E+03  0.00000000000E+00 0.  1.
         13    1    4    4    0    0 -0.60405455297E+01 -0.35745766419E+02  0.36505390669E+02  0.51447949960E+02  0.00000000000E+00 0. -1.
         -2    1    1    2    0  502 -0.32241527501E+02  0.10694782378E+03 -0.37982954671E+02  0.11798329523E+03  0.00000000000E+00 0.  1.
<scales pt_clust_5="13000.00000" pt_clust_6="13000.00000" pt_clust_7="13000.00000" pt_clust_8="13000.00000" pt_clust_9="111.70207"></scales>
<clustering>
<clus scale="   80.215">  5  6 -1 -1</clus>
<clus scale="   91.241">  7  8 -1 -1</clus>
<clus scale="  111.702">  2  9  1 -1</clus>
<clus scale="  169.609">  1  5  2 -1</clus>
<clus scale="  111.702">  2  5  1 -1</clus>
</clustering>
</event>
<event>
 9    2  0.1325014E-004  0.2156454E+03  0.7546771E-02  0.1138066E+00
          2   -1    0    0  502    0 -0.00000000000E+00  0.00000000000E+00  0.69761943074E+03  0.69761943074E+03  0.00000000000E+00 0. -1.
         21   -1    0    0  501  502  0.00000000000E+00 -0.00000000000E+00 -0.31399515817E+03  0.31399515817E+03  0.00000000000E+00 0. -1.
         23    2    1    2    0    0  0.14908058627E+03  0.12110857593E+03  0.51146333014E+03  0.55408361308E+03  0.92312533507E+02 0.  0.
         24    2    1    2    0    0 -0.24520644359E+03 -0.57656650491E+02 -0.19086521941E+03  0.32623503391E+03  0.80927597519E+02 0.  0.
        -11    1    4    4    0    0 -0.32529739344E+02  0.13516729676E+02 -0.50805254025E+02  0.61822809379E+02  0.00000000000E+00 0.  1.
         12    1    4    4    0    0 -0.21267670425E+03 -0.71173380167E+02 -0.14005996539E+03  0.26441222453E+03  0.00000000000E+00 0. -1.
        -11    1    3    3    0    0  0.33340639053E+02  0.68120675069E+02  0.27815018623E+03  0.28830461440E+03  0.00000000000E+00 0. -1.
         11    1    3    3    0    0  0.11573994722E+03  0.52987900857E+02  0.23331314390E+03  0.26577899868E+03  0.00000000000E+00 0.  1.
          1    1    1    2  501    0  0.96125857322E+02 -0.63451925436E+02  0.63026161844E+02  0.13129594192E+03  0.00000000000E+00 0. -1.
<scales pt_clust_5="13000.00000" pt_clust_6="13000.00000" pt_clust_7="13000.00000" pt_clust_8="13000.00000" pt_clust_9="115.17960"></scales>
<clustering>
<clus scale="   80.928">  5  6 -1 -1</clus>
<clus scale="   92.313">  7  8 -1 -1</clus>
<clus scale="  115.180">  2  9  1 -1</clus>
<clus scale="  211.023">  2  5  1 -1</clus>
<clus scale="  115.180">  2  5  1 -1</clus>
</clustering>
</event>
<event>
 9    2  0.1325014E-004  0.1227408E+03  0.7546771E-02  0.1241919E+00
         21   -1    0    0  501  502  0.00000000000E+00  0.00000000000E+00  0.10802986065E+03  0.10802986065E+03  0.00000000000E+00 0. -1.
          2   -1    0    0  502    0 -0.00000000000E+00 -0.00000000000E+00 -0.26777275464E+03  0.26777275464E+03  0.00000000000E+00 0. -1.
         24    2    1    2    0    0  0.15983853696E+02  0.97618913503E+02 -0.10469602476E+03  0.16486325769E+03  0.80210350222E+02 0.  0.
         23    2    1    2    0    0  0.55619497304E+02 -0.55501729683E+02 -0.27872630023E+02  0.12353606062E+03  0.91160870388E+02 0.  0.
        -13    1    3    3    0    0  0.24483095063E+02  0.36108401116E+01 -0.11846255859E+01  0.24776267838E+02  0.00000000000E+00 0.  1.
         14    1    3    3    0    0 -0.84992413669E+01  0.94008073391E+02 -0.10351139917E+03  0.14008698985E+03  0.00000000000E+00 0. -1.
        -13    1    4    4    0    0  0.18831163406E+02 -0.10139724748E+02  0.32904919172E+02  0.39244877869E+02  0.00000000000E+00 0.  1.
         13    1    4    4    0    0  0.36788333898E+02 -0.45362004935E+02 -0.60777549195E+02  0.84291182747E+02  0.00000000000E+00 0. -1.
          1    1    1    2  501    0 -0.71603351001E+02 -0.42117183820E+02 -0.27174239202E+02  0.87403296984E+02  0.00000000000E+00 0. -1.
<scales pt_clust_5="13000.00000" pt_clust_6="13000.00000" pt_clust_7="13000.00000" pt_clust_8="13000.00000" pt_clust_9="83.07164"></scales>
<clustering>
<clus scale="   80.210">  5  6 -1 -1</clus>
<clus scale="   83.072">  1  9  2 -1</clus>
<clus scale="   91.161">  7  8 -1 -1</clus>
<clus scale="  114.842">  2  5  1 -1</clus>
<clus scale="   83.072">  1  5  2 -1</clus>
</clustering>
</event>
<event>
 9    2  0.1325014E-004  0.9296240E+02  0.7546771E-02  0.1300976E+00
          2   -1    0    0  502    0 -0.00000000000E+00  0.00000000000E+00  0.12836419149E+04  0.12836419149E+04  0.00000000000E+00 0. -1.
         21   -1    0    0  501  502  0.00000000000E+00 -0.00000000000E+00 -0.11998295018E+02  0.11998295018E+02  0.00000000000E+00 0. -1.
         24    2    1    2    0    0 -0.24395784311E+02 -0.32045537533E+02  0.94172653869E+03  0.94572706329E+03  0.76998271405E+02 0.  0.
         23    2    1    2    0    0  0.14717246262E+02  0.10737497712E+02  0.29509122565E+03  0.30795427541E+03  0.86169095938E+02 0.  0.
        -13    1    3    3    0    0  0.14643585411E+02 -0.29331957594E+02  0.17769485299E+03  0.18069382698E+03  0.00000000000E+00 0.  1.
         14    1    3    3    0    0 -0.39039369722E+02 -0.27135799389E+01  0.76403168570E+03  0.76503323631E+03  0.00000000000E+00 0. -1.
        -13    1    4    4    0    0  0.45666620083E+02 -0.14719824663E+02  0.16400147646E+03  0.17087597171E+03  0.00000000000E+00 0.  1.
         13    1    4    4    0    0 -0.30949373821E+02  0.25457322375E+02  0.13108974919E+03  0.13707830370E+03  0.00000000000E+00 0. -1.
          1    1    1    2  501    0  0.96785380486E+01  0.21308039822E+02  0.34825855575E+02  0.41958871247E+02  0.00000000000E+00 0. -1.
<scales pt_clust_5="13000.00000" pt_clust_6="13000.00000" pt_clust_7="13000.00000" pt_clust_8="13000.00000" pt_clust_9="23.40313"></scales>
<clustering>
<clus scale="   23.403">  2  9  1 -1</clus>
<clus scale="   76.998">  5  6 -1 -1</clus>
<clus scale="   84.532">  1  5  2 -1</clus>
<clus scale="   86.169">  7  8 -1 -1</clus>
<clus scale="   23.403">  2  5  1 -1</clus>
</clustering>
</event>
<event>
 9    2  0.1325014E-004  0.2621172E+03  0.7546771E-02  0.1106348E+00
         -3   -1    0    0    0  501 -0.00000000000E+00  0.00000000000E+00  0.11511174066E+04  0.11511174066E+04  0.00000000000E+00 0.  1.
         21   -1    0    0  501  502  0.00000000000E+00 -0.00000000000E+00 -0.81340631261E+02  0.81340631261E+02  0.00000000000E+00 0.  1.
         23    2    1    2    0    0 -0.21514490327E+03  0.15912475015E+03  0.76536438575E+03  0.81581272158E+03  0.90331269268E+02 0.  0.
         24    2    1    2    0    0  0.16644470238E+03 -0.12840077127E+03  0.25972172213E+03  0.34375548021E+03  0.80758034987E+02 0.  0.
        -11    1    4    4    0    0  0.37955750320E+02 -0.74863538464E+02  0.75788093125E+02  0.11308856456E+03  0.00000000000E+00 0.  1.
         12    1    4    4    0    0  0.12848895206E+03 -0.53537232803E+02  0.18393362901E+03  0.23066691566E+03  0.00000000000E+00 0. -1.
        -11    1    3    3    0    0 -0.18153296384E+03  0.16073243596E+03  0.60152481867E+03  0.64855319011E+03  0.00000000000E+00 0.  1.
         11    1    3    3    0    0 -0.33611939435E+02 -0.16076858153E+01  0.16383956708E+03  0.16725953147E+03  0.00000000000E+00 0. -1.
         -4    1    1    2    0  502  0.48700200888E+02 -0.30723978881E+02  0.44690667470E+02  0.72889836080E+02  0.00000000000E+00 0.  1.
<scales pt_clust_5="13000.00000" pt_clust_6="13000.00000" pt_clust_7="13000.00000" pt_clust_8="13000.00000" pt_clust_9="57.58188"></scales>
<clustering>
<clus scale="   57.582">  2  9  1 -1</clus>
<clus scale="   80.758">  5  6 -1 -1</clus>
<clus scale="   90.331">  7  8 -1 -1</clus>
<clus scale="  258.974">  2  5  1 -1</clus>
<clus scale="   57.582">  2  5  1 -1</clus>
</clustering>
</event>
<event>
 9    2  0.1325014E-004  0.1297005E+03  0.7546771E-02  0.1232536E+00
         21   -1    0    0  501  502  0.00000000000E+00  0.00000000000E+00  0.15408523116E+03  0.15408523116E+03  0.00000000000E+00 0.  1.
          2   -1    0    0  502    0 -0.00000000000E+00 -0.00000000000E+00 -0.23481873096E+03  0.23481873096E+03  0.00000000000E+00 0. -1.
         23    2    1    2    0    0 -0.45638941919E+02  0.78316144810E+02 -0.17625101797E+03  0.21883633885E+03  0.92782489216E+02 0.  0.
         24    2    1    2    0    0  0.28062015138E+02 -0.88025548320E+02  0.72569354700E+02  0.13957436044E+03  0.75357262431E+02 0.  0.
        -13    1    4    4    0    0 -0.45239598964E+01 -0.79966318415E+02  0.30384855014E+02  0.85663981394E+02  0.00000000000E+00 0.  1.
         14    1    4    4    0    0  0.32585975034E+02 -0.80592299046E+01  0.42184499686E+02  0.53910379050E+02  0.00000000000E+00 0. -1.
        -11    1    3    3    0    0 -0.23279422936E+02 -0.43344168369E+01 -0.10442906551E+03  0.10708010284E+03  0.00000000000E+00 0.  1.
         11    1    3    3    0    0 -0.22359518984E+02  0.82650561647E+02 -0.71821952463E+02  0.11175623600E+03  0.00000000000E+00 0. -1.
          1    1    1    2  501    0  0.17576926782E+02  0.97094035096E+01  0.22948163471E+02  0.30493262834E+02  0.00000000000E+00 0. -1.
<scales pt_clust_5="13000.00000" pt_clust_6="13000.00000" pt_clust_7="13000.00000" pt_clust_8="13000.00000" pt_clust_9="20.08036"></scales>
<clustering>
<clus scale="   20.080">  1  9  2 -1</clus>
<clus scale="   75.357">  5  6 -1 -1</clus>
<clus scale="   92.782">  7  8 -1 -1</clus>
<clus scale="  117.866">  1  5  2 -1</clus>
<clus scale="   20.080">  1  5  2 -1</clus>
</clustering>
</event>
<event>
 9    2  0.1325014E-004  0.1891297E+03  0.7546771E-02  0.1161498E+00
         21   -1    0    0  501  502  0.00000000000E+00  0.00000000000E+00  0.40243188241E+03  0.40243188241E+03  0.00000000000E+00 0.  1.
         -1   -1    0    0    0  501 -0.00000000000E+00 -0.00000000000E+00 -0.18737590922E+03  0.18737590922E+03  0.00000000000E+00 0.  1.
         24    2    1    2    0    0 -0.13445771767E+03  0.26256752844E+02  0.94171070657E+02  0.18482181046E+03  0.80762715177E+02 0.  0.
         23    2    1    2    0    0  0.18143125450E+03  0.11502946674E+03  0.84388783979E+02  0.25168798484E+03  0.10038075774E+03 0.  0.
        -13    1    3    3    0    0 -0.99221027325E+02  0.34491341445E+01  0.10175900351E+03  0.14216751944E+03  0.00000000000E+00 0.  1.
         14    1    3    3    0    0 -0.35236690345E+02  0.22807618700E+02 -0.75879328523E+01  0.42654291018E+02  0.00000000000E+00 0. -1.
        -11    1    4    4    0    0  0.59891614827E+02  0.15680520629E+02  0.70908321260E+02  0.94132217002E+02  0.00000000000E+00 0. -1.
         11    1    4    4    0    0  0.12153963968E+03  0.99348946108E+02  0.13480462718E+02  0.15755576784E+03  0.00000000000E+00 0.  1.
         -2    1    1    2    0  502 -0.46973536832E+02 -0.14128621958E+03  0.36496118557E+02  0.15329799632E+03  0.00000000000E+00 0.  1.
<scales pt_clust_5="13000.00000" pt_clust_6="13000.00000" pt_clust_7="13000.00000" pt_clust_8="13000.00000" pt_clust_9="148.89033"></scales>
<clustering>
<clus scale="   80.763">  5  6 -1 -1</clus>
<clus scale="  100.381">  7  8 -1 -1</clus>
<clus scale="  148.890">  1  9  2 -1</clus>
<clus scale="  179.489">  2  5  1 -1</clus>
<clus scale="  148.890">  1  5  2 -1</clus>
</clustering>
</event>
<event>
 9    2  0.1325014E-004  0.1045970E+03  0.7546771E-02  0.1280373E+00
          2   -1    0    0  502    0 -0.00000000000E+00  0.00000000000E+00  0.27187076799E+03  0.27187076799E+03  0.00000000000E+00 0. -1.
         21   -1    0    0  501  502  0.00000000000E+00 -0.00000000000E+00 -0.17142851155E+03  0.17142851155E+03  0.00000000000E+00 0. -1.
         24    2    1    2    0    0 -0.39691318179E+02  0.37598427677E+01  0.21912004749E+03  0.23654460750E+03  0.79688261175E+02 0.  0.
         23    2    1    2    0    0 -0.23539883543E+02 -0.56372367644E+01 -0.95963877024E+02  0.13954134472E+03  0.98370811921E+02 0.  0.
        -13    1    3    3    0    0 -0.34035123840E+02 -0.18420064390E+01  0.25021973055E+02  0.42283351074E+02  0.00000000000E+00 0.  1.
         14    1    3    3    0    0 -0.56561943388E+01  0.56018492067E+01  0.19409807443E+03  0.19426125642E+03  0.00000000000E+00 0. -1.
        -13    1    4    4    0    0  0.24949028576E+02  0.21779390827E+02 -0.58938155628E+01  0.33638266209E+02  0.00000000000E+00 0.  1.
         13    1    4    4    0    0 -0.48488912119E+02 -0.27416627591E+02 -0.90070061461E+02  0.10590307851E+03  0.00000000000E+00 0. -1.
          1    1    1    2  501    0  0.63231201721E+02  0.18773939968E+01 -0.22713914021E+02  0.67213327320E+02  0.00000000000E+00 0. -1.
<scales pt_clust_5="13000.00000" pt_clust_6="13000.00000" pt_clust_7="13000.00000" pt_clust_8="13000.00000" pt_clust_9="63.25907"></scales>
<clustering>
<clus scale="   63.259">  2  9  1 -1</clus>
<clus scale="   79.688">  5  6 -1 -1</clus>
<clus scale="   87.258">  1  5  2 -1</clus>
<clus scale="   98.371">  7  8 -1 -1</clus>
<clus scale="   63.259">  2  5  1 -1</clus>
</clustering>
</event>
<event>
 9    2  0.1325014E-004  0.9580647E+02  0.7546771E-02  0.1296654E+00
          2   -1    0    0  502    0 -0.00000000000E+00  0.00000000000E+00  0.18028666677E+04  0.18028666677E+04  0.00000000000E+00 0. -1.
         21   -1    0    0  501  502  0.00000000000E+00 -0.00000000000E+00 -0.35911507618E+03  0.35911507618E+03  0.00000000000E+00 0. -1.
         24    2    1    2    0    0 -0.13934529083E+02  0.19539142444E+02  0.17144556430E+04  0.17165120069E+04  0.80494526227E+02 0.  0.
         23    2    1    2    0    0 -0.56905455728E+02 -0.11730286530E+02  0.47371385989E+02  0.11950767542E+03  0.93070971629E+02 0.  0.
        -13    1    3    3    0    0 -0.96233763498E+01  0.22951076922E+02  0.15028383904E+03  0.15233054054E+03  0.00000000000E+00 0.  1.
         14    1    3    3    0    0 -0.43111527334E+01 -0.34119344775E+01  0.15641718040E+04  0.15641814664E+04  0.00000000000E+00 0. -1.
        -13    1    4    4    0    0 -0.24215743492E+02  0.41016898929E+02  0.21974097014E+02  0.52456164272E+02  0.00000000000E+00 0. -1.
         13    1    4    4    0    0 -0.32689712236E+02 -0.52747185458E+02  0.25397288975E+02  0.67051511147E+02  0.00000000000E+00 0.  1.
          1    1    1    2  501    0  0.70839984811E+02 -0.78088559147E+01 -0.31807543747E+03  0.32596206159E+03  0.00000000000E+00 0. -1.
<scales pt_clust_5="13000.00000" pt_clust_6="13000.00000" pt_clust_7="13000.00000" pt_clust_8="13000.00000" pt_clust_9="71.26908"></scales>
<clustering>
<clus scale="   71.269">  2  9  1 -1</clus>
<clus scale="   80.495">  5  6 -1 -1</clus>
<clus scale="   83.642">  1  5  2 -1</clus>
<clus scale="   93.071">  7  8 -1 -1</clus>
<clus scale="   71.269">  2  5  1 -1</clus>
</clustering>
</event>
<event>
 9    2  0.1325014E-004  0.2056537E+03  0.7546771E-02  0.1146684E+00
         -3   -1    0    0    0  501 -0.00000000000E+00  0.00000000000E+00  0.14419810410E+03  0.14419810410E+03  0.00000000000E+00 0.  1.
         21   -1    0    0  501  502  0.00000000000E+00 -0.00000000000E+00 -0.31457793854E+03  0.31457793854E+03  0.00000000000E+00 0. -1.
         23    2    1    2    0    0  0.49229326845E+02 -0.18273816224E+03 -0.60276094620E+02  0.22148918108E+03  0.98017790166E+02 0.  0.
         24    2    1    2    0    0 -0.34771302423E+02  0.16787762415E+03 -0.10192993932E+03  0.21500051872E+03  0.80271852834E+02 0.  0.
        -11    1    4    4    0    0 -0.41581313022E+02  0.15140805636E+03 -0.57640477383E+02  0.16725976730E+03  0.00000000000E+00 0.  1.
         12    1    4    4    0    0  0.68100105990E+01  0.16469567789E+02 -0.44289461938E+02  0.47740751421E+02  0.00000000000E+00 0. -1.
        -13    1    3    3    0    0  0.48466035868E+02 -0.25202109285E+02 -0.24868792775E+02  0.60021327870E+02  0.00000000000E+00 0. -1.
         13    1    3    3    0    0  0.76329097734E+00 -0.15753605296E+03 -0.35407301845E+02  0.16146785321E+03  0.00000000000E+00 0.  1.
         -4    1    1    2    0  502 -0.14458024422E+02  0.14860538091E+02 -0.81738005069E+01  0.22286342842E+02  0.00000000000E+00 0.  1.
<scales pt_clust_5="13000.00000" pt_clust_6="13000.00000" pt_clust_7="13000.00000" pt_clust_8="13000.00000" pt_clust_9="20.73332"></scales>
<clustering>
<clus scale="   20.733">  2  9  1 -1</clus>
<clus scale="   80.272">  5  6 -1 -1</clus>
<clus scale="   98.018">  7  8 -1 -1</clus>
<clus scale="  197.812">  2  5  1 -1</clus>
<clus scale="   20.733">  2  5  1 -1</clus>
</clustering>
</event>
<event>
 9    2  0.1325014E-004  0.1007685E+03  0.7546771E-02  0.1285343E+00
          2   -1    0    0  502    0 -0.00000000000E+00  0.00000000000E+00  0.57114437767E+03  0.57114437767E+03  0.00000000000E+00 0. -1.
         21   -1    0    0  501  502  0.00000000000E+00 -0.00000000000E+00 -0.40519312000E+02  0.40519312000E+02  0.00000000000E+00 0.  1.
         24    2    1    2    0    0  0.18643846555E+02  0.25456780247E+02  0.29355724934E+03  0.30510288882E+03  0.76917315695E+02 0.  0.
         23    2    1    2    0    0 -0.60793014266E+02 -0.72492481774E+02  0.16795882568E+03  0.21293942431E+03  0.90454855050E+02 0.  0.
        -13    1    3    3    0    0  0.44771442661E+01 -0.26785004061E+02  0.13051554569E+03  0.13331087326E+03  0.00000000000E+00 0.  1.
         14    1    3    3    0    0  0.14166702289E+02  0.52241784308E+02  0.16304170365E+03  0.17179201556E+03  0.00000000000E+00 0. -1.
        -13    1    4    4    0    0 -0.16734933081E+02 -0.21163740857E+02  0.13504264749E+03  0.13771157741E+03  0.00000000000E+00 0. -1.
         13    1    4    4    0    0 -0.44058081185E+02 -0.51328740916E+02  0.32916178196E+02  0.75227846897E+02  0.00000000000E+00 0.  1.
          1    1    1    2  501    0  0.42149167711E+02  0.47035701527E+02  0.69108990649E+02  0.93621376541E+02  0.00000000000E+00 0. -1.
<scales pt_clust_5="13000.00000" pt_clust_6="13000.00000" pt_clust_7="13000.00000" pt_clust_8="13000.00000" pt_clust_9="63.15781"></scales>
<clustering>
<clus scale="   63.158">  2  9  1 -1</clus>
<clus scale="   76.917">  5  6 -1 -1</clus>
<clus scale="   88.817">  1  5  2 -1</clus>
<clus scale="   90.455">  7  8 -1 -1</clus>
<clus scale="   63.158">  2  5  1 -1</clus>
</clustering>
</event>
<event>
 9    2  0.1325014E-004  0.1595703E+03  0.7546771E-02  0.1193294E+00
          2   -1    0    0  502    0 -0.00000000000E+00  0.00000000000E+00  0.78397513030E+03  0.78397513030E+03  0.00000000000E+00 0. -1.
         21   -1    0    0  501  502  0.00000000000E+00 -0.00000000000E+00 -0.11344302369E+03  0.11344302369E+03  0.00000000000E+00 0. -1.
         23    2    1    2    0    0 -0.13129205500E+02 -0.14203913751E+03  0.53589200178E+03  0.56407053641E+03  0.10318837070E+03 0.  0.
         24    2    1    2    0    0  0.57842891197E+02  0.83705045524E+02  0.19779982473E+03  0.23643874185E+03  0.80163416080E+02 0.  0.
        -13    1    4    4    0    0  0.63396168276E+02  0.96503480902E+02  0.17944851595E+03  0.21338642378E+03  0.00000000000E+00 0.  1.
         14    1    4    4    0    0 -0.55532770783E+01 -0.12798435379E+02  0.18351308782E+02  0.23052318072E+02  0.00000000000E+00 0. -1.
        -13    1    3    3    0    0  0.39242977726E+02 -0.10016483065E+03  0.36394189591E+03  0.37950850873E+03  0.00000000000E+00 0. -1.
         13    1    3    3    0    0 -0.52372183226E+02 -0.41874306863E+02  0.17195010587E+03  0.18456202768E+03  0.00000000000E+00 0.  1.
          1    1    1    2  501    0 -0.44713685697E+02  0.58334091989E+02 -0.63159719903E+02  0.96908875729E+02  0.00000000000E+00 0. -1.
<scales pt_clust_5="13000.00000" pt_clust_6="13000.00000" pt_clust_7="13000.00000" pt_clust_8="13000.00000" pt_clust_9="73.49952"></scales>
<clustering>
<clus scale="   73.500">  2  9  1 -1</clus>
<clus scale="   80.163">  5  6 -1 -1</clus>
<clus scale="  103.188">  7  8 -1 -1</clus>
<clus scale="  145.743">  2  5  1 -1</clus>
<clus scale="   73.500">  2  5  1 -1</clus>
</clustering>
</event>
<event>
 9    2  0.1325014E-004  0.1481591E+03  0.7546771E-02  0.1217637E+00
         21   -1    0    0  501  502  0.00000000000E+00  0.00000000000E+00  0.84803848723E+02  0.84803848723E+02  0.00000000000E+00 0. -1.
          2   -1    0    0  502    0 -0.00000000000E+00 -0.00000000000E+00 -0.84100160979E+03  0.84100160979E+03  0.00000000000E+00 0. -1.
         23    2    1    2    0    0 -0.49398532258E+02 -0.30740877953E+02 -0.48345119127E+03  0.49533083350E+03  0.90787464494E+02 0.  0.
         24    2    1    2    0    0 -0.51043705172E+02 -0.60379600215E+02 -0.27250300933E+03  0.29485882975E+03  0.80204011308E+02 0.  0.
        -11    1    4    4    0    0 -0.62695343117E+02 -0.26924628873E+02 -0.22792250747E+03  0.23791660534E+03  0.00000000000E+00 0.  1.
         12    1    4    4    0    0  0.11651637945E+02 -0.33454971342E+02 -0.44580501862E+02  0.56942224409E+02  0.00000000000E+00 0. -1.
        -13    1    3    3    0    0 -0.18401927762E+01 -0.52687649066E+02 -0.18706167785E+03  0.19434877410E+03  0.00000000000E+00 0.  1.
         13    1    3    3    0    0 -0.47558339482E+02  0.21946771113E+02 -0.29638951342E+03  0.30098205940E+03  0.00000000000E+00 0. -1.
          1    1    1    2  501    0  0.10044223743E+03  0.91120478168E+02 -0.24356046594E+00  0.13561579526E+03  0.00000000000E+00 0. -1.
<scales pt_clust_5="13000.00000" pt_clust_6="13000.00000" pt_clust_7="13000.00000" pt_clust_8="13000.00000" pt_clust_9="124.57306"></scales>
<clustering>
<clus scale="   80.204">  5  6 -1 -1</clus>
<clus scale="   90.787">  7  8 -1 -1</clus>
<clus scale="  107.831">  2  7  1 -1</clus>
<clus scale="  124.573">  1  9  2 -1</clus>
<clus scale="  124.573">  1  5  2 -1</clus>
</clustering>
</event>
<event>
 9    2  0.1325014E-004  0.1102740E+03  0.7546771E-02  0.1262193E+00
         21   -1    0    0  501  502  0.00000000000E+00  0.00000000000E+00  0.33708763030E+03  0.33708763030E+03  0.00000000000E+00 0.  1.
         -1   -1    0    0    0  501 -0.00000000000E+00 -0.00000000000E+00 -0.21253889634E+03  0.21253889634E+03  0.00000000000E+00 0.  1.
         24    2    1    2    0    0 -0.71056354647E+02  0.25995011272E+02 -0.15358055028E+03  0.19003509643E+03  0.82471851581E+02 0.  0.
         23    2    1    2    0    0 -0.27268474623E+02 -0.66571365248E+02  0.96979123015E+02  0.14952098139E+03  0.88183089066E+02 0.  0.
        -11    1    3    3    0    0 -0.56301717637E+02 -0.87080747154E+01 -0.13788222184E+03  0.14918854203E+03  0.00000000000E+00 0.  1.
         12    1    3    3    0    0 -0.14754637010E+02  0.34703085987E+02 -0.15698328444E+02  0.40846554399E+02  0.00000000000E+00 0. -1.
        -11    1    4    4    0    0  0.30395145589E+01 -0.76280539642E+02  0.45127967481E+02  0.88681975766E+02  0.00000000000E+00 0.  1.
         11    1    4    4    0    0 -0.30307989182E+02  0.97091743944E+01  0.51851155534E+02  0.60839005628E+02  0.00000000000E+00 0. -1.
         -2    1    1    2    0  502  0.98324829270E+02  0.40576353976E+02  0.18115016122E+03  0.21007044881E+03  0.00000000000E+00 0.  1.
<scales pt_clust_5="13000.00000" pt_clust_6="13000.00000" pt_clust_7="13000.00000" pt_clust_8="13000.00000" pt_clust_9="106.36829"></scales>
<clustering>
<clus scale="   82.472">  5  6 -1 -1</clus>
<clus scale="   88.183">  7  8 -1 -1</clus>
<clus scale="  106.368">  1  9  2 -1</clus>
<clus scale="  105.762">  2  5  1 -1</clus>
<clus scale="  106.368">  1  5  2 -1</clus>
</clustering>
</event>
<event>
 9    2  0.1325014E-004  0.1033964E+03  0.7546771E-02  0.1277781E+00
         21   -1    0    0  501  502  0.00000000000E+00  0.00000000000E+00  0.95984654874E+02  0.95984654874E+02  0.00000000000E+00 0. -1.
          2   -1    0    0  502    0 -0.00000000000E+00 -0.00000000000E+00 -0.85356553242E+03  0.85356553242E+03  0.00000000000E+00 0. -1.
         24    2    1    2    0    0 -0.36275305699E+02 -0.41602175003E+02 -0.66697180412E+03  0.67396321247E+03  0.79551150215E+02 0.  0.
         23    2    1    2    0    0  0.61146296376E+01 -0.41220731878E+02  0.49199285715E+02  0.11031242273E+03  0.89508231250E+02 0.  0.
        -11    1    3    3    0    0  0.21697260109E+02  0.45332469759E+01 -0.12490485903E+03  0.12685639611E+03  0.00000000000E+00 0.  1.
         12    1    3    3    0    0 -0.57972565808E+02 -0.46135421978E+02 -0.54206694509E+03  0.54710681636E+03  0.00000000000E+00 0. -1.
        -13    1    4    4    0    0 -0.41138490010E+02 -0.26467247016E+02  0.20063462959E+02  0.52871855186E+02  0.00000000000E+00 0.  1.
         13    1    4    4    0    0  0.47253119648E+02 -0.14753484862E+02  0.29135822756E+02  0.57440567544E+02  0.00000000000E+00 0. -1.
          1    1    1    2  501    0  0.30160676061E+02  0.82822906881E+02 -0.13980835913E+03  0.16527455209E+03  0.00000000000E+00 0. -1.
<scales pt_clust_5="13000.00000" pt_clust_6="13000.00000" pt_clust_7="13000.00000" pt_clust_8="13000.00000" pt_clust_9="88.14368"></scales>
<clustering>
<clus scale="   79.551">  5  6 -1 -1</clus>
<clus scale="   88.144">  1  9  2 -1</clus>
<clus scale="   89.508">  7  8 -1 -1</clus>
<clus scale="   94.908">  2  5  1 -1</clus>
<clus scale="   88.144">  1  5  2 -1</clus>
</clustering>
</event>
<event>
 9    2  0.1325014E-004  0.1545671E+03  0.7546771E-02  0.1224229E+00
         21   -1    0    0  501  502  0.00000000000E+00  0.00000000000E+00  0.44867528584E+03  0.44867528584E+03  0.00000000000E+00 0. -1.
          2   -1    0    0  502    0 -0.00000000000E+00 -0.00000000000E+00 -0.22741933844E+03  0.22741933844E+03  0.00000000000E+00 0. -1.
         24    2    1    2    0    0 -0.20007662971E+02  0.93699086059E+01 -0.15104365384E+03  0.17220726710E+03  0.79706058191E+02 0.  0.
         23    2    1    2    0    0  0.74127473755E+02  0.69974572288E+02  0.47278464927E+02  0.16497256019E+03  0.12078646132E+03 0.  0.
        -13    1    3    3    0    0 -0.50635765531E+02  0.60756070495E+01 -0.81422942839E+02  0.96075956267E+02  0.00000000000E+00 0.  1.
         14    1    3    3    0    0  0.30628102560E+02  0.32943015565E+01 -0.69620710998E+02  0.76131310832E+02  0.00000000000E+00 0. -1.
        -11    1    4    4    0    0 -0.31420416562E+01  0.79639355087E+02  0.17489431514E+02  0.81597668589E+02  0.00000000000E+00 0.  1.
         11    1    4    4    0    0  0.77269515411E+02 -0.96647827989E+01  0.29789033414E+02  0.83374891605E+02  0.00000000000E+00 0. -1.
          1    1    1    2  501    0 -0.54119810784E+02 -0.79344480894E+02  0.32502113631E+03  0.33891479698E+03  0.00000000000E+00 0. -1.
<scales pt_clust_5="13000.00000" pt_clust_6="13000.00000" pt_clust_7="13000.00000" pt_clust_8="13000.00000" pt_clust_9="96.44483"></scales>
<clustering>
<clus scale="   79.706">  5  6 -1 -1</clus>
<clus scale="   82.711">  2  5  1 -1</clus>
<clus scale="   96.445">  1  9  2 -1</clus>
<clus scale="  120.786">  7  8 -1 -1</clus>
<clus scale="   96.445">  1  5  2 -1</clus>
</clustering>
</event>
<event>
 9    2  0.1325014E-004  0.1358515E+03  0.7546771E-02  0.1234531E+00
          4   -1    0    0  502    0 -0.00000000000E+00  0.00000000000E+00  0.62957735883E+02  0.62957735883E+02  0.00000000000E+00 0. -1.
         21   -1    0    0  501  502  0.00000000000E+00 -0.00000000000E+00 -0.57046886135E+03  0.57046886135E+03  0.00000000000E+00 0.  1.
         23    2    1    2    0    0 -0.35348321243E+02 -0.14536690923E+02 -0.59823346889E+02  0.11520440540E+03  0.90732590572E+02 0.  0.
         24    2    1    2    0    0  0.32172585751E+02 -0.99397157656E+02 -0.15030523390E+03  0.19974552860E+03  0.79948374806E+02 0.  0.
        -13    1    4    4    0    0 -0.15872740252E+02 -0.73671265198E+02 -0.71145869169E+02  0.10363944181E+03  0.00000000000E+00 0.  1.
         14    1    4    4    0    0  0.48045326003E+02 -0.25725892458E+02 -0.79159364731E+02  0.96106086790E+02  0.00000000000E+00 0. -1.
        -13    1    3    3    0    0 -0.22888910732E+02  0.34362614626E+01 -0.81313533408E+02  0.84543484921E+02  0.00000000000E+00 0.  1.
         13    1    3    3    0    0 -0.12459410512E+02 -0.17972952385E+02  0.21490186519E+02  0.30660920475E+02  0.00000000000E+00 0. -1.
          3    1    1    2  501    0  0.31757354928E+01  0.11393384858E+03 -0.29738254468E+03  0.31847666324E+03  0.00000000000E+00 0. -1.
<scales pt_clust_5="13000.00000" pt_clust_6="13000.00000" pt_clust_7="13000.00000" pt_clust_8="13000.00000" pt_clust_9="109.83575"></scales>
<clustering>
<clus scale="   79.948">  5  6 -1 -1</clus>
<clus scale="   90.733">  7  8 -1 -1</clus>
<clus scale="   98.454">  1  7  2 -1</clus>
<clus scale="  109.836">  2  9  1 -1</clus>
<clus scale="  109.836">  2  5  1 -1</clus>
</clustering>
</event>
<event>
 9    2  0.1325014E-004  0.9529251E+02  0.7546771E-02  0.1296631E+00
          2   -1    0    0  502    0 -0.00000000000E+00  0.00000000000E+00  0.36300796022E+03  0.36300796022E+03  0.00000000000E+00 0. -1.
         21   -1    0    0  501  502  0.00000000000E+00 -0.00000000000E+00 -0.36604065413E+02  0.36604065413E+02  0.00000000000E+00 0. -1.
         23    2    1    2    0    0 -0.93131111445E+01 -0.34023172824E+02  0.17783007235E+03  0.20281819112E+03  0.90925099322E+02 0.  0.
         24    2    1    2    0    0  0.20853635513E+02  0.93760450393E+01  0.56205238233E+02  0.10049939043E+03  0.80114382838E+02 0.  0.
        -11    1    4    4    0    0 -0.25651102068E+02 -0.15966948368E+02  0.23211304971E+02  0.38101012532E+02  0.00000000000E+00 0.  1.
         12    1    4    4    0    0  0.46504737581E+02  0.25342993408E+02  0.32993933262E+02  0.62398377899E+02  0.00000000000E+00 0. -1.
        -13    1    3    3    0    0 -0.26749400668E+02 -0.59850351067E+02  0.10780766227E+03  0.12617482713E+03  0.00000000000E+00 0. -1.
         13    1    3    3    0    0  0.17436289524E+02  0.25827178242E+02  0.70022410085E+02  0.76643363981E+02  0.00000000000E+00 0.  1.
          1    1    1    2  501    0 -0.11540524369E+02  0.24647127785E+02  0.92368584223E+02  0.96294444088E+02  0.00000000000E+00 0. -1.
<scales pt_clust_5="13000.00000" pt_clust_6="13000.00000" pt_clust_7="13000.00000" pt_clust_8="13000.00000" pt_clust_9="27.21517"></scales>
<clustering>
<clus scale="   27.215">  2  9  1 -1</clus>
<clus scale="   80.114">  5  6 -1 -1</clus>
<clus scale="   85.039">  2  5  1 -1</clus>
<clus scale="   90.925">  7  8 -1 -1</clus>
<clus scale="   27.215">  2  5  1 -1</clus>
</clustering>
</event>
<event>
 9    2  0.1325014E-004  0.1089892E+03  0.7546771E-02  0.1268395E+00
         21   -1    0    0  501  502  0.00000000000E+00  0.00000000000E+00  0.47887858803E+03  0.47887858803E+03  0.00000000000E+00 0.  1.
         -3   -1    0    0    0  501 -0.00000000000E+00 -0.00000000000E+00 -0.49808679587E+02  0.49808679587E+02  0.00000000000E+00 0.  1.
         24    2    1    2    0    0 -0.33569491657E+02 -0.48294738999E+02  0.24524410847E+02  0.10200861619E+03  0.79655624188E+02 0.  0.
         23    2    1    2    0    0  0.54319748848E+01  0.40211202628E+02  0.35187963874E+03  0.36642289569E+03  0.93808374666E+02 0.  0.
        -13    1    3    3    0    0  0.22289915372E+02 -0.27126878313E+02 -0.48464693518E+01  0.35442857101E+02  0.00000000000E+00 0.  1.
         14    1    3    3    0    0 -0.55859407029E+02 -0.21167860687E+02  0.29370880199E+02  0.66565759091E+02  0.00000000000E+00 0. -1.
        -13    1    4    4    0    0 -0.43657184370E+02  0.22031584199E+02  0.14503585085E+03  0.15305795792E+03  0.00000000000E+00 0.  1.
         13    1    4    4    0    0  0.49089159254E+02  0.18179618428E+02  0.20684378789E+03  0.21336493777E+03  0.00000000000E+00 0. -1.
         -4    1    1    2    0  502  0.28137516772E+02  0.80835363718E+01  0.52665858855E+02  0.60255755736E+02  0.00000000000E+00 0.  1.
<scales pt_clust_5="13000.00000" pt_clust_6="13000.00000" pt_clust_7="13000.00000" pt_clust_8="13000.00000" pt_clust_9="29.27565"></scales>
<clustering>
<clus scale="   29.276">  1  9  2 -1</clus>
<clus scale="   79.656">  5  6 -1 -1</clus>
<clus scale="   93.808">  7  8 -1 -1</clus>
<clus scale="   97.076">  2  5  1 -1</clus>
<clus scale="   29.276">  1  5  2 -1</clus>
</clustering>
</event>
<event>
 9    2  0.1325014E-004  0.1639954E+03  0.7546771E-02  0.1186835E+00
          2   -1    0    0  502    0 -0.00000000000E+00  0.00000000000E+00  0.13407792065E+03  0.13407792065E+03  0.00000000000E+00 0. -1.
         21   -1    0    0  501  502  0.00000000000E+00 -0.00000000000E+00 -0.53217102933E+03  0.53217102933E+03  0.00000000000E+00 0.  1.
         23    2    1    2    0    0 -0.48715082756E+02  0.11912576156E+03  0.44519850813E+02  0.16598837068E+03  0.94900030184E+02 0.  0.
         24    2    1    2    0    0  0.30364605983E+02 -0.16019428208E+03 -0.29529613602E+03  0.34622938163E+03  0.78043317786E+02 0.  0.
        -11    1    4    4    0    0  0.41172787046E+02 -0.16081973515E+03 -0.25323444790E+03  0.30279674900E+03  0.00000000000E+00 0.  1.
         12    1    4    4    0    0 -0.10808181064E+02  0.62545306683E+00 -0.42061688124E+02  0.43432632631E+02  0.00000000000E+00 0. -1.
        -11    1    3    3    0    0 -0.52986537058E+02  0.14551829385E+02  0.10546613866E+02  0.55951406702E+02  0.00000000000E+00 0.  1.
         11    1    3    3    0    0  0.42714543022E+01  0.10457393218E+03  0.33973236947E+02  0.11003696398E+03  0.00000000000E+00 0. -1.
          1    1    1    2  501    0  0.18350476774E+02  0.41068520516E+02 -0.14731682347E+03  0.15403119766E+03  0.00000000000E+00 0. -1.
<scales pt_clust_5="13000.00000" pt_clust_6="13000.00000" pt_clust_7="13000.00000" pt_clust_8="13000.00000" pt_clust_9="44.98181"></scales>
<clustering>
<clus scale="   44.982">  2  9  1 -1</clus>
<clus scale="   78.043">  5  6 -1 -1</clus>
<clus scale="   94.900">  7  8 -1 -1</clus>
<clus scale="  154.852">  2  5  1 -1</clus>
<clus scale="   44.982">  2  5  1 -1</clus>
</clustering>
</event>
<event>
 9    2  0.1325014E-004  0.1118088E+03  0.7546771E-02  0.1261383E+00
         -3   -1    0    0    0  501 -0.00000000000E+00  0.00000000000E+00  0.30965051664E+03  0.30965051664E+03  0.00000000000E+00 0.  1.
         21   -1    0    0  501  502  0.00000000000E+00 -0.00000000000E+00 -0.80997124363E+02  0.80997124363E+02  0.00000000000E+00 0.  1.
         23    2    1    2    0    0 -0.67599487501E+02  0.21102693424E+02  0.16948428490E+03  0.20513962844E+03  0.91336356108E+02 0.  0.
         24    2    1    2    0    0  0.50656069014E+02  0.21218639603E+02 -0.14911708178E+02  0.98524440023E+02  0.80426601610E+02 0.  0.
        -13    1    4    4    0    0  0.15839045554E+02  0.48433171926E+02 -0.18443640994E+02  0.54192392455E+02  0.00000000000E+00 0.  1.
         14    1    4    4    0    0  0.34817023460E+02 -0.27214532323E+02  0.35319328160E+01  0.44332047568E+02  0.00000000000E+00 0. -1.
        -13    1    3    3    0    0 -0.82103096757E+02 -0.78067673145E+01  0.13181783672E+03  0.15549214189E+03  0.00000000000E+00 0.  1.
         13    1    3    3    0    0  0.14503609256E+02  0.28909460739E+02  0.37666448181E+02  0.49647486545E+02  0.00000000000E+00 0. -1.
         -4    1    1    2    0  502  0.16943418487E+02 -0.42321333027E+02  0.74080815558E+02  0.86983572546E+02  0.00000000000E+00 0.  1.
<scales pt_clust_5="13000.00000" pt_clust_6="13000.00000" pt_clust_7="13000.00000" pt_clust_8="13000.00000" pt_clust_9="45.58702"></scales>
<clustering>
<clus scale="   45.587">  2  9  1 -1</clus>
<clus scale="   80.427">  5  6 -1 -1</clus>
<clus scale="   91.336">  7  8 -1 -1</clus>
<clus scale="  103.089">  2  5  1 -1</clus>
<clus scale="   45.587">  2  5  1 -1</clus>
</clustering>
</event>
<event>
 9    2  0.1325014E-004  0.1135628E+03  0.7546771E-02  0.1258632E+00
         21   -1    0    0  501  502  0.00000000000E+00  0.00000000000E+00  0.52848399851E+03  0.52848399851E+03  0.00000000000E+00 0. -1.
         -3   -1    0    0    0  501 -0.00000000000E+00 -0.00000000000E+00 -0.39452570833E+02  0.39452570833E+02  0.00000000000E+00 0.  1.
         24    2    1    2    0    0  0.21643405296E+02 -0.37639827777E+02  0.15419366866E+03  0.17955604479E+03  0.81114068689E+02 0.  0.
         23    2    1    2    0    0 -0.11689912804E+02  0.97567302958E+02  0.21696148868E+03  0.25577136422E+03  0.93223765843E+02 0.  0.
        -11    1    3    3    0    0 -0.46926796480E+01 -0.56935419949E+02  0.11603978580E+03  0.12934023031E+03  0.00000000000E+00 0.  1.
         12    1    3    3    0    0  0.26336084944E+02  0.19295592171E+02  0.38153882859E+02  0.50215814487E+02  0.00000000000E+00 0. -1.
        -11    1    4    4    0    0 -0.49333753614E+02  0.63234517917E+02  0.16237406327E+03  0.18110151828E+03  0.00000000000E+00 0.  1.
         11    1    4    4    0    0  0.37643840810E+02  0.34332785041E+02  0.54587425413E+02  0.74669845940E+02  0.00000000000E+00 0. -1.
         -4    1    1    2    0  502 -0.99534924915E+01 -0.59927475181E+02  0.11787627034E+03  0.13260916033E+03  0.00000000000E+00 0.  1.
<scales pt_clust_5="13000.00000" pt_clust_6="13000.00000" pt_clust_7="13000.00000" pt_clust_8="13000.00000" pt_clust_9="60.74845"></scales>
<clustering>
<clus scale="   60.748">  1  9  2 -1</clus>
<clus scale="   81.114">  5  6 -1 -1</clus>
<clus scale="   93.224">  7  8 -1 -1</clus>
<clus scale="  103.852">  2  5  1 -1</clus>
<clus scale="   60.748">  1  5  2 -1</clus>
</clustering>
</event>
<event>
 9    2  0.1325014E-004  0.3410357E+03  0.7546771E-02  0.1112002E+00
         21   -1    0    0  501  502  0.00000000000E+00  0.00000000000E+00  0.51027576818E+03  0.51027576818E+03  0.00000000000E+00 0.  1.
         -1   -1    0    0    0  501 -0.00000000000E+00 -0.00000000000E+00 -0.52690441275E+03  0.52690441275E+03  0.00000000000E+00 0.  1.
         23    2    1    2    0    0 -0.78564661292E+01  0.48393030221E+02 -0.28118814873E+03  0.29904462655E+03  0.89203723281E+02 0.  0.
         24    2    1    2    0    0 -0.28525768054E+03 -0.18571194593E+03  0.21829079462E+03  0.41115974323E+03  0.74435154779E+02 0.  0.
        -13    1    4    4    0    0 -0.92654940091E+02 -0.10014215450E+03  0.69013129226E+02  0.15289277627E+03  0.00000000000E+00 0.  1.
         14    1    4    4    0    0 -0.19260274045E+03 -0.85569791430E+02  0.14927766540E+03  0.25826696696E+03  0.00000000000E+00 0. -1.
        -11    1    3    3    0    0  0.39515337813E+02  0.33029257282E+02 -0.15752703242E+03  0.16573219271E+03  0.00000000000E+00 0. -1.
         11    1    3    3    0    0 -0.47371803942E+02  0.15363772939E+02 -0.12366111632E+03  0.13331243384E+03  0.00000000000E+00 0.  1.
         -2    1    1    2    0  502  0.29311414667E+03  0.13731891571E+03  0.46268709536E+02  0.32697581114E+03  0.00000000000E+00 0.  1.
<scales pt_clust_5="13000.00000" pt_clust_6="13000.00000" pt_clust_7="13000.00000" pt_clust_8="13000.00000" pt_clust_9="332.81353"></scales>
<clustering>
<clus scale="   74.435">  5  6 -1 -1</clus>
<clus scale="   89.204">  7  8 -1 -1</clus>
<clus scale="  101.789">  2  7  1 -1</clus>
<clus scale="  332.814">  1  9  2 -1</clus>
<clus scale="  332.814">  1  5  2 -1</clus>
</clustering>
</event>
<event>
 9    2  0.1325014E-004  0.4616791E+03  0.7546771E-02  0.1024417E+00
          2   -1    0    0  502    0 -0.00000000000E+00  0.00000000000E+00  0.73986574325E+03  0.73986574325E+03  0.00000000000E+00 0. -1.
         21   -1    0    0  501  502  0.00000000000E+00 -0.00000000000E+00 -0.49213590279E+03  0.49213590279E+03  0.00000000000E+00 0. -1.
         23    2    1    2    0    0  0.18987937729E+03  0.33388199120E+03  0.95676255650E+02  0.40595995162E+03  0.90100912592E+02 0.  0.
         24    2    1    2    0    0 -0.33582517395E+03 -0.47236222170E+03  0.20326600107E+02  0.58556519183E+03  0.81048178643E+02 0.  0.
        -11    1    4    4    0    0 -0.11615592538E+03 -0.15622222604E+03 -0.31229110792E+02  0.19716196456E+03  0.00000000000E+00 0.  1.
         12    1    4    4    0    0 -0.21966924857E+03 -0.31613999566E+03  0.51555710899E+02  0.38840322727E+03  0.00000000000E+00 0. -1.
        -13    1    3    3    0    0  0.95504719812E+02  0.22548797111E+03  0.26049659572E+02  0.24626116499E+03  0.00000000000E+00 0. -1.
         13    1    3    3    0    0  0.94374657478E+02  0.10839402010E+03  0.69626596078E+02  0.15969878662E+03  0.00000000000E+00 0.  1.
          1    1    1    2  501    0  0.14594579666E+03  0.13848023050E+03  0.13172698471E+03  0.24047650260E+03  0.00000000000E+00 0. -1.
<scales pt_clust_5="13000.00000" pt_clust_6="13000.00000" pt_clust_7="13000.00000" pt_clust_8="13000.00000" pt_clust_9="201.18894"></scales>
<clustering>
<clus scale="   81.048">  5  6 -1 -1</clus>
<clus scale="   90.101">  7  8 -1 -1</clus>
<clus scale="  201.189">  2  9  1 -1</clus>
<clus scale="  459.998">  2  5  1 -1</clus>
<clus scale="  201.189">  2  5  1 -1</clus>
</clustering>
</event>
<event>
 9    2  0.1325014E-004  0.1076022E+03  0.7546771E-02  0.1275749E+00
         21   -1    0    0  501  502  0.00000000000E+00  0.00000000000E+00  0.11793553308E+03  0.11793553308E+03  0.00000000000E+00 0. -1.
          2   -1    0    0  502    0 -0.00000000000E+00 -0.00000000000E+00 -0.44789023663E+03  0.44789023663E+03  0.00000000000E+00 0. -1.
         23    2    1    2    0    0 -0.30622609487E+02  0.27858795507E+02 -0.37893093053E+03  0.39450155671E+03  0.10163154746E+03 0.  0.
         24    2    1    2    0    0  0.26901383145E+02  0.31703509797E+02 -0.56503977246E+01  0.90419430287E+02  0.80093379441E+02 0.  0.
        -11    1    4    4    0    0 -0.24536045392E+02  0.29471726308E+02 -0.66666916442E+01  0.38923578362E+02  0.00000000000E+00 0.  1.
         12    1    4    4    0    0  0.51437428538E+02  0.22317834899E+01  0.10162939196E+01  0.51495851925E+02  0.00000000000E+00 0. -1.
        -13    1    3    3    0    0  0.31093113874E+02  0.25801879788E+02 -0.22584488445E+03  0.22943066613E+03  0.00000000000E+00 0.  1.
         13    1    3    3    0    0 -0.61715723362E+02  0.20569157195E+01 -0.15308604608E+03  0.16507089058E+03  0.00000000000E+00 0. -1.
          1    1    1    2  501    0  0.37212263422E+01 -0.59562305305E+02  0.54626624703E+02  0.80904782708E+02  0.00000000000E+00 0. -1.
<scales pt_clust_5="13000.00000" pt_clust_6="13000.00000" pt_clust_7="13000.00000" pt_clust_8="13000.00000" pt_clust_9="59.67844"></scales>
<clustering>
<clus scale="   59.678">  1  9  2 -1</clus>
<clus scale="   80.093">  5  6 -1 -1</clus>
<clus scale="   87.546">  1  5  2 -1</clus>
<clus scale="  101.632">  7  8 -1 -1</clus>
<clus scale="   59.678">  1  5  2 -1</clus>
</clustering>
</event>
<event>
 9    2  0.1325014E-004  0.1171280E+03  0.7546771E-02  0.1253558E+00
         21   -1    0    0  501  502  0.00000000000E+00  0.00000000000E+00  0.58144854205E+02  0.58144854205E+02  0.00000000000E+00 0.  1.
          2   -1    0    0  502    0 -0.00000000000E+00 -0.00000000000E+00 -0.30800524573E+03  0.30800524573E+03  0.00000000000E+00 0. -1.
         24    2    1    2    0    0 -0.43076991572E+02 -0.66603072378E+02 -0.15559646133E+03  0.19000343572E+03  0.74829475166E+02 0.  0.
         23    2    1    2    0    0  0.57349916139E+02  0.34710307099E+02 -0.77747702874E+02  0.13749888785E+03  0.91473605804E+02 0.  0.
        -11    1    3    3    0    0 -0.17464166779E+02 -0.28260493845E+02 -0.63844425606E+01  0.33829184744E+02  0.00000000000E+00 0.  1.
         12    1    3    3    0    0 -0.25612824793E+02 -0.38342578533E+02 -0.14921201877E+03  0.15617425098E+03  0.00000000000E+00 0. -1.
        -11    1    4    4    0    0  0.15898240352E+02 -0.31007114998E+02 -0.16455170175E+02  0.38535280618E+02  0.00000000000E+00 0.  1.
         11    1    4    4    0    0  0.41451675787E+02  0.65717422096E+02 -0.61292532698E+02  0.98963607236E+02  0.00000000000E+00 0. -1.
          1    1    1    2  501    0 -0.14272924568E+02  0.31892765279E+02 -0.16516227323E+02  0.38647776363E+02  0.00000000000E+00 0. -1.
<scales pt_clust_5="13000.00000" pt_clust_6="13000.00000" pt_clust_7="13000.00000" pt_clust_8="13000.00000" pt_clust_9="34.94088"></scales>
<clustering>
<clus scale="   34.941">  1  9  2 -1</clus>
<clus scale="   74.829">  5  6 -1 -1</clus>
<clus scale="   91.474">  7  8 -1 -1</clus>
<clus scale="  104.647">  2  5  1 -1</clus>
<clus scale="   34.941">  1  5  2 -1</clus>
</clustering>
</event>
<event>
 9    2  0.1325014E-004  0.9801742E+02  0.7546771E-02  0.1289364E+00
         21   -1    0    0  501  502  0.00000000000E+00  0.00000000000E+00  0.30832450296E+03  0.30832450296E+03  0.00000000000E+00 0. -1.
          2   -1    0    0  502    0 -0.00000000000E+00 -0.00000000000E+00 -0.60138909100E+02  0.60138909100E+02  0.00000000000E+00 0. -1.
         24    2    1    2    0    0 -0.51090677278E+02  0.50158018636E+01  0.25339122436E+02  0.98469247247E+02  0.80116826912E+02 0.  0.
         23    2    1    2    0    0  0.39260829684E+01  0.13606790663E+02  0.18723104965E+03  0.20802838251E+03  0.89553241676E+02 0.  0.
        -11    1    3    3    0    0  0.19016436239E+02  0.81388931586E+01 -0.61092719659E+01  0.21568255215E+02  0.00000000000E+00 0.  1.
         12    1    3    3    0    0 -0.70107113518E+02 -0.31230912949E+01  0.31448394402E+02  0.76900992032E+02  0.00000000000E+00 0. -1.
        -11    1    4    4    0    0 -0.25268739250E+02  0.31611219767E+02  0.15756432595E+03  0.16267850260E+03  0.00000000000E+00 0. -1.
         11    1    4    4    0    0  0.29194822219E+02 -0.18004429104E+02  0.29666723706E+02  0.45349879902E+02  0.00000000000E+00 0.  1.
          1    1    1    2  501    0  0.47164594310E+02 -0.18622592527E+02  0.35615421772E+02  0.61965782306E+02  0.00000000000E+00 0. -1.
<scales pt_clust_5="13000.00000" pt_clust_6="13000.00000" pt_clust_7="13000.00000" pt_clust_8="13000.00000" pt_clust_9="50.70801"></scales>
<clustering>
<clus scale="   50.708">  1  9  2 -1</clus>
<clus scale="   80.117">  5  6 -1 -1</clus>
<clus scale="   89.478">  2  5  1 -1</clus>
<clus scale="   89.553">  7  8 -1 -1</clus>
<clus scale="   50.708">  1  5  2 -1</clus>
</clustering>
</event>
<event>
 9    2  0.1325014E-004  0.1144254E+03  0.7546771E-02  0.1257164E+00
         21   -1    0    0  501  502  0.00000000000E+00  0.00000000000E+00  0.11184865615E+03  0.11184865615E+03  0.00000000000E+00 0.  1.
         -1   -1    0    0    0  501 -0.00000000000E+00 -0.00000000000E+00 -0.25118601107E+03  0.25118601107E+03  0.00000000000E+00 0.  1.
         24    2    1    2    0    0 -0.46553879747E+01  0.64983906791E+02 -0.15836355666E+03  0.18924611489E+03  0.80563609285E+02 0.  0.
         23    2    1    2    0    0 -0.30095598860E+02 -0.71551324267E+02 -0.18072435478E+02  0.12253359217E+03  0.93072720012E+02 0.  0.
        -13    1    3    3    0    0  0.23454230587E+02  0.20005141789E+02 -0.11971081916E+03  0.12361628879E+03  0.00000000000E+00 0.  1.
         14    1    3    3    0    0 -0.28109618562E+02  0.44978765003E+02 -0.38652737506E+02  0.65629826097E+02  0.00000000000E+00 0. -1.
        -13    1    4    4    0    0 -0.49660934682E+02 -0.40804139563E+02 -0.43925922042E+02  0.77850323482E+02  0.00000000000E+00 0.  1.
         13    1    4    4    0    0  0.19565335822E+02 -0.30747184704E+02  0.25853486564E+02  0.44683268687E+02  0.00000000000E+00 0. -1.
         -2    1    1    2    0  502  0.34750986835E+02  0.65674174759E+01  0.37098637215E+02  0.51254960165E+02  0.00000000000E+00 0.  1.
<scales pt_clust_5="13000.00000" pt_clust_6="13000.00000" pt_clust_7="13000.00000" pt_clust_8="13000.00000" pt_clust_9="35.36611"></scales>
<clustering>
<clus scale="   35.366">  1  9  2 -1</clus>
<clus scale="   80.564">  5  6 -1 -1</clus>
<clus scale="   93.073">  7  8 -1 -1</clus>
<clus scale="  104.504">  2  5  1 -1</clus>
<clus scale="   35.366">  1  5  2 -1</clus>
</clustering>
</event>
<event>
 9    2  0.1325014E-004  0.1927721E+03  0.7546771E-02  0.1157121E+00
         -1   -1    0    0    0  501 -0.00000000000E+00  0.00000000000E+00  0.64634391681E+02  0.64634391681E+02  0.00000000000E+00 0.  1.
         21   -1    0    0  501  502  0.00000000000E+00 -0.00000000000E+00 -0.16368320820E+04  0.16368320820E+04  0.00000000000E+00 0.  1.
         24    2    1    2    0    0 -0.55831339725E+02  0.15475538496E+03 -0.22496729524E+03  0.28976302205E+03  0.79284029607E+02 0.  0.
         23    2    1    2    0    0 -0.10075917500E+03 -0.21475549923E+03 -0.79456996438E+03  0.83416197721E+03  0.90622514507E+02 0.  0.
        -11    1    3    3    0    0 -0.71188818413E+02  0.10747631818E+03 -0.18737385494E+03  0.22743783404E+03  0.00000000000E+00 0.  1.
         12    1    3    3    0    0  0.15357478687E+02  0.47279066780E+02 -0.37593440298E+02  0.62325188012E+02  0.00000000000E+00 0. -1.
        -11    1    4    4    0    0 -0.40758112072E+02 -0.98831818210E+02 -0.21547212114E+03  0.24053520944E+03  0.00000000000E+00 0. -1.
         11    1    4    4    0    0 -0.60001062927E+02 -0.11592368102E+03 -0.57909784324E+03  0.59362676778E+03  0.00000000000E+00 0.  1.
         -2    1    1    2    0  502  0.15659051472E+03  0.60000114273E+02 -0.55266043075E+03  0.57754147447E+03  0.00000000000E+00 0.  1.
<scales pt_clust_5="13000.00000" pt_clust_6="13000.00000" pt_clust_7="13000.00000" pt_clust_8="13000.00000" pt_clust_9="167.69199"></scales>
<clustering>
<clus scale="   79.284">  5  6 -1 -1</clus>
<clus scale="   90.623">  7  8 -1 -1</clus>
<clus scale="  167.692">  2  9  1 -1</clus>
<clus scale="  187.709">  1  5  2 -1</clus>
<clus scale="  167.692">  2  5  1 -1</clus>
</clustering>
</event>
<event>
 9    2  0.1325014E-004  0.9201219E+02  0.7546771E-02  0.1304646E+00
          2   -1    0    0  502    0 -0.00000000000E+00  0.00000000000E+00  0.11596076889E+03  0.11596076889E+03  0.00000000000E+00 0. -1.
         21   -1    0    0  501  502  0.00000000000E+00 -0.00000000000E+00 -0.17765860150E+03  0.17765860150E+03  0.00000000000E+00 0.  1.
         23    2    1    2    0    0 -0.15612981808E+02 -0.22072522772E+02  0.78139129308E+01  0.95074677091E+02  0.90813961076E+02 0.  0.
         24    2    1    2    0    0 -0.44903426584E+02 -0.38429211472E+01 -0.90931361799E+02  0.12931575513E+03  0.80143410240E+02 0.  0.
        -13    1    4    4    0    0 -0.55747521966E+02  0.24240569704E+02 -0.51272819841E+02  0.79525426621E+02  0.00000000000E+00 0.  1.
         14    1    4    4    0    0  0.10844095381E+02 -0.28083490851E+02 -0.39658541958E+02  0.49790328511E+02  0.00000000000E+00 0. -1.
        -11    1    3    3    0    0 -0.52884565405E+02 -0.14372245891E+02  0.13886095670E+02  0.56534612080E+02  0.00000000000E+00 0. -1.
         11    1    3    3    0    0  0.37271583597E+02 -0.77002768807E+01 -0.60721827397E+01  0.38540065011E+02  0.00000000000E+00 0.  1.
          1    1    1    2  501    0  0.60516408393E+02  0.25915443919E+02  0.21419616260E+02  0.69228938162E+02  0.00000000000E+00 0. -1.
<scales pt_clust_5="13000.00000" pt_clust_6="13000.00000" pt_clust_7="13000.00000" pt_clust_8="13000.00000" pt_clust_9="65.83199"></scales>
<clustering>
<clus scale="   65.832">  2  9  1 -1</clus>
<clus scale="   80.143">  5  6 -1 -1</clus>
<clus scale="   81.499">  2  5  1 -1</clus>
<clus scale="   90.814">  7  8 -1 -1</clus>
<clus scale="   65.832">  2  5  1 -1</clus>
</clustering>
</event>
<event>
 9    2  0.1325014E-004  0.2217666E+03  0.7546771E-02  0.1132573E+00
         21   -1    0    0  501  502  0.00000000000E+00  0.00000000000E+00  0.39100399155E+02  0.39100399155E+02  0.00000000000E+00 0.  1.
          2   -1    0    0  502    0 -0.00000000000E+00 -0.00000000000E+00 -0.95056403048E+03  0.95056403048E+03  0.00000000000E+00 0. -1.
         24    2    1    2    0    0  0.29793134072E+02  0.74628785521E+02 -0.31473620118E+03  0.33410865987E+03  0.78183334520E+02 0.  0.
         23    2    1    2    0    0 -0.13476147718E+02  0.71158362511E+02 -0.36877917941E+03  0.38448282463E+03  0.81140866127E+02 0.  0.
        -11    1    3    3    0    0  0.16395167669E+01  0.51215797906E+02 -0.70567651968E+02  0.87209744150E+02  0.00000000000E+00 0.  1.
         12    1    3    3    0    0  0.28153617305E+02  0.23412987615E+02 -0.24416854922E+03  0.24689891572E+03  0.00000000000E+00 0. -1.
        -11    1    4    4    0    0 -0.37822237287E+02  0.11674071424E+02 -0.88829881894E+02  0.97249953698E+02  0.00000000000E+00 0. -1.
         11    1    4    4    0    0  0.24346089569E+02  0.59484291087E+02 -0.27994929752E+03  0.28723287094E+03  0.00000000000E+00 0.  1.
          1    1    1    2  501    0 -0.16316986354E+02 -0.14578714803E+03 -0.22794825073E+03  0.27107294514E+03  0.00000000000E+00 0. -1.
<scales pt_clust_5="13000.00000" pt_clust_6="13000.00000" pt_clust_7="13000.00000" pt_clust_8="13000.00000" pt_clust_9="146.69743"></scales>
<clustering>
<clus scale="   78.183">  5  6 -1 -1</clus>
<clus scale="   81.141">  7  8 -1 -1</clus>
<clus scale="   92.893">  5  7 -1 -1</clus>
<clus scale="  146.697">  1  9  2 -1</clus>
<clus scale="  146.697">  1  5  2 -1</clus>
</clustering>
</event>
<event>
 9    2  0.1325014E-004  0.1031698E+03  0.7546771E-02  0.1279818E+00
          2   -1    0    0  502    0 -0.00000000000E+00  0.00000000000E+00  0.76316862760E+03  0.76316862760E+03  0.00000000000E+00 0. -1.
         21   -1    0    0  501  502  0.00000000000E+00 -0.00000000000E+00 -0.44022822666E+02  0.44022822666E+02  0.00000000000E+00 0. -1.
         24    2    1    2    0    0 -0.11597977657E+02 -0.46396491314E+02  0.37836650568E+03  0.38951389473E+03  0.79200467664E+02 0.  0.
         23    2    1    2    0    0  0.63862042197E+02  0.19101698294E+02  0.55694430358E+02  0.12655915927E+03  0.92044097645E+02 0.  0.
        -11    1    3    3    0    0  0.93483680170E+01 -0.23102439710E+02  0.26962701024E+02  0.36716507890E+02  0.00000000000E+00 0.  1.
         12    1    3    3    0    0 -0.20946345674E+02 -0.23294051605E+02  0.35140380465E+03  0.35279738684E+03  0.00000000000E+00 0. -1.
        -13    1    4    4    0    0  0.64075665465E+02  0.41397172722E+02  0.67026775044E+02  0.10154804472E+03  0.00000000000E+00 0.  1.
         13    1    4    4    0    0 -0.21362326789E+00 -0.22295474428E+02 -0.11332344686E+02  0.25011114549E+02  0.00000000000E+00 0. -1.
          1    1    1    2  501    0 -0.52264064540E+02  0.27294793021E+02  0.28508486890E+03  0.29111839626E+03  0.00000000000E+00 0. -1.
<scales pt_clust_5="13000.00000" pt_clust_6="13000.00000" pt_clust_7="13000.00000" pt_clust_8="13000.00000" pt_clust_9="58.96221"></scales>
<clustering>
<clus scale="   58.962">  2  9  1 -1</clus>
<clus scale="   79.200">  5  6 -1 -1</clus>
<clus scale="   91.895">  1  5  2 -1</clus>
<clus scale="   92.044">  7  8 -1 -1</clus>
<clus scale="   58.962">  2  5  1 -1</clus>
</clustering>
</event>
<event>
 9    2  0.1325014E-004  0.1071038E+03  0.7546771E-02  0.1269417E+00
         -3   -1    0    0    0  501 -0.00000000000E+00  0.00000000000E+00  0.62635123783E+02  0.62635123783E+02  0.00000000000E+00 0.  1.
         21   -1    0    0  501  502  0.00000000000E+00 -0.00000000000E+00 -0.53303895864E+03  0.53303895864E+03  0.00000000000E+00 0.  1.
         24    2    1    2    0    0 -0.91792581194E+00 -0.58535229387E+02 -0.36426279428E+02  0.10628634147E+03  0.80886938887E+02 0.  0.
         23    2    1    2    0    0  0.90466622364E+02  0.47197038903E+02 -0.27461000749E+03  0.30623332808E+03  0.89198793566E+02 0.  0.
        -13    1    3    3    0    0  0.29231127289E+01 -0.76829376864E+02 -0.40869556373E+02  0.87072489200E+02  0.00000000000E+00 0.  1.
         14    1    3    3    0    0 -0.38410385408E+01  0.18294147477E+02  0.44432769446E+01  0.19213852268E+02  0.00000000000E+00 0. -1.
        -11    1    4    4    0    0  0.90991548101E+02  0.21638373438E+02 -0.13457759323E+03  0.16388657551E+03  0.00000000000E+00 0. -1.
         11    1    4    4    0    0 -0.52492573669E+00  0.25558665466E+02 -0.14003241425E+03  0.14234675257E+03  0.00000000000E+00 0.  1.
         -4    1    1    2    0  502 -0.89548696552E+02  0.11338190484E+02 -0.15936754795E+03  0.18315441288E+03  0.00000000000E+00 0.  1.
<scales pt_clust_5="13000.00000" pt_clust_6="13000.00000" pt_clust_7="13000.00000" pt_clust_8="13000.00000" pt_clust_9="90.26363"></scales>
<clustering>
<clus scale="   80.887">  5  6 -1 -1</clus>
<clus scale="   89.199">  7  8 -1 -1</clus>
<clus scale="   90.264">  2  9  1 -1</clus>
<clus scale="  100.287">  1  5  2 -1</clus>
<clus scale="   90.264">  2  5  1 -1</clus>
</clustering>
</event>
<event>
 9    2  0.1325014E-004  0.9526461E+02  0.7546771E-02  0.1297040E+00
          2   -1    0    0  502    0 -0.00000000000E+00  0.00000000000E+00  0.41915727079E+03  0.41915727079E+03  0.00000000000E+00 0. -1.
         21   -1    0    0  501  502  0.00000000000E+00 -0.00000000000E+00 -0.25468634465E+03  0.25468634465E+03  0.00000000000E+00 0. -1.
         24    2    1    2    0    0 -0.97786162979E+01  0.41408655703E+02  0.30486304783E+03  0.31759335646E+03  0.78190562295E+02 0.  0.
         23    2    1    2    0    0 -0.36412535364E+02  0.16694732761E+01  0.80848893918E+02  0.12616998020E+03  0.89742188426E+02 0.  0.
        -13    1    3    3    0    0 -0.37342922578E+02 -0.22046028606E+01  0.12521107779E+03  0.13067963936E+03  0.00000000000E+00 0.  1.
         14    1    3    3    0    0  0.27564306280E+02  0.43613258564E+02  0.17965197004E+03  0.18691371711E+03  0.00000000000E+00 0. -1.
        -13    1    4    4    0    0 -0.25883802210E+02 -0.16451953600E+02 -0.10523346052E+02  0.32424971955E+02  0.00000000000E+00 0.  1.
         13    1    4    4    0    0 -0.10528733154E+02  0.18121426876E+02  0.91372239971E+02  0.93745008246E+02  0.00000000000E+00 0. -1.
          1    1    1    2  501    0  0.46191151662E+02 -0.43078128979E+02 -0.22124101562E+03  0.23008027877E+03  0.00000000000E+00 0. -1.
<scales pt_clust_5="13000.00000" pt_clust_6="13000.00000" pt_clust_7="13000.00000" pt_clust_8="13000.00000" pt_clust_9="63.16128"></scales>
<clustering>
<clus scale="   63.161">  2  9  1 -1</clus>
<clus scale="   78.191">  5  6 -1 -1</clus>
<clus scale="   84.472">  1  5  2 -1</clus>
<clus scale="   89.742">  7  8 -1 -1</clus>
<clus scale="   63.161">  2  5  1 -1</clus>
</clustering>
</event>
<event>
 9    2  0.1325014E-004  0.1989498E+03  0.7546771E-02  0.1175021E+00
         21   -1    0    0  501  502  0.00000000000E+00  0.00000000000E+00  0.23074815616E+03  0.23074815616E+03  0.00000000000E+00 0.  1.
         -1   -1    0    0    0  501 -0.00000000000E+00 -0.00000000000E+00 -0.42259055060E+03  0.42259055060E+03  0.00000000000E+00 0.  1.
         23    2    1    2    0    0 -0.32599544506E+02  0.57889032138E+02 -0.22116396649E+03  0.24838975083E+03  0.91488239123E+02 0.  0.
         24    2    1    2    0    0  0.96665998954E+02  0.12846300351E+03 -0.59966927142E+02  0.18860657021E+03  0.78290148489E+02 0.  0.
        -11    1    4    4    0    0  0.67892650412E+02  0.13312377716E+03 -0.46555410636E+02  0.15652079186E+03  0.00000000000E+00 0.  1.
         12    1    4    4    0    0  0.28773348541E+02 -0.46607736481E+01 -0.13411516506E+02  0.32085778349E+02  0.00000000000E+00 0. -1.
        -13    1    3    3    0    0  0.14412741642E+02  0.50549092569E+02 -0.57300816084E+02  0.77758095431E+02  0.00000000000E+00 0. -1.
         13    1    3    3    0    0 -0.47012286148E+02  0.73399395691E+01 -0.16386315041E+03  0.17063165539E+03  0.00000000000E+00 0.  1.
         -2    1    1    2    0  502 -0.64066454448E+02 -0.18635203565E+03  0.89288499189E+02  0.21634238573E+03  0.00000000000E+00 0.  1.
<scales pt_clust_5="13000.00000" pt_clust_6="13000.00000" pt_clust_7="13000.00000" pt_clust_8="13000.00000" pt_clust_9="182.89797"></scales>
<clustering>
<clus scale="   78.290">  5  6 -1 -1</clus>
<clus scale="   91.488">  7  8 -1 -1</clus>
<clus scale="  113.066">  2  7  1 -1</clus>
<clus scale="  182.898">  1  9  2 -1</clus>
<clus scale="  182.898">  1  5  2 -1</clus>
</clustering>
</event>
<event>
 9    2  0.1325014E-004  0.1421222E+03  0.7546771E-02  0.1227117E+00
          2   -1    0    0  502    0 -0.00000000000E+00  0.00000000000E+00  0.12735750870E+03  0.12735750870E+03  0.00000000000E+00 0. -1.
         21   -1    0    0  501  502  0.00000000000E+00 -0.00000000000E+00 -0.28735793132E+03  0.28735793132E+03  0.00000000000E+00 0.  1.
         23    2    1    2    0    0 -0.36284546963E+02 -0.19296923967E+02 -0.36865664589E+01  0.10026080717E+03  0.91376687728E+02 0.  0.
         24    2    1    2    0    0  0.48069265315E+02  0.12024411199E+03 -0.14805504751E+03  0.21248688168E+03  0.80380825171E+02 0.  0.
        -11    1    4    4    0    0  0.37461315888E+02  0.12851484597E+03 -0.14726351078E+03  0.19901245546E+03  0.00000000000E+00 0.  1.
         12    1    4    4    0    0  0.10607949427E+02 -0.82707339756E+01 -0.79153673679E+00  0.13474426220E+02  0.00000000000E+00 0. -1.
        -13    1    3    3    0    0  0.12987527288E+01  0.29794093724E+02  0.17891561064E+02  0.34777618331E+02  0.00000000000E+00 0.  1.
         13    1    3    3    0    0 -0.37583299692E+02 -0.49091017691E+02 -0.21578127523E+02  0.65483188843E+02  0.00000000000E+00 0. -1.
          1    1    1    2  501    0 -0.11784718352E+02 -0.10094718802E+03 -0.82588086516E+01  0.10196775116E+03  0.00000000000E+00 0. -1.
<scales pt_clust_5="13000.00000" pt_clust_6="13000.00000" pt_clust_7="13000.00000" pt_clust_8="13000.00000" pt_clust_9="117.20770"></scales>
<clustering>
<clus scale="   80.381">  5  6 -1 -1</clus>
<clus scale="   91.377">  7  8 -1 -1</clus>
<clus scale="  100.193">  1  7  2 -1</clus>
<clus scale="  117.208">  2  9  1 -1</clus>
<clus scale="  117.208">  2  5  1 -1</clus>
</clustering>
</event>
<event>
 9    2  0.1325014E-004  0.2164672E+03  0.7546771E-02  0.1136777E+00
         21   -1    0    0  501  502  0.00000000000E+00  0.00000000000E+00  0.86252513182E+03  0.86252513182E+03  0.00000000000E+00 0.  1.
         -3   -1    0    0    0  501 -0.00000000000E+00 -0.00000000000E+00 -0.14666086931E+03  0.14666086931E+03  0.00000000000E+00 0.  1.
         24    2    1    2    0    0  0.12797887745E+03 -0.10273037853E+03  0.28650036093E+03  0.34079891078E+03  0.84435283078E+02 0.  0.
         23    2    1    2    0    0 -0.12206536818E+03  0.23641489281E+03  0.45386927140E+03  0.53234653721E+03  0.81262319138E+02 0.  0.
        -13    1    3    3    0    0  0.62978458977E+02 -0.99353690614E+02  0.16064070543E+03  0.19910519424E+03  0.00000000000E+00 0.  1.
         14    1    3    3    0    0  0.65000418474E+02 -0.33766879193E+01  0.12585965551E+03  0.14169371654E+03  0.00000000000E+00 0. -1.
        -13    1    4    4    0    0 -0.61468335573E+02  0.17935803995E+03  0.26393356793E+03  0.32497475449E+03  0.00000000000E+00 0.  1.
         13    1    4    4    0    0 -0.60597032604E+02  0.57056852856E+02  0.18993570347E+03  0.20737178272E+03  0.00000000000E+00 0. -1.
         -4    1    1    2    0  502 -0.59135092741E+01 -0.13368451428E+03 -0.24505369824E+02  0.13604055314E+03  0.00000000000E+00 0.  1.
<scales pt_clust_5="13000.00000" pt_clust_6="13000.00000" pt_clust_7="13000.00000" pt_clust_8="13000.00000" pt_clust_9="133.81531"></scales>
<clustering>
<clus scale="   81.262">  7  8 -1 -1</clus>
<clus scale="   84.435">  5  6 -1 -1</clus>
<clus scale="  133.815">  1  9  2 -1</clus>
<clus scale="  215.249">  1  7  2 -1</clus>
<clus scale="  133.815">  1  5  2 -1</clus>
</clustering>
</event>
<event>
 9    2  0.1325014E-004  0.9237654E+02  0.7546771E-02  0.1304426E+00
         21   -1    0    0  501  502  0.00000000000E+00  0.00000000000E+00  0.14528435868E+03  0.14528435868E+03  0.00000000000E+00 0.  1.
         -3   -1    0    0    0  501 -0.00000000000E+00 -0.00000000000E+00 -0.11976622318E+03  0.11976622318E+03  0.00000000000E+00 0.  1.
         24    2    1    2    0    0  0.10601363993E+01  0.80980196878E+01 -0.47718327353E+02  0.93391232763E+02  0.79863519704E+02 0.  0.
         23    2    1    2    0    0 -0.48467098400E+02  0.91871259527E+01  0.40799135725E+02  0.11167287982E+03  0.91503003777E+02 0.  0.
        -11    1    3    3    0    0 -0.26583714229E+02  0.28409614445E+02 -0.44234829051E+02  0.58911120820E+02  0.00000000000E+00 0.  1.
         12    1    3    3    0    0  0.27643850629E+02 -0.20311594757E+02 -0.34834983023E+01  0.34480111943E+02  0.00000000000E+00 0. -1.
        -11    1    4    4    0    0 -0.50441732222E+02  0.41040830715E+02  0.73529792916E+01  0.65442986177E+02  0.00000000000E+00 0.  1.
         11    1    4    4    0    0  0.19746338219E+01 -0.31853704762E+02  0.33446156433E+02  0.46229893640E+02  0.00000000000E+00 0. -1.
         -4    1    1    2    0  502  0.47406962001E+02 -0.17285145640E+02  0.32437327126E+02  0.59986469283E+02  0.00000000000E+00 0.  1.
<scales pt_clust_5="13000.00000" pt_clust_6="13000.00000" pt_clust_7="13000.00000" pt_clust_8="13000.00000" pt_clust_9="50.45985"></scales>
<clustering>
<clus scale="   50.460">  1  9  2 -1</clus>
<clus scale="   79.864">  5  6 -1 -1</clus>
<clus scale="   80.863">  2  5  1 -1</clus>
<clus scale="   91.503">  7  8 -1 -1</clus>
<clus scale="   50.460">  1  5  2 -1</clus>
</clustering>
</event>
<event>
 9    2  0.1325014E-004  0.1299918E+03  0.7546771E-02  0.1231589E+00
         21   -1    0    0  501  502  0.00000000000E+00  0.00000000000E+00  0.60390003603E+02  0.60390003603E+02  0.00000000000E+00 0.  1.
         -3   -1    0    0    0  501 -0.00000000000E+00 -0.00000000000E+00 -0.84119955111E+03  0.84119955111E+03  0.00000000000E+00 0.  1.
         23    2    1    2    0    0 -0.83294497918E+02  0.60906352514E+01 -0.58463321313E+03  0.59764181834E+03  0.91677041352E+02 0.  0.
         24    2    1    2    0    0  0.12784171674E+03 -0.55002917582E+02 -0.17097737587E+03  0.23315329043E+03  0.75883913285E+02 0.  0.
        -11    1    4    4    0    0  0.11926892730E+03 -0.71902350860E+02 -0.15492140561E+03  0.20831626675E+03  0.00000000000E+00 0.  1.
         12    1    4    4    0    0  0.85727894400E+01  0.16899433278E+02 -0.16055970266E+02  0.24837023676E+02  0.00000000000E+00 0. -1.
        -11    1    3    3    0    0 -0.86784238192E+02 -0.25921613468E+02 -0.39133037530E+03  0.40167511333E+03  0.00000000000E+00 0.  1.
         11    1    3    3    0    0  0.34897402737E+01  0.32012248720E+02 -0.19330283784E+03  0.19596670501E+03  0.00000000000E+00 0. -1.
         -4    1    1    2    0  502 -0.44547218821E+02  0.48912282331E+02 -0.25198958507E+02  0.70794445949E+02  0.00000000000E+00 0.  1.
<scales pt_clust_5="13000.00000" pt_clust_6="13000.00000" pt_clust_7="13000.00000" pt_clust_8="13000.00000" pt_clust_9="66.15789"></scales>
<clustering>
<clus scale="   66.158">  1  9  2 -1</clus>
<clus scale="   75.884">  5  6 -1 -1</clus>
<clus scale="   91.677">  7  8 -1 -1</clus>
<clus scale="  119.380">  1  5  2 -1</clus>
<clus scale="   66.158">  1  5  2 -1</clus>
</clustering>
</event>
<event>
 9    2  0.1325014E-004  0.3583523E+03  0.7546771E-02  0.1059238E+00
          2   -1    0    0  502    0 -0.00000000000E+00  0.00000000000E+00  0.58942433928E+03  0.58942433928E+03  0.00000000000E+00 0. -1.
         21   -1    0    0  501  502  0.00000000000E+00 -0.00000000000E+00 -0.18060542764E+03  0.18060542764E+03  0.00000000000E+00 0.  1.
         24    2    1    2    0    0  0.11446576690E+03 -0.56822707412E+02  0.14975423605E+03  0.21366875420E+03  0.83046814724E+02 0.  0.
         23    2    1    2    0    0  0.68407301838E+02 -0.16861532107E+03  0.11768923059E+03  0.23348041497E+03  0.86900309175E+02 0.  0.
        -13    1    3    3    0    0  0.98096392940E+02 -0.11758796064E+02  0.71732539751E+02  0.12209311550E+03  0.00000000000E+00 0.  1.
         14    1    3    3    0    0  0.16369373958E+02 -0.45063911349E+02  0.78021696298E+02  0.91575638699E+02  0.00000000000E+00 0. -1.
        -11    1    4    4    0    0  0.30833963531E+02 -0.46960693360E+02 -0.53342495920E+01  0.56431323275E+02  0.00000000000E+00 0.  1.
         11    1    4    4    0    0  0.37573338308E+02 -0.12165462771E+03  0.12302348018E+03  0.17704909170E+03  0.00000000000E+00 0. -1.
          1    1    1    2  501    0 -0.18287306874E+03  0.22543802848E+03  0.14137544500E+03  0.32288059775E+03  0.00000000000E+00 0. -1.
<scales pt_clust_5="13000.00000" pt_clust_6="13000.00000" pt_clust_7="13000.00000" pt_clust_8="13000.00000" pt_clust_9="290.28411"></scales>
<clustering>
<clus scale="   83.047">  5  6 -1 -1</clus>
<clus scale="   86.900">  7  8 -1 -1</clus>
<clus scale="  134.235">  5  7 -1 -1</clus>
<clus scale="  290.284">  2  9  1 -1</clus>
<clus scale="  290.284">  2  5  1 -1</clus>
</clustering>
</event>
<event>
 9    2  0.2430604E-004  0.9872753E+02  0.7546771E-02  0.1288003E+00
         -3   -1    0    0    0  501 -0.00000000000E+00  0.00000000000E+00  0.27326921047E+03  0.27326921047E+03  0.00000000000E+00 0.  1.
         21   -1    0    0  501  502  0.00000000000E+00 -0.00000000000E+00 -0.10763363389E+03  0.10763363389E+03  0.00000000000E+00 0. -1.
         23    2    1    2    0    0  0.50397412263E+01  0.41261222929E+02  0.22060020228E+03  0.24209086195E+03  0.90640215594E+02 0.  0.
         24    2    1    2    0    0 -0.17036615036E+02 -0.16860925769E+02 -0.68305648512E+02  0.10852531253E+03  0.80855085009E+02 0.  0.
        -13    1    4    4    0    0  0.96436909766E+01 -0.36461861306E+02 -0.63045051500E+01  0.38238918535E+02  0.00000000000E+00 0.  1.
         14    1    4    4    0    0 -0.26680306013E+02  0.19600935537E+02 -0.62001143362E+02  0.70286393997E+02  0.00000000000E+00 0. -1.
        -11    1    3    3    0    0  0.47249340736E+02  0.15664482902E+02  0.97779377513E+02  0.10972093187E+03  0.00000000000E+00 0.  1.
         11    1    3    3    0    0 -0.42209599510E+02  0.25596740028E+02  0.12282082477E+03  0.13236993007E+03  0.00000000000E+00 0. -1.
         -4    1    1    2    0  502  0.11996873810E+02 -0.24400297160E+02  0.13341022807E+02  0.30286669877E+02  0.00000000000E+00 0.  1.
<scales pt_clust_5="13000.00000" pt_clust_6="13000.00000" pt_clust_7="13000.00000" pt_clust_8="13000.00000" pt_clust_9="27.19008"></scales>
<clustering>
<clus scale="   27.190">  2  9  1 -1</clus>
<clus scale="   80.855">  5  6 -1 -1</clus>
<clus scale="   89.828">  2  5  1 -1</clus>
<clus scale="   90.640">  7  8 -1 -1</clus>
<clus scale="   27.190">  2  5  1 -1</clus>
</clustering>
</event>
<event>
 9    2  0.1325014E-004  0.1647616E+03  0.7546771E-02  0.1204620E+00
          2   -1    0    0  502    0 -0.00000000000E+00  0.00000000000E+00  0.44256751017E+03  0.44256751017E+03  0.00000000000E+00 0. -1.
         21   -1    0    0  501  502  0.00000000000E+00 -0.00000000000E+00 -0.11711326534E+03  0.11711326534E+03  0.00000000000E+00 0.  1.
         23    2    1    2    0    0 -0.36390099699E+02 -0.35635289119E+02  0.13254105434E+03  0.16815086162E+03  0.90074791106E+02 0.  0.
         24    2    1    2    0    0 -0.63028304541E+02  0.13393425925E+03  0.21235703319E+02  0.17012560899E+03  0.81122221151E+02 0.  0.
        -11    1    4    4    0    0 -0.38564078423E+01  0.63702222254E+02 -0.23455360655E+02  0.67992638903E+02  0.00000000000E+00 0.  1.
         12    1    4    4    0    0 -0.59171896699E+02  0.70232036992E+02  0.44691063974E+02  0.10213297008E+03  0.00000000000E+00 0. -1.
        -13    1    3    3    0    0  0.30730944365E+01 -0.42493127089E+02  0.17011684877E+02  0.45874907973E+02  0.00000000000E+00 0. -1.
         13    1    3    3    0    0 -0.39463194136E+02  0.68578379695E+01  0.11552936946E+03  0.12227595365E+03  0.00000000000E+00 0.  1.
          1    1    1    2  501    0  0.99418404240E+02 -0.98298970127E+02  0.17167748717E+03  0.22140430490E+03  0.00000000000E+00 0. -1.
<scales pt_clust_5="13000.00000" pt_clust_6="13000.00000" pt_clust_7="13000.00000" pt_clust_8="13000.00000" pt_clust_9="143.40708"></scales>
<clustering>
<clus scale="   81.122">  5  6 -1 -1</clus>
<clus scale="   90.075">  7  8 -1 -1</clus>
<clus scale="  103.477">  1  7  2 -1</clus>
<clus scale="  143.407">  2  9  1 -1</clus>
<clus scale="  143.407">  2  5  1 -1</clus>
</clustering>
</event>
<event>
 9    2  0.1325014E-004  0.2079111E+03  0.7546771E-02  0.1144431E+00
          2   -1    0    0  502    0 -0.00000000000E+00  0.00000000000E+00  0.83931917325E+03  0.83931917325E+03  0.00000000000E+00 0. -1.
         21   -1    0    0  501  502  0.00000000000E+00 -0.00000000000E+00 -0.12634149821E+03  0.12634149821E+03  0.00000000000E+00 0. -1.
         24    2    1    2    0    0  0.63829006172E+02  0.14666293526E+03  0.16538323285E+03  0.24201537324E+03  0.75071090089E+02 0.  0.
         23    2    1    2    0    0  0.24774055280E+02 -0.25828898123E+03  0.17717653615E+03  0.32675702459E+03  0.89731134590E+02 0.  0.
        -11    1    3    3    0    0  0.12647727888E+02  0.43986468385E+02  0.67799803309E+01  0.46268159192E+02  0.00000000000E+00 0.  1.
         12    1    3    3    0    0  0.51181278283E+02  0.10267646688E+03  0.15860325252E+03  0.19574721405E+03  0.00000000000E+00 0. -1.
        -11    1    4    4    0    0 -0.13248222772E+02 -0.15028952209E+02  0.40420024423E+02  0.45112782949E+02  0.00000000000E+00 0.  1.
         11    1    4    4    0    0  0.38022278052E+02 -0.24326002902E+03  0.13675651173E+03  0.28164424164E+03  0.00000000000E+00 0. -1.
          1    1    1    2  501    0 -0.88603061452E+02  0.11162604597E+03  0.37041790604E+03  0.39688827364E+03  0.00000000000E+00 0. -1.
<scales pt_clust_5="13000.00000" pt_clust_6="13000.00000" pt_clust_7="13000.00000" pt_clust_8="13000.00000" pt_clust_9="142.51630"></scales>
<clustering>
<clus scale="   75.071">  5  6 -1 -1</clus>
<clus scale="   89.731">  7  8 -1 -1</clus>
<clus scale="  142.516">  2  9  1 -1</clus>
<clus scale="  202.017">  1  5  2 -1</clus>
<clus scale="  142.516">  2  5  1 -1</clus>
</clustering>
</event>
<event>
 9    2  0.1325014E-004  0.1258056E+03  0.7546771E-02  0.1236548E+00
          4   -1    0    0  502    0 -0.00000000000E+00  0.00000000000E+00  0.60961336127E+03  0.60961336127E+03  0.00000000000E+00 0. -1.
         21   -1    0    0  501  502  0.00000000000E+00 -0.00000000000E+00 -0.32739160166E+02  0.32739160166E+02  0.00000000000E+00 0. -1.
         23    2    1    2    0    0 -0.39927279785E+02  0.73778140542E+02  0.33287292669E+03  0.35443470624E+03  0.88216630901E+02 0.  0.
         24    2    1    2    0    0  0.31162662058E+02 -0.94411665996E+02  0.22675409272E+03  0.25963308128E+03  0.78148858899E+02 0.  0.
        -13    1    4    4    0    0 -0.55175276250E+01 -0.63203341798E+02  0.18606979108E+03  0.19658858735E+03  0.00000000000E+00 0.  1.
         14    1    4    4    0    0  0.36680189684E+02 -0.31208324198E+02  0.40684301640E+02  0.63044493926E+02  0.00000000000E+00 0. -1.
        -11    1    3    3    0    0 -0.65956090729E+02  0.37646239255E+02  0.18435951953E+03  0.19938876015E+03  0.00000000000E+00 0. -1.
         11    1    3    3    0    0  0.26028810944E+02  0.36131901288E+02  0.14851340716E+03  0.15504594608E+03  0.00000000000E+00 0.  1.
          3    1    1    2  501    0  0.87646177268E+01  0.20633525454E+02  0.17247181692E+02  0.28284733919E+02  0.00000000000E+00 0. -1.
<scales pt_clust_5="13000.00000" pt_clust_6="13000.00000" pt_clust_7="13000.00000" pt_clust_8="13000.00000" pt_clust_9="22.41787"></scales>
<clustering>
<clus scale="   22.418">  2  9  1 -1</clus>
<clus scale="   78.149">  5  6 -1 -1</clus>
<clus scale="   88.217">  7  8 -1 -1</clus>
<clus scale="  118.963">  2  5  1 -1</clus>
<clus scale="   22.418">  2  5  1 -1</clus>
</clustering>
</event>
<event>
 9    2  0.1325014E-004  0.1131898E+03  0.7546771E-02  0.1259520E+00
          2   -1    0    0  502    0 -0.00000000000E+00  0.00000000000E+00  0.56418332140E+03  0.56418332140E+03  0.00000000000E+00 0. -1.
         21   -1    0    0  501  502  0.00000000000E+00 -0.00000000000E+00 -0.55034445213E+02  0.55034445213E+02  0.00000000000E+00 0.  1.
         24    2    1    2    0    0  0.77320892552E+02  0.29956793881E+02  0.27915434195E+03  0.30211088593E+03  0.80423322739E+02 0.  0.
         23    2    1    2    0    0  0.39156232627E+01 -0.26432544149E+02  0.30212353209E+02  0.10141100290E+03  0.93045116621E+02 0.  0.
        -11    1    3    3    0    0  0.64413387105E+02 -0.11303741832E+02  0.21518079152E+03  0.22489915975E+03  0.00000000000E+00 0.  1.
         12    1    3    3    0    0  0.12907505447E+02  0.41260535713E+02  0.63973550436E+02  0.77211726179E+02  0.00000000000E+00 0. -1.
        -13    1    4    4    0    0 -0.32896498286E+02 -0.26124835395E+02 -0.13628654089E+02  0.44163637035E+02  0.00000000000E+00 0.  1.
         13    1    4    4    0    0  0.36812121549E+02 -0.30770875416E+00  0.43841007297E+02  0.57247365865E+02  0.00000000000E+00 0. -1.
          1    1    1    2  501    0 -0.81236515815E+02 -0.35242497318E+01  0.19978218103E+03  0.21569587778E+03  0.00000000000E+00 0. -1.
<scales pt_clust_5="13000.00000" pt_clust_6="13000.00000" pt_clust_7="13000.00000" pt_clust_8="13000.00000" pt_clust_9="81.31297"></scales>
<clustering>
<clus scale="   80.423">  5  6 -1 -1</clus>
<clus scale="   81.313">  2  9  1 -1</clus>
<clus scale="   93.045">  7  8 -1 -1</clus>
<clus scale="  103.065">  1  5  2 -1</clus>
<clus scale="   81.313">  2  5  1 -1</clus>
</clustering>
</event>
<event>
 9    2  0.1325014E-004  0.1000626E+03  0.7546771E-02  0.1285960E+00
          2   -1    0    0  502    0 -0.00000000000E+00  0.00000000000E+00  0.50669252934E+03  0.50669252934E+03  0.00000000000E+00 0. -1.
         21   -1    0    0  501  502  0.00000000000E+00 -0.00000000000E+00 -0.16221640159E+03  0.16221640159E+03  0.00000000000E+00 0. -1.
         24    2    1    2    0    0 -0.30026040282E+02 -0.25527773112E+02  0.46369562576E+03  0.47237011136E+03  0.81034921246E+02 0.  0.
         23    2    1    2    0    0 -0.13442671513E+01  0.34691276730E+02 -0.32604662299E+02  0.10396346783E+03  0.92412374196E+02 0.  0.
        -11    1    3    3    0    0  0.25151891690E+02 -0.12513035251E+02  0.86754214389E+02  0.91189294443E+02  0.00000000000E+00 0.  1.
         12    1    3    3    0    0 -0.55177931972E+02 -0.13014737861E+02  0.37694141137E+03  0.38118081691E+03  0.00000000000E+00 0. -1.
        -11    1    4    4    0    0  0.34358608842E+02  0.46749847707E+02 -0.70792655338E+01  0.58448081771E+02  0.00000000000E+00 0.  1.
         11    1    4    4    0    0 -0.35702875994E+02 -0.12058570977E+02 -0.25525396765E+02  0.45515386060E+02  0.00000000000E+00 0. -1.
          1    1    1    2  501    0  0.31370307433E+02 -0.91635036182E+01 -0.86614835703E+02  0.92575351746E+02  0.00000000000E+00 0. -1.
<scales pt_clust_5="13000.00000" pt_clust_6="13000.00000" pt_clust_7="13000.00000" pt_clust_8="13000.00000" pt_clust_9="32.68128"></scales>
<clustering>
<clus scale="   32.681">  2  9  1 -1</clus>
<clus scale="   81.035">  5  6 -1 -1</clus>
<clus scale="   89.661">  1  5  2 -1</clus>
<clus scale="   92.412">  7  8 -1 -1</clus>
<clus scale="   32.681">  2  5  1 -1</clus>
</clustering>
</event>
<event>
 9    2  0.1325014E-004  0.9076984E+02  0.7546771E-02  0.1306227E+00
         21   -1    0    0  501  502  0.00000000000E+00  0.00000000000E+00  0.18439790050E+03  0.18439790050E+03  0.00000000000E+00 0.  1.
         -1   -1    0    0    0  501 -0.00000000000E+00 -0.00000000000E+00 -0.10696155900E+03  0.10696155900E+03  0.00000000000E+00 0.  1.
         24    2    1    2    0    0  0.27315115218E+01  0.21871860190E+01 -0.63310936531E+02  0.10401941710E+03  0.82459199075E+02 0.  0.
         23    2    1    2    0    0  0.11064136935E+02  0.21267898889E+02  0.91566187736E+02  0.13113292037E+03  0.90756473156E+02 0.  0.
        -11    1    3    3    0    0  0.32814463989E+02  0.23180421418E+02 -0.13969569221E+02  0.42535512789E+02  0.00000000000E+00 0.  1.
         12    1    3    3    0    0 -0.30082952467E+02 -0.20993235399E+02 -0.49341367311E+02  0.61483904314E+02  0.00000000000E+00 0. -1.
        -11    1    4    4    0    0  0.34417593531E+02  0.25409055322E+02  0.70573771743E+01  0.43358936903E+02  0.00000000000E+00 0.  1.
         11    1    4    4    0    0 -0.23353456596E+02 -0.41411564329E+01  0.84508810561E+02  0.87773983469E+02  0.00000000000E+00 0. -1.
         -2    1    1    2    0  502 -0.13795648457E+02 -0.23455084908E+02  0.49181090288E+02  0.56207122025E+02  0.00000000000E+00 0.  1.
<scales pt_clust_5="13000.00000" pt_clust_6="13000.00000" pt_clust_7="13000.00000" pt_clust_8="13000.00000" pt_clust_9="27.21141"></scales>
<clustering>
<clus scale="   27.211">  1  9  2 -1</clus>
<clus scale="   82.459">  5  6 -1 -1</clus>
<clus scale="   82.474">  2  5  1 -1</clus>
<clus scale="   90.756">  7  8 -1 -1</clus>
<clus scale="   27.211">  1  5  2 -1</clus>
</clustering>
</event>
<event>
 9    2  0.1325014E-004  0.3475131E+03  0.7546771E-02  0.1100297E+00
         21   -1    0    0  501  502  0.00000000000E+00  0.00000000000E+00  0.24325315635E+03  0.24325315635E+03  0.00000000000E+00 0. -1.
          2   -1    0    0  502    0 -0.00000000000E+00 -0.00000000000E+00 -0.83890317970E+03  0.83890317970E+03  0.00000000000E+00 0. -1.
         23    2    1    2    0    0  0.79327248417E+02  0.41137764194E+02 -0.38349226077E+00  0.12989850012E+03  0.94278021213E+02 0.  0.
         24    2    1    2    0    0 -0.38498104549E+03  0.43772163388E+02 -0.46146594365E+03  0.60796648160E+03  0.80907465203E+02 0.  0.
        -13    1    4    4    0    0 -0.84558105005E+02  0.25105925263E+02 -0.62113438285E+02  0.10788169363E+03  0.00000000000E+00 0.  1.
         14    1    4    4    0    0 -0.30042294049E+03  0.18666238125E+02 -0.39935250536E+03  0.50008478797E+03  0.00000000000E+00 0. -1.
        -13    1    3    3    0    0  0.37521557344E+02 -0.27363877836E+02 -0.13992534375E+02  0.48501959692E+02  0.00000000000E+00 0.  1.
         13    1    3    3    0    0  0.41805691073E+02  0.68501642030E+02  0.13609042115E+02  0.81396540431E+02  0.00000000000E+00 0. -1.
          1    1    1    2  501    0  0.30565379708E+03 -0.84909927582E+02 -0.13380058745E+03  0.34429135433E+03  0.00000000000E+00 0. -1.
<scales pt_clust_5="13000.00000" pt_clust_6="13000.00000" pt_clust_7="13000.00000" pt_clust_8="13000.00000" pt_clust_9="337.96352"></scales>
<clustering>
<clus scale="   80.907">  5  6 -1 -1</clus>
<clus scale="   94.278">  7  8 -1 -1</clus>
<clus scale="  129.898">  2  7  1 -1</clus>
<clus scale="  337.964">  1  9  2 -1</clus>
<clus scale="  337.964">  1  5  2 -1</clus>
</clustering>
</event>
<event>
 9    2  0.1325014E-004  0.1607157E+03  0.7546771E-02  0.1217258E+00
          2   -1    0    0  502    0 -0.00000000000E+00  0.00000000000E+00  0.11744082760E+03  0.11744082760E+03  0.00000000000E+00 0. -1.
         21   -1    0    0  501  502  0.00000000000E+00 -0.00000000000E+00 -0.59253049074E+03  0.59253049074E+03  0.00000000000E+00 0. -1.
         24    2    1    2    0    0  0.10365847965E+02 -0.26993712110E+02  0.56595715416E+02  0.10224987693E+03  0.80099007679E+02 0.  0.
         23    2    1    2    0    0  0.12546947956E+03 -0.23256623735E+01 -0.27682995320E+03  0.31744200749E+03  0.91578415161E+02 0.  0.
        -13    1    3    3    0    0 -0.23832088248E+02  0.15316385942E+02  0.83455984693E+01  0.29533186797E+02  0.00000000000E+00 0.  1.
         14    1    3    3    0    0  0.34197936213E+02 -0.42310098052E+02  0.48250116947E+02  0.72716690132E+02  0.00000000000E+00 0. -1.
        -13    1    4    4    0    0  0.79951821139E+01  0.31897382776E+02 -0.63663315211E+02  0.71654613729E+02  0.00000000000E+00 0. -1.
         13    1    4    4    0    0  0.11747429745E+03 -0.34223045149E+02 -0.21316663799E+03  0.24578739376E+03  0.00000000000E+00 0.  1.
          1    1    1    2  501    0 -0.13583532753E+03  0.29319374483E+02 -0.25485542535E+03  0.29027943392E+03  0.00000000000E+00 0. -1.
<scales pt_clust_5="13000.00000" pt_clust_6="13000.00000" pt_clust_7="13000.00000" pt_clust_8="13000.00000" pt_clust_9="132.07173"></scales>
<clustering>
<clus scale="   80.099">  5  6 -1 -1</clus>
<clus scale="   85.158">  1  5  2 -1</clus>
<clus scale="   91.578">  7  8 -1 -1</clus>
<clus scale="  132.072">  2  9  1 -1</clus>
<clus scale="  132.072">  2  5  1 -1</clus>
</clustering>
</event>
<event>
 9    2  0.1325014E-004  0.9571690E+02  0.7546771E-02  0.1294920E+00
         21   -1    0    0  501  502  0.00000000000E+00  0.00000000000E+00  0.71284514412E+02  0.71284514412E+02  0.00000000000E+00 0. -1.
          2   -1    0    0  502    0 -0.00000000000E+00 -0.00000000000E+00 -0.14658533408E+04  0.14658533408E+04  0.00000000000E+00 0. -1.
         24    2    1    2    0    0 -0.16028843864E+02  0.24391898268E+02 -0.13518195562E+04  0.13545994441E+04  0.81680187168E+02 0.  0.
         23    2    1    2    0    0 -0.29280454703E+02 -0.42991341462E+02 -0.70241988612E+02  0.12637150457E+03  0.91270037441E+02 0.  0.
        -13    1    3    3    0    0 -0.20667913999E+02  0.51964549432E+01 -0.85163363515E+02  0.87789317677E+02  0.00000000000E+00 0.  1.
         14    1    3    3    0    0  0.46390701344E+01  0.19195443324E+02 -0.12666561927E+04  0.12668101265E+04  0.00000000000E+00 0. -1.
        -13    1    4    4    0    0 -0.55075668254E+01 -0.31370677799E+02  0.16367553225E+02  0.35809908077E+02  0.00000000000E+00 0.  1.
         13    1    4    4    0    0 -0.23772887877E+02 -0.11620663663E+02 -0.86609541837E+02  0.90561596492E+02  0.00000000000E+00 0. -1.
          1    1    1    2  501    0  0.45309298567E+02  0.18599443195E+02  0.27492718407E+02  0.56166906530E+02  0.00000000000E+00 0. -1.
<scales pt_clust_5="13000.00000" pt_clust_6="13000.00000" pt_clust_7="13000.00000" pt_clust_8="13000.00000" pt_clust_9="48.97828"></scales>
<clustering>
<clus scale="   48.978">  1  9  2 -1</clus>
<clus scale="   81.680">  5  6 -1 -1</clus>
<clus scale="   86.621">  2  5  1 -1</clus>
<clus scale="   91.270">  7  8 -1 -1</clus>
<clus scale="   48.978">  1  5  2 -1</clus>
</clustering>
</event>
<event>
 9    2  0.1325014E-004  0.9716177E+02  0.7546771E-02  0.1292551E+00
          4   -1    0    0  502    0 -0.00000000000E+00  0.00000000000E+00  0.19936098617E+03  0.19936098617E+03  0.00000000000E+00 0. -1.
         21   -1    0    0  501  502  0.00000000000E+00 -0.00000000000E+00 -0.14856322616E+03  0.14856322616E+03  0.00000000000E+00 0.  1.
         23    2    1    2    0    0  0.12944291784E+02 -0.28920769451E+02  0.14840642498E+03  0.17693007161E+03  0.90971521182E+02 0.  0.
         24    2    1    2    0    0 -0.41872906514E+02  0.40259588363E+02 -0.99322357693E+02  0.13987549185E+03  0.79536455342E+02 0.  0.
        -13    1    4    4    0    0 -0.52139170844E+02  0.41599216235E+02 -0.10761568273E+03  0.12661012241E+03  0.00000000000E+00 0.  1.
         14    1    4    4    0    0  0.10266264330E+02 -0.13396278727E+01  0.82933250397E+01  0.13265369439E+02  0.00000000000E+00 0. -1.
        -13    1    3    3    0    0 -0.75091806199E+01 -0.44334121960E+02  0.14410886955E+03  0.15096114880E+03  0.00000000000E+00 0. -1.
         13    1    3    3    0    0  0.20453472404E+02  0.15413352509E+02  0.42975554325E+01  0.25968922805E+02  0.00000000000E+00 0.  1.
          3    1    1    2  501    0  0.28928614729E+02 -0.11338818911E+02  0.17136927180E+01  0.31118648865E+02  0.00000000000E+00 0. -1.
<scales pt_clust_5="13000.00000" pt_clust_6="13000.00000" pt_clust_7="13000.00000" pt_clust_8="13000.00000" pt_clust_9="31.07143"></scales>
<clustering>
<clus scale="   31.071">  2  9  1 -1</clus>
<clus scale="   79.536">  5  6 -1 -1</clus>
<clus scale="   86.548">  2  5  1 -1</clus>
<clus scale="   90.972">  7  8 -1 -1</clus>
<clus scale="   31.071">  2  5  1 -1</clus>
</clustering>
</event>
<event>
 9    2  0.1325014E-004  0.1044082E+03  0.7546771E-02  0.1278644E+00
          2   -1    0    0  502    0 -0.00000000000E+00  0.00000000000E+00  0.63249173318E+03  0.63249173318E+03  0.00000000000E+00 0. -1.
         21   -1    0    0  501  502  0.00000000000E+00 -0.00000000000E+00 -0.20113782990E+03  0.20113782990E+03  0.00000000000E+00 0. -1.
         24    2    1    2    0    0  0.34976344523E+02 -0.18983154594E+02  0.48023573477E+03  0.48852565129E+03  0.80294745725E+02 0.  0.
         23    2    1    2    0    0 -0.35829548959E+02  0.44982259419E+02  0.12602321166E+03  0.16827502408E+03  0.95537812453E+02 0.  0.
        -13    1    3    3    0    0  0.58493591752E+02 -0.27223695113E+02  0.35981069353E+03  0.36554940163E+03  0.00000000000E+00 0.  1.
         14    1    3    3    0    0 -0.23517247229E+02  0.82405405185E+01  0.12042504123E+03  0.12297624966E+03  0.00000000000E+00 0. -1.
        -13    1    4    4    0    0  0.27380179515E-01  0.33428243025E+02 -0.32864832974E+01  0.33589420267E+02  0.00000000000E+00 0.  1.
         13    1    4    4    0    0 -0.35856929139E+02  0.11554016394E+02  0.12930969496E+03  0.13468560381E+03  0.00000000000E+00 0. -1.
          1    1    1    2  501    0  0.85320443593E+00 -0.25999104825E+02 -0.17490504315E+03  0.17682888771E+03  0.00000000000E+00 0. -1.
<scales pt_clust_5="13000.00000" pt_clust_6="13000.00000" pt_clust_7="13000.00000" pt_clust_8="13000.00000" pt_clust_9="26.01310"></scales>
<clustering>
<clus scale="   26.013">  2  9  1 -1</clus>
<clus scale="   80.295">  5  6 -1 -1</clus>
<clus scale="   90.669">  1  5  2 -1</clus>
<clus scale="   95.538">  7  8 -1 -1</clus>
<clus scale="   26.013">  2  5  1 -1</clus>
</clustering>
</event>
<event>
 9    2  0.1325014E-004  0.1067194E+03  0.7546771E-02  0.1271835E+00
         21   -1    0    0  501  502  0.00000000000E+00  0.00000000000E+00  0.20395737196E+02  0.20395737196E+02  0.00000000000E+00 0.  1.
          2   -1    0    0  502    0 -0.00000000000E+00 -0.00000000000E+00 -0.10240559786E+04  0.10240559786E+04  0.00000000000E+00 0. -1.
         24    2    1    2    0    0  0.54915061091E+02 -0.29202886745E+02 -0.74529250116E+03  0.75215535292E+03  0.80051796452E+02 0.  0.
         23    2    1    2    0    0 -0.31793025427E+02 -0.25857984897E+01 -0.18995867655E+03  0.21339801665E+03  0.91852772924E+02 0.  0.
        -11    1    3    3    0    0 -0.18958245617E+02 -0.67499899498E+01 -0.84301065989E+02  0.86669759247E+02  0.00000000000E+00 0.  1.
         12    1    3    3    0    0  0.73873306709E+02 -0.22452896796E+02 -0.66099143517E+03  0.66548559367E+03  0.00000000000E+00 0. -1.
        -13    1    4    4    0    0  0.16458679433E+02  0.16663080316E+02 -0.13782198137E+03  0.13979787166E+03  0.00000000000E+00 0. -1.
         13    1    4    4    0    0 -0.48251704861E+02 -0.19248878805E+02 -0.52136695186E+02  0.73600144987E+02  0.00000000000E+00 0.  1.
          1    1    1    2  501    0 -0.23122035664E+02  0.31788685235E+02 -0.68409063738E+02  0.78898346267E+02  0.00000000000E+00 0. -1.
<scales pt_clust_5="13000.00000" pt_clust_6="13000.00000" pt_clust_7="13000.00000" pt_clust_8="13000.00000" pt_clust_9="39.30838"></scales>
<clustering>
<clus scale="   39.308">  1  9  2 -1</clus>
<clus scale="   80.052">  5  6 -1 -1</clus>
<clus scale="   91.853">  7  8 -1 -1</clus>
<clus scale="   96.749">  2  5  1 -1</clus>
<clus scale="   39.308">  1  5  2 -1</clus>
</clustering>
</event>
<event>
 9    2  0.1325014E-004  0.1073967E+03  0.7546771E-02  0.1271412E+00
          4   -1    0    0  502    0 -0.00000000000E+00  0.00000000000E+00  0.46324549868E+03  0.46324549868E+03  0.00000000000E+00 0. -1.
         21   -1    0    0  501  502  0.00000000000E+00 -0.00000000000E+00 -0.10652327152E+03  0.10652327152E+03  0.00000000000E+00 0. -1.
         24    2    1    2    0    0 -0.42264038855E+02  0.26349929357E+02  0.18710382071E+03  0.20886538174E+03  0.78334795652E+02 0.  0.
         23    2    1    2    0    0  0.62763255661E+02 -0.82968185062E+02 -0.38477486182E+02  0.14427064555E+03  0.92252676007E+02 0.  0.
        -11    1    3    3    0    0 -0.39142607934E+02  0.41357573124E+02  0.18478769190E+03  0.19336257054E+03  0.00000000000E+00 0.  1.
         12    1    3    3    0    0 -0.31214309207E+01 -0.15007643767E+02  0.23161288105E+01  0.15502811199E+02  0.00000000000E+00 0. -1.
        -11    1    4    4    0    0  0.60546265170E+02 -0.13759769752E+02 -0.41960682152E+02  0.74939177579E+02  0.00000000000E+00 0. -1.
         11    1    4    4    0    0  0.22169904908E+01 -0.69208415310E+02  0.34831959698E+01  0.69331467969E+02  0.00000000000E+00 0.  1.
          3    1    1    2  501    0 -0.20499216806E+02  0.56618255705E+02  0.20809589263E+03  0.21663274291E+03  0.00000000000E+00 0. -1.
<scales pt_clust_5="13000.00000" pt_clust_6="13000.00000" pt_clust_7="13000.00000" pt_clust_8="13000.00000" pt_clust_9="60.21502"></scales>
<clustering>
<clus scale="   60.215">  2  9  1 -1</clus>
<clus scale="   78.335">  5  6 -1 -1</clus>
<clus scale="   92.253">  7  8 -1 -1</clus>
<clus scale="   95.707">  1  5  2 -1</clus>
<clus scale="   60.215">  2  5  1 -1</clus>
</clustering>
</event>
<event>
 9    2  0.1325014E-004  0.3079886E+03  0.7546771E-02  0.1082278E+00
         21   -1    0    0  501  502  0.00000000000E+00  0.00000000000E+00  0.12044061426E+04  0.12044061426E+04  0.00000000000E+00 0. -1.
          4   -1    0    0  502    0 -0.00000000000E+00 -0.00000000000E+00 -0.32671690573E+03  0.32671690573E+03  0.00000000000E+00 0. -1.
         23    2    1    2    0    0 -0.19546971246E+03 -0.23429246547E+03 -0.19111809892E+03  0.37515795825E+03  0.10543243352E+03 0.  0.
         24    2    1    2    0    0  0.22065077171E+03  0.88972710134E+02  0.40846486941E+03  0.47935287474E+03  0.79578406437E+02 0.  0.
        -11    1    4    4    0    0  0.11904934812E+03  0.72999420879E+02  0.29392770971E+03  0.32541536729E+03  0.00000000000E+00 0.  1.
         12    1    4    4    0    0  0.10160142359E+03  0.15973289255E+02  0.11453715970E+03  0.15393750744E+03  0.00000000000E+00 0. -1.
        -11    1    3    3    0    0 -0.16509954503E+03 -0.12553273559E+03 -0.14560192366E+03  0.25340924933E+03  0.00000000000E+00 0. -1.
         11    1    3    3    0    0 -0.30370167429E+02 -0.10875972988E+03 -0.45516175269E+02  0.12174870892E+03  0.00000000000E+00 0.  1.
          3    1    1    2  501    0 -0.25181059259E+02  0.14531975533E+03  0.66034246640E+03  0.67661221535E+03  0.00000000000E+00 0. -1.
<scales pt_clust_5="13000.00000" pt_clust_6="13000.00000" pt_clust_7="13000.00000" pt_clust_8="13000.00000" pt_clust_9="147.48531"></scales>
<clustering>
<clus scale="   79.578">  5  6 -1 -1</clus>
<clus scale="  105.432">  7  8 -1 -1</clus>
<clus scale="  147.485">  1  9  2 -1</clus>
<clus scale="  300.123">  1  5  2 -1</clus>
<clus scale="  147.485">  1  5  2 -1</clus>
</clustering>
</event>
<event>
 9    2  0.1325014E-004  0.9557598E+02  0.7546771E-02  0.1289949E+00
          2   -1    0    0  502    0 -0.00000000000E+00  0.00000000000E+00  0.27745003872E+03  0.27745003872E+03  0.00000000000E+00 0. -1.
         21   -1    0    0  501  502  0.00000000000E+00 -0.00000000000E+00 -0.58617459785E+02  0.58617459785E+02  0.00000000000E+00 0. -1.
         23    2    1    2    0    0  0.24017027115E+01  0.56173938365E+02  0.19905622731E+03  0.22193916702E+03  0.80450809169E+02 0.  0.
         24    2    1    2    0    0 -0.12621385677E+02 -0.34760421223E+02  0.15080798000E+02  0.89940961638E+02  0.80587591179E+02 0.  0.
        -11    1    4    4    0    0  0.14212597223E+02 -0.39366842668E+02  0.36315613877E+02  0.55412724466E+02  0.00000000000E+00 0.  1.
         12    1    4    4    0    0 -0.26833982900E+02  0.46064214455E+01 -0.21234815877E+02  0.34528237171E+02  0.00000000000E+00 0. -1.
        -13    1    3    3    0    0  0.19520188219E+02 -0.97187023034E+01  0.17248867929E+02  0.27803135927E+02  0.00000000000E+00 0.  1.
         13    1    3    3    0    0 -0.17118485507E+02  0.65892640669E+02  0.18180735938E+03  0.19413603109E+03  0.00000000000E+00 0. -1.
          1    1    1    2  501    0  0.10219682966E+02 -0.21413517143E+02  0.46955536174E+01  0.24187369847E+02  0.00000000000E+00 0. -1.
<scales pt_clust_5="13000.00000" pt_clust_6="13000.00000" pt_clust_7="13000.00000" pt_clust_8="13000.00000" pt_clust_9="23.72721"></scales>
<clustering>
<clus scale="   23.727">  2  9  1 -1</clus>
<clus scale="   80.451">  7  8 -1 -1</clus>
<clus scale="   80.588">  5  6 -1 -1</clus>
<clus scale="   95.461">  1  7  2 -1</clus>
<clus scale="   23.727">  2  5  1 -1</clus>
</clustering>
</event>
<event>
 9    2  0.1325014E-004  0.2090501E+03  0.7546771E-02  0.1143808E+00
         21   -1    0    0  501  502  0.00000000000E+00  0.00000000000E+00  0.10062693142E+03  0.10062693142E+03  0.00000000000E+00 0.  1.
          2   -1    0    0  502    0 -0.00000000000E+00 -0.00000000000E+00 -0.50309361671E+03  0.50309361671E+03  0.00000000000E+00 0. -1.
         23    2    1    2    0    0 -0.79084300021E+02 -0.17238563747E+03 -0.23754079246E+03  0.31735610058E+03  0.91203793673E+02 0.  0.
         24    2    1    2    0    0  0.10160318200E+03  0.15734522445E+03 -0.16379329809E+03  0.25926100054E+03  0.72851188398E+02 0.  0.
        -11    1    4    4    0    0  0.83187199706E+01  0.36841334180E+02 -0.32512694142E+01  0.37908518290E+02  0.00000000000E+00 0.  1.
         12    1    4    4    0    0  0.93284462027E+02  0.12050389027E+03 -0.16054202867E+03  0.22135248225E+03  0.00000000000E+00 0. -1.
        -11    1    3    3    0    0 -0.32282965132E+01 -0.99288185844E+02 -0.78602696880E+02  0.12667655546E+03  0.00000000000E+00 0.  1.
         11    1    3    3    0    0 -0.75856003508E+02 -0.73097451626E+02 -0.15893809558E+03  0.19067954512E+03  0.00000000000E+00 0. -1.
          1    1    1    2  501    0 -0.22518881977E+02  0.15040413020E+02 -0.11325947435E+01  0.27103447016E+02  0.00000000000E+00 0. -1.
<scales pt_clust_5="13000.00000" pt_clust_6="13000.00000" pt_clust_7="13000.00000" pt_clust_8="13000.00000" pt_clust_9="27.07977"></scales>
<clustering>
<clus scale="   27.080">  1  9  2 -1</clus>
<clus scale="   72.851">  5  6 -1 -1</clus>
<clus scale="   91.204">  7  8 -1 -1</clus>
<clus scale="  201.720">  1  5  2 -1</clus>
<clus scale="   27.080">  1  5  2 -1</clus>
</clustering>
</event>
<event>
 9    2  0.1325014E-004  0.9346136E+02  0.7546771E-02  0.1299956E+00
         21   -1    0    0  501  502  0.00000000000E+00  0.00000000000E+00  0.61763123455E+02  0.61763123455E+02  0.00000000000E+00 0.  1.
          2   -1    0    0  502    0 -0.00000000000E+00 -0.00000000000E+00 -0.49213095976E+03  0.49213095976E+03  0.00000000000E+00 0. -1.
         23    2    1    2    0    0  0.27470777020E+02 -0.64962227502E+01 -0.43338272729E+03  0.44344393087E+03  0.89582849996E+02 0.  0.
         24    2    1    2    0    0 -0.15515308385E+02 -0.16349957033E+02  0.87949142157E+01  0.84024978179E+02  0.80466145382E+02 0.  0.
        -11    1    4    4    0    0 -0.27316666541E+02  0.28067219528E+01  0.38170901160E+02  0.47022288911E+02  0.00000000000E+00 0.  1.
         12    1    4    4    0    0  0.11801358156E+02 -0.19156678986E+02 -0.29375986945E+02  0.37002689268E+02  0.00000000000E+00 0. -1.
        -13    1    3    3    0    0  0.12607307237E+02  0.41620308821E+02 -0.20982167793E+03  0.21428096236E+03  0.00000000000E+00 0. -1.
         13    1    3    3    0    0  0.14863469784E+02 -0.48116531571E+02 -0.22356104936E+03  0.22916296850E+03  0.00000000000E+00 0.  1.
          1    1    1    2  501    0 -0.11955468635E+02  0.22846179784E+02 -0.57800232290E+01  0.26425174163E+02  0.00000000000E+00 0. -1.
<scales pt_clust_5="13000.00000" pt_clust_6="13000.00000" pt_clust_7="13000.00000" pt_clust_8="13000.00000" pt_clust_9="25.78529"></scales>
<clustering>
<clus scale="   25.785">  1  9  2 -1</clus>
<clus scale="   80.466">  5  6 -1 -1</clus>
<clus scale="   84.763">  1  5  2 -1</clus>
<clus scale="   89.583">  7  8 -1 -1</clus>
<clus scale="   25.785">  1  5  2 -1</clus>
</clustering>
</event>
<event>
 9    2  0.1325014E-004  0.1982314E+03  0.7546771E-02  0.1185699E+00
          2   -1    0    0  502    0 -0.00000000000E+00  0.00000000000E+00  0.11871395969E+04  0.11871395969E+04  0.00000000000E+00 0. -1.
         21   -1    0    0  501  502  0.00000000000E+00 -0.00000000000E+00 -0.56759752022E+03  0.56759752022E+03  0.00000000000E+00 0. -1.
         24    2    1    2    0    0  0.25960786899E+02  0.25681427175E+02  0.31506222580E+03  0.32764315300E+03  0.82172570999E+02 0.  0.
         23    2    1    2    0    0  0.15024539523E+03 -0.12639250036E+02  0.84256228471E+03  0.86074475854E+03  0.90757403668E+02 0.  0.
        -11    1    3    3    0    0  0.86339306302E+01  0.50834353726E+02  0.12620218163E+03  0.13632925924E+03  0.00000000000E+00 0.  1.
         12    1    3    3    0    0  0.17326856269E+02 -0.25152926551E+02  0.18886004417E+03  0.19131389376E+03  0.00000000000E+00 0. -1.
        -13    1    4    4    0    0  0.13662791188E+03  0.86981722805E+01  0.79655105637E+03  0.80823043119E+03  0.00000000000E+00 0. -1.
         13    1    4    4    0    0  0.13617483343E+02 -0.21337422317E+02  0.46011228340E+02  0.52514327350E+02  0.00000000000E+00 0.  1.
          1    1    1    2  501    0 -0.17620618213E+03 -0.13042177139E+02 -0.53808243385E+03  0.56634920555E+03  0.00000000000E+00 0. -1.
<scales pt_clust_5="13000.00000" pt_clust_6="13000.00000" pt_clust_7="13000.00000" pt_clust_8="13000.00000" pt_clust_9="176.23503"></scales>
<clustering>
<clus scale="   82.173">  5  6 -1 -1</clus>
<clus scale="   89.921">  1  5  2 -1</clus>
<clus scale="   90.757">  7  8 -1 -1</clus>
<clus scale="  176.235">  2  9  1 -1</clus>
<clus scale="  176.235">  2  5  1 -1</clus>
</clustering>
</event>
<event>
 9    2  0.1325014E-004  0.8877368E+02  0.7546771E-02  0.1306430E+00
         21   -1    0    0  501  502  0.00000000000E+00  0.00000000000E+00  0.13349329468E+02  0.13349329468E+02  0.00000000000E+00 0. -1.
          2   -1    0    0  502    0 -0.00000000000E+00 -0.00000000000E+00 -0.85758846991E+03  0.85758846991E+03  0.00000000000E+00 0. -1.
         23    2    1    2    0    0  0.32291129849E+02 -0.14971630258E+02 -0.39820834770E+03  0.40697989377E+03  0.76130670412E+02 0.  0.
         24    2    1    2    0    0 -0.56168437621E+02  0.18486720478E+02 -0.28517632326E+03  0.30130292709E+03  0.77209237158E+02 0.  0.
        -11    1    4    4    0    0 -0.56776599483E+01 -0.28029519856E+02 -0.84542513173E+02  0.89248676962E+02  0.00000000000E+00 0.  1.
         12    1    4    4    0    0 -0.50490777673E+02  0.46516240334E+02 -0.20063381009E+03  0.21205425012E+03  0.00000000000E+00 0. -1.
        -11    1    3    3    0    0  0.55894349936E+02 -0.15094749536E+01 -0.23771199753E+03  0.24419961229E+03  0.00000000000E+00 0. -1.
         11    1    3    3    0    0 -0.23603220086E+02 -0.13462155305E+02 -0.16049635017E+03  0.16278028149E+03  0.00000000000E+00 0.  1.
          1    1    1    2  501    0  0.23877307772E+02 -0.35150902201E+01 -0.16085446948E+03  0.16265497852E+03  0.00000000000E+00 0. -1.
<scales pt_clust_5="13000.00000" pt_clust_6="13000.00000" pt_clust_7="13000.00000" pt_clust_8="13000.00000" pt_clust_9="24.13467"></scales>
<clustering>
<clus scale="   24.135">  1  9  2 -1</clus>
<clus scale="   76.131">  7  8 -1 -1</clus>
<clus scale="   77.209">  5  6 -1 -1</clus>
<clus scale="   87.837">  2  7  1 -1</clus>
<clus scale="   24.135">  1  5  2 -1</clus>
</clustering>
</event>
<event>
 9    2  0.1325014E-004  0.1618262E+03  0.7546771E-02  0.1203663E+00
         21   -1    0    0  501  502  0.00000000000E+00  0.00000000000E+00  0.65867998527E+02  0.65867998527E+02  0.00000000000E+00 0.  1.
          2   -1    0    0  502    0 -0.00000000000E+00 -0.00000000000E+00 -0.84640882890E+03  0.84640882890E+03  0.00000000000E+00 0. -1.
         24    2    1    2    0    0 -0.21498663625E+02  0.74425237664E+02 -0.57959296813E+02  0.12565593264E+03  0.80179952490E+02 0.  0.
         23    2    1    2    0    0 -0.29819911640E+02  0.94053021017E+02 -0.32532004322E+03  0.35206915849E+03  0.91566172490E+02 0.  0.
        -11    1    3    3    0    0 -0.21249017886E+01  0.34343658511E+02  0.17071968245E+02  0.38411641300E+02  0.00000000000E+00 0.  1.
         12    1    3    3    0    0 -0.19373761836E+02  0.40081579153E+02 -0.75031265058E+02  0.87244291339E+02  0.00000000000E+00 0. -1.
        -11    1    4    4    0    0 -0.22597315183E+02  0.30842924787E+02 -0.26424912772E+02  0.46477959054E+02  0.00000000000E+00 0. -1.
         11    1    4    4    0    0 -0.72225964568E+01  0.63210096230E+02 -0.29889513045E+03  0.30559119943E+03  0.00000000000E+00 0.  1.
          1    1    1    2  501    0  0.51318575264E+02 -0.16847825868E+03 -0.39726149034E+03  0.43455173630E+03  0.00000000000E+00 0. -1.
<scales pt_clust_5="13000.00000" pt_clust_6="13000.00000" pt_clust_7="13000.00000" pt_clust_8="13000.00000" pt_clust_9="133.42933"></scales>
<clustering>
<clus scale="   80.180">  5  6 -1 -1</clus>
<clus scale="   91.566">  7  8 -1 -1</clus>
<clus scale="  111.491">  2  5  1 -1</clus>
<clus scale="  133.429">  1  9  2 -1</clus>
<clus scale="  133.429">  1  5  2 -1</clus>
</clustering>
</event>
<event>
 9    2  0.1325014E-004  0.1094683E+03  0.7546771E-02  0.1272905E+00
         21   -1    0    0  501  502  0.00000000000E+00  0.00000000000E+00  0.60760618420E+02  0.60760618420E+02  0.00000000000E+00 0.  1.
         -1   -1    0    0    0  501 -0.00000000000E+00 -0.00000000000E+00 -0.28389851480E+03  0.28389851480E+03  0.00000000000E+00 0.  1.
         23    2    1    2    0    0  0.37269791228E+02  0.12347931927E+02 -0.19397143507E+03  0.22425368050E+03  0.10546699404E+03 0.  0.
         24    2    1    2    0    0 -0.10413812261E+02  0.69417346581E+01 -0.22365860946E+02  0.86647742371E+02  0.82770552471E+02 0.  0.
        -11    1    4    4    0    0  0.29937649274E+02  0.25205002202E+02 -0.69358934695E+01  0.39744956891E+02  0.00000000000E+00 0.  1.
         12    1    4    4    0    0 -0.40351461536E+02 -0.18263267544E+02 -0.15429967477E+02  0.46902785480E+02  0.00000000000E+00 0. -1.
        -13    1    3    3    0    0 -0.35164635138E+01  0.31290370829E+02 -0.17077433401E+03  0.17365288934E+03  0.00000000000E+00 0.  1.
         13    1    3    3    0    0  0.40786254741E+02 -0.18942438901E+02 -0.23197101066E+02  0.50600791152E+02  0.00000000000E+00 0. -1.
         -2    1    1    2    0  502 -0.26855978966E+02 -0.19289666586E+02 -0.68006003653E+01  0.33757710357E+02  0.00000000000E+00 0.  1.
<scales pt_clust_5="13000.00000" pt_clust_6="13000.00000" pt_clust_7="13000.00000" pt_clust_8="13000.00000" pt_clust_9="33.06561"></scales>
<clustering>
<clus scale="   33.066">  1  9  2 -1</clus>
<clus scale="   82.771">  5  6 -1 -1</clus>
<clus scale="   87.812">  1  5  2 -1</clus>
<clus scale="  105.467">  7  8 -1 -1</clus>
<clus scale="   33.066">  1  5  2 -1</clus>
</clustering>
</event>
<event>
 9    2  0.1325014E-004  0.1580475E+03  0.7546771E-02  0.1192546E+00
          4   -1    0    0  502    0 -0.00000000000E+00  0.00000000000E+00  0.78645382965E+03  0.78645382965E+03  0.00000000000E+00 0. -1.
         21   -1    0    0  501  502  0.00000000000E+00 -0.00000000000E+00 -0.14242980773E+03  0.14242980773E+03  0.00000000000E+00 0. -1.
         24    2    1    2    0    0  0.11458333696E+03 -0.69535821180E+02  0.70674411677E+03  0.72373919144E+03  0.79665545273E+02 0.  0.
         23    2    1    2    0    0 -0.97574541436E+02  0.10421639814E+02 -0.34427732066E+02  0.13743740528E+03  0.89857497859E+02 0.  0.
        -13    1    3    3    0    0  0.62807873310E+02 -0.26382029029E+02  0.17586292458E+03  0.18859641737E+03  0.00000000000E+00 0.  1.
         14    1    3    3    0    0  0.51775463653E+02 -0.43153792151E+02  0.53088119219E+03  0.53514277407E+03  0.00000000000E+00 0. -1.
        -13    1    4    4    0    0 -0.15504590894E+02 -0.35694377737E+02 -0.10154078019E+02  0.40219227258E+02  0.00000000000E+00 0. -1.
         13    1    4    4    0    0 -0.82069950542E+02  0.46116017551E+02 -0.24273654047E+02  0.97218178020E+02  0.00000000000E+00 0.  1.
          3    1    1    2  501    0 -0.17008795528E+02  0.59114181366E+02 -0.28292362783E+02  0.67707040666E+02  0.00000000000E+00 0. -1.
<scales pt_clust_5="13000.00000" pt_clust_6="13000.00000" pt_clust_7="13000.00000" pt_clust_8="13000.00000" pt_clust_9="61.51248"></scales>
<clustering>
<clus scale="   61.512">  2  9  1 -1</clus>
<clus scale="   79.666">  5  6 -1 -1</clus>
<clus scale="   89.857">  7  8 -1 -1</clus>
<clus scale="  152.484">  1  5  2 -1</clus>
<clus scale="   61.512">  2  5  1 -1</clus>
</clustering>
</event>
<event>
 9    2  0.1325014E-004  0.1097017E+03  0.7546771E-02  0.1268444E+00
          2   -1    0    0  502    0 -0.00000000000E+00  0.00000000000E+00  0.37463313940E+02  0.37463313940E+02  0.00000000000E+00 0. -1.
         21   -1    0    0  501  502  0.00000000000E+00 -0.00000000000E+00 -0.70620455568E+03  0.70620455568E+03  0.00000000000E+00 0. -1.
         24    2    1    2    0    0 -0.11109168861E+02  0.69790650519E+02 -0.10660507596E+03  0.14926555503E+03  0.76950732073E+02 0.  0.
         23    2    1    2    0    0 -0.39786727263E+02 -0.31022095173E+02 -0.20178037785E+03  0.22841093898E+03  0.94397468736E+02 0.  0.
        -11    1    3    3    0    0  0.14314540110E+02  0.19457210730E+02 -0.85839886297E+02  0.89173848114E+02  0.00000000000E+00 0.  1.
         12    1    3    3    0    0 -0.25423708971E+02  0.50333439789E+02 -0.20765189663E+02  0.60091706921E+02  0.00000000000E+00 0. -1.
        -13    1    4    4    0    0 -0.30111661857E+02 -0.64399316839E+02 -0.11878122227E+03  0.13843035416E+03  0.00000000000E+00 0.  1.
         13    1    4    4    0    0 -0.96750654059E+01  0.33377221667E+02 -0.82999155583E+02  0.89980584818E+02  0.00000000000E+00 0. -1.
          1    1    1    2  501    0  0.50895896124E+02 -0.38768555346E+02 -0.36035578793E+03  0.36599137561E+03  0.00000000000E+00 0. -1.
<scales pt_clust_5="13000.00000" pt_clust_6="13000.00000" pt_clust_7="13000.00000" pt_clust_8="13000.00000" pt_clust_9="63.97963"></scales>
<clustering>
<clus scale="   63.980">  2  9  1 -1</clus>
<clus scale="   76.951">  5  6 -1 -1</clus>
<clus scale="   94.397">  7  8 -1 -1</clus>
<clus scale="   95.105">  1  5  2 -1</clus>
<clus scale="   63.980">  2  5  1 -1</clus>
</clustering>
</event>
<event>
 9    2  0.1325014E-004  0.1717107E+03  0.7546771E-02  0.1184441E+00
         21   -1    0    0  501  502  0.00000000000E+00  0.00000000000E+00  0.53132901419E+03  0.53132901419E+03  0.00000000000E+00 0.  1.
          2   -1    0    0  502    0 -0.00000000000E+00 -0.00000000000E+00 -0.19116639924E+03  0.19116639924E+03  0.00000000000E+00 0. -1.
         24    2    1    2    0    0 -0.11645335881E+03  0.13329134186E+02  0.59628742489E+02  0.15427518730E+03  0.80660993602E+02 0.  0.
         23    2    1    2    0    0 -0.12192585385E+03 -0.33328234424E+02  0.28789465977E+03  0.32889034034E+03  0.96482308223E+02 0.  0.
        -13    1    3    3    0    0 -0.17769057240E+02  0.36766332560E+02  0.15907023808E+02  0.43823920541E+02  0.00000000000E+00 0.  1.
         14    1    3    3    0    0 -0.98684301572E+02 -0.23437198375E+02  0.43721718681E+02  0.11045126676E+03  0.00000000000E+00 0. -1.
        -11    1    4    4    0    0 -0.78001857043E+02 -0.33160667574E+02  0.80494901542E+02  0.11689032787E+03  0.00000000000E+00 0. -1.
         11    1    4    4    0    0 -0.43923996806E+02 -0.16756684989E+00  0.20739975822E+03  0.21200001247E+03  0.00000000000E+00 0.  1.
          1    1    1    2  501    0  0.23837921266E+03  0.19999100238E+02 -0.73607873051E+01  0.23932988578E+03  0.00000000000E+00 0. -1.
<scales pt_clust_5="13000.00000" pt_clust_6="13000.00000" pt_clust_7="13000.00000" pt_clust_8="13000.00000" pt_clust_9="142.04137"></scales>
<clustering>
<clus scale="   80.661">  5  6 -1 -1</clus>
<clus scale="   96.482">  7  8 -1 -1</clus>
<clus scale="  142.286">  2  5  1 -1</clus>
<clus scale="  142.041">  1  9  2 -1</clus>
<clus scale="  142.041">  1  5  2 -1</clus>
</clustering>
</event>
<event>
 9    2  0.1325014E-004  0.1250441E+03  0.7546771E-02  0.1236777E+00
         21   -1    0    0  501  502  0.00000000000E+00  0.00000000000E+00  0.26462864415E+03  0.26462864415E+03  0.00000000000E+00 0. -1.
          4   -1    0    0  502    0 -0.00000000000E+00 -0.00000000000E+00 -0.11741596827E+03  0.11741596827E+03  0.00000000000E+00 0. -1.
         24    2    1    2    0    0  0.18311710133E+02 -0.82907417763E+02 -0.43453135202E+01  0.11939461364E+03  0.83828595175E+02 0.  0.
         23    2    1    2    0    0 -0.84589070191E+02  0.67833086594E+02  0.12880839026E+03  0.19097386483E+03  0.90126451236E+02 0.  0.
        -11    1    3    3    0    0  0.39350830520E+02 -0.65786295951E+02  0.23838305888E+02  0.80278200186E+02  0.00000000000E+00 0.  1.
         12    1    3    3    0    0 -0.21039120387E+02 -0.17121121812E+02 -0.28183619408E+02  0.39116413456E+02  0.00000000000E+00 0. -1.
        -11    1    4    4    0    0 -0.19050748851E+02  0.19288345122E+02 -0.10885413242E+02  0.29214097809E+02  0.00000000000E+00 0.  1.
         11    1    4    4    0    0 -0.65538321340E+02  0.48544741472E+02  0.13969380350E+03  0.16175976702E+03  0.00000000000E+00 0. -1.
          3    1    1    2  501    0  0.66277360058E+02  0.15074331169E+02  0.22749599147E+02  0.71676133949E+02  0.00000000000E+00 0. -1.
<scales pt_clust_5="13000.00000" pt_clust_6="13000.00000" pt_clust_7="13000.00000" pt_clust_8="13000.00000" pt_clust_9="67.97006"></scales>
<clustering>
<clus scale="   67.970">  1  9  2 -1</clus>
<clus scale="   83.829">  5  6 -1 -1</clus>
<clus scale="   90.126">  7  8 -1 -1</clus>
<clus scale="  120.584">  2  5  1 -1</clus>
<clus scale="   67.970">  1  5  2 -1</clus>
</clustering>
</event>
<event>
 9    2  0.1325014E-004  0.9963349E+02  0.7546771E-02  0.1287010E+00
         21   -1    0    0  501  502  0.00000000000E+00  0.00000000000E+00  0.20516647237E+03  0.20516647237E+03  0.00000000000E+00 0.  1.
          2   -1    0    0  502    0 -0.00000000000E+00 -0.00000000000E+00 -0.38541363975E+03  0.38541363975E+03  0.00000000000E+00 0. -1.
         24    2    1    2    0    0  0.27026356315E+02 -0.31151800259E+02 -0.35834480719E+03  0.36928701381E+03  0.79126728315E+02 0.  0.
         23    2    1    2    0    0 -0.38410907961E+02  0.81840787563E+01  0.10728377170E+03  0.14598222151E+03  0.90876973610E+02 0.  0.
        -13    1    3    3    0    0 -0.42852341814E+01  0.24692086408E+02 -0.91591509923E+02  0.94958238469E+02  0.00000000000E+00 0.  1.
         14    1    3    3    0    0  0.31311590496E+02 -0.55843886666E+02 -0.26675329727E+03  0.27432877534E+03  0.00000000000E+00 0. -1.
        -13    1    4    4    0    0 -0.31475254407E+02  0.47962939612E+02  0.51328212942E+02  0.76978702640E+02  0.00000000000E+00 0.  1.
         13    1    4    4    0    0 -0.69356535540E+01 -0.39778860856E+02  0.55955558756E+02  0.69003518873E+02  0.00000000000E+00 0. -1.
          1    1    1    2  501    0  0.11384551647E+02  0.22967721503E+02  0.70813868110E+02  0.75310876797E+02  0.00000000000E+00 0. -1.
<scales pt_clust_5="13000.00000" pt_clust_6="13000.00000" pt_clust_7="13000.00000" pt_clust_8="13000.00000" pt_clust_9="25.63443"></scales>
<clustering>
<clus scale="   25.634">  1  9  2 -1</clus>
<clus scale="   79.127">  5  6 -1 -1</clus>
<clus scale="   89.046">  2  5  1 -1</clus>
<clus scale="   90.877">  7  8 -1 -1</clus>
<clus scale="   25.634">  1  5  2 -1</clus>
</clustering>
</event>
<event>
 9    2  0.1325014E-004  0.9729181E+02  0.7546771E-02  0.1292864E+00
          2   -1    0    0  502    0 -0.00000000000E+00  0.00000000000E+00  0.10695223573E+04  0.10695223573E+04  0.00000000000E+00 0. -1.
         21   -1    0    0  501  502  0.00000000000E+00 -0.00000000000E+00 -0.11647470039E+02  0.11647470039E+02  0.00000000000E+00 0.  1.
         24    2    1    2    0    0  0.14159917127E+02  0.37217679544E+02  0.56279254383E+03  0.56988432000E+03  0.80293411115E+02 0.  0.
         23    2    1    2    0    0 -0.91222762042E+01 -0.77908416342E+01  0.30788582545E+03  0.32172324063E+03  0.92564836261E+02 0.  0.
        -11    1    3    3    0    0 -0.15522880161E+02  0.42859640641E+02  0.17240998714E+03  0.17833427116E+03  0.00000000000E+00 0.  1.
         12    1    3    3    0    0  0.29682797289E+02 -0.56419610963E+01  0.39038255669E+03  0.39155004884E+03  0.00000000000E+00 0. -1.
        -11    1    4    4    0    0  0.36881882002E+02  0.61384106582E+01  0.20209673367E+03  0.20552625882E+03  0.00000000000E+00 0. -1.
         11    1    4    4    0    0 -0.46004158206E+02 -0.13929252292E+02  0.10578909178E+03  0.11619698181E+03  0.00000000000E+00 0.  1.
          1    1    1    2  501    0 -0.50376409232E+01 -0.29426837910E+02  0.18719651801E+03  0.18956226673E+03  0.00000000000E+00 0. -1.
<scales pt_clust_5="13000.00000" pt_clust_6="13000.00000" pt_clust_7="13000.00000" pt_clust_8="13000.00000" pt_clust_9="29.85494"></scales>
<clustering>
<clus scale="   29.855">  2  9  1 -1</clus>
<clus scale="   80.293">  5  6 -1 -1</clus>
<clus scale="   85.700">  1  5  2 -1</clus>
<clus scale="   92.565">  7  8 -1 -1</clus>
<clus scale="   29.855">  2  5  1 -1</clus>
</clustering>
</event>
<event>
 9    2  0.1325014E-004  0.1838488E+03  0.7546771E-02  0.1165444E+00
          2   -1    0    0  502    0 -0.00000000000E+00  0.00000000000E+00  0.11484651097E+04  0.11484651097E+04  0.00000000000E+00 0. -1.
         21   -1    0    0  501  502  0.00000000000E+00 -0.00000000000E+00 -0.71158039609E+02  0.71158039609E+02  0.00000000000E+00 0. -1.
         24    2    1    2    0    0  0.27033609378E+02 -0.16484398965E+03  0.97921607161E+03  0.99666629902E+03  0.81087852017E+02 0.  0.
         23    2    1    2    0    0 -0.12220947403E+02  0.11616937536E+03  0.78471169233E+02  0.16842639340E+03  0.92547556776E+02 0.  0.
        -13    1    3    3    0    0  0.26057412088E+02 -0.65262949105E+02  0.22010159581E+03  0.23104751401E+03  0.00000000000E+00 0.  1.
         14    1    3    3    0    0  0.97619728933E+00 -0.99581040544E+02  0.75911447580E+03  0.76561878501E+03  0.00000000000E+00 0. -1.
        -13    1    4    4    0    0 -0.82077821406E+01  0.87390326099E+02  0.99406541529E+02  0.13261258342E+03  0.00000000000E+00 0.  1.
         13    1    4    4    0    0 -0.40131652623E+01  0.28779049261E+02 -0.20935372296E+02  0.35813809975E+02  0.00000000000E+00 0. -1.
          1    1    1    2  501    0 -0.14812661975E+02  0.48674614288E+02  0.19619829277E+02  0.54530456919E+02  0.00000000000E+00 0. -1.
<scales pt_clust_5="13000.00000" pt_clust_6="13000.00000" pt_clust_7="13000.00000" pt_clust_8="13000.00000" pt_clust_9="50.87861"></scales>
<clustering>
<clus scale="   50.879">  2  9  1 -1</clus>
<clus scale="   81.088">  5  6 -1 -1</clus>
<clus scale="   92.548">  7  8 -1 -1</clus>
<clus scale="  178.355">  1  5  2 -1</clus>
<clus scale="   50.879">  2  5  1 -1</clus>
</clustering>
</event>
<event>
 9    2  0.1325014E-004  0.1369975E+03  0.7546771E-02  0.1219688E+00
         21   -1    0    0  501  502  0.00000000000E+00  0.00000000000E+00  0.72043736287E+02  0.72043736287E+02  0.00000000000E+00 0. -1.
          2   -1    0    0  502    0 -0.00000000000E+00 -0.00000000000E+00 -0.44182031696E+03  0.44182031696E+03  0.00000000000E+00 0. -1.
         23    2    1    2    0    0 -0.18306035070E+02 -0.11547560653E+03 -0.25771810662E+03  0.29703848541E+03  0.90241413510E+02 0.  0.
         24    2    1    2    0    0 -0.14259499708E+02  0.87681953698E+02 -0.12402086660E+03  0.17237222118E+03  0.80246800222E+02 0.  0.
        -11    1    4    4    0    0 -0.18475266432E+02  0.52006774519E+02 -0.14433419531E+02  0.57047030290E+02  0.00000000000E+00 0.  1.
         12    1    4    4    0    0  0.42157667240E+01  0.35675179179E+02 -0.10958744707E+03  0.11532519089E+03  0.00000000000E+00 0. -1.
        -11    1    3    3    0    0 -0.23264658673E+02 -0.31454210656E+02 -0.18174818152E+02  0.43138564255E+02  0.00000000000E+00 0. -1.
         11    1    3    3    0    0  0.49586236030E+01 -0.84021395869E+02 -0.23954328847E+03  0.25389992116E+03  0.00000000000E+00 0.  1.
          1    1    1    2  501    0  0.32565534778E+02  0.27793652827E+02  0.11962392554E+02  0.44453346651E+02  0.00000000000E+00 0. -1.
<scales pt_clust_5="13000.00000" pt_clust_6="13000.00000" pt_clust_7="13000.00000" pt_clust_8="13000.00000" pt_clust_9="42.81356"></scales>
<clustering>
<clus scale="   42.814">  1  9  2 -1</clus>
<clus scale="   80.247">  5  6 -1 -1</clus>
<clus scale="   90.241">  7  8 -1 -1</clus>
<clus scale="  130.631">  1  5  2 -1</clus>
<clus scale="   42.814">  1  5  2 -1</clus>
</clustering>
</event>
<event>
 9    2  0.1325014E-004  0.2011920E+03  0.7546771E-02  0.1190525E+00
         21   -1    0    0  501  502  0.00000000000E+00  0.00000000000E+00  0.74851892689E+02  0.74851892689E+02  0.00000000000E+00 0. -1.
          2   -1    0    0  502    0 -0.00000000000E+00 -0.00000000000E+00 -0.73082381680E+03  0.73082381680E+03  0.00000000000E+00 0. -1.
         24    2    1    2    0    0 -0.12660615051E+01  0.10234703650E+02 -0.10302290364E+03  0.12878911147E+03  0.76593501602E+02 0.  0.
         23    2    1    2    0    0 -0.11232135618E+03  0.13547904002E+03 -0.21872917033E+03  0.29499982844E+03  0.90618935584E+02 0.  0.
        -13    1    3    3    0    0  0.26494043225E+01 -0.26968243033E+02 -0.10626484208E+02  0.29107175098E+02  0.00000000000E+00 0.  1.
         14    1    3    3    0    0 -0.39154658276E+01  0.37202946684E+02 -0.92396419430E+02  0.99681936368E+02  0.00000000000E+00 0. -1.
        -11    1    4    4    0    0 -0.61769494666E+02  0.10702155127E+02 -0.80678259844E+02  0.10217136687E+03  0.00000000000E+00 0.  1.
         11    1    4    4    0    0 -0.50551861514E+02  0.12477688490E+03 -0.13805091048E+03  0.19282846157E+03  0.00000000000E+00 0. -1.
          1    1    1    2  501    0  0.11358741769E+03 -0.14571374367E+03 -0.33421985015E+03  0.38188676959E+03  0.00000000000E+00 0. -1.
<scales pt_clust_5="13000.00000" pt_clust_6="13000.00000" pt_clust_7="13000.00000" pt_clust_8="13000.00000" pt_clust_9="179.62869"></scales>
<clustering>
<clus scale="   76.594">  5  6 -1 -1</clus>
<clus scale="   77.285">  2  5  1 -1</clus>
<clus scale="   90.619">  7  8 -1 -1</clus>
<clus scale="  179.629">  1  9  2 -1</clus>
<clus scale="  179.629">  1  5  2 -1</clus>
</clustering>
</event>
<event>
 9    2  0.1325014E-004  0.1832359E+03  0.7546771E-02  0.1165873E+00
          2   -1    0    0  502    0 -0.00000000000E+00  0.00000000000E+00  0.60557163761E+03  0.60557163761E+03  0.00000000000E+00 0. -1.
         21   -1    0    0  501  502  0.00000000000E+00 -0.00000000000E+00 -0.80761720521E+02  0.80761720521E+02  0.00000000000E+00 0.  1.
         23    2    1    2    0    0 -0.14270219164E+03 -0.71679244237E+02  0.40544809910E+03  0.44509734482E+03  0.90673346429E+02 0.  0.
         24    2    1    2    0    0  0.15359676790E+03  0.44523123436E+02  0.92341370392E+02  0.20140824313E+03  0.80399478149E+02 0.  0.
        -11    1    4    4    0    0  0.11653650337E+03  0.11507747215E+02  0.96304140204E+02  0.15161686016E+03  0.00000000000E+00 0.  1.
         12    1    4    4    0    0  0.37060264521E+02  0.33015376221E+02 -0.39627698121E+01  0.49791382969E+02  0.00000000000E+00 0. -1.
        -13    1    3    3    0    0 -0.48475546633E+02 -0.69182199796E+02  0.14119303716E+03  0.16453427951E+03  0.00000000000E+00 0.  1.
         13    1    3    3    0    0 -0.94226645005E+02 -0.24970444410E+01  0.26425506194E+03  0.28056306532E+03  0.00000000000E+00 0. -1.
          1    1    1    2  501    0 -0.10894576258E+02  0.27156120801E+02  0.27020447595E+02  0.39827770174E+02  0.00000000000E+00 0. -1.
<scales pt_clust_5="13000.00000" pt_clust_6="13000.00000" pt_clust_7="13000.00000" pt_clust_8="13000.00000" pt_clust_9="29.25998"></scales>
<clustering>
<clus scale="   29.260">  2  9  1 -1</clus>
<clus scale="   80.399">  5  6 -1 -1</clus>
<clus scale="   90.673">  7  8 -1 -1</clus>
<clus scale="  178.375">  2  5  1 -1</clus>
<clus scale="   29.260">  2  5  1 -1</clus>
</clustering>
</event>
<event>
 9    2  0.1325014E-004  0.1216583E+03  0.7546771E-02  0.1243993E+00
          4   -1    0    0  502    0 -0.00000000000E+00  0.00000000000E+00  0.77341678959E+03  0.77341678959E+03  0.00000000000E+00 0. -1.
         21   -1    0    0  501  502  0.00000000000E+00 -0.00000000000E+00 -0.10628548074E+03  0.10628548074E+03  0.00000000000E+00 0. -1.
         24    2    1    2    0    0 -0.46316235189E+02 -0.77988129924E+02  0.55120724089E+03  0.56457415976E+03  0.81775408357E+02 0.  0.
         23    2    1    2    0    0  0.90540809603E+02 -0.35347393594E+02  0.13801757508E+03  0.19147991232E+03  0.90380469986E+02 0.  0.
        -13    1    3    3    0    0  0.22538201238E+02 -0.21364858299E+02  0.10267757099E+03  0.10727120429E+03  0.00000000000E+00 0.  1.
         14    1    3    3    0    0 -0.68854436427E+02 -0.56623271625E+02  0.44852966990E+03  0.45730295548E+03  0.00000000000E+00 0. -1.
        -11    1    4    4    0    0  0.96868248277E+01 -0.49514753622E+02  0.57491761651E+02  0.76490836440E+02  0.00000000000E+00 0. -1.
         11    1    4    4    0    0  0.80853984775E+02  0.14167360028E+02  0.80525813426E+02  0.11498907588E+03  0.00000000000E+00 0.  1.
          3    1    1    2  501    0 -0.44224574413E+02  0.11333552352E+03 -0.22093507120E+02  0.12364819825E+03  0.00000000000E+00 0. -1.
<scales pt_clust_5="13000.00000" pt_clust_6="13000.00000" pt_clust_7="13000.00000" pt_clust_8="13000.00000" pt_clust_9="121.65835"></scales>
<clustering>
<clus scale="   81.775">  5  6 -1 -1</clus>
<clus scale="   90.380">  7  8 -1 -1</clus>
<clus scale="  121.658">  2  9  1 -1</clus>
<clus scale="  113.094">  1  5  2 -1</clus>
<clus scale="  121.658">  2  5  1 -1</clus>
</clustering>
</event>
<event>
 9    2  0.1325014E-004  0.2126489E+03  0.7546771E-02  0.1160711E+00
          2   -1    0    0  502    0 -0.00000000000E+00  0.00000000000E+00  0.59062732954E+03  0.59062732954E+03  0.00000000000E+00 0. -1.
         21   -1    0    0  501  502  0.00000000000E+00 -0.00000000000E+00 -0.15409993701E+03  0.15409993701E+03  0.00000000000E+00 0. -1.
         24    2    1    2    0    0  0.90551424456E+02  0.44417794157E+02  0.10718870664E+03  0.16741813042E+03  0.79792923584E+02 0.  0.
         23    2    1    2    0    0 -0.21911380354E+02 -0.20367478614E+03  0.23872024709E+02  0.22604836941E+03  0.92544392856E+02 0.  0.
        -11    1    3    3    0    0  0.21622197191E+02  0.24259367695E+02  0.86920213125E+02  0.92796334960E+02  0.00000000000E+00 0.  1.
         12    1    3    3    0    0  0.68929227265E+02  0.20158426462E+02  0.20268493518E+02  0.74621795464E+02  0.00000000000E+00 0. -1.
        -11    1    4    4    0    0  0.34310482051E+02 -0.63900279891E+02  0.20428742624E+02  0.75351101345E+02  0.00000000000E+00 0.  1.
         11    1    4    4    0    0 -0.56221862405E+02 -0.13977450625E+03  0.34432820851E+01  0.15069726806E+03  0.00000000000E+00 0. -1.
          1    1    1    2  501    0 -0.68640044102E+02  0.15925699198E+03  0.30546666117E+03  0.35126076672E+03  0.00000000000E+00 0. -1.
<scales pt_clust_5="13000.00000" pt_clust_6="13000.00000" pt_clust_7="13000.00000" pt_clust_8="13000.00000" pt_clust_9="191.45526"></scales>
<clustering>
<clus scale="   79.793">  5  6 -1 -1</clus>
<clus scale="   92.544">  7  8 -1 -1</clus>
<clus scale="  128.606">  1  5  2 -1</clus>
<clus scale="  191.455">  2  9  1 -1</clus>
<clus scale="  191.455">  2  5  1 -1</clus>
</clustering>
</event>
<event>
 9    2  0.1325014E-004  0.1168234E+03  0.7546771E-02  0.1251197E+00
         21   -1    0    0  501  502  0.00000000000E+00  0.00000000000E+00  0.18212101150E+03  0.18212101150E+03  0.00000000000E+00 0. -1.
          4   -1    0    0  502    0 -0.00000000000E+00 -0.00000000000E+00 -0.12412537508E+03  0.12412537508E+03  0.00000000000E+00 0. -1.
         23    2    1    2    0    0  0.56694829988E+02 -0.51600032675E+02 -0.45668576542E+02  0.12637814121E+03  0.89492729162E+02 0.  0.
         24    2    1    2    0    0 -0.31229960896E+02  0.67951993400E+02  0.10084172679E+03  0.14947395963E+03  0.81121063109E+02 0.  0.
        -13    1    4    4    0    0 -0.21617259524E+02  0.58083419338E+02  0.16664800353E+02  0.64177138314E+02  0.00000000000E+00 0.  1.
         14    1    4    4    0    0 -0.96127013720E+01  0.98685740616E+01  0.84176926437E+02  0.85296821313E+02  0.00000000000E+00 0. -1.
        -13    1    3    3    0    0 -0.12079918463E+02 -0.34681539468E+02  0.79134653024E+01  0.37568025541E+02  0.00000000000E+00 0.  1.
         13    1    3    3    0    0  0.68774748451E+02 -0.16918493206E+02 -0.53582041845E+02  0.88810115669E+02  0.00000000000E+00 0. -1.
          3    1    1    2  501    0 -0.25464869092E+02 -0.16351960725E+02  0.28224861730E+01  0.30394285740E+02  0.00000000000E+00 0. -1.
<scales pt_clust_5="13000.00000" pt_clust_6="13000.00000" pt_clust_7="13000.00000" pt_clust_8="13000.00000" pt_clust_9="30.26297"></scales>
<clustering>
<clus scale="   30.263">  1  9  2 -1</clus>
<clus scale="   81.121">  5  6 -1 -1</clus>
<clus scale="   89.493">  7  8 -1 -1</clus>
<clus scale="  110.541">  1  5  2 -1</clus>
<clus scale="   30.263">  1  5  2 -1</clus>
</clustering>
</event>
<event>
 9    2  0.1325014E-004  0.2252981E+03  0.7546771E-02  0.1129994E+00
          4   -1    0    0  502    0 -0.00000000000E+00  0.00000000000E+00  0.54682867725E+02  0.54682867725E+02  0.00000000000E+00 0. -1.
         21   -1    0    0  501  502  0.00000000000E+00 -0.00000000000E+00 -0.56583982611E+03  0.56583982611E+03  0.00000000000E+00 0. -1.
         24    2    1    2    0    0 -0.64231151547E+02  0.48264519582E+02 -0.15616553473E+03  0.19306230977E+03  0.80189005069E+02 0.  0.
         23    2    1    2    0    0  0.36126432802E+01  0.62743277235E+02 -0.16752819715E+03  0.20131928699E+03  0.92271276375E+02 0.  0.
        -13    1    3    3    0    0 -0.38360126183E+02 -0.50298574428E+01 -0.11389318026E+03  0.12028489206E+03  0.00000000000E+00 0.  1.
         14    1    3    3    0    0 -0.25871025364E+02  0.53294377025E+02 -0.42272354469E+02  0.72777417708E+02  0.00000000000E+00 0. -1.
        -11    1    4    4    0    0  0.10416457266E+02 -0.23087159539E+02 -0.43471531651E+02  0.50311962610E+02  0.00000000000E+00 0.  1.
         11    1    4    4    0    0 -0.68038139854E+01  0.85830436774E+02 -0.12405666550E+03  0.15100732438E+03  0.00000000000E+00 0. -1.
          3    1    1    2  501    0  0.60618508267E+02 -0.11100779682E+03 -0.18746322651E+03  0.22614109709E+03  0.00000000000E+00 0. -1.
<scales pt_clust_5="13000.00000" pt_clust_6="13000.00000" pt_clust_7="13000.00000" pt_clust_8="13000.00000" pt_clust_9="126.48057"></scales>
<clustering>
<clus scale="   80.189">  5  6 -1 -1</clus>
<clus scale="   92.271">  7  8 -1 -1</clus>
<clus scale="  109.942">  5  7 -1 -1</clus>
<clus scale="  126.481">  2  9  1 -1</clus>
<clus scale="  126.481">  2  5  1 -1</clus>
</clustering>
</event>
<event>
 9    2  0.1325014E-004  0.2987311E+03  0.7546771E-02  0.1086420E+00
         21   -1    0    0  501  502  0.00000000000E+00  0.00000000000E+00  0.49155453873E+02  0.49155453873E+02  0.00000000000E+00 0.  1.
          2   -1    0    0  502    0 -0.00000000000E+00 -0.00000000000E+00 -0.25391105705E+04  0.25391105705E+04  0.00000000000E+00 0. -1.
         23    2    1    2    0    0  0.26291298426E+03 -0.10051489934E+03 -0.14541612957E+04  0.14839969806E+04  0.91844881294E+02 0.  0.
         24    2    1    2    0    0 -0.26006723558E+03  0.12560309402E+03 -0.10367929515E+04  0.10790002080E+04  0.76751027993E+02 0.  0.
        -11    1    4    4    0    0 -0.15543916925E+03  0.51083416822E+02 -0.46468340823E+03  0.49264746086E+03  0.00000000000E+00 0.  1.
         12    1    4    4    0    0 -0.10462806633E+03  0.74519677194E+02 -0.57210954331E+03  0.58635274716E+03  0.00000000000E+00 0. -1.
        -11    1    3    3    0    0  0.16712175704E+03 -0.10075281914E+03 -0.10965364105E+04  0.11137651960E+04  0.00000000000E+00 0.  1.
         11    1    3    3    0    0  0.95791227228E+02  0.23791980169E+00 -0.35762488519E+03  0.37023178460E+03  0.00000000000E+00 0. -1.
          1    1    1    2  501    0 -0.28457486845E+01 -0.25088194678E+02  0.99913062881E+00  0.25268835743E+02  0.00000000000E+00 0. -1.
<scales pt_clust_5="13000.00000" pt_clust_6="13000.00000" pt_clust_7="13000.00000" pt_clust_8="13000.00000" pt_clust_9="25.24908"></scales>
<clustering>
<clus scale="   25.249">  1  9  2 -1</clus>
<clus scale="   76.751">  5  6 -1 -1</clus>
<clus scale="   91.845">  7  8 -1 -1</clus>
<clus scale="  294.441">  1  5  2 -1</clus>
<clus scale="   25.249">  1  5  2 -1</clus>
</clustering>
</event>
<event>
 9    2  0.1325014E-004  0.1066915E+03  0.7546771E-02  0.1274577E+00
         21   -1    0    0  501  502  0.00000000000E+00  0.00000000000E+00  0.26502709957E+02  0.26502709957E+02  0.00000000000E+00 0.  1.
          2   -1    0    0  502    0 -0.00000000000E+00 -0.00000000000E+00 -0.67532265627E+03  0.67532265627E+03  0.00000000000E+00 0. -1.
         24    2    1    2    0    0 -0.44432907861E+02 -0.50854219468E+02 -0.26370709579E+03  0.28258829274E+03  0.75856943577E+02 0.  0.
         23    2    1    2    0    0  0.24303382004E+02  0.13371928932E+02 -0.14025395868E+03  0.17070941541E+03  0.93279519302E+02 0.  0.
        -13    1    3    3    0    0 -0.31000151227E+02  0.45601977162E+01 -0.17025706294E+03  0.17311635469E+03  0.00000000000E+00 0.  1.
         14    1    3    3    0    0 -0.13432756634E+02 -0.55414417184E+02 -0.93450032843E+02  0.10947193805E+03  0.00000000000E+00 0. -1.
        -11    1    4    4    0    0  0.60024235516E+02  0.72867866088E+01 -0.78187619556E+02  0.98839819710E+02  0.00000000000E+00 0.  1.
         11    1    4    4    0    0 -0.35720853512E+02  0.60851423234E+01 -0.62066339127E+02  0.71869595695E+02  0.00000000000E+00 0. -1.
          1    1    1    2  501    0  0.20129525857E+02  0.37482290536E+02 -0.24485889184E+03  0.24852765808E+03  0.00000000000E+00 0. -1.
<scales pt_clust_5="13000.00000" pt_clust_6="13000.00000" pt_clust_7="13000.00000" pt_clust_8="13000.00000" pt_clust_9="42.54553"></scales>
<clustering>
<clus scale="   42.546">  1  9  2 -1</clus>
<clus scale="   75.857">  5  6 -1 -1</clus>
<clus scale="   91.849">  2  5  1 -1</clus>
<clus scale="   93.280">  7  8 -1 -1</clus>
<clus scale="   42.546">  1  5  2 -1</clus>
</clustering>
</event>
<event>
 9    2  0.1325014E-004  0.1022991E+03  0.7546771E-02  0.1281730E+00
          4   -1    0    0  502    0 -0.00000000000E+00  0.00000000000E+00  0.10874112835E+03  0.10874112835E+03  0.00000000000E+00 0. -1.
         21   -1    0    0  501  502  0.00000000000E+00 -0.00000000000E+00 -0.16041784613E+03  0.16041784613E+03  0.00000000000E+00 0.  1.
         23    2    1    2    0    0 -0.36928974210E+02 -0.34152752677E+02  0.55223822513E+02  0.11818913824E+03  0.91590622734E+02 0.  0.
         24    2    1    2    0    0  0.28145218916E+02  0.14699913607E+02 -0.79644019724E+02  0.11635069098E+03  0.78651589981E+02 0.  0.
        -11    1    4    4    0    0  0.55701471193E+02  0.11718007665E+02 -0.49932519616E+02  0.75718043503E+02  0.00000000000E+00 0.  1.
         12    1    4    4    0    0 -0.27556252277E+02  0.29819059419E+01 -0.29711500109E+02  0.40632647481E+02  0.00000000000E+00 0. -1.
        -13    1    3    3    0    0 -0.40608357322E+01 -0.35731866970E+02 -0.16281307875E+02  0.39475786125E+02  0.00000000000E+00 0.  1.
         13    1    3    3    0    0 -0.32868138478E+02  0.15791142936E+01  0.71505130389E+02  0.78713352113E+02  0.00000000000E+00 0. -1.
          3    1    1    2  501    0  0.87837552944E+01  0.19452839070E+02 -0.27256520569E+02  0.34619145259E+02  0.00000000000E+00 0. -1.
<scales pt_clust_5="13000.00000" pt_clust_6="13000.00000" pt_clust_7="13000.00000" pt_clust_8="13000.00000" pt_clust_9="21.34402"></scales>
<clustering>
<clus scale="   21.344">  2  9  1 -1</clus>
<clus scale="   78.652">  5  6 -1 -1</clus>
<clus scale="   90.897">  2  5  1 -1</clus>
<clus scale="   91.591">  7  8 -1 -1</clus>
<clus scale="   21.344">  2  5  1 -1</clus>
</clustering>
</event>
<event>
 9    2  0.1325014E-004  0.1112043E+03  0.7546771E-02  0.1264770E+00
          4   -1    0    0  502    0 -0.00000000000E+00  0.00000000000E+00  0.20460687542E+03  0.20460687542E+03  0.00000000000E+00 0. -1.
         21   -1    0    0  501  502  0.00000000000E+00 -0.00000000000E+00 -0.10675071825E+03  0.10675071825E+03  0.00000000000E+00 0.  1.
         24    2    1    2    0    0 -0.31534188777E+02  0.44139085587E+02  0.13093514527E+03  0.16270234199E+03  0.79908546999E+02 0.  0.
         23    2    1    2    0    0  0.23410768307E+02 -0.65919534682E+02 -0.15376527469E+02  0.11943616486E+03  0.95577773323E+02 0.  0.
        -11    1    3    3    0    0  0.22245112577E+02 -0.27132199878E+01  0.50190717237E+02  0.54966487000E+02  0.00000000000E+00 0.  1.
         12    1    3    3    0    0 -0.53779301355E+02  0.46852305575E+02  0.80744428030E+02  0.10773585499E+03  0.00000000000E+00 0. -1.
        -11    1    4    4    0    0 -0.21065315831E+02 -0.54420675913E+02  0.19749961461E+02  0.61606967752E+02  0.00000000000E+00 0. -1.
         11    1    4    4    0    0  0.44476084139E+02 -0.11498858769E+02 -0.35126488930E+02  0.57829197106E+02  0.00000000000E+00 0.  1.
          3    1    1    2  501    0  0.81234204699E+01  0.21780449095E+02 -0.17702460623E+02  0.29219086827E+02  0.00000000000E+00 0. -1.
<scales pt_clust_5="13000.00000" pt_clust_6="13000.00000" pt_clust_7="13000.00000" pt_clust_8="13000.00000" pt_clust_9="23.24603"></scales>
<clustering>
<clus scale="   23.246">  2  9  1 -1</clus>
<clus scale="   79.909">  5  6 -1 -1</clus>
<clus scale="   95.578">  7  8 -1 -1</clus>
<clus scale="   98.065">  1  5  2 -1</clus>
<clus scale="   23.246">  2  5  1 -1</clus>
</clustering>
</event>
<event>
 9    2  0.1325014E-004  0.3356668E+03  0.7546771E-02  0.1068657E+00
          2   -1    0    0  502    0 -0.00000000000E+00  0.00000000000E+00  0.16367894924E+04  0.16367894924E+04  0.00000000000E+00 0. -1.
         21   -1    0    0  501  502  0.00000000000E+00 -0.00000000000E+00 -0.52660428492E+02  0.52660428492E+02  0.00000000000E+00 0. -1.
         24    2    1    2    0    0  0.18493566876E+03  0.95672364293E+02  0.67175274820E+03  0.70781698325E+03  0.79992025818E+02 0.  0.
         23    2    1    2    0    0  0.28887065509E+02  0.35630123685E+02  0.27198849166E+03  0.29384149379E+03  0.10129716488E+03 0.  0.
        -11    1    3    3    0    0  0.43050125543E+02 -0.96050103414E+01  0.17877074924E+03  0.18413188294E+03  0.00000000000E+00 0.  1.
         12    1    3    3    0    0  0.14188554321E+03  0.10527737463E+03  0.49298199896E+03  0.52368510031E+03  0.00000000000E+00 0. -1.
        -11    1    4    4    0    0  0.18759358464E+02  0.71316532843E+02  0.16951227316E+03  0.18485770781E+03  0.00000000000E+00 0.  1.
         11    1    4    4    0    0  0.10127707045E+02 -0.35686409158E+02  0.10247621850E+03  0.10898378598E+03  0.00000000000E+00 0. -1.
          1    1    1    2  501    0 -0.21382273427E+03 -0.13130248798E+03  0.64038782401E+03  0.68779144381E+03  0.00000000000E+00 0. -1.
<scales pt_clust_5="13000.00000" pt_clust_6="13000.00000" pt_clust_7="13000.00000" pt_clust_8="13000.00000" pt_clust_9="250.91932"></scales>
<clustering>
<clus scale="   79.992">  5  6 -1 -1</clus>
<clus scale="  101.297">  7  8 -1 -1</clus>
<clus scale="  104.145">  5  7 -1 -1</clus>
<clus scale="  250.919">  2  9  1 -1</clus>
<clus scale="  250.919">  2  5  1 -1</clus>
</clustering>
</event>
<event>
 9    2  0.1325014E-004  0.8912239E+02  0.7546771E-02  0.1311731E+00
          2   -1    0    0  502    0 -0.00000000000E+00  0.00000000000E+00  0.26483220021E+03  0.26483220021E+03  0.00000000000E+00 0. -1.
         21   -1    0    0  501  502  0.00000000000E+00 -0.00000000000E+00 -0.64274530689E+02  0.64274530689E+02  0.00000000000E+00 0. -1.
         24    2    1    2    0    0  0.18184379243E+02  0.52696812511E+02  0.14759979835E+03  0.17701285172E+03  0.80251003124E+02 0.  0.
         23    2    1    2    0    0  0.14532710747E+02 -0.23931888644E+02  0.73084104678E+02  0.10410540038E+03  0.68649202884E+02 0.  0.
        -11    1    3    3    0    0 -0.27282607848E+02  0.26279627103E+02  0.30448134383E+02  0.48600909241E+02  0.00000000000E+00 0.  1.
         12    1    3    3    0    0  0.45466987091E+02  0.26417185408E+02  0.11715166397E+03  0.12841194248E+03  0.00000000000E+00 0. -1.
        -11    1    4    4    0    0  0.38348725887E+02 -0.12299763459E+02  0.20434454315E+02  0.45160556700E+02  0.00000000000E+00 0. -1.
         11    1    4    4    0    0 -0.23816015140E+02 -0.11632125185E+02  0.52649650363E+02  0.58944843683E+02  0.00000000000E+00 0.  1.
          1    1    1    2  501    0 -0.32717089990E+02 -0.28764923867E+02 -0.20126233507E+02  0.47988478801E+02  0.00000000000E+00 0. -1.
<scales pt_clust_5="13000.00000" pt_clust_6="13000.00000" pt_clust_7="13000.00000" pt_clust_8="13000.00000" pt_clust_9="43.56408"></scales>
<clustering>
<clus scale="   43.564">  2  9  1 -1</clus>
<clus scale="   68.649">  7  8 -1 -1</clus>
<clus scale="   78.837">  2  7  1 -1</clus>
<clus scale="   80.251">  5  6 -1 -1</clus>
<clus scale="   43.564">  2  5  1 -1</clus>
</clustering>
</event>
<event>
 9    2  0.1325014E-004  0.1104099E+03  0.7546771E-02  0.1262201E+00
          2   -1    0    0  502    0 -0.00000000000E+00  0.00000000000E+00  0.64780309431E+03  0.64780309431E+03  0.00000000000E+00 0. -1.
         21   -1    0    0  501  502  0.00000000000E+00 -0.00000000000E+00 -0.10360446637E+03  0.10360446637E+03  0.00000000000E+00 0. -1.
         24    2    1    2    0    0 -0.50502219321E+02 -0.26932299926E+02  0.13104441197E+03  0.16341749474E+03  0.79100042620E+02 0.  0.
         23    2    1    2    0    0  0.10541317314E+03  0.84461802532E+02 -0.72374307337E+01  0.16014197007E+03  0.85716608757E+02 0.  0.
        -13    1    3    3    0    0 -0.22562957916E+02 -0.50839253169E+02  0.51575357203E+02  0.75853373051E+02  0.00000000000E+00 0.  1.
         14    1    3    3    0    0 -0.27939261406E+02  0.23906953243E+02  0.79469054765E+02  0.87564121686E+02  0.00000000000E+00 0. -1.
        -13    1    4    4    0    0  0.11026974692E+03  0.43256729574E+02 -0.68765119312E+01  0.11865010811E+03  0.00000000000E+00 0. -1.
         13    1    4    4    0    0 -0.48565737808E+01  0.41205072958E+02 -0.36091880253E+00  0.41491861958E+02  0.00000000000E+00 0.  1.
          1    1    1    2  501    0 -0.54910953816E+02 -0.57529502606E+02  0.42039164670E+03  0.42784809587E+03  0.00000000000E+00 0. -1.
<scales pt_clust_5="13000.00000" pt_clust_6="13000.00000" pt_clust_7="13000.00000" pt_clust_8="13000.00000" pt_clust_9="79.52901"></scales>
<clustering>
<clus scale="   79.100">  5  6 -1 -1</clus>
<clus scale="   79.529">  2  9  1 -1</clus>
<clus scale="   85.717">  7  8 -1 -1</clus>
<clus scale="  105.356">  1  5  2 -1</clus>
<clus scale="   79.529">  2  5  1 -1</clus>
</clustering>
</event>
<event>
 9    2  0.1325014E-004  0.1218746E+03  0.7546771E-02  0.1243267E+00
         21   -1    0    0  501  502  0.00000000000E+00  0.00000000000E+00  0.20432352657E+03  0.20432352657E+03  0.00000000000E+00 0. -1.
          2   -1    0    0  502    0 -0.00000000000E+00 -0.00000000000E+00 -0.42818260724E+03  0.42818260724E+03  0.00000000000E+00 0. -1.
         24    2    1    2    0    0 -0.79463792249E+02 -0.62332043657E+01 -0.26826473271E+03  0.29089555217E+03  0.79378261139E+02 0.  0.
         23    2    1    2    0    0  0.12223518341E+03 -0.17163289324E+02  0.15688216240E+03  0.21902284489E+03  0.90127549287E+02 0.  0.
        -11    1    3    3    0    0 -0.31707173711E+02 -0.38724462941E+02 -0.83898195722E+02  0.97692559288E+02  0.00000000000E+00 0.  1.
         12    1    3    3    0    0 -0.47756618538E+02  0.32491258575E+02 -0.18436653699E+03  0.19320299288E+03  0.00000000000E+00 0. -1.
        -11    1    4    4    0    0  0.77161748829E+02 -0.11645331883E+02  0.28886163317E+02  0.83210333903E+02  0.00000000000E+00 0.  1.
         11    1    4    4    0    0  0.45073434580E+02 -0.55179574408E+01  0.12799599908E+03  0.13581251099E+03  0.00000000000E+00 0. -1.
          1    1    1    2  501    0 -0.42771391161E+02  0.23396493689E+02 -0.11247651037E+03  0.12258773675E+03  0.00000000000E+00 0. -1.
<scales pt_clust_5="13000.00000" pt_clust_6="13000.00000" pt_clust_7="13000.00000" pt_clust_8="13000.00000" pt_clust_9="48.75234"></scales>
<clustering>
<clus scale="   48.752">  1  9  2 -1</clus>
<clus scale="   79.378">  5  6 -1 -1</clus>
<clus scale="   90.128">  7  8 -1 -1</clus>
<clus scale="  114.155">  2  5  1 -1</clus>
<clus scale="   48.752">  1  5  2 -1</clus>
</clustering>
</event>
<event>
 9    2  0.1325014E-004  0.1033833E+03  0.7546771E-02  0.1282883E+00
         21   -1    0    0  501  502  0.00000000000E+00  0.00000000000E+00  0.58178694385E+02  0.58178694385E+02  0.00000000000E+00 0.  1.
          2   -1    0    0  502    0 -0.00000000000E+00 -0.00000000000E+00 -0.22334365160E+03  0.22334365160E+03  0.00000000000E+00 0. -1.
         24    2    1    2    0    0  0.22157759502E+02 -0.41390204600E+02 -0.12633303160E+03  0.15437832070E+03  0.75289545667E+02 0.  0.
         23    2    1    2    0    0 -0.56171968632E+01  0.28519155807E+02 -0.24867870702E+02  0.10195972583E+03  0.94511795819E+02 0.  0.
        -13    1    3    3    0    0  0.29776711245E+02 -0.58211117584E+02 -0.11615400203E+03  0.13329268146E+03  0.00000000000E+00 0.  1.
         14    1    3    3    0    0 -0.76189517426E+01  0.16820912985E+02 -0.10179029568E+02  0.21085639242E+02  0.00000000000E+00 0. -1.
        -11    1    4    4    0    0 -0.31600699299E+02  0.28634593431E+02 -0.50064999033E+02  0.65765099143E+02  0.00000000000E+00 0. -1.
         11    1    4    4    0    0  0.25983502436E+02 -0.11543762410E+00  0.25197128331E+02  0.36194626684E+02  0.00000000000E+00 0.  1.
          1    1    1    2  501    0 -0.16540562639E+02  0.12871048793E+02 -0.13964054912E+02  0.25184299455E+02  0.00000000000E+00 0. -1.
<scales pt_clust_5="13000.00000" pt_clust_6="13000.00000" pt_clust_7="13000.00000" pt_clust_8="13000.00000" pt_clust_9="20.95839"></scales>
<clustering>
<clus scale="   20.958">  1  9  2 -1</clus>
<clus scale="   75.290">  5  6 -1 -1</clus>
<clus scale="   86.163">  2  5  1 -1</clus>
<clus scale="   94.512">  7  8 -1 -1</clus>
<clus scale="   20.958">  1  5  2 -1</clus>
</clustering>
</event>
<event>
 9    2  0.1325014E-004  0.1530173E+03  0.7546771E-02  0.1213137E+00
         21   -1    0    0  501  502  0.00000000000E+00  0.00000000000E+00  0.77838436117E+02  0.77838436117E+02  0.00000000000E+00 0.  1.
          2   -1    0    0  502    0 -0.00000000000E+00 -0.00000000000E+00 -0.49884274856E+03  0.49884274856E+03  0.00000000000E+00 0. -1.
         24    2    1    2    0    0 -0.16366349581E+02 -0.70307820539E+02 -0.10540490883E+03  0.15066943626E+03  0.79875134995E+02 0.  0.
         23    2    1    2    0    0  0.12402545950E+03 -0.51204941699E+01 -0.18857909678E+03  0.24321658175E+03  0.90463781875E+02 0.  0.
        -11    1    3    3    0    0 -0.37357738832E+02 -0.51597328426E+02 -0.30433551312E+02  0.70598059441E+02  0.00000000000E+00 0.  1.
         12    1    3    3    0    0  0.20991389251E+02 -0.18710492112E+02 -0.74971357521E+02  0.80071376823E+02  0.00000000000E+00 0. -1.
        -11    1    4    4    0    0  0.92408580037E+02  0.32062810250E+02 -0.88665218820E+02  0.13201852330E+03  0.00000000000E+00 0.  1.
         11    1    4    4    0    0  0.31616879465E+02 -0.37183304420E+02 -0.99913877955E+02  0.11119805845E+03  0.00000000000E+00 0. -1.
          1    1    1    2  501    0 -0.10765910992E+03  0.75428314709E+02 -0.12702030684E+03  0.18279516667E+03  0.00000000000E+00 0. -1.
<scales pt_clust_5="13000.00000" pt_clust_6="13000.00000" pt_clust_7="13000.00000" pt_clust_8="13000.00000" pt_clust_9="123.41236"></scales>
<clustering>
<clus scale="   79.875">  5  6 -1 -1</clus>
<clus scale="   90.464">  7  8 -1 -1</clus>
<clus scale="  107.662">  2  5  1 -1</clus>
<clus scale="  123.412">  1  9  2 -1</clus>
<clus scale="  123.412">  1  5  2 -1</clus>
</clustering>
</event>
<event>
 9    2  0.1325014E-004  0.2339705E+03  0.7546771E-02  0.1156643E+00
         21   -1    0    0  501  502  0.00000000000E+00  0.00000000000E+00  0.34383972537E+03  0.34383972537E+03  0.00000000000E+00 0.  1.
          4   -1    0    0  502    0 -0.00000000000E+00 -0.00000000000E+00 -0.75314967289E+03  0.75314967289E+03  0.00000000000E+00 0. -1.
         24    2    1    2    0    0 -0.26209545754E+01  0.67381437444E+02 -0.12200060058E+03  0.16172730885E+03  0.82002733915E+02 0.  0.
         23    2    1    2    0    0  0.15522953352E+03  0.14198262423E+03  0.24900375726E+03  0.33964943472E+03  0.95412754485E+02 0.  0.
        -13    1    3    3    0    0 -0.39659537612E+02  0.20735789895E+02 -0.67531318906E+02  0.81014387236E+02  0.00000000000E+00 0.  1.
         14    1    3    3    0    0  0.37038583036E+02  0.46645647549E+02 -0.54469281678E+02  0.80712921612E+02  0.00000000000E+00 0. -1.
        -13    1    4    4    0    0  0.15351579655E+03  0.97251231276E+02  0.22375527263E+03  0.28825565703E+03  0.00000000000E+00 0.  1.
         13    1    4    4    0    0  0.17137369639E+01  0.44731392955E+02  0.25248484627E+02  0.51393777698E+02  0.00000000000E+00 0. -1.
          3    1    1    2  501    0 -0.15260857894E+03 -0.20936406167E+03 -0.53631310420E+03  0.59561265468E+03  0.00000000000E+00 0. -1.
<scales pt_clust_5="13000.00000" pt_clust_6="13000.00000" pt_clust_7="13000.00000" pt_clust_8="13000.00000" pt_clust_9="213.63203"></scales>
<clustering>
<clus scale="   82.003">  5  6 -1 -1</clus>
<clus scale="   95.413">  7  8 -1 -1</clus>
<clus scale="  106.168">  2  5  1 -1</clus>
<clus scale="  213.632">  1  9  2 -1</clus>
<clus scale="  213.632">  1  5  2 -1</clus>
</clustering>
</event>
<event>
 9    2  0.1325014E-004  0.1117357E+03  0.7546771E-02  0.1262437E+00
          2   -1    0    0  502    0 -0.00000000000E+00  0.00000000000E+00  0.43585320896E+03  0.43585320896E+03  0.00000000000E+00 0. -1.
         21   -1    0    0  501  502  0.00000000000E+00 -0.00000000000E+00 -0.40794762880E+02  0.40794762880E+02  0.00000000000E+00 0.  1.
         24    2    1    2    0    0  0.57614623387E+02  0.10597851540E+02  0.18717267258E+03  0.21197834259E+03  0.80432885567E+02 0.  0.
         23    2    1    2    0    0 -0.51127468694E+02 -0.51486253552E+02  0.17765230060E+03  0.21340553383E+03  0.93363427543E+02 0.  0.
        -13    1    3    3    0    0  0.19389059700E+02 -0.33478326343E+02  0.98585400783E+02  0.10590474597E+03  0.00000000000E+00 0.  1.
         14    1    3    3    0    0  0.38225563687E+02  0.44076177883E+02  0.88587271802E+02  0.10607359663E+03  0.00000000000E+00 0. -1.
        -13    1    4    4    0    0 -0.19212291020E+02  0.17142170570E+02  0.69394049402E+01  0.26666861064E+02  0.00000000000E+00 0.  1.
         13    1    4    4    0    0 -0.31915177674E+02 -0.68628424122E+02  0.17071289566E+03  0.18673867277E+03  0.00000000000E+00 0. -1.
          1    1    1    2  501    0 -0.64871546924E+01  0.40888402012E+02  0.30233472895E+02  0.51264095411E+02  0.00000000000E+00 0. -1.
<scales pt_clust_5="13000.00000" pt_clust_6="13000.00000" pt_clust_7="13000.00000" pt_clust_8="13000.00000" pt_clust_9="41.39981"></scales>
<clustering>
<clus scale="   41.400">  2  9  1 -1</clus>
<clus scale="   80.433">  5  6 -1 -1</clus>
<clus scale="   93.363">  7  8 -1 -1</clus>
<clus scale="  101.181">  1  5  2 -1</clus>
<clus scale="   41.400">  2  5  1 -1</clus>
</clustering>
</event>
<event>
 9    2  0.1325014E-004  0.1337350E+03  0.7546771E-02  0.1225248E+00
         21   -1    0    0  501  502  0.00000000000E+00  0.00000000000E+00  0.70553828680E+02  0.70553828680E+02  0.00000000000E+00 0.  1.
         -1   -1    0    0    0  501 -0.00000000000E+00 -0.00000000000E+00 -0.38822156414E+03  0.38822156414E+03  0.00000000000E+00 0.  1.
         24    2    1    2    0    0  0.10533242017E+03 -0.17820188370E+02 -0.25107119252E+03  0.28401142481E+03  0.78824284690E+02 0.  0.
         23    2    1    2    0    0 -0.66931279345E+02  0.19454961401E+02 -0.24993662004E+02  0.11812370140E+03  0.92033874279E+02 0.  0.
        -11    1    3    3    0    0  0.10022746720E+03 -0.13466211808E+02 -0.13982341528E+03  0.17256150064E+03  0.00000000000E+00 0.  1.
         12    1    3    3    0    0  0.51049529659E+01 -0.43539765622E+01 -0.11124777725E+03  0.11144992418E+03  0.00000000000E+00 0. -1.
        -11    1    4    4    0    0 -0.35273438454E+02  0.52474261075E+02  0.49971832189E+01  0.63425037452E+02  0.00000000000E+00 0.  1.
         11    1    4    4    0    0 -0.31657840891E+02 -0.33019299673E+02 -0.29990845223E+02  0.54698663951E+02  0.00000000000E+00 0. -1.
         -2    1    1    2    0  502 -0.38401140820E+02 -0.16347730310E+01 -0.41602880927E+02  0.56640266601E+02  0.00000000000E+00 0.  1.
<scales pt_clust_5="13000.00000" pt_clust_6="13000.00000" pt_clust_7="13000.00000" pt_clust_8="13000.00000" pt_clust_9="38.43594"></scales>
<clustering>
<clus scale="   38.436">  1  9  2 -1</clus>
<clus scale="   78.824">  5  6 -1 -1</clus>
<clus scale="   92.034">  7  8 -1 -1</clus>
<clus scale="  125.012">  2  5  1 -1</clus>
<clus scale="   38.436">  1  5  2 -1</clus>
</clustering>
</event>
<event>
 9    2  0.1325014E-004  0.1209354E+03  0.7546771E-02  0.1245289E+00
         21   -1    0    0  501  502  0.00000000000E+00  0.00000000000E+00  0.60105140722E+02  0.60105140722E+02  0.00000000000E+00 0.  1.
          2   -1    0    0  502    0 -0.00000000000E+00 -0.00000000000E+00 -0.53427922650E+03  0.53427922650E+03  0.00000000000E+00 0. -1.
         23    2    1    2    0    0 -0.81221017287E+02  0.18501639972E+02 -0.29916602878E+03  0.32354379520E+03  0.90780561263E+02 0.  0.
         24    2    1    2    0    0  0.74848335637E+02  0.42352698907E+02 -0.41110825067E+02  0.12362532027E+03  0.78721632485E+02 0.  0.
        -13    1    4    4    0    0  0.80467378501E+02  0.57886202192E+02 -0.40545961669E+02  0.10709708873E+03  0.00000000000E+00 0.  1.
         14    1    4    4    0    0 -0.56190428643E+01 -0.15533503286E+02 -0.56486339774E+00  0.16528231535E+02  0.00000000000E+00 0. -1.
        -11    1    3    3    0    0 -0.82695017429E+02  0.46700304705E+02 -0.23104457734E+03  0.24980188367E+03  0.00000000000E+00 0.  1.
         11    1    3    3    0    0  0.14740001420E+01 -0.28198664733E+02 -0.68121451449E+02  0.73741911534E+02  0.00000000000E+00 0. -1.
          1    1    1    2  501    0  0.63726816508E+01 -0.60854338878E+02 -0.13389723193E+03  0.14721525176E+03  0.00000000000E+00 0. -1.
<scales pt_clust_5="13000.00000" pt_clust_6="13000.00000" pt_clust_7="13000.00000" pt_clust_8="13000.00000" pt_clust_9="61.18713"></scales>
<clustering>
<clus scale="   61.187">  1  9  2 -1</clus>
<clus scale="   78.722">  5  6 -1 -1</clus>
<clus scale="   90.781">  7  8 -1 -1</clus>
<clus scale="  112.167">  1  5  2 -1</clus>
<clus scale="   61.187">  1  5  2 -1</clus>
</clustering>
</event>
<event>
 9    2  0.1610464E-004  0.1293868E+03  0.7546771E-02  0.1231586E+00
         -3   -1    0    0    0  501 -0.00000000000E+00  0.00000000000E+00  0.61450805360E+03  0.61450805360E+03  0.00000000000E+00 0.  1.
         21   -1    0    0  501  502  0.00000000000E+00 -0.00000000000E+00 -0.60358053561E+02  0.60358053561E+02  0.00000000000E+00 0. -1.
         24    2    1    2    0    0 -0.31059619734E+02  0.89933556252E+02  0.39032212875E+03  0.40951734758E+03  0.79374739453E+02 0.  0.
         23    2    1    2    0    0 -0.15737968605E+00 -0.76158450541E+02  0.24093274179E+02  0.12150852800E+03  0.91562558718E+02 0.  0.
        -13    1    3    3    0    0 -0.32456609301E+02  0.98596825801E+02  0.38604212869E+03  0.39975403771E+03  0.00000000000E+00 0.  1.
         14    1    3    3    0    0  0.13969895675E+01 -0.86632695489E+01  0.42800000603E+01  0.97633098714E+01  0.00000000000E+00 0. -1.
        -11    1    4    4    0    0  0.26333952636E+02 -0.46855328461E+02  0.50694634885E+02  0.73883996053E+02  0.00000000000E+00 0.  1.
         11    1    4    4    0    0 -0.26491332322E+02 -0.29303122080E+02 -0.26601360706E+02  0.47624531947E+02  0.00000000000E+00 0. -1.
         -4    1    1    2    0  502  0.31216999420E+02 -0.13775105711E+02  0.13973459711E+03  0.14384023158E+03  0.00000000000E+00 0.  1.
<scales pt_clust_5="13000.00000" pt_clust_6="13000.00000" pt_clust_7="13000.00000" pt_clust_8="13000.00000" pt_clust_9="34.12119"></scales>
<clustering>
<clus scale="   34.121">  2  9  1 -1</clus>
<clus scale="   79.375">  5  6 -1 -1</clus>
<clus scale="   91.563">  7  8 -1 -1</clus>
<clus scale="  121.069">  1  5  2 -1</clus>
<clus scale="   34.121">  2  5  1 -1</clus>
</clustering>
</event>
<event>
 9    2  0.1325014E-004  0.1459588E+03  0.7546771E-02  0.1207258E+00
         -1   -1    0    0    0  501 -0.00000000000E+00  0.00000000000E+00  0.36961779458E+03  0.36961779458E+03  0.00000000000E+00 0.  1.
         21   -1    0    0  501  502  0.00000000000E+00 -0.00000000000E+00 -0.13344782036E+03  0.13344782036E+03  0.00000000000E+00 0.  1.
         24    2    1    2    0    0  0.10782391920E+03 -0.63715923296E+02  0.15376807947E+03  0.21481148654E+03  0.82544751837E+02 0.  0.
         23    2    1    2    0    0 -0.11020887730E+03 -0.40991854847E+02 -0.91283899074E+01  0.14915991630E+03  0.91318258460E+02 0.  0.
        -11    1    3    3    0    0  0.60811892504E+02 -0.26333180356E+02  0.13741858675E+03  0.15256274330E+03  0.00000000000E+00 0.  1.
         12    1    3    3    0    0  0.47012026692E+02 -0.37382742940E+02  0.16349492712E+02  0.62248743243E+02  0.00000000000E+00 0. -1.
        -11    1    4    4    0    0 -0.65281375115E+02  0.86668418821E+01 -0.38226758873E+02  0.76144974746E+02  0.00000000000E+00 0.  1.
         11    1    4    4    0    0 -0.44927502184E+02 -0.49658696729E+02  0.29098368966E+02  0.73014941551E+02  0.00000000000E+00 0. -1.
         -2    1    1    2    0  502  0.23849581029E+01  0.10470777814E+03  0.91530284662E+02  0.13909421210E+03  0.00000000000E+00 0.  1.
<scales pt_clust_5="13000.00000" pt_clust_6="13000.00000" pt_clust_7="13000.00000" pt_clust_8="13000.00000" pt_clust_9="104.73499"></scales>
<clustering>
<clus scale="   82.545">  5  6 -1 -1</clus>
<clus scale="   91.318">  7  8 -1 -1</clus>
<clus scale="  104.735">  2  9  1 -1</clus>
<clus scale="  140.636">  1  5  2 -1</clus>
<clus scale="  104.735">  2  5  1 -1</clus>
</clustering>
</event>
<event>
 9    2  0.1325014E-004  0.1254767E+03  0.7546771E-02  0.1255273E+00
          2   -1    0    0  502    0 -0.00000000000E+00  0.00000000000E+00  0.61377076793E+03  0.61377076793E+03  0.00000000000E+00 0. -1.
         21   -1    0    0  501  502  0.00000000000E+00 -0.00000000000E+00 -0.22691047339E+03  0.22691047339E+03  0.00000000000E+00 0. -1.
         24    2    1    2    0    0  0.65900440540E-01  0.47355696676E+02  0.57815944583E+01  0.82474960194E+02  0.67276488271E+02 0.  0.
         23    2    1    2    0    0 -0.48621665216E+02 -0.11721796447E+03  0.54851031428E+03  0.57039854915E+03  0.91579596354E+02 0.  0.
        -13    1    3    3    0    0 -0.22255998242E+02  0.48498904957E+02  0.18838601137E+02  0.56589452485E+02  0.00000000000E+00 0.  1.
         14    1    3    3    0    0  0.22321898683E+02 -0.11432082811E+01 -0.13057006678E+02  0.25885507709E+02  0.00000000000E+00 0. -1.
        -13    1    4    4    0    0  0.25851757943E+02 -0.45120213746E+02  0.21206366834E+03  0.21834639110E+03  0.00000000000E+00 0.  1.
         13    1    4    4    0    0 -0.74473423158E+02 -0.72097750726E+02  0.33644664594E+03  0.35205215804E+03  0.00000000000E+00 0. -1.
          1    1    1    2  501    0  0.48555764775E+02  0.69862267796E+02 -0.16743161421E+03  0.18780773198E+03  0.00000000000E+00 0. -1.
<scales pt_clust_5="13000.00000" pt_clust_6="13000.00000" pt_clust_7="13000.00000" pt_clust_8="13000.00000" pt_clust_9="85.77629"></scales>
<clustering>
<clus scale="   67.276">  5  6 -1 -1</clus>
<clus scale="   82.272">  1  5  2 -1</clus>
<clus scale="   85.776">  2  9  1 -1</clus>
<clus scale="   91.580">  7  8 -1 -1</clus>
<clus scale="   85.776">  2  5  1 -1</clus>
</clustering>
</event>
<event>
 9    2  0.1325014E-004  0.1827566E+03  0.7546771E-02  0.1199439E+00
         -1   -1    0    0    0  501 -0.00000000000E+00  0.00000000000E+00  0.59717157837E+02  0.59717157837E+02  0.00000000000E+00 0.  1.
         21   -1    0    0  501  502  0.00000000000E+00 -0.00000000000E+00 -0.85857913577E+03  0.85857913577E+03  0.00000000000E+00 0.  1.
         24    2    1    2    0    0  0.20643066889E+02  0.76571809047E+01 -0.18013037870E+03  0.19910154243E+03  0.81912772132E+02 0.  0.
         23    2    1    2    0    0  0.25376088920E+02 -0.15938154685E+03 -0.20428450001E+03  0.27545558908E+03  0.89984450027E+02 0.  0.
        -13    1    3    3    0    0 -0.20337006615E+02 -0.64218845354E+01 -0.10027835409E+02  0.23566754593E+02  0.00000000000E+00 0.  1.
         14    1    3    3    0    0  0.40980073504E+02  0.14079065440E+02 -0.17010254329E+03  0.17553478784E+03  0.00000000000E+00 0. -1.
        -11    1    4    4    0    0  0.50804616931E+02 -0.46348243228E+02 -0.70733461213E+02  0.98653389638E+02  0.00000000000E+00 0.  1.
         11    1    4    4    0    0 -0.25428528010E+02 -0.11303330362E+03 -0.13355103880E+03  0.17680219944E+03  0.00000000000E+00 0. -1.
         -2    1    1    2    0  502 -0.46019155810E+02  0.15172436594E+03 -0.41444709922E+03  0.44373916209E+03  0.00000000000E+00 0.  1.
<scales pt_clust_5="13000.00000" pt_clust_6="13000.00000" pt_clust_7="13000.00000" pt_clust_8="13000.00000" pt_clust_9="159.06844"></scales>
<clustering>
<clus scale="   81.913">  5  6 -1 -1</clus>
<clus scale="   84.820">  1  5  2 -1</clus>
<clus scale="   89.984">  7  8 -1 -1</clus>
<clus scale="  159.068">  2  9  1 -1</clus>
<clus scale="  159.068">  2  5  1 -1</clus>
</clustering>
</event>
<event>
 9    2  0.1325014E-004  0.1126814E+03  0.7546771E-02  0.1267694E+00
         21   -1    0    0  501  502  0.00000000000E+00  0.00000000000E+00  0.16537043358E+03  0.16537043358E+03  0.00000000000E+00 0. -1.
          2   -1    0    0  502    0 -0.00000000000E+00 -0.00000000000E+00 -0.46468454869E+03  0.46468454869E+03  0.00000000000E+00 0. -1.
         24    2    1    2    0    0 -0.34914092860E+02 -0.32220561640E+02 -0.30770482109E+03  0.32118358495E+03  0.78863678880E+02 0.  0.
         23    2    1    2    0    0 -0.24047023103E+02  0.45189641541E+02 -0.11977761886E+03  0.16719666521E+03  0.10482215345E+03 0.  0.
        -13    1    3    3    0    0  0.24170591817E+02 -0.20519484164E+02 -0.11437898080E+03  0.11869211427E+03  0.00000000000E+00 0.  1.
         14    1    3    3    0    0 -0.59084684677E+02 -0.11701077476E+02 -0.19332584029E+03  0.20249147069E+03  0.00000000000E+00 0. -1.
        -11    1    4    4    0    0  0.31824665062E+02  0.49166152869E+02 -0.45489398702E+02  0.74157975218E+02  0.00000000000E+00 0.  1.
         11    1    4    4    0    0 -0.55871688164E+02 -0.39765113284E+01 -0.74288220157E+02  0.93038689988E+02  0.00000000000E+00 0. -1.
          1    1    1    2  501    0  0.58961115963E+02 -0.12969079901E+02  0.12816832483E+03  0.14167473211E+03  0.00000000000E+00 0. -1.
<scales pt_clust_5="13000.00000" pt_clust_6="13000.00000" pt_clust_7="13000.00000" pt_clust_8="13000.00000" pt_clust_9="60.37061"></scales>
<clustering>
<clus scale="   60.371">  1  9  2 -1</clus>
<clus scale="   78.864">  5  6 -1 -1</clus>
<clus scale="   89.044">  2  5  1 -1</clus>
<clus scale="  104.822">  7  8 -1 -1</clus>
<clus scale="   60.371">  1  5  2 -1</clus>
</clustering>
</event>
<event>
 9    2  0.1325014E-004  0.1045490E+03  0.7546771E-02  0.1275011E+00
         21   -1    0    0  501  502  0.00000000000E+00  0.00000000000E+00  0.15142549986E+03  0.15142549986E+03  0.00000000000E+00 0. -1.
         -1   -1    0    0    0  501 -0.00000000000E+00 -0.00000000000E+00 -0.16145438985E+03  0.16145438985E+03  0.00000000000E+00 0.  1.
         23    2    1    2    0    0  0.53852289306E+02  0.23283893667E+02 -0.86441272068E+02  0.13806541361E+03  0.90264922043E+02 0.  0.
         24    2    1    2    0    0 -0.76359371656E+01 -0.49289938003E+02  0.75860821543E+02  0.12178080976E+03  0.81165853996E+02 0.  0.
        -13    1    4    4    0    0  0.30340081835E+01  0.21944085868E+02  0.10491236237E+02  0.24511510521E+02  0.00000000000E+00 0.  1.
         14    1    4    4    0    0 -0.10669945349E+02 -0.71234023871E+02  0.65369585306E+02  0.97269299235E+02  0.00000000000E+00 0. -1.
        -13    1    3    3    0    0  0.14432582119E+02 -0.34566012295E+02 -0.26220955350E+02  0.45723594916E+02  0.00000000000E+00 0. -1.
         13    1    3    3    0    0  0.39419707187E+02  0.57849905962E+02 -0.60220316717E+02  0.92341818696E+02  0.00000000000E+00 0.  1.
         -2    1    1    2    0  502 -0.46216352140E+02  0.26006044336E+02  0.55156053697E+00  0.53033666346E+02  0.00000000000E+00 0.  1.
<scales pt_clust_5="13000.00000" pt_clust_6="13000.00000" pt_clust_7="13000.00000" pt_clust_8="13000.00000" pt_clust_9="53.03080"></scales>
<clustering>
<clus scale="   53.031">  1  9  2 -1</clus>
<clus scale="   81.166">  5  6 -1 -1</clus>
<clus scale="   90.265">  7  8 -1 -1</clus>
<clus scale="   96.802">  1  5  2 -1</clus>
<clus scale="   53.031">  1  5  2 -1</clus>
</clustering>
</event>
<event>
 9    2  0.1325014E-004  0.1069430E+03  0.7546771E-02  0.1268238E+00
         21   -1    0    0  501  502  0.00000000000E+00  0.00000000000E+00  0.27839641813E+02  0.27839641813E+02  0.00000000000E+00 0. -1.
          2   -1    0    0  502    0 -0.00000000000E+00 -0.00000000000E+00 -0.20580128314E+04  0.20580128314E+04  0.00000000000E+00 0. -1.
         24    2    1    2    0    0  0.29265309319E+02  0.44255162158E+02 -0.16644758612E+04  0.16679277226E+04  0.93209537042E+02 0.  0.
         23    2    1    2    0    0 -0.64989575399E+01  0.46564122686E+02 -0.18210540689E+03  0.21183631587E+03  0.97477133381E+02 0.  0.
        -11    1    3    3    0    0 -0.17133607327E+02  0.18719641354E+02 -0.12545533339E+03  0.12799619584E+03  0.00000000000E+00 0.  1.
         12    1    3    3    0    0  0.46398916646E+02  0.25535520804E+02 -0.15390205278E+04  0.15399315268E+04  0.00000000000E+00 0. -1.
        -11    1    4    4    0    0 -0.64005772354E+01 -0.30496950193E+02 -0.52759288140E+02  0.61274577478E+02  0.00000000000E+00 0.  1.
         11    1    4    4    0    0 -0.98380304512E-01  0.77061072880E+02 -0.12934611875E+03  0.15056173839E+03  0.00000000000E+00 0. -1.
          1    1    1    2  501    0 -0.22766351779E+02 -0.90819284845E+02 -0.18359192155E+03  0.20608843473E+03  0.00000000000E+00 0. -1.
<scales pt_clust_5="13000.00000" pt_clust_6="13000.00000" pt_clust_7="13000.00000" pt_clust_8="13000.00000" pt_clust_9="93.62932"></scales>
<clustering>
<clus scale="   93.210">  5  6 -1 -1</clus>
<clus scale="   93.629">  1  9  2 -1</clus>
<clus scale="   97.477">  7  8 -1 -1</clus>
<clus scale="  103.068">  2  5  1 -1</clus>
<clus scale="   93.629">  1  5  2 -1</clus>
</clustering>
</event>
<event>
 9    2  0.1325014E-004  0.9093129E+02  0.7546771E-02  0.1306409E+00
         -1   -1    0    0    0  501 -0.00000000000E+00  0.00000000000E+00  0.17901424531E+03  0.17901424531E+03  0.00000000000E+00 0.  1.
         21   -1    0    0  501  502  0.00000000000E+00 -0.00000000000E+00 -0.13792133013E+03  0.13792133013E+03  0.00000000000E+00 0. -1.
         23    2    1    2    0    0  0.21563333036E+01 -0.33350728745E+02  0.42727400069E+02  0.10466356275E+03  0.89509271982E+02 0.  0.
         24    2    1    2    0    0  0.34417304059E+02 -0.39203281460E+02 -0.59383231682E+02  0.11258935069E+03  0.80178211427E+02 0.  0.
        -11    1    4    4    0    0  0.77688267456E+01  0.19897263437E+02 -0.39282049595E+02  0.44713926038E+02  0.00000000000E+00 0.  1.
         12    1    4    4    0    0  0.26648477314E+02 -0.59100544897E+02 -0.20101182087E+02  0.67875424651E+02  0.00000000000E+00 0. -1.
        -13    1    3    3    0    0  0.45549790589E+02 -0.12864884981E+02  0.17611276824E+02  0.50501938178E+02  0.00000000000E+00 0. -1.
         13    1    3    3    0    0 -0.43393457286E+02 -0.20485843764E+02  0.25116123246E+02  0.54161624577E+02  0.00000000000E+00 0.  1.
         -2    1    1    2    0  502 -0.36573637363E+02  0.72554010205E+02  0.57748746786E+02  0.99682661993E+02  0.00000000000E+00 0.  1.
<scales pt_clust_5="13000.00000" pt_clust_6="13000.00000" pt_clust_7="13000.00000" pt_clust_8="13000.00000" pt_clust_9="81.25098"></scales>
<clustering>
<clus scale="   80.178">  5  6 -1 -1</clus>
<clus scale="   81.251">  2  9  1 -1</clus>
<clus scale="   81.763">  2  5  1 -1</clus>
<clus scale="   89.509">  7  8 -1 -1</clus>
<clus scale="   81.251">  2  5  1 -1</clus>
</clustering>
</event>
<event>
 9    2  0.1325014E-004  0.9267357E+02  0.7546771E-02  0.1299495E+00
         21   -1    0    0  501  502  0.00000000000E+00  0.00000000000E+00  0.43346882089E+02  0.43346882089E+02  0.00000000000E+00 0. -1.
          2   -1    0    0  502    0 -0.00000000000E+00 -0.00000000000E+00 -0.86678964464E+03  0.86678964464E+03  0.00000000000E+00 0. -1.
         23    2    1    2    0    0  0.15670225449E+02 -0.38040474574E+02 -0.34754589182E+03  0.36070112626E+03  0.87318508289E+02 0.  0.
         24    2    1    2    0    0 -0.12006474523E+02 -0.29635416932E+02 -0.22296306297E+02  0.90799464881E+02  0.82006122826E+02 0.  0.
        -13    1    4    4    0    0  0.22391534688E+02 -0.95093192216E+01  0.20867476820E+02  0.32050890262E+02  0.00000000000E+00 0.  1.
         14    1    4    4    0    0 -0.34398009212E+02 -0.20126097710E+02 -0.43163783117E+02  0.58748574619E+02  0.00000000000E+00 0. -1.
        -11    1    3    3    0    0  0.26692636216E+02 -0.56541362290E+02 -0.31829294014E+03  0.32437604446E+03  0.00000000000E+00 0. -1.
         11    1    3    3    0    0 -0.11022410768E+02  0.18500887716E+02 -0.29252951685E+02  0.36325081799E+02  0.00000000000E+00 0.  1.
          1    1    1    2  501    0 -0.36637509252E+01  0.67675891506E+02 -0.45360056443E+03  0.45863593559E+03  0.00000000000E+00 0. -1.
<scales pt_clust_5="13000.00000" pt_clust_6="13000.00000" pt_clust_7="13000.00000" pt_clust_8="13000.00000" pt_clust_9="67.77502"></scales>
<clustering>
<clus scale="   67.775">  1  9  2 -1</clus>
<clus scale="   82.006">  5  6 -1 -1</clus>
<clus scale="   87.319">  7  8 -1 -1</clus>
<clus scale="   87.686">  1  5  2 -1</clus>
<clus scale="   67.775">  1  5  2 -1</clus>
</clustering>
</event>
<event>
 9    2  0.1325014E-004  0.1416761E+03  0.7546771E-02  0.1231800E+00
         21   -1    0    0  501  502  0.00000000000E+00  0.00000000000E+00  0.12951682080E+03  0.12951682080E+03  0.00000000000E+00 0. -1.
          2   -1    0    0  502    0 -0.00000000000E+00 -0.00000000000E+00 -0.35764860657E+03  0.35764860657E+03  0.00000000000E+00 0. -1.
         23    2    1    2    0    0 -0.69618604414E+01  0.18270173120E+02  0.15829596314E+02  0.93167297899E+02  0.89706758674E+02 0.  0.
         24    2    1    2    0    0 -0.11032670950E+03 -0.16952802275E+02 -0.23966798579E+03  0.27662361198E+03  0.81366448595E+02 0.  0.
        -11    1    4    4    0    0 -0.17969531798E+02  0.29405135914E+02 -0.51939199662E+02  0.62331745946E+02  0.00000000000E+00 0.  1.
         12    1    4    4    0    0 -0.92357177699E+02 -0.46357938189E+02 -0.18772878613E+03  0.21429186603E+03  0.00000000000E+00 0. -1.
        -13    1    3    3    0    0  0.10826666727E+02 -0.34365863301E+02  0.30782481076E+01  0.36162202425E+02  0.00000000000E+00 0.  1.
         13    1    3    3    0    0 -0.17788527169E+02  0.52636036421E+02  0.12751348207E+02  0.57005095474E+02  0.00000000000E+00 0. -1.
          1    1    1    2  501    0  0.11728856994E+03 -0.13173708447E+01 -0.42933962835E+01  0.11737451749E+03  0.00000000000E+00 0. -1.
<scales pt_clust_5="13000.00000" pt_clust_6="13000.00000" pt_clust_7="13000.00000" pt_clust_8="13000.00000" pt_clust_9="115.98109"></scales>
<clustering>
<clus scale="   81.366">  5  6 -1 -1</clus>
<clus scale="   89.707">  7  8 -1 -1</clus>
<clus scale="   91.813">  2  7  1 -1</clus>
<clus scale="  115.981">  1  9  2 -1</clus>
<clus scale="  115.981">  1  5  2 -1</clus>
</clustering>
</event>
<event>
 9    2  0.1325014E-004  0.1824581E+03  0.7546771E-02  0.1167728E+00
          2   -1    0    0  502    0 -0.00000000000E+00  0.00000000000E+00  0.15727893722E+04  0.15727893722E+04  0.00000000000E+00 0. -1.
         21   -1    0    0  501  502  0.00000000000E+00 -0.00000000000E+00 -0.26628620306E+02  0.26628620306E+02  0.00000000000E+00 0. -1.
         24    2    1    2    0    0 -0.13457793457E+03  0.10316108455E+03  0.95917360525E+03  0.97656264793E+03  0.70051199017E+02 0.  0.
         23    2    1    2    0    0  0.94349965610E+02 -0.10531306045E+03  0.47815296431E+03  0.50680449481E+03  0.90707121928E+02 0.  0.
        -11    1    3    3    0    0 -0.63405886022E+02  0.77600439607E+02  0.40304801005E+03  0.41531895335E+03  0.00000000000E+00 0.  1.
         12    1    3    3    0    0 -0.71172048545E+02  0.25560644943E+02  0.55612559520E+03  0.56124369458E+03  0.00000000000E+00 0. -1.
        -11    1    4    4    0    0  0.33498448634E+02  0.53766847424E+01  0.17719735207E+03  0.18041606464E+03  0.00000000000E+00 0.  1.
         11    1    4    4    0    0  0.60851516976E+02 -0.11068974520E+03  0.30095561224E+03  0.32638843017E+03  0.00000000000E+00 0. -1.
          1    1    1    2  501    0  0.40227968957E+02  0.21519759040E+01  0.10883418229E+03  0.11605084972E+03  0.00000000000E+00 0. -1.
<scales pt_clust_5="13000.00000" pt_clust_6="13000.00000" pt_clust_7="13000.00000" pt_clust_8="13000.00000" pt_clust_9="40.28549"></scales>
<clustering>
<clus scale="   40.285">  2  9  1 -1</clus>
<clus scale="   70.051">  5  6 -1 -1</clus>
<clus scale="   90.707">  7  8 -1 -1</clus>
<clus scale="  173.119">  1  5  2 -1</clus>
<clus scale="   40.285">  2  5  1 -1</clus>
</clustering>
</event>
<event>
 9    2  0.1325014E-004  0.9436822E+02  0.7546771E-02  0.1296600E+00
         21   -1    0    0  501  502  0.00000000000E+00  0.00000000000E+00  0.16086196074E+03  0.16086196074E+03  0.00000000000E+00 0. -1.
          2   -1    0    0  502    0 -0.00000000000E+00 -0.00000000000E+00 -0.12988098027E+03  0.12988098027E+03  0.00000000000E+00 0. -1.
         23    2    1    2    0    0 -0.41942339483E+02  0.35980824204E+02 -0.32924045587E+01  0.10397265529E+03  0.88009622017E+02 0.  0.
         24    2    1    2    0    0  0.21710684351E+02  0.43159242689E+02  0.45174986711E+02  0.10436085073E+03  0.80723811205E+02 0.  0.
        -11    1    4    4    0    0  0.46006338400E+02  0.48466110340E+02  0.21959773410E+02  0.70340448340E+02  0.00000000000E+00 0.  1.
         12    1    4    4    0    0 -0.24295654049E+02 -0.53068676507E+01  0.23215213301E+02  0.34020402386E+02  0.00000000000E+00 0. -1.
        -11    1    3    3    0    0 -0.50561989269E+01  0.50516886364E+02  0.23680448995E+02  0.56020394681E+02  0.00000000000E+00 0. -1.
         11    1    3    3    0    0 -0.36886140556E+02 -0.14536062161E+02 -0.26972853554E+02  0.47952260605E+02  0.00000000000E+00 0.  1.
          1    1    1    2  501    0  0.20231655132E+02 -0.79140066893E+02 -0.10901601689E+02  0.82409434998E+02  0.00000000000E+00 0. -1.
<scales pt_clust_5="13000.00000" pt_clust_6="13000.00000" pt_clust_7="13000.00000" pt_clust_8="13000.00000" pt_clust_9="81.68523"></scales>
<clustering>
<clus scale="   80.724">  5  6 -1 -1</clus>
<clus scale="   81.685">  1  9  2 -1</clus>
<clus scale="   87.613">  1  5  2 -1</clus>
<clus scale="   88.010">  7  8 -1 -1</clus>
<clus scale="   81.685">  1  5  2 -1</clus>
</clustering>
</event>
<event>
 9    2  0.1325014E-004  0.8695606E+02  0.7546771E-02  0.1313352E+00
          2   -1    0    0  502    0 -0.00000000000E+00  0.00000000000E+00  0.57299217897E+03  0.57299217897E+03  0.00000000000E+00 0. -1.
         21   -1    0    0  501  502  0.00000000000E+00 -0.00000000000E+00 -0.85182935481E+02  0.85182935481E+02  0.00000000000E+00 0. -1.
         24    2    1    2    0    0 -0.53985463798E+01  0.20728791289E+02  0.42947675945E+03  0.43764276482E+03  0.81376136524E+02 0.  0.
         23    2    1    2    0    0 -0.50385634153E+01  0.15093861311E+02  0.11999251385E+03  0.14846186347E+03  0.85962257733E+02 0.  0.
        -11    1    3    3    0    0  0.26415429866E+02 -0.67066141367E+01  0.61404267813E+02  0.67180634961E+02  0.00000000000E+00 0.  1.
         12    1    3    3    0    0 -0.31813976245E+02  0.27435405426E+02  0.36807249164E+03  0.37046212985E+03  0.00000000000E+00 0. -1.
        -11    1    4    4    0    0 -0.11466080961E+01 -0.20376004520E+02 -0.27912347932E+01  0.20598234439E+02  0.00000000000E+00 0.  1.
         11    1    4    4    0    0 -0.38919553192E+01  0.35469865831E+02  0.12278374864E+03  0.12786362903E+03  0.00000000000E+00 0. -1.
          1    1    1    2  501    0  0.10437109795E+02 -0.35822652600E+02 -0.61660029810E+02  0.72070486167E+02  0.00000000000E+00 0. -1.
<scales pt_clust_5="13000.00000" pt_clust_6="13000.00000" pt_clust_7="13000.00000" pt_clust_8="13000.00000" pt_clust_9="37.31214"></scales>
<clustering>
<clus scale="   37.312">  2  9  1 -1</clus>
<clus scale="   81.376">  5  6 -1 -1</clus>
<clus scale="   82.425">  1  5  2 -1</clus>
<clus scale="   85.962">  7  8 -1 -1</clus>
<clus scale="   37.312">  2  5  1 -1</clus>
</clustering>
</event>
<event>
 9    2  0.1325014E-004  0.1628160E+03  0.7546771E-02  0.1198725E+00
          2   -1    0    0  502    0 -0.00000000000E+00  0.00000000000E+00  0.24930801800E+03  0.24930801800E+03  0.00000000000E+00 0. -1.
         21   -1    0    0  501  502  0.00000000000E+00 -0.00000000000E+00 -0.23482800774E+03  0.23482800774E+03  0.00000000000E+00 0. -1.
         23    2    1    2    0    0  0.71363265893E+02 -0.19508075824E+02 -0.44020656784E+02  0.12954497306E+03  0.96802898094E+02 0.  0.
         24    2    1    2    0    0 -0.18167252763E+03  0.76382962539E+02  0.82860268279E+02  0.22811466700E+03  0.79568919684E+02 0.  0.
        -13    1    4    4    0    0 -0.12457014462E+03  0.43443455532E+02  0.13809569208E+02  0.13264900663E+03  0.00000000000E+00 0.  1.
         14    1    4    4    0    0 -0.57102383014E+02  0.32939507007E+02  0.69050699071E+02  0.95465660370E+02  0.00000000000E+00 0. -1.
        -11    1    3    3    0    0  0.27034467131E+02 -0.95358908357E+01  0.30757167942E+02  0.42045201949E+02  0.00000000000E+00 0.  1.
         11    1    3    3    0    0  0.44328798762E+02 -0.99721849888E+01 -0.74777824727E+02  0.87499771108E+02  0.00000000000E+00 0. -1.
          1    1    1    2  501    0  0.11030926174E+03 -0.56874886715E+02 -0.24359601238E+02  0.12647638569E+03  0.00000000000E+00 0. -1.
<scales pt_clust_5="13000.00000" pt_clust_6="13000.00000" pt_clust_7="13000.00000" pt_clust_8="13000.00000" pt_clust_9="142.04876"></scales>
<clustering>
<clus scale="   79.569">  5  6 -1 -1</clus>
<clus scale="   96.803">  7  8 -1 -1</clus>
<clus scale="  121.836">  1  7  2 -1</clus>
<clus scale="  142.049">  2  9  1 -1</clus>
<clus scale="  142.049">  2  5  1 -1</clus>
</clustering>
</event>
<event>
 9    2  0.1325014E-004  0.1016813E+03  0.7546771E-02  0.1280746E+00
         -1   -1    0    0    0  501 -0.00000000000E+00  0.00000000000E+00  0.12981530681E+03  0.12981530681E+03  0.00000000000E+00 0.  1.
         21   -1    0    0  501  502  0.00000000000E+00 -0.00000000000E+00 -0.14278849529E+03  0.14278849529E+03  0.00000000000E+00 0. -1.
         23    2    1    2    0    0 -0.12172306781E+02  0.33706578363E+02  0.44344032300E+02  0.10715350944E+03  0.90725866805E+02 0.  0.
         24    2    1    2    0    0  0.48240651571E+02 -0.57710167455E+02 -0.46045274100E+02  0.12068250773E+03  0.82380073520E+02 0.  0.
        -13    1    4    4    0    0  0.25686901903E+02 -0.59187583307E+02  0.51434696225E+01  0.64725900742E+02  0.00000000000E+00 0.  1.
         14    1    4    4    0    0  0.22553749668E+02  0.14774158519E+01 -0.51188743722E+02  0.55956606987E+02  0.00000000000E+00 0. -1.
        -11    1    3    3    0    0 -0.96680108007E+00 -0.29033567089E+02 -0.78538324510E+00  0.29060274415E+02  0.00000000000E+00 0.  1.
         11    1    3    3    0    0 -0.11205505701E+02  0.62740145452E+02  0.45129415545E+02  0.78093235025E+02  0.00000000000E+00 0. -1.
         -2    1    1    2    0  502 -0.36068344790E+02  0.24003589092E+02 -0.11271946682E+02  0.44767784926E+02  0.00000000000E+00 0.  1.
<scales pt_clust_5="13000.00000" pt_clust_6="13000.00000" pt_clust_7="13000.00000" pt_clust_8="13000.00000" pt_clust_9="43.32549"></scales>
<clustering>
<clus scale="   43.325">  2  9  1 -1</clus>
<clus scale="   82.380">  5  6 -1 -1</clus>
<clus scale="   90.726">  7  8 -1 -1</clus>
<clus scale="   94.310">  2  5  1 -1</clus>
<clus scale="   43.325">  2  5  1 -1</clus>
</clustering>
</event>
<event>
 9    2  0.1325014E-004  0.9513642E+02  0.7546771E-02  0.1296239E+00
         21   -1    0    0  501  502  0.00000000000E+00  0.00000000000E+00  0.72570217764E+02  0.72570217764E+02  0.00000000000E+00 0. -1.
          2   -1    0    0  502    0 -0.00000000000E+00 -0.00000000000E+00 -0.35267197651E+03  0.35267197651E+03  0.00000000000E+00 0. -1.
         23    2    1    2    0    0  0.31373592355E+02  0.91205415449E+01 -0.29690680178E+03  0.31203880123E+03  0.90261165269E+02 0.  0.
         24    2    1    2    0    0 -0.17030833190E+02  0.15031698743E+02  0.14187630083E+02  0.84991758891E+02  0.80661694662E+02 0.  0.
        -13    1    4    4    0    0 -0.19229161151E+02 -0.31483893650E+02  0.10076863860E+02  0.38243161260E+02  0.00000000000E+00 0.  1.
         14    1    4    4    0    0  0.21983279606E+01  0.46515592393E+02  0.41107662231E+01  0.46748597631E+02  0.00000000000E+00 0. -1.
        -13    1    3    3    0    0  0.50996424558E+02  0.33873641926E+01 -0.28236015362E+03  0.28694836802E+03  0.00000000000E+00 0. -1.
         13    1    3    3    0    0 -0.19622832203E+02  0.57331773523E+01 -0.14546648154E+02  0.25090433212E+02  0.00000000000E+00 0.  1.
          1    1    1    2  501    0 -0.14342759164E+02 -0.24152240288E+02  0.26174129436E+01  0.28211634159E+02  0.00000000000E+00 0. -1.
<scales pt_clust_5="13000.00000" pt_clust_6="13000.00000" pt_clust_7="13000.00000" pt_clust_8="13000.00000" pt_clust_9="28.08995"></scales>
<clustering>
<clus scale="   28.090">  1  9  2 -1</clus>
<clus scale="   80.662">  5  6 -1 -1</clus>
<clus scale="   86.082">  1  5  2 -1</clus>
<clus scale="   90.261">  7  8 -1 -1</clus>
<clus scale="   28.090">  1  5  2 -1</clus>
</clustering>
</event>
<event>
 9    2  0.1325014E-004  0.1447474E+03  0.7546771E-02  0.1209168E+00
          2   -1    0    0  502    0 -0.00000000000E+00  0.00000000000E+00  0.90434863563E+03  0.90434863563E+03  0.00000000000E+00 0. -1.
         21   -1    0    0  501  502  0.00000000000E+00 -0.00000000000E+00 -0.19590698653E+03  0.19590698653E+03  0.00000000000E+00 0. -1.
         24    2    1    2    0    0 -0.10361973309E+03 -0.73269528366E+02 -0.32054225223E+02  0.15416652293E+03  0.81451645561E+02 0.  0.
         23    2    1    2    0    0  0.25435019521E+00  0.12489157126E+03 -0.37571360464E+02  0.15949018013E+03  0.91801640324E+02 0.  0.
        -13    1    3    3    0    0 -0.14701817312E+02 -0.48298437275E+02 -0.35543008449E+02  0.61742918015E+02  0.00000000000E+00 0.  1.
         14    1    3    3    0    0 -0.88917915779E+02 -0.24971091091E+02  0.34887832264E+01  0.92423604913E+02  0.00000000000E+00 0. -1.
        -13    1    4    4    0    0 -0.35946300143E+02  0.23365421699E+02  0.58807938290E+01  0.43274278286E+02  0.00000000000E+00 0.  1.
         13    1    4    4    0    0  0.36200650338E+02  0.10152614956E+03 -0.43452154293E+02  0.11621590185E+03  0.00000000000E+00 0. -1.
          1    1    1    2  501    0  0.10336538290E+03 -0.51622042892E+02  0.77806723478E+03  0.78659891910E+03  0.00000000000E+00 0. -1.
<scales pt_clust_5="13000.00000" pt_clust_6="13000.00000" pt_clust_7="13000.00000" pt_clust_8="13000.00000" pt_clust_9="115.53896"></scales>
<clustering>
<clus scale="   81.452">  5  6 -1 -1</clus>
<clus scale="   91.802">  7  8 -1 -1</clus>
<clus scale="  115.539">  2  9  1 -1</clus>
<clus scale="  138.415">  1  5  2 -1</clus>
<clus scale="  115.539">  2  5  1 -1</clus>
</clustering>
</event>
<event>
 9    2  0.1325014E-004  0.8867228E+02  0.7546771E-02  0.1312648E+00
          4   -1    0    0  502    0 -0.00000000000E+00  0.00000000000E+00  0.10729762255E+04  0.10729762255E+04  0.00000000000E+00 0. -1.
         21   -1    0    0  501  502  0.00000000000E+00 -0.00000000000E+00 -0.36261120649E+02  0.36261120649E+02  0.00000000000E+00 0. -1.
         24    2    1    2    0    0 -0.65370508686E+01 -0.81752385279E+01  0.93236020150E+03  0.93566902228E+03  0.77919229584E+02 0.  0.
         23    2    1    2    0    0  0.42509762420E+02 -0.90165786560E+01  0.65964026241E+02  0.11821984602E+03  0.87956242773E+02 0.  0.
        -13    1    3    3    0    0 -0.23606843556E+02  0.38752300565E+01  0.92326159970E+02  0.95375155494E+02  0.00000000000E+00 0.  1.
         14    1    3    3    0    0  0.17069792687E+02 -0.12050468584E+02  0.84003404153E+03  0.84029386678E+03  0.00000000000E+00 0. -1.
        -13    1    4    4    0    0 -0.12719187840E+00  0.29729797487E+02  0.50444682937E+02  0.58553762245E+02  0.00000000000E+00 0.  1.
         13    1    4    4    0    0  0.42636954299E+02 -0.38746376143E+02  0.15519343303E+02  0.59666083772E+02  0.00000000000E+00 0. -1.
          3    1    1    2  501    0 -0.35972711552E+02  0.17191817184E+02  0.38390877060E+02  0.55348477810E+02  0.00000000000E+00 0. -1.
<scales pt_clust_5="13000.00000" pt_clust_6="13000.00000" pt_clust_7="13000.00000" pt_clust_8="13000.00000" pt_clust_9="39.86972"></scales>
<clustering>
<clus scale="   39.870">  2  9  1 -1</clus>
<clus scale="   77.919">  5  6 -1 -1</clus>
<clus scale="   78.727">  1  5  2 -1</clus>
<clus scale="   87.956">  7  8 -1 -1</clus>
<clus scale="   39.870">  2  5  1 -1</clus>
</clustering>
</event>
<event>
 9    2  0.1325014E-004  0.9762903E+02  0.7546771E-02  0.1290546E+00
         21   -1    0    0  501  502  0.00000000000E+00  0.00000000000E+00  0.30873095630E+03  0.30873095630E+03  0.00000000000E+00 0. -1.
          2   -1    0    0  502    0 -0.00000000000E+00 -0.00000000000E+00 -0.63922618196E+02  0.63922618196E+02  0.00000000000E+00 0. -1.
         24    2    1    2    0    0  0.27090767593E+02 -0.31637396881E+02  0.11926123045E+02  0.91579300404E+02  0.80682719844E+02 0.  0.
         23    2    1    2    0    0  0.18688366634E+02  0.31607548212E+02  0.20597976198E+03  0.22797557351E+03  0.90536774964E+02 0.  0.
        -11    1    3    3    0    0 -0.18552747376E+02  0.10591971911E+02 -0.12522755022E+02  0.24763152011E+02  0.00000000000E+00 0.  1.
         12    1    3    3    0    0  0.45643514969E+02 -0.42229368792E+02  0.24448878067E+02  0.66816148393E+02  0.00000000000E+00 0. -1.
        -13    1    4    4    0    0 -0.33573127087E+02  0.45246175390E+01  0.43320705446E+02  0.54993731884E+02  0.00000000000E+00 0.  1.
         13    1    4    4    0    0  0.52261493721E+02  0.27082930673E+02  0.16265905654E+03  0.17298184163E+03  0.00000000000E+00 0. -1.
          1    1    1    2  501    0 -0.45779134227E+02  0.29848669485E-01  0.26902453073E+02  0.53098700576E+02  0.00000000000E+00 0. -1.
<scales pt_clust_5="13000.00000" pt_clust_6="13000.00000" pt_clust_7="13000.00000" pt_clust_8="13000.00000" pt_clust_9="45.77917"></scales>
<clustering>
<clus scale="   45.779">  1  9  2 -1</clus>
<clus scale="   80.683">  5  6 -1 -1</clus>
<clus scale="   88.568">  2  5  1 -1</clus>
<clus scale="   90.537">  7  8 -1 -1</clus>
<clus scale="   45.779">  1  5  2 -1</clus>
</clustering>
</event>
<event>
 9    2  0.1325014E-004  0.1253077E+03  0.7546771E-02  0.1241697E+00
          2   -1    0    0  502    0 -0.00000000000E+00  0.00000000000E+00  0.27424090834E+03  0.27424090834E+03  0.00000000000E+00 0. -1.
         21   -1    0    0  501  502  0.00000000000E+00 -0.00000000000E+00 -0.67732019164E+02  0.67732019164E+02  0.00000000000E+00 0. -1.
         24    2    1    2    0    0 -0.40627574629E+02 -0.51237706677E+02  0.70924751268E+02  0.12526301790E+03  0.79903697696E+02 0.  0.
         23    2    1    2    0    0  0.71540377751E+02  0.47463717059E+02  0.86906640576E+02  0.15892285966E+03  0.10165077993E+03 0.  0.
        -11    1    3    3    0    0 -0.11255771349E+02 -0.61688670174E+02  0.70130831487E+02  0.94077191399E+02  0.00000000000E+00 0.  1.
         12    1    3    3    0    0 -0.29371803281E+02  0.10450963497E+02  0.79391978018E+00  0.31185826502E+02  0.00000000000E+00 0. -1.
        -13    1    4    4    0    0 -0.25741049501E+02  0.14117181233E+02  0.27127117964E+02  0.39972202396E+02  0.00000000000E+00 0.  1.
         13    1    4    4    0    0  0.97281427252E+02  0.33346535827E+02  0.59779522612E+02  0.11895065726E+03  0.00000000000E+00 0. -1.
          1    1    1    2  501    0 -0.30912803122E+02  0.37739896174E+01  0.48677497333E+02  0.57787049942E+02  0.00000000000E+00 0. -1.
<scales pt_clust_5="13000.00000" pt_clust_6="13000.00000" pt_clust_7="13000.00000" pt_clust_8="13000.00000" pt_clust_9="31.14234"></scales>
<clustering>
<clus scale="   31.142">  2  9  1 -1</clus>
<clus scale="   79.904">  5  6 -1 -1</clus>
<clus scale="  101.651">  7  8 -1 -1</clus>
<clus scale="  108.415">  1  5  2 -1</clus>
<clus scale="   31.142">  2  5  1 -1</clus>
</clustering>
</event>
<event>
 9    2  0.1325014E-004  0.4645618E+03  0.7546771E-02  0.1023466E+00
          2   -1    0    0  502    0 -0.00000000000E+00  0.00000000000E+00  0.10955124125E+04  0.10955124125E+04  0.00000000000E+00 0. -1.
         21   -1    0    0  501  502  0.00000000000E+00 -0.00000000000E+00 -0.17234527982E+03  0.17234527982E+03  0.00000000000E+00 0. -1.
         24    2    1    2    0    0  0.63226385317E+01 -0.39018880315E+02  0.10655881752E+03  0.13955650289E+03  0.80986339147E+02 0.  0.
         23    2    1    2    0    0  0.85887240442E+02 -0.35396974924E+03  0.41470008297E+03  0.55867591624E+03  0.86437371096E+02 0.  0.
        -11    1    3    3    0    0 -0.51548663252E+01 -0.40839582003E+02  0.10079357522E+02  0.42379683258E+02  0.00000000000E+00 0.  1.
         12    1    3    3    0    0  0.11477504857E+02  0.18207016875E+01  0.96479459994E+02  0.97176819628E+02  0.00000000000E+00 0. -1.
        -13    1    4    4    0    0  0.81248542994E+02 -0.30764833926E+03  0.31068284295E+03  0.44471637623E+03  0.00000000000E+00 0. -1.
         13    1    4    4    0    0  0.46386974483E+01 -0.46321409981E+02  0.10401724002E+03  0.11395954000E+03  0.00000000000E+00 0.  1.
          1    1    1    2  501    0 -0.92209878974E+02  0.39298862956E+03  0.40190823217E+03  0.56962527317E+03  0.00000000000E+00 0. -1.
<scales pt_clust_5="13000.00000" pt_clust_6="13000.00000" pt_clust_7="13000.00000" pt_clust_8="13000.00000" pt_clust_9="403.66165"></scales>
<clustering>
<clus scale="   80.986">  5  6 -1 -1</clus>
<clus scale="   86.437">  7  8 -1 -1</clus>
<clus scale="   86.694">  5  7 -1 -1</clus>
<clus scale="  403.662">  2  9  1 -1</clus>
<clus scale="  403.662">  2  5  1 -1</clus>
</clustering>
</event>
<event>
 9    2  0.1325014E-004  0.1321971E+03  0.7546771E-02  0.1231229E+00
         21   -1    0    0  501  502  0.00000000000E+00  0.00000000000E+00  0.24771923934E+03  0.24771923934E+03  0.00000000000E+00 0.  1.
          2   -1    0    0  502    0 -0.00000000000E+00 -0.00000000000E+00 -0.39472235629E+03  0.39472235629E+03  0.00000000000E+00 0. -1.
         24    2    1    2    0    0 -0.51560716602E+02 -0.80552909077E+02 -0.30038169770E+03  0.32183685313E+03  0.64826823668E+02 0.  0.
         23    2    1    2    0    0  0.12926968016E+03  0.61186541149E+01  0.39741753941E+02  0.16410404047E+03  0.92750422932E+02 0.  0.
        -13    1    3    3    0    0 -0.56310582346E+01 -0.38341236009E+02 -0.19947932703E+03  0.20320866396E+03  0.00000000000E+00 0.  1.
         14    1    3    3    0    0 -0.45929658367E+02 -0.42211673068E+02 -0.10090237067E+03  0.11862818918E+03  0.00000000000E+00 0. -1.
        -11    1    4    4    0    0  0.13826694732E+03 -0.12142644009E+02  0.33109758447E+02  0.14269354796E+03  0.00000000000E+00 0.  1.
         11    1    4    4    0    0 -0.89972671534E+01  0.18261298124E+02  0.66319954942E+01  0.21410492513E+02  0.00000000000E+00 0. -1.
          1    1    1    2  501    0 -0.77708963561E+02  0.74434254962E+02  0.11363682680E+03  0.15650070203E+03  0.00000000000E+00 0. -1.
<scales pt_clust_5="13000.00000" pt_clust_6="13000.00000" pt_clust_7="13000.00000" pt_clust_8="13000.00000" pt_clust_9="107.60642"></scales>
<clustering>
<clus scale="   64.827">  5  6 -1 -1</clus>
<clus scale="   92.750">  7  8 -1 -1</clus>
<clus scale="  107.606">  1  9  2 -1</clus>
<clus scale="  114.350">  2  5  1 -1</clus>
<clus scale="  107.606">  1  5  2 -1</clus>
</clustering>
</event>
<event>
 9    2  0.1325014E-004  0.1777872E+03  0.7546771E-02  0.1170532E+00
          4   -1    0    0  502    0 -0.00000000000E+00  0.00000000000E+00  0.56188222836E+03  0.56188222836E+03  0.00000000000E+00 0. -1.
         21   -1    0    0  501  502  0.00000000000E+00 -0.00000000000E+00 -0.81864072433E+03  0.81864072433E+03  0.00000000000E+00 0. -1.
         24    2    1    2    0    0 -0.11807679982E+03 -0.10378251192E+03  0.52025346942E+03  0.54951101160E+03  0.81152566155E+02 0.  0.
         23    2    1    2    0    0  0.12981086380E+03 -0.12979564867E+02 -0.58905401211E+03  0.60942840597E+03  0.86017575829E+02 0.  0.
        -11    1    3    3    0    0 -0.80421613347E+02 -0.38489626756E+02  0.17829535993E+03  0.19934473315E+03  0.00000000000E+00 0.  1.
         12    1    3    3    0    0 -0.37655186469E+02 -0.65292885161E+02  0.34195810949E+03  0.35016627845E+03  0.00000000000E+00 0. -1.
        -13    1    4    4    0    0  0.12608617549E+03 -0.37028348789E+02 -0.51371920330E+03  0.53026054171E+03  0.00000000000E+00 0. -1.
         13    1    4    4    0    0  0.37246883039E+01  0.24048783922E+02 -0.75334808819E+02  0.79167864256E+02  0.00000000000E+00 0.  1.
          3    1    1    2  501    0 -0.11734063982E+02  0.11676207678E+03 -0.18795795328E+03  0.22158353511E+03  0.00000000000E+00 0. -1.
<scales pt_clust_5="13000.00000" pt_clust_6="13000.00000" pt_clust_7="13000.00000" pt_clust_8="13000.00000" pt_clust_9="117.35021"></scales>
<clustering>
<clus scale="   81.153">  5  6 -1 -1</clus>
<clus scale="   86.018">  7  8 -1 -1</clus>
<clus scale="  117.350">  2  9  1 -1</clus>
<clus scale="  175.485">  1  5  2 -1</clus>
<clus scale="  117.350">  2  5  1 -1</clus>
</clustering>
</event>
<event>
 9    2  0.1325014E-004  0.1252722E+03  0.7546771E-02  0.1237961E+00
         -1   -1    0    0    0  501 -0.00000000000E+00  0.00000000000E+00  0.18267314563E+03  0.18267314563E+03  0.00000000000E+00 0.  1.
         21   -1    0    0  501  502  0.00000000000E+00 -0.00000000000E+00 -0.10560846276E+03  0.10560846276E+03  0.00000000000E+00 0. -1.
         23    2    1    2    0    0  0.91393231007E+02 -0.14255658233E+02  0.82919570417E+02  0.15489647549E+03  0.92527382403E+02 0.  0.
         24    2    1    2    0    0 -0.71828864392E+02 -0.26101053084E+00 -0.95992470554E+01  0.10873724575E+03  0.81069039606E+02 0.  0.
        -11    1    4    4    0    0 -0.33079553122E+02  0.31352985068E+02  0.20921956958E+02  0.50149723732E+02  0.00000000000E+00 0.  1.
         12    1    4    4    0    0 -0.38749311270E+02 -0.31613995599E+02 -0.30521204013E+02  0.58587522017E+02  0.00000000000E+00 0. -1.
        -13    1    3    3    0    0  0.80095971110E+02  0.11845310274E+02  0.16482572242E+02  0.82627786799E+02  0.00000000000E+00 0.  1.
         13    1    3    3    0    0  0.11297259897E+02 -0.26100968507E+02  0.66436998175E+02  0.72268688688E+02  0.00000000000E+00 0. -1.
         -2    1    1    2    0  502 -0.19564366615E+02  0.14516668764E+02  0.37443595120E+01  0.24647887154E+02  0.00000000000E+00 0.  1.
<scales pt_clust_5="13000.00000" pt_clust_6="13000.00000" pt_clust_7="13000.00000" pt_clust_8="13000.00000" pt_clust_9="24.36182"></scales>
<clustering>
<clus scale="   24.362">  2  9  1 -1</clus>
<clus scale="   81.069">  5  6 -1 -1</clus>
<clus scale="   92.527">  7  8 -1 -1</clus>
<clus scale="  117.064">  2  5  1 -1</clus>
<clus scale="   24.362">  2  5  1 -1</clus>
</clustering>
</event>
<event>
 9    2  0.1325014E-004  0.1917596E+03  0.7546771E-02  0.1186679E+00
         21   -1    0    0  501  502  0.00000000000E+00  0.00000000000E+00  0.26535318683E+03  0.26535318683E+03  0.00000000000E+00 0. -1.
          2   -1    0    0  502    0 -0.00000000000E+00 -0.00000000000E+00 -0.31168581078E+03  0.31168581078E+03  0.00000000000E+00 0. -1.
         23    2    1    2    0    0  0.28238887206E+02  0.41010534238E+02  0.12509560592E+03  0.15841714135E+03  0.83473237531E+02 0.  0.
         24    2    1    2    0    0 -0.14280123687E+03 -0.14880014949E+03 -0.12779120035E+03  0.25538177705E+03  0.79721913077E+02 0.  0.
        -13    1    4    4    0    0 -0.83044495279E+02 -0.44450089919E+02 -0.25687825513E+02  0.97632284976E+02  0.00000000000E+00 0.  1.
         14    1    4    4    0    0 -0.59756741589E+02 -0.10435005957E+03 -0.10210337484E+03  0.15774949207E+03  0.00000000000E+00 0. -1.
        -13    1    3    3    0    0  0.14354966296E+02  0.66045033348E+02  0.97657061070E+02  0.11876410680E+03  0.00000000000E+00 0. -1.
         13    1    3    3    0    0  0.13883920909E+02 -0.25034499110E+02  0.27438544847E+02  0.39653034547E+02  0.00000000000E+00 0.  1.
          1    1    1    2  501    0  0.11456234966E+03  0.10778961525E+03 -0.43637029522E+02  0.16324007921E+03  0.00000000000E+00 0. -1.
<scales pt_clust_5="13000.00000" pt_clust_6="13000.00000" pt_clust_7="13000.00000" pt_clust_8="13000.00000" pt_clust_9="174.40233"></scales>
<clustering>
<clus scale="   79.722">  5  6 -1 -1</clus>
<clus scale="   83.473">  7  8 -1 -1</clus>
<clus scale="   97.196">  2  7  1 -1</clus>
<clus scale="  174.402">  1  9  2 -1</clus>
<clus scale="  174.402">  1  5  2 -1</clus>
</clustering>
</event>
<event>
 9    2  0.1325014E-004  0.9988506E+02  0.7546771E-02  0.1286173E+00
         21   -1    0    0  501  502  0.00000000000E+00  0.00000000000E+00  0.89432166274E+02  0.89432166274E+02  0.00000000000E+00 0.  1.
         -1   -1    0    0    0  501 -0.00000000000E+00 -0.00000000000E+00 -0.26912063596E+03  0.26912063596E+03  0.00000000000E+00 0.  1.
         23    2    1    2    0    0  0.27502866411E+02 -0.18942072918E+02 -0.11429276267E+03  0.15027891199E+03  0.91682637416E+02 0.  0.
         24    2    1    2    0    0  0.25705310363E+02  0.72603050547E+02 -0.71575371871E+02  0.13245305634E+03  0.80553164718E+02 0.  0.
        -11    1    4    4    0    0  0.17731369019E+02  0.90135758805E+02 -0.55202159440E+02  0.10717338695E+03  0.00000000000E+00 0.  1.
         12    1    4    4    0    0  0.79739413437E+01 -0.17532708258E+02 -0.16373212431E+02  0.25279669395E+02  0.00000000000E+00 0. -1.
        -11    1    3    3    0    0  0.49459070657E+02  0.67185105352E+00 -0.10989157262E+03  0.12051061691E+03  0.00000000000E+00 0.  1.
         11    1    3    3    0    0 -0.21956204246E+02 -0.19613923972E+02 -0.44011900486E+01  0.29768295086E+02  0.00000000000E+00 0. -1.
         -2    1    1    2    0  502 -0.53208176774E+02 -0.53660977629E+02  0.61796648547E+01  0.75820833901E+02  0.00000000000E+00 0.  1.
<scales pt_clust_5="13000.00000" pt_clust_6="13000.00000" pt_clust_7="13000.00000" pt_clust_8="13000.00000" pt_clust_9="75.56858"></scales>
<clustering>
<clus scale="   75.569">  1  9  2 -1</clus>
<clus scale="   80.553">  5  6 -1 -1</clus>
<clus scale="   89.778">  1  5  2 -1</clus>
<clus scale="   91.683">  7  8 -1 -1</clus>
<clus scale="   75.569">  1  5  2 -1</clus>
</clustering>
</event>
<event>
 9    2  0.1325014E-004  0.9836277E+02  0.7546771E-02  0.1286730E+00
          2   -1    0    0  502    0 -0.00000000000E+00  0.00000000000E+00  0.35456094332E+03  0.35456094332E+03  0.00000000000E+00 0. -1.
         21   -1    0    0  501  502  0.00000000000E+00 -0.00000000000E+00 -0.50139307222E+02  0.50139307222E+02  0.00000000000E+00 0.  1.
         23    2    1    2    0    0  0.29292463589E+02  0.34159478209E+02  0.24537187252E+03  0.26424845281E+03  0.87149128598E+02 0.  0.
         24    2    1    2    0    0 -0.51892508921E+02 -0.15060337863E+02  0.49948269166E+02  0.10949414259E+03  0.81083237546E+02 0.  0.
        -11    1    4    4    0    0 -0.28411583389E+02 -0.12824856285E+02 -0.19079609101E+02  0.36547592162E+02  0.00000000000E+00 0.  1.
         12    1    4    4    0    0 -0.23480925532E+02 -0.22354815781E+01  0.69027878267E+02  0.72946550431E+02  0.00000000000E+00 0. -1.
        -11    1    3    3    0    0 -0.12079448882E+01  0.46261775040E+02  0.58869596009E+02  0.74881508364E+02  0.00000000000E+00 0.  1.
         11    1    3    3    0    0  0.30500408477E+02 -0.12102296830E+02  0.18650227651E+03  0.18936694445E+03  0.00000000000E+00 0. -1.
          1    1    1    2  501    0  0.22600045332E+02 -0.19099140347E+02  0.91014944116E+01  0.30957655136E+02  0.00000000000E+00 0. -1.
<scales pt_clust_5="13000.00000" pt_clust_6="13000.00000" pt_clust_7="13000.00000" pt_clust_8="13000.00000" pt_clust_9="29.58951"></scales>
<clustering>
<clus scale="   29.590">  2  9  1 -1</clus>
<clus scale="   81.083">  5  6 -1 -1</clus>
<clus scale="   87.149">  7  8 -1 -1</clus>
<clus scale="   93.031">  2  5  1 -1</clus>
<clus scale="   29.590">  2  5  1 -1</clus>
</clustering>
</event>
<event>
 9    2  0.1325014E-004  0.1047681E+03  0.7546771E-02  0.1272565E+00
          2   -1    0    0  502    0 -0.00000000000E+00  0.00000000000E+00  0.14530789045E+03  0.14530789045E+03  0.00000000000E+00 0. -1.
         21   -1    0    0  501  502  0.00000000000E+00 -0.00000000000E+00 -0.26931652794E+03  0.26931652794E+03  0.00000000000E+00 0. -1.
         23    2    1    2    0    0  0.18383507174E+02  0.52060434073E+02  0.31903422988E+02  0.10696012992E+03  0.85874320150E+02 0.  0.
         24    2    1    2    0    0  0.80754557847E+02 -0.70434167376E+02 -0.15287053408E+02  0.13462861983E+03  0.80055610220E+02 0.  0.
        -13    1    4    4    0    0  0.51857018144E+02  0.33849919289E+01 -0.18835251797E+02  0.55275448541E+02  0.00000000000E+00 0.  1.
         14    1    4    4    0    0  0.28897539703E+02 -0.73819159305E+02  0.35481983895E+01  0.79353171286E+02  0.00000000000E+00 0. -1.
        -11    1    3    3    0    0 -0.34555989468E+02  0.20170752326E+02  0.16400342503E+02  0.43242882556E+02  0.00000000000E+00 0.  1.
         11    1    3    3    0    0  0.52939496641E+02  0.31889681747E+02  0.15503080485E+02  0.63717247360E+02  0.00000000000E+00 0. -1.
          1    1    1    2  501    0 -0.99138065021E+02  0.18373733303E+02 -0.14062500707E+03  0.17303566865E+03  0.00000000000E+00 0. -1.
<scales pt_clust_5="13000.00000" pt_clust_6="13000.00000" pt_clust_7="13000.00000" pt_clust_8="13000.00000" pt_clust_9="100.82634"></scales>
<clustering>
<clus scale="   80.056">  5  6 -1 -1</clus>
<clus scale="   85.874">  7  8 -1 -1</clus>
<clus scale="  100.826">  2  9  1 -1</clus>
<clus scale="  100.826">  2  5  1 -1</clus>
<clus scale="  100.826">  2  5  1 -1</clus>
</clustering>
</event>
<event>
 9    2  0.1325014E-004  0.1095679E+03  0.7546771E-02  0.1266104E+00
          2   -1    0    0  502    0 -0.00000000000E+00  0.00000000000E+00  0.10321620582E+04  0.10321620582E+04  0.00000000000E+00 0. -1.
         21   -1    0    0  501  502  0.00000000000E+00 -0.00000000000E+00 -0.32980401101E+02  0.32980401101E+02  0.00000000000E+00 0. -1.
         24    2    1    2    0    0  0.35481377720E+02  0.53224440892E+02  0.60733050792E+03  0.61592029791E+03  0.80098053996E+02 0.  0.
         23    2    1    2    0    0 -0.44550603526E+02 -0.82152346684E+01  0.69908147369E+02  0.12402164492E+03  0.91880209969E+02 0.  0.
        -11    1    3    3    0    0  0.15300359964E+02 -0.19551091480E+02  0.10201549330E+03  0.10499289055E+03  0.00000000000E+00 0.  1.
         12    1    3    3    0    0  0.20181017756E+02  0.72775532372E+02  0.50531501462E+03  0.51092740736E+03  0.00000000000E+00 0. -1.
        -11    1    4    4    0    0 -0.18329668338E+02 -0.39243147126E+02  0.71243186227E+02  0.83376213164E+02  0.00000000000E+00 0.  1.
         11    1    4    4    0    0 -0.26220935188E+02  0.31027912457E+02 -0.13350388575E+01  0.40645431753E+02  0.00000000000E+00 0. -1.
          1    1    1    2  501    0  0.90692258061E+01 -0.45009206223E+02  0.32194300185E+03  0.32520051651E+03  0.00000000000E+00 0. -1.
<scales pt_clust_5="13000.00000" pt_clust_6="13000.00000" pt_clust_7="13000.00000" pt_clust_8="13000.00000" pt_clust_9="45.91385"></scales>
<clustering>
<clus scale="   45.914">  2  9  1 -1</clus>
<clus scale="   80.098">  5  6 -1 -1</clus>
<clus scale="   91.880">  7  8 -1 -1</clus>
<clus scale="   99.894">  1  5  2 -1</clus>
<clus scale="   45.914">  2  5  1 -1</clus>
</clustering>
</event>
<event>
 9    2  0.1325014E-004  0.1078131E+03  0.7546771E-02  0.1269970E+00
         21   -1    0    0  501  502  0.00000000000E+00  0.00000000000E+00  0.10875126748E+03  0.10875126748E+03  0.00000000000E+00 0.  1.
          2   -1    0    0  502    0 -0.00000000000E+00 -0.00000000000E+00 -0.19774975020E+03  0.19774975020E+03  0.00000000000E+00 0. -1.
         23    2    1    2    0    0 -0.46491141477E+02 -0.28405691105E+02 -0.61209981089E+02  0.12284359776E+03  0.91518185095E+02 0.  0.
         24    2    1    2    0    0  0.11256733706E+02  0.70035033634E+02 -0.58453481785E+02  0.12108900409E+03  0.78829673284E+02 0.  0.
        -13    1    4    4    0    0  0.18674031129E-01  0.83043221169E+02 -0.30885906707E+02  0.88600881282E+02  0.00000000000E+00 0.  1.
         14    1    4    4    0    0  0.11238059675E+02 -0.13008187535E+02 -0.27567575078E+02  0.32488122812E+02  0.00000000000E+00 0. -1.
        -11    1    3    3    0    0 -0.59796329718E+02  0.14097117024E+02 -0.41509615309E+02  0.74144304698E+02  0.00000000000E+00 0.  1.
         11    1    3    3    0    0  0.13305188241E+02 -0.42502808129E+02 -0.19700365780E+02  0.48699293063E+02  0.00000000000E+00 0. -1.
          1    1    1    2  501    0  0.35234407771E+02 -0.41629342529E+02  0.30664980158E+02  0.62568415822E+02  0.00000000000E+00 0. -1.
<scales pt_clust_5="13000.00000" pt_clust_6="13000.00000" pt_clust_7="13000.00000" pt_clust_8="13000.00000" pt_clust_9="54.53866"></scales>
<clustering>
<clus scale="   54.539">  1  9  2 -1</clus>
<clus scale="   78.830">  5  6 -1 -1</clus>
<clus scale="   91.518">  7  8 -1 -1</clus>
<clus scale="   97.274">  1  5  2 -1</clus>
<clus scale="   54.539">  1  5  2 -1</clus>
</clustering>
</event>
<event>
 9    2  0.1325014E-004  0.2327899E+03  0.7546771E-02  0.1125367E+00
         21   -1    0    0  501  502  0.00000000000E+00  0.00000000000E+00  0.13726931902E+03  0.13726931902E+03  0.00000000000E+00 0.  1.
          2   -1    0    0  502    0 -0.00000000000E+00 -0.00000000000E+00 -0.83269848419E+03  0.83269848419E+03  0.00000000000E+00 0. -1.
         23    2    1    2    0    0  0.13886526251E+03 -0.20802399670E+03 -0.59753120863E+03  0.65421826396E+03  0.91653954023E+02 0.  0.
         24    2    1    2    0    0 -0.30726266697E+02  0.12466297955E+03 -0.78583734529E+01  0.15219456954E+03  0.81341693037E+02 0.  0.
        -11    1    4    4    0    0 -0.44494764072E+02  0.11613856736E+03  0.13819867342E+02  0.12513568473E+03  0.00000000000E+00 0.  1.
         12    1    4    4    0    0  0.13768497375E+02  0.85244121946E+01 -0.21678240795E+02  0.27058884810E+02  0.00000000000E+00 0. -1.
        -11    1    3    3    0    0  0.32375113999E+01 -0.67841651346E+02 -0.11217211421E+03  0.13113182049E+03  0.00000000000E+00 0.  1.
         11    1    3    3    0    0  0.13562775111E+03 -0.14018234535E+03 -0.48535909441E+03  0.52308644348E+03  0.00000000000E+00 0. -1.
          1    1    1    2  501    0 -0.10813899581E+03  0.83361017143E+02 -0.90039583084E+02  0.16355496971E+03  0.00000000000E+00 0. -1.
<scales pt_clust_5="13000.00000" pt_clust_6="13000.00000" pt_clust_7="13000.00000" pt_clust_8="13000.00000" pt_clust_9="136.53974"></scales>
<clustering>
<clus scale="   81.342">  5  6 -1 -1</clus>
<clus scale="   91.654">  7  8 -1 -1</clus>
<clus scale="  136.540">  1  9  2 -1</clus>
<clus scale="  228.926">  1  5  2 -1</clus>
<clus scale="  136.540">  1  5  2 -1</clus>
</clustering>
</event>
<event>
 9    2  0.1325014E-004  0.9709196E+02  0.7546771E-02  0.1293032E+00
          2   -1    0    0  502    0 -0.00000000000E+00  0.00000000000E+00  0.25538805311E+03  0.25538805311E+03  0.00000000000E+00 0. -1.
         21   -1    0    0  501  502  0.00000000000E+00 -0.00000000000E+00 -0.12563720138E+03  0.12563720138E+03  0.00000000000E+00 0. -1.
         24    2    1    2    0    0  0.23022274369E+02  0.21019782106E+02  0.20203348568E+03  0.21929434024E+03  0.79376457284E+02 0.  0.
         23    2    1    2    0    0 -0.46704533597E+02 -0.16941996875E+02 -0.22369654537E+02  0.10633431463E+03  0.91313965569E+02 0.  0.
        -13    1    3    3    0    0  0.51472971311E+02  0.23665122638E+02  0.13061019319E+03  0.14236757837E+03  0.00000000000E+00 0.  1.
         14    1    3    3    0    0 -0.28450696942E+02 -0.26453405314E+01  0.71423292482E+02  0.76926761871E+02  0.00000000000E+00 0. -1.
        -11    1    4    4    0    0  0.22099472225E+02  0.15653086097E+02 -0.11523913574E+02  0.29431383947E+02  0.00000000000E+00 0.  1.
         11    1    4    4    0    0 -0.68804005822E+02 -0.32595082972E+02 -0.10845740963E+02  0.76902930687E+02  0.00000000000E+00 0. -1.
          1    1    1    2  501    0  0.23682259228E+02 -0.40777852315E+01 -0.49912979411E+02  0.55396599608E+02  0.00000000000E+00 0. -1.
<scales pt_clust_5="13000.00000" pt_clust_6="13000.00000" pt_clust_7="13000.00000" pt_clust_8="13000.00000" pt_clust_9="24.03077"></scales>
<clustering>
<clus scale="   24.031">  2  9  1 -1</clus>
<clus scale="   79.376">  5  6 -1 -1</clus>
<clus scale="   85.961">  1  5  2 -1</clus>
<clus scale="   91.314">  7  8 -1 -1</clus>
<clus scale="   24.031">  2  5  1 -1</clus>
</clustering>
</event>
<event>
 9    2  0.1325014E-004  0.1678886E+03  0.7546771E-02  0.1203678E+00
          2   -1    0    0  502    0 -0.00000000000E+00  0.00000000000E+00  0.70396998009E+03  0.70396998009E+03  0.00000000000E+00 0. -1.
         21   -1    0    0  501  502  0.00000000000E+00 -0.00000000000E+00 -0.74639258410E+02  0.74639258410E+02  0.00000000000E+00 0.  1.
         24    2    1    2    0    0 -0.54244983492E+02 -0.49274372553E+00  0.65263526354E+02  0.11925423884E+03  0.83782364361E+02 0.  0.
         23    2    1    2    0    0 -0.55313599306E+02  0.11620136909E+03  0.16932960492E+03  0.23366810260E+03  0.96777655601E+02 0.  0.
        -11    1    3    3    0    0  0.42033391802E+01 -0.32239240163E+02  0.14583815641E+02  0.35633191622E+02  0.00000000000E+00 0.  1.
         12    1    3    3    0    0 -0.58448322673E+02  0.31746496437E+02  0.50679710713E+02  0.83621047214E+02  0.00000000000E+00 0. -1.
        -13    1    4    4    0    0 -0.33417316060E+02  0.12535071548E+03  0.11114269923E+03  0.17082803773E+03  0.00000000000E+00 0.  1.
         13    1    4    4    0    0 -0.21896283246E+02 -0.91493463815E+01  0.58186905689E+02  0.62840064870E+02  0.00000000000E+00 0. -1.
          1    1    1    2  501    0  0.10955858280E+03 -0.11570862537E+03  0.39473759041E+03  0.42568689706E+03  0.00000000000E+00 0. -1.
<scales pt_clust_5="13000.00000" pt_clust_6="13000.00000" pt_clust_7="13000.00000" pt_clust_8="13000.00000" pt_clust_9="137.18851"></scales>
<clustering>
<clus scale="   83.782">  5  6 -1 -1</clus>
<clus scale="   96.778">  7  8 -1 -1</clus>
<clus scale="   99.811">  1  5  2 -1</clus>
<clus scale="  137.189">  2  9  1 -1</clus>
<clus scale="  137.189">  2  5  1 -1</clus>
</clustering>
</event>
<event>
 9    2  0.1325014E-004  0.1457106E+03  0.7546771E-02  0.1207551E+00
         21   -1    0    0  501  502  0.00000000000E+00  0.00000000000E+00  0.87829274927E+02  0.87829274927E+02  0.00000000000E+00 0.  1.
         -3   -1    0    0    0  501 -0.00000000000E+00 -0.00000000000E+00 -0.36462404706E+03  0.36462404706E+03  0.00000000000E+00 0.  1.
         23    2    1    2    0    0  0.11059259617E+03 -0.12947669076E+02 -0.12115466660E+03  0.18812533136E+03  0.91182907373E+02 0.  0.
         24    2    1    2    0    0 -0.99495086750E+02  0.74515776521E+02 -0.12505727911E+03  0.19469254103E+03  0.82546891135E+02 0.  0.
        -13    1    4    4    0    0 -0.11234225391E+03  0.74625186840E+02 -0.12107324739E+03  0.18124136326E+03  0.00000000000E+00 0.  1.
         14    1    4    4    0    0  0.12847167158E+02 -0.10941031848E+00 -0.39840317267E+01  0.13451177770E+02  0.00000000000E+00 0. -1.
        -13    1    3    3    0    0  0.94638676517E+02  0.28904209978E+02 -0.79048820866E+02  0.12665168190E+03  0.00000000000E+00 0.  1.
         13    1    3    3    0    0  0.15953919649E+02 -0.41851879054E+02 -0.42105845737E+02  0.61473649458E+02  0.00000000000E+00 0. -1.
         -4    1    1    2    0  502 -0.11097509417E+02 -0.61568107445E+02 -0.30582826422E+02  0.69635449604E+02  0.00000000000E+00 0.  1.
<scales pt_clust_5="13000.00000" pt_clust_6="13000.00000" pt_clust_7="13000.00000" pt_clust_8="13000.00000" pt_clust_9="62.56026"></scales>
<clustering>
<clus scale="   62.560">  1  9  2 -1</clus>
<clus scale="   82.547">  5  6 -1 -1</clus>
<clus scale="   91.183">  7  8 -1 -1</clus>
<clus scale="  140.468">  1  5  2 -1</clus>
<clus scale="   62.560">  1  5  2 -1</clus>
</clustering>
</event>
<event>
 9    2  0.1325014E-004  0.9595183E+02  0.7546771E-02  0.1294949E+00
          4   -1    0    0  502    0 -0.00000000000E+00  0.00000000000E+00  0.24883504698E+03  0.24883504698E+03  0.00000000000E+00 0. -1.
         21   -1    0    0  501  502  0.00000000000E+00 -0.00000000000E+00 -0.22628211158E+03  0.22628211158E+03  0.00000000000E+00 0. -1.
         23    2    1    2    0    0 -0.26534665472E+02  0.52386614267E+01  0.20692170526E+03  0.22837467099E+03  0.92773197630E+02 0.  0.
         24    2    1    2    0    0  0.10160306056E+02  0.37267023410E+02 -0.47792601438E+02  0.10277060605E+03  0.82374764724E+02 0.  0.
        -13    1    4    4    0    0  0.32530753861E+02  0.34575202317E+02 -0.60500225312E+02  0.76902352531E+02  0.00000000000E+00 0.  1.
         14    1    4    4    0    0 -0.22370447804E+02  0.26918210927E+01  0.12707623874E+02  0.25868253522E+02  0.00000000000E+00 0. -1.
        -11    1    3    3    0    0 -0.46655011017E+02 -0.26621712319E+02  0.83128684951E+02  0.98973652461E+02  0.00000000000E+00 0.  1.
         11    1    3    3    0    0  0.20120345545E+02  0.31860373746E+02  0.12379302030E+03  0.12940101853E+03  0.00000000000E+00 0. -1.
          3    1    1    2  501    0  0.16374359415E+02 -0.42505684837E+02 -0.13657616841E+03  0.14397188152E+03  0.00000000000E+00 0. -1.
<scales pt_clust_5="13000.00000" pt_clust_6="13000.00000" pt_clust_7="13000.00000" pt_clust_8="13000.00000" pt_clust_9="45.55055"></scales>
<clustering>
<clus scale="   45.551">  2  9  1 -1</clus>
<clus scale="   82.375">  5  6 -1 -1</clus>
<clus scale="   85.939">  2  5  1 -1</clus>
<clus scale="   92.773">  7  8 -1 -1</clus>
<clus scale="   45.551">  2  5  1 -1</clus>
</clustering>
</event>
<event>
 9    2  0.1325014E-004  0.2454433E+03  0.7546771E-02  0.1138294E+00
         -3   -1    0    0    0  501 -0.00000000000E+00  0.00000000000E+00  0.21303426277E+03  0.21303426277E+03  0.00000000000E+00 0.  1.
         21   -1    0    0  501  502  0.00000000000E+00 -0.00000000000E+00 -0.48361342490E+03  0.48361342490E+03  0.00000000000E+00 0.  1.
         24    2    1    2    0    0 -0.11519337081E+03  0.80224079958E+01 -0.34275399397E+02  0.14639983930E+03  0.83212007762E+02 0.  0.
         23    2    1    2    0    0  0.20911308344E+03  0.17684713927E+03 -0.11804968662E+03  0.31153947305E+03  0.90099514008E+02 0.  0.
        -11    1    3    3    0    0 -0.11811086947E+03  0.28443752485E+02 -0.32099629711E+02  0.12565671796E+03  0.00000000000E+00 0.  1.
         12    1    3    3    0    0  0.29174986600E+01 -0.20421344489E+02 -0.21757696861E+01  0.20743121339E+02  0.00000000000E+00 0. -1.
        -13    1    4    4    0    0  0.17512252225E+03  0.95693266701E+02 -0.71383220227E+02  0.21194495328E+03  0.00000000000E+00 0.  1.
         13    1    4    4    0    0  0.33990561193E+02  0.81153872571E+02 -0.46666466397E+02  0.99594519776E+02  0.00000000000E+00 0. -1.
         -4    1    1    2    0  502 -0.93919712636E+02 -0.18486954727E+03 -0.11825407611E+03  0.23870837531E+03  0.00000000000E+00 0.  1.
<scales pt_clust_5="13000.00000" pt_clust_6="13000.00000" pt_clust_7="13000.00000" pt_clust_8="13000.00000" pt_clust_9="228.30793"></scales>
<clustering>
<clus scale="   83.212">  5  6 -1 -1</clus>
<clus scale="   90.100">  7  8 -1 -1</clus>
<clus scale="  142.331">  1  5  2 -1</clus>
<clus scale="  228.308">  2  9  1 -1</clus>
<clus scale="  228.308">  2  5  1 -1</clus>
</clustering>
</event>
<event>
 9    2  0.1325014E-004  0.1122909E+03  0.7546771E-02  0.1257257E+00
          2   -1    0    0  502    0 -0.00000000000E+00  0.00000000000E+00  0.10445625845E+04  0.10445625845E+04  0.00000000000E+00 0. -1.
         21   -1    0    0  501  502  0.00000000000E+00 -0.00000000000E+00 -0.22610110734E+02  0.22610110734E+02  0.00000000000E+00 0.  1.
         23    2    1    2    0    0  0.82011142134E+02 -0.35406532837E+02  0.51210006640E+03  0.52688436494E+03  0.85913945373E+02 0.  0.
         24    2    1    2    0    0 -0.36691422946E+02  0.18289136823E+02  0.14491680420E+03  0.17215129514E+03  0.83393256532E+02 0.  0.
        -13    1    4    4    0    0 -0.42440645441E+02  0.42423181405E+02  0.64964493396E+02  0.88438227641E+02  0.00000000000E+00 0.  1.
         14    1    4    4    0    0  0.57492224944E+01 -0.24134044583E+02  0.79952310801E+02  0.83713067496E+02  0.00000000000E+00 0. -1.
        -13    1    3    3    0    0  0.26213543620E+02  0.28492679374E+02  0.18044419119E+03  0.18455104654E+03  0.00000000000E+00 0.  1.
         13    1    3    3    0    0  0.55797598515E+02 -0.63899212212E+02  0.33165587521E+03  0.34233331839E+03  0.00000000000E+00 0. -1.
          1    1    1    2  501    0 -0.45319719188E+02  0.17117396015E+02  0.36493560316E+03  0.36813703515E+03  0.00000000000E+00 0. -1.
<scales pt_clust_5="13000.00000" pt_clust_6="13000.00000" pt_clust_7="13000.00000" pt_clust_8="13000.00000" pt_clust_9="48.44465"></scales>
<clustering>
<clus scale="   48.445">  2  9  1 -1</clus>
<clus scale="   83.393">  5  6 -1 -1</clus>
<clus scale="   85.914">  7  8 -1 -1</clus>
<clus scale="  110.374">  2  5  1 -1</clus>
<clus scale="   48.445">  2  5  1 -1</clus>
</clustering>
</event>
<event>
 9    2  0.1325014E-004  0.9391924E+02  0.7546771E-02  0.1302391E+00
          2   -1    0    0  502    0 -0.00000000000E+00  0.00000000000E+00  0.82381191508E+03  0.82381191508E+03  0.00000000000E+00 0. -1.
         21   -1    0    0  501  502  0.00000000000E+00 -0.00000000000E+00 -0.98075107460E+02  0.98075107460E+02  0.00000000000E+00 0. -1.
         24    2    1    2    0    0  0.10401303342E+02 -0.45376774259E+01  0.75337596748E+03  0.75762265007E+03  0.79296619675E+02 0.  0.
         23    2    1    2    0    0  0.31858868882E+02  0.78456378054E+01  0.19436896923E+02  0.10091597170E+03  0.93432857302E+02 0.  0.
        -11    1    3    3    0    0 -0.15784068923E+02 -0.12763044390E+02  0.53697385943E+02  0.57405935155E+02  0.00000000000E+00 0.  1.
         12    1    3    3    0    0  0.26185372264E+02  0.82253669646E+01  0.69967858154E+03  0.70021671491E+03  0.00000000000E+00 0. -1.
        -11    1    4    4    0    0  0.18718501075E+02 -0.39836876333E+02  0.25845338600E+02  0.51042536435E+02  0.00000000000E+00 0.  1.
         11    1    4    4    0    0  0.13140367808E+02  0.47682514138E+02 -0.64084416768E+01  0.49873435267E+02  0.00000000000E+00 0. -1.
          1    1    1    2  501    0 -0.42260172224E+02 -0.33079603795E+01 -0.47076056780E+02  0.63348400771E+02  0.00000000000E+00 0. -1.
<scales pt_clust_5="13000.00000" pt_clust_6="13000.00000" pt_clust_7="13000.00000" pt_clust_8="13000.00000" pt_clust_9="42.38944"></scales>
<clustering>
<clus scale="   42.389">  2  9  1 -1</clus>
<clus scale="   79.297">  5  6 -1 -1</clus>
<clus scale="   79.869">  1  5  2 -1</clus>
<clus scale="   93.433">  7  8 -1 -1</clus>
<clus scale="   42.389">  2  5  1 -1</clus>
</clustering>
</event>
<event>
 9    2  0.1325014E-004  0.3374298E+03  0.7546771E-02  0.1068087E+00
          2   -1    0    0  502    0 -0.00000000000E+00  0.00000000000E+00  0.17086775483E+04  0.17086775483E+04  0.00000000000E+00 0. -1.
         21   -1    0    0  501  502  0.00000000000E+00 -0.00000000000E+00 -0.86484619154E+02  0.86484619154E+02  0.00000000000E+00 0. -1.
         24    2    1    2    0    0  0.35584909395E+03 -0.32582443286E+01  0.99040218042E+03  0.10557939572E+04  0.84647547829E+02 0.  0.
         23    2    1    2    0    0 -0.28269015152E+03 -0.37185968135E+02  0.47042447729E+03  0.55763478253E+03  0.91437650148E+02 0.  0.
        -13    1    3    3    0    0  0.12147329148E+03 -0.39523712644E+02  0.31237830684E+03  0.33748791236E+03  0.00000000000E+00 0.  1.
         14    1    3    3    0    0  0.23437580247E+03  0.36265468315E+02  0.67802387358E+03  0.71830604489E+03  0.00000000000E+00 0. -1.
        -13    1    4    4    0    0 -0.19241064461E+03 -0.67771490885E+02  0.32763877498E+03  0.38595595346E+03  0.00000000000E+00 0.  1.
         13    1    4    4    0    0 -0.90279506909E+02  0.30585522750E+02  0.14278570231E+03  0.17167882908E+03  0.00000000000E+00 0. -1.
          1    1    1    2  501    0 -0.73158942434E+02  0.40444212464E+02  0.16136627147E+03  0.18173342771E+03  0.00000000000E+00 0. -1.
<scales pt_clust_5="13000.00000" pt_clust_6="13000.00000" pt_clust_7="13000.00000" pt_clust_8="13000.00000" pt_clust_9="83.59405"></scales>
<clustering>
<clus scale="   83.594">  2  9  1 -1</clus>
<clus scale="   84.648">  5  6 -1 -1</clus>
<clus scale="   91.438">  7  8 -1 -1</clus>
<clus scale="  335.653">  1  5  2 -1</clus>
<clus scale="   83.594">  2  5  1 -1</clus>
</clustering>
</event>
<event>
 9    2  0.1325014E-004  0.1449424E+03  0.7546771E-02  0.1226899E+00
          2   -1    0    0  502    0 -0.00000000000E+00  0.00000000000E+00  0.39974284022E+03  0.39974284022E+03  0.00000000000E+00 0. -1.
         21   -1    0    0  501  502  0.00000000000E+00 -0.00000000000E+00 -0.50699490455E+03  0.50699490455E+03  0.00000000000E+00 0. -1.
         23    2    1    2    0    0  0.19605347620E+02 -0.24008739152E+02  0.35770768731E+03  0.37007851227E+03  0.89680134177E+02 0.  0.
         24    2    1    2    0    0  0.49696593297E+02  0.11710612402E+03 -0.24374890399E+03  0.28685106370E+03  0.81770464615E+02 0.  0.
        -13    1    4    4    0    0 -0.14499186602E+02  0.59565295217E+02 -0.13345821250E+03  0.14686505810E+03  0.00000000000E+00 0.  1.
         14    1    4    4    0    0  0.64195779898E+02  0.57540828804E+02 -0.11029069149E+03  0.13998600560E+03  0.00000000000E+00 0. -1.
        -13    1    3    3    0    0 -0.16748985510E+02 -0.45053393916E+02  0.13162681496E+03  0.14012835271E+03  0.00000000000E+00 0. -1.
         13    1    3    3    0    0  0.36354333130E+02  0.21044654764E+02  0.22608087236E+03  0.22995015955E+03  0.00000000000E+00 0.  1.
          1    1    1    2  501    0 -0.69301940917E+02 -0.93097384869E+02 -0.22121084766E+03  0.24980816881E+03  0.00000000000E+00 0. -1.
<scales pt_clust_5="13000.00000" pt_clust_6="13000.00000" pt_clust_7="13000.00000" pt_clust_8="13000.00000" pt_clust_9="119.67405"></scales>
<clustering>
<clus scale="   81.770">  5  6 -1 -1</clus>
<clus scale="   89.680">  7  8 -1 -1</clus>
<clus scale="   94.886">  1  7  2 -1</clus>
<clus scale="  119.674">  2  9  1 -1</clus>
<clus scale="  119.674">  2  5  1 -1</clus>
</clustering>
</event>
<event>
 9    2  0.1325014E-004  0.1870909E+03  0.7546771E-02  0.1194323E+00
         21   -1    0    0  501  502  0.00000000000E+00  0.00000000000E+00  0.12625453297E+03  0.12625453297E+03  0.00000000000E+00 0. -1.
          2   -1    0    0  502    0 -0.00000000000E+00 -0.00000000000E+00 -0.40370746054E+03  0.40370746054E+03  0.00000000000E+00 0. -1.
         24    2    1    2    0    0 -0.31113638376E+02  0.18562066593E+02 -0.16109560554E+02  0.89860424316E+02  0.80639748932E+02 0.  0.
         23    2    1    2    0    0 -0.66286843466E+02 -0.15156262386E+03 -0.12247466776E+03  0.22455454944E+03  0.89774867666E+02 0.  0.
        -13    1    3    3    0    0 -0.52680611395E+02  0.27886969968E+02  0.28410189880E+01  0.59674125882E+02  0.00000000000E+00 0.  1.
         14    1    3    3    0    0  0.21566973019E+02 -0.93249033746E+01 -0.18950579542E+02  0.30186298434E+02  0.00000000000E+00 0. -1.
        -13    1    4    4    0    0  0.21492027618E+02 -0.33237220696E+02 -0.15604175250E+02  0.42545391948E+02  0.00000000000E+00 0.  1.
         13    1    4    4    0    0 -0.87778871084E+02 -0.11832540316E+03 -0.10687049251E+03  0.18200915749E+03  0.00000000000E+00 0. -1.
          1    1    1    2  501    0  0.97400481842E+02  0.13300055726E+03 -0.13886869925E+03  0.21554701976E+03  0.00000000000E+00 0. -1.
<scales pt_clust_5="13000.00000" pt_clust_6="13000.00000" pt_clust_7="13000.00000" pt_clust_8="13000.00000" pt_clust_9="164.14474"></scales>
<clustering>
<clus scale="   80.640">  5  6 -1 -1</clus>
<clus scale="   88.405">  2  5  1 -1</clus>
<clus scale="   89.775">  7  8 -1 -1</clus>
<clus scale="  164.145">  1  9  2 -1</clus>
<clus scale="  164.145">  1  5  2 -1</clus>
</clustering>
</event>
<event>
 9    2  0.1325014E-004  0.2101731E+03  0.7546771E-02  0.1142242E+00
         -1   -1    0    0    0  501 -0.00000000000E+00  0.00000000000E+00  0.50520195522E+03  0.50520195522E+03  0.00000000000E+00 0.  1.
         21   -1    0    0  501  502  0.00000000000E+00 -0.00000000000E+00 -0.34036063781E+03  0.34036063781E+03  0.00000000000E+00 0.  1.
         24    2    1    2    0    0 -0.18845638399E+03 -0.33485884680E+02  0.43717469282E+03  0.48398282867E+03  0.80501883637E+02 0.  0.
         23    2    1    2    0    0  0.16276135176E+03  0.44075109042E+02 -0.27347935187E+03  0.33376466745E+03  0.90410311772E+02 0.  0.
        -13    1    3    3    0    0 -0.12308924099E+03  0.13862023622E+02  0.22281039411E+03  0.25492663389E+03  0.00000000000E+00 0.  1.
         14    1    3    3    0    0 -0.65367143005E+02 -0.47347908302E+02  0.21436429871E+03  0.22905619478E+03  0.00000000000E+00 0. -1.
        -13    1    4    4    0    0  0.11365201452E+03 -0.27386762680E+01 -0.21900866823E+03  0.24675712251E+03  0.00000000000E+00 0.  1.
         13    1    4    4    0    0  0.49109337244E+02  0.46813785310E+02 -0.54470683640E+02  0.87007544937E+02  0.00000000000E+00 0. -1.
         -2    1    1    2    0  502  0.25695032231E+02 -0.10589224362E+02  0.11459764674E+01  0.27815096908E+02  0.00000000000E+00 0.  1.
<scales pt_clust_5="13000.00000" pt_clust_6="13000.00000" pt_clust_7="13000.00000" pt_clust_8="13000.00000" pt_clust_9="27.79148"></scales>
<clustering>
<clus scale="   27.791">  2  9  1 -1</clus>
<clus scale="   80.502">  5  6 -1 -1</clus>
<clus scale="   90.410">  7  8 -1 -1</clus>
<clus scale="  206.105">  1  5  2 -1</clus>
<clus scale="   27.791">  2  5  1 -1</clus>
</clustering>
</event>
<event>
 9    2  0.1325014E-004  0.1659151E+03  0.7546771E-02  0.1184893E+00
          2   -1    0    0  502    0 -0.00000000000E+00  0.00000000000E+00  0.41607381315E+03  0.41607381315E+03  0.00000000000E+00 0. -1.
         21   -1    0    0  501  502  0.00000000000E+00 -0.00000000000E+00 -0.15139544536E+03  0.15139544536E+03  0.00000000000E+00 0. -1.
         24    2    1    2    0    0 -0.60252196154E+02  0.13765352720E+03  0.27304103225E+03  0.32153497456E+03  0.79085484632E+02 0.  0.
         23    2    1    2    0    0  0.66824049107E+01 -0.69737475782E+02 -0.71026093375E+02  0.13912127960E+03  0.96964191500E+02 0.  0.
        -11    1    3    3    0    0 -0.45246537604E+02  0.18624374118E+02  0.64669892503E+02  0.81094460185E+02  0.00000000000E+00 0.  1.
         12    1    3    3    0    0 -0.15005658551E+02  0.11902915309E+03  0.20837113975E+03  0.24044051438E+03  0.00000000000E+00 0. -1.
        -11    1    4    4    0    0 -0.17784077776E+02 -0.69940284920E+02 -0.84553860644E+02  0.11116326833E+03  0.00000000000E+00 0. -1.
         11    1    4    4    0    0  0.24466482686E+02  0.20280913784E+00  0.13527767269E+02  0.27958011265E+02  0.00000000000E+00 0.  1.
          1    1    1    2  501    0  0.53569791244E+02 -0.67916051422E+02  0.62663428909E+02  0.10681300435E+03  0.00000000000E+00 0. -1.
<scales pt_clust_5="13000.00000" pt_clust_6="13000.00000" pt_clust_7="13000.00000" pt_clust_8="13000.00000" pt_clust_9="86.50040"></scales>
<clustering>
<clus scale="   79.085">  5  6 -1 -1</clus>
<clus scale="   86.500">  2  9  1 -1</clus>
<clus scale="   96.964">  7  8 -1 -1</clus>
<clus scale="  156.142">  1  5  2 -1</clus>
<clus scale="   86.500">  2  5  1 -1</clus>
</clustering>
</event>
<event>
 9    2  0.1325014E-004  0.1339032E+03  0.7546771E-02  0.1224618E+00
         21   -1    0    0  501  502  0.00000000000E+00  0.00000000000E+00  0.65976197955E+02  0.65976197955E+02  0.00000000000E+00 0.  1.
         -1   -1    0    0    0  501 -0.00000000000E+00 -0.00000000000E+00 -0.50706111293E+03  0.50706111293E+03  0.00000000000E+00 0.  1.
         23    2    1    2    0    0 -0.11521832136E+03 -0.99366950605E+01 -0.30419873208E+03  0.33816377227E+03  0.91890526105E+02 0.  0.
         24    2    1    2    0    0  0.52783311636E+02  0.34195225079E+01 -0.14307971488E+02  0.97156357814E+02  0.80230098430E+02 0.  0.
        -13    1    4    4    0    0  0.17795401442E+02  0.32103266335E+02  0.18659685893E+02  0.41176205501E+02  0.00000000000E+00 0.  1.
         14    1    4    4    0    0  0.34987910194E+02 -0.28683743827E+02 -0.32967657382E+02  0.55980152312E+02  0.00000000000E+00 0. -1.
        -11    1    3    3    0    0 -0.93698195256E+02 -0.18226433086E+02 -0.29987451638E+03  0.31470030224E+03  0.00000000000E+00 0.  1.
         11    1    3    3    0    0 -0.21520126106E+02  0.82897380251E+01 -0.43242157006E+01  0.23463470024E+02  0.00000000000E+00 0. -1.
         -2    1    1    2    0  502  0.62435009726E+02  0.65171725526E+01 -0.12257821141E+03  0.13771718081E+03  0.00000000000E+00 0.  1.
<scales pt_clust_5="13000.00000" pt_clust_6="13000.00000" pt_clust_7="13000.00000" pt_clust_8="13000.00000" pt_clust_9="62.77426"></scales>
<clustering>
<clus scale="   62.774">  1  9  2 -1</clus>
<clus scale="   80.230">  5  6 -1 -1</clus>
<clus scale="   91.891">  7  8 -1 -1</clus>
<clus scale="  126.187">  1  5  2 -1</clus>
<clus scale="   62.774">  1  5  2 -1</clus>
</clustering>
</event>
<event>
 9    2  0.1325014E-004  0.1063277E+03  0.7546771E-02  0.1273228E+00
          2   -1    0    0  502    0 -0.00000000000E+00  0.00000000000E+00  0.46625463041E+03  0.46625463041E+03  0.00000000000E+00 0. -1.
         21   -1    0    0  501  502  0.00000000000E+00 -0.00000000000E+00 -0.42142595004E+02  0.42142595004E+02  0.00000000000E+00 0. -1.
         24    2    1    2    0    0  0.17021722793E+02 -0.46118781948E+02  0.21257417958E+03  0.23182687091E+03  0.78353271525E+02 0.  0.
         23    2    1    2    0    0 -0.41776872900E+02  0.58556709309E+02  0.77838335361E+02  0.14003068529E+03  0.91518255326E+02 0.  0.
        -11    1    3    3    0    0  0.45490412241E+02 -0.11410869106E+02  0.12289494697E+03  0.13153993132E+03  0.00000000000E+00 0.  1.
         12    1    3    3    0    0 -0.28468689448E+02 -0.34707912842E+02  0.89679232607E+02  0.10028693960E+03  0.00000000000E+00 0. -1.
        -13    1    4    4    0    0 -0.59576662023E+02  0.14429761468E+02  0.18620248625E+02  0.64064891577E+02  0.00000000000E+00 0. -1.
         13    1    4    4    0    0  0.17799789123E+02  0.44126947840E+02  0.59218086736E+02  0.75965793718E+02  0.00000000000E+00 0.  1.
          1    1    1    2  501    0  0.24755150107E+02 -0.12437927361E+02  0.13369952047E+03  0.13653966921E+03  0.00000000000E+00 0. -1.
<scales pt_clust_5="13000.00000" pt_clust_6="13000.00000" pt_clust_7="13000.00000" pt_clust_8="13000.00000" pt_clust_9="27.70416"></scales>
<clustering>
<clus scale="   27.704">  2  9  1 -1</clus>
<clus scale="   78.353">  5  6 -1 -1</clus>
<clus scale="   91.518">  7  8 -1 -1</clus>
<clus scale="   95.232">  1  5  2 -1</clus>
<clus scale="   27.704">  2  5  1 -1</clus>
</clustering>
</event>
<event>
 9    2  0.1325014E-004  0.1865000E+03  0.7546771E-02  0.1163162E+00
          2   -1    0    0  502    0 -0.00000000000E+00  0.00000000000E+00  0.72441965644E+03  0.72441965644E+03  0.00000000000E+00 0. -1.
         21   -1    0    0  501  502  0.00000000000E+00 -0.00000000000E+00 -0.65921655985E+02  0.65921655985E+02  0.00000000000E+00 0. -1.
         23    2    1    2    0    0  0.13185209218E+03  0.55868730946E+02  0.28572781127E+03  0.33229507710E+03  0.90957939839E+02 0.  0.
         24    2    1    2    0    0 -0.16873143788E+03 -0.74250311227E+02  0.36502378929E+03  0.41611801876E+03  0.76996311274E+02 0.  0.
        -13    1    4    4    0    0 -0.34083264510E+02 -0.17590742355E+02  0.24316957781E+02  0.45413847800E+02  0.00000000000E+00 0.  1.
         14    1    4    4    0    0 -0.13464817337E+03 -0.56659568872E+02  0.34070683150E+03  0.37070417096E+03  0.00000000000E+00 0. -1.
        -13    1    3    3    0    0  0.83012445779E+02  0.21284486332E+02  0.77175446934E+02  0.11532625513E+03  0.00000000000E+00 0. -1.
         13    1    3    3    0    0  0.48839646404E+02  0.34584244614E+02  0.20855236434E+03  0.21696882197E+03  0.00000000000E+00 0.  1.
          1    1    1    2  501    0  0.36879345696E+02  0.18381580282E+02  0.77463998961E+01  0.41928216561E+02  0.00000000000E+00 0. -1.
<scales pt_clust_5="13000.00000" pt_clust_6="13000.00000" pt_clust_7="13000.00000" pt_clust_8="13000.00000" pt_clust_9="41.20641"></scales>
<clustering>
<clus scale="   41.206">  2  9  1 -1</clus>
<clus scale="   76.996">  5  6 -1 -1</clus>
<clus scale="   90.958">  7  8 -1 -1</clus>
<clus scale="  180.104">  2  5  1 -1</clus>
<clus scale="   41.206">  2  5  1 -1</clus>
</clustering>
</event>
<event>
 9    2  0.1325014E-004  0.2238611E+03  0.7546771E-02  0.1131742E+00
         21   -1    0    0  501  502  0.00000000000E+00  0.00000000000E+00  0.48602089260E+02  0.48602089260E+02  0.00000000000E+00 0. -1.
          2   -1    0    0  502    0 -0.00000000000E+00 -0.00000000000E+00 -0.13111201811E+04  0.13111201811E+04  0.00000000000E+00 0. -1.
         23    2    1    2    0    0  0.55361075995E+02 -0.20503556659E+03 -0.78347181678E+03  0.81681501893E+03  0.90852931487E+02 0.  0.
         24    2    1    2    0    0 -0.58139749833E+02  0.18113524748E+03 -0.31293044646E+03  0.37505787016E+03  0.80948954618E+02 0.  0.
        -11    1    4    4    0    0 -0.74974878568E+01  0.12448067191E+03 -0.23601534557E+03  0.26693612222E+03  0.00000000000E+00 0.  1.
         12    1    4    4    0    0 -0.50642261976E+02  0.56654575568E+02 -0.76915100893E+02  0.10812174793E+03  0.00000000000E+00 0. -1.
        -11    1    3    3    0    0  0.58945125307E+02 -0.12968782145E+03 -0.62872852264E+03  0.64466504016E+03  0.00000000000E+00 0. -1.
         11    1    3    3    0    0 -0.35840493125E+01 -0.75347745148E+02 -0.15474329414E+03  0.17214997877E+03  0.00000000000E+00 0.  1.
          1    1    1    2  501    0  0.27786738377E+01  0.23900319115E+02 -0.16611582858E+03  0.16784938125E+03  0.00000000000E+00 0. -1.
<scales pt_clust_5="13000.00000" pt_clust_6="13000.00000" pt_clust_7="13000.00000" pt_clust_8="13000.00000" pt_clust_9="24.06131"></scales>
<clustering>
<clus scale="   24.061">  1  9  2 -1</clus>
<clus scale="   80.949">  5  6 -1 -1</clus>
<clus scale="   90.853">  7  8 -1 -1</clus>
<clus scale="  220.028">  1  5  2 -1</clus>
<clus scale="   24.061">  1  5  2 -1</clus>
</clustering>
</event>
<event>
 9    2  0.1325014E-004  0.1037919E+03  0.7546771E-02  0.1275686E+00
          2   -1    0    0  502    0 -0.00000000000E+00  0.00000000000E+00  0.43931580521E+03  0.43931580521E+03  0.00000000000E+00 0. -1.
         21   -1    0    0  501  502  0.00000000000E+00 -0.00000000000E+00 -0.46074717811E+02  0.46074717811E+02  0.00000000000E+00 0. -1.
         24    2    1    2    0    0  0.95217969272E+01 -0.46863699605E+02  0.27467929492E+03  0.29045454515E+03  0.81414106791E+02 0.  0.
         23    2    1    2    0    0 -0.14155291919E+01  0.79642374181E+02  0.79368358986E+02  0.14320321927E+03  0.88673074337E+02 0.  0.
        -13    1    3    3    0    0  0.26006117508E+02  0.14499601132E+02  0.10950109191E+03  0.11347707130E+03  0.00000000000E+00 0.  1.
         14    1    3    3    0    0 -0.16484320581E+02 -0.61363300738E+02  0.16517820301E+03  0.17697747385E+03  0.00000000000E+00 0. -1.
        -13    1    4    4    0    0 -0.22168631571E+02  0.41911416501E+02 -0.58008709709E+01  0.47766778862E+02  0.00000000000E+00 0. -1.
         13    1    4    4    0    0  0.20753102379E+02  0.37730957680E+02  0.85169229957E+02  0.95436440406E+02  0.00000000000E+00 0.  1.
          1    1    1    2  501    0 -0.81062677353E+01 -0.32778674576E+02  0.39193433495E+02  0.51732758603E+02  0.00000000000E+00 0. -1.
<scales pt_clust_5="13000.00000" pt_clust_6="13000.00000" pt_clust_7="13000.00000" pt_clust_8="13000.00000" pt_clust_9="33.76615"></scales>
<clustering>
<clus scale="   33.766">  2  9  1 -1</clus>
<clus scale="   81.414">  5  6 -1 -1</clus>
<clus scale="   88.673">  7  8 -1 -1</clus>
<clus scale="   97.663">  1  5  2 -1</clus>
<clus scale="   33.766">  2  5  1 -1</clus>
</clustering>
</event>
<event>
 9    2  0.1325014E-004  0.9380020E+02  0.7546771E-02  0.1303309E+00
          2   -1    0    0  502    0 -0.00000000000E+00  0.00000000000E+00  0.90021156005E+02  0.90021156005E+02  0.00000000000E+00 0. -1.
         21   -1    0    0  501  502  0.00000000000E+00 -0.00000000000E+00 -0.15801185412E+03  0.15801185412E+03  0.00000000000E+00 0.  1.
         24    2    1    2    0    0 -0.35368740945E+01 -0.36278570915E+02  0.99268608891E+01  0.83565549164E+02  0.74538676229E+02 0.  0.
         23    2    1    2    0    0 -0.24864095549E+02 -0.22097907027E+01 -0.67779687877E+02  0.11557221081E+03  0.90220526490E+02 0.  0.
        -11    1    3    3    0    0  0.99991387211E+01 -0.22038855246E+02 -0.30311117154E+02  0.38787339930E+02  0.00000000000E+00 0.  1.
         12    1    3    3    0    0 -0.13536012816E+02 -0.14239715669E+02  0.40237978043E+02  0.44778209234E+02  0.00000000000E+00 0. -1.
        -11    1    4    4    0    0 -0.30573925926E+02 -0.41829492351E+02 -0.26982380067E+02  0.58416780217E+02  0.00000000000E+00 0. -1.
         11    1    4    4    0    0  0.57098303766E+01  0.39619701648E+02 -0.40797307810E+02  0.57155430592E+02  0.00000000000E+00 0.  1.
          1    1    1    2  501    0  0.28400969644E+02  0.38488361617E+02 -0.10137871131E+02  0.48895250155E+02  0.00000000000E+00 0. -1.
<scales pt_clust_5="13000.00000" pt_clust_6="13000.00000" pt_clust_7="13000.00000" pt_clust_8="13000.00000" pt_clust_9="47.83274"></scales>
<clustering>
<clus scale="   47.833">  2  9  1 -1</clus>
<clus scale="   74.539">  5  6 -1 -1</clus>
<clus scale="   78.834">  1  5  2 -1</clus>
<clus scale="   90.221">  7  8 -1 -1</clus>
<clus scale="   47.833">  2  5  1 -1</clus>
</clustering>
</event>
<event>
 9    2  0.1325014E-004  0.1806095E+03  0.7546771E-02  0.1168762E+00
          2   -1    0    0  502    0 -0.00000000000E+00  0.00000000000E+00  0.70535678781E+03  0.70535678781E+03  0.00000000000E+00 0. -1.
         21   -1    0    0  501  502  0.00000000000E+00 -0.00000000000E+00 -0.55400411736E+02  0.55400411736E+02  0.00000000000E+00 0.  1.
         24    2    1    2    0    0 -0.12003257252E+03 -0.10226729575E+03  0.42558483296E+03  0.46111823307E+03  0.81493291614E+02 0.  0.
         23    2    1    2    0    0  0.99831107810E+02  0.10889905296E+03  0.18447749093E+03  0.25443260874E+03  0.94227139983E+02 0.  0.
        -13    1    3    3    0    0 -0.10928412917E+03 -0.51970400712E+02  0.24354883420E+03  0.27195583847E+03  0.00000000000E+00 0.  1.
         14    1    3    3    0    0 -0.10748443343E+02 -0.50296895037E+02  0.18203599876E+03  0.18916239460E+03  0.00000000000E+00 0. -1.
        -11    1    4    4    0    0  0.53313596717E+02 -0.30983725773E+01  0.47352024932E+02  0.71373340770E+02  0.00000000000E+00 0. -1.
         11    1    4    4    0    0  0.46517511093E+02  0.11199742554E+03  0.13712546599E+03  0.18305926797E+03  0.00000000000E+00 0.  1.
          1    1    1    2  501    0  0.20201464706E+02 -0.66317572111E+01  0.39894052190E+02  0.45206357740E+02  0.00000000000E+00 0. -1.
<scales pt_clust_5="13000.00000" pt_clust_6="13000.00000" pt_clust_7="13000.00000" pt_clust_8="13000.00000" pt_clust_9="21.26217"></scales>
<clustering>
<clus scale="   21.262">  2  9  1 -1</clus>
<clus scale="   81.493">  5  6 -1 -1</clus>
<clus scale="   94.227">  7  8 -1 -1</clus>
<clus scale="  174.305">  1  5  2 -1</clus>
<clus scale="   21.262">  2  5  1 -1</clus>
</clustering>
</event>
<event>
 9    2  0.1325014E-004  0.8515611E+02  0.7546771E-02  0.1315667E+00
         21   -1    0    0  501  502  0.00000000000E+00  0.00000000000E+00  0.32576512999E+03  0.32576512999E+03  0.00000000000E+00 0. -1.
          2   -1    0    0  502    0 -0.00000000000E+00 -0.00000000000E+00 -0.73721311196E+02  0.73721311196E+02  0.00000000000E+00 0. -1.
         24    2    1    2    0    0  0.27557893976E+02 -0.14040274438E+02 -0.26229670794E+02  0.89688749829E+02  0.79996933623E+02 0.  0.
         23    2    1    2    0    0 -0.27393909992E+02 -0.24483470676E+02  0.24076225142E+03  0.25602782231E+03  0.78955160999E+02 0.  0.
        -13    1    3    3    0    0  0.26626098387E+02 -0.57658571516E+01  0.25486673022E+02  0.37306363073E+02  0.00000000000E+00 0.  1.
         14    1    3    3    0    0  0.93179558888E+00 -0.82744172866E+01 -0.51716343816E+02  0.52382386755E+02  0.00000000000E+00 0. -1.
        -13    1    4    4    0    0  0.22524230205E+02  0.38457006912E+01  0.30731112530E+02  0.38295321352E+02  0.00000000000E+00 0.  1.
         13    1    4    4    0    0 -0.49918140197E+02 -0.28329171367E+02  0.21003113889E+03  0.21773250096E+03  0.00000000000E+00 0. -1.
          1    1    1    2  501    0 -0.16398398425E+00  0.38523745114E+02  0.37511238176E+02  0.53769869052E+02  0.00000000000E+00 0. -1.
<scales pt_clust_5="13000.00000" pt_clust_6="13000.00000" pt_clust_7="13000.00000" pt_clust_8="13000.00000" pt_clust_9="38.52409"></scales>
<clustering>
<clus scale="   38.524">  1  9  2 -1</clus>
<clus scale="   78.955">  7  8 -1 -1</clus>
<clus scale="   79.997">  5  6 -1 -1</clus>
<clus scale="   84.178">  1  7  2 -1</clus>
<clus scale="   38.524">  1  5  2 -1</clus>
</clustering>
</event>
<event>
 9    2  0.1325014E-004  0.9364725E+02  0.7546771E-02  0.1298247E+00
         21   -1    0    0  501  502  0.00000000000E+00  0.00000000000E+00  0.22763623731E+03  0.22763623731E+03  0.00000000000E+00 0. -1.
         -3   -1    0    0    0  501 -0.00000000000E+00 -0.00000000000E+00 -0.14654369606E+03  0.14654369606E+03  0.00000000000E+00 0.  1.
         24    2    1    2    0    0  0.29661389221E+02 -0.55011745770E+01 -0.10407846708E+03  0.13500286296E+03  0.80519468238E+02 0.  0.
         23    2    1    2    0    0 -0.58881899624E+02  0.28969664131E+02  0.16047998107E+03  0.19429661746E+03  0.87698527297E+02 0.  0.
        -11    1    3    3    0    0  0.24592759463E+02  0.35906119816E+02 -0.44239098513E+02  0.62057643328E+02  0.00000000000E+00 0.  1.
         12    1    3    3    0    0  0.50686297588E+01 -0.41407294393E+02 -0.59839368565E+02  0.72945219630E+02  0.00000000000E+00 0. -1.
        -11    1    4    4    0    0 -0.41386053955E+02 -0.25576417086E+02  0.49506797265E+02  0.69410961299E+02  0.00000000000E+00 0. -1.
         11    1    4    4    0    0 -0.17495845669E+02  0.54546081217E+02  0.11097318380E+03  0.12488565616E+03  0.00000000000E+00 0.  1.
         -4    1    1    2    0  502  0.29220510403E+02 -0.23468489554E+02  0.24691027251E+02  0.44880452948E+02  0.00000000000E+00 0.  1.
<scales pt_clust_5="13000.00000" pt_clust_6="13000.00000" pt_clust_7="13000.00000" pt_clust_8="13000.00000" pt_clust_9="37.47810"></scales>
<clustering>
<clus scale="   37.478">  1  9  2 -1</clus>
<clus scale="   80.519">  5  6 -1 -1</clus>
<clus scale="   86.961">  2  5  1 -1</clus>
<clus scale="   87.699">  7  8 -1 -1</clus>
<clus scale="   37.478">  1  5  2 -1</clus>
</clustering>
</event>
<event>
 9    2  0.1325014E-004  0.1188266E+03  0.7546771E-02  0.1260196E+00
         21   -1    0    0  501  502  0.00000000000E+00  0.00000000000E+00  0.39365229180E+02  0.39365229180E+02  0.00000000000E+00 0. -1.
          2   -1    0    0  502    0 -0.00000000000E+00 -0.00000000000E+00 -0.63389732779E+03  0.63389732779E+03  0.00000000000E+00 0. -1.
         24    2    1    2    0    0 -0.14189632874E+02 -0.33553981504E+02 -0.97089114100E+02  0.13097194716E+03  0.80000871936E+02 0.  0.
         23    2    1    2    0    0 -0.16867031006E+02 -0.57583782493E+02 -0.18696065539E+03  0.21722156316E+03  0.92900657124E+02 0.  0.
        -13    1    3    3    0    0 -0.51023464108E+01 -0.50217678361E+02 -0.99761467239E+02  0.11180429108E+03  0.00000000000E+00 0.  1.
         14    1    3    3    0    0 -0.90872864635E+01  0.16663696857E+02  0.26723531393E+01  0.19167656078E+02  0.00000000000E+00 0. -1.
        -11    1    4    4    0    0  0.38768562225E+02 -0.24035510349E+02 -0.75615781580E+02  0.88308853456E+02  0.00000000000E+00 0. -1.
         11    1    4    4    0    0 -0.55635593231E+02 -0.33548272144E+02 -0.11134487381E+03  0.12891270970E+03  0.00000000000E+00 0.  1.
          1    1    1    2  501    0  0.31056663880E+02  0.91137763998E+02 -0.31048232911E+03  0.32506904665E+03  0.00000000000E+00 0. -1.
<scales pt_clust_5="13000.00000" pt_clust_6="13000.00000" pt_clust_7="13000.00000" pt_clust_8="13000.00000" pt_clust_9="74.08941"></scales>
<clustering>
<clus scale="   80.001">  5  6 -1 -1</clus>
<clus scale="   87.905">  2  5  1 -1</clus>
<clus scale="   74.089">  1  9  2 -1</clus>
<clus scale="   92.901">  7  8 -1 -1</clus>
<clus scale="   74.089">  1  5  2 -1</clus>
</clustering>
</event>
<event>
 9    2  0.1325014E-004  0.1623339E+03  0.7546771E-02  0.1187090E+00
          2   -1    0    0  502    0 -0.00000000000E+00  0.00000000000E+00  0.11425008663E+03  0.11425008663E+03  0.00000000000E+00 0. -1.
         21   -1    0    0  501  502  0.00000000000E+00 -0.00000000000E+00 -0.46905921146E+03  0.46905921146E+03  0.00000000000E+00 0.  1.
         24    2    1    2    0    0  0.14123254867E+03  0.81883344316E+02 -0.11249313692E+03  0.21510533055E+03  0.83451078468E+02 0.  0.
         23    2    1    2    0    0 -0.75815968255E+02 -0.43804997855E+02 -0.26150884919E+03  0.29011648207E+03  0.90076390275E+02 0.  0.
        -13    1    3    3    0    0  0.12789077811E+03  0.38136905376E+02 -0.10253758074E+03  0.16829863380E+03  0.00000000000E+00 0.  1.
         14    1    3    3    0    0  0.13341770567E+02  0.43746438939E+02 -0.99555561794E+01  0.46806696749E+02  0.00000000000E+00 0. -1.
        -13    1    4    4    0    0 -0.46520248343E+02 -0.66467541585E+02 -0.12783504997E+03  0.15140629971E+03  0.00000000000E+00 0.  1.
         13    1    4    4    0    0 -0.29295719912E+02  0.22662543730E+02 -0.13367379922E+03  0.13871018236E+03  0.00000000000E+00 0. -1.
          1    1    1    2  501    0 -0.65416580418E+02 -0.38078346461E+02  0.19192861273E+02  0.78087485467E+02  0.00000000000E+00 0. -1.
<scales pt_clust_5="13000.00000" pt_clust_6="13000.00000" pt_clust_7="13000.00000" pt_clust_8="13000.00000" pt_clust_9="75.69211"></scales>
<clustering>
<clus scale="   75.692">  2  9  1 -1</clus>
<clus scale="   83.451">  5  6 -1 -1</clus>
<clus scale="   90.076">  7  8 -1 -1</clus>
<clus scale="  158.753">  1  5  2 -1</clus>
<clus scale="   75.692">  2  5  1 -1</clus>
</clustering>
</event>
<event>
 9    2  0.1325014E-004  0.9898667E+02  0.7546771E-02  0.1288570E+00
         21   -1    0    0  501  502  0.00000000000E+00  0.00000000000E+00  0.33513621828E+03  0.33513621828E+03  0.00000000000E+00 0. -1.
          2   -1    0    0  502    0 -0.00000000000E+00 -0.00000000000E+00 -0.16814675791E+03  0.16814675791E+03  0.00000000000E+00 0. -1.
         23    2    1    2    0    0 -0.28516983217E+02 -0.39992366998E+02 -0.12709320205E+03  0.16307565205E+03  0.89601219486E+02 0.  0.
         24    2    1    2    0    0 -0.21197533586E+02 -0.26186809335E+02  0.18401021158E+03  0.20248600773E+03  0.77496715726E+02 0.  0.
        -13    1    4    4    0    0  0.25316989064E+02  0.71017748114E+01  0.44232611139E+02  0.51457837390E+02  0.00000000000E+00 0.  1.
         14    1    4    4    0    0 -0.46514522650E+02 -0.33288584146E+02  0.13977760044E+03  0.15102817034E+03  0.00000000000E+00 0. -1.
        -11    1    3    3    0    0 -0.54305196078E+02 -0.49917070723E+02 -0.10102892705E+03  0.12509041679E+03  0.00000000000E+00 0. -1.
         11    1    3    3    0    0  0.25788212862E+02  0.99247037249E+01 -0.26064275000E+02  0.37985235262E+02  0.00000000000E+00 0.  1.
          1    1    1    2  501    0  0.49714516803E+02  0.66179176333E+02  0.11007245084E+03  0.13772131642E+03  0.00000000000E+00 0. -1.
<scales pt_clust_5="13000.00000" pt_clust_6="13000.00000" pt_clust_7="13000.00000" pt_clust_8="13000.00000" pt_clust_9="82.77208"></scales>
<clustering>
<clus scale="   77.497">  5  6 -1 -1</clus>
<clus scale="   82.772">  1  9  2 -1</clus>
<clus scale="   88.180">  1  5  2 -1</clus>
<clus scale="   89.601">  7  8 -1 -1</clus>
<clus scale="   82.772">  1  5  2 -1</clus>
</clustering>
</event>
<event>
 9    2  0.1325014E-004  0.1219406E+03  0.7546771E-02  0.1244197E+00
         21   -1    0    0  501  502  0.00000000000E+00  0.00000000000E+00  0.42723974261E+02  0.42723974261E+02  0.00000000000E+00 0.  1.
          2   -1    0    0  502    0 -0.00000000000E+00 -0.00000000000E+00 -0.60211791211E+03  0.60211791211E+03  0.00000000000E+00 0. -1.
         23    2    1    2    0    0 -0.65262494308E+02 -0.40417694341E+02 -0.32793522889E+03  0.34861854541E+03  0.90003292606E+02 0.  0.
         24    2    1    2    0    0  0.93305469678E+02  0.35861006048E+02 -0.96368345148E+02  0.15817777504E+03  0.75772212204E+02 0.  0.
        -11    1    4    4    0    0  0.80315856656E+02  0.46764334885E+02 -0.10409036330E+03  0.13954333943E+03  0.00000000000E+00 0.  1.
         12    1    4    4    0    0  0.12989613022E+02 -0.10903328837E+02  0.77220181477E+01  0.18634435609E+02  0.00000000000E+00 0. -1.
        -11    1    3    3    0    0 -0.20740044768E+02 -0.57347169396E+02 -0.24957159481E+03  0.25691404833E+03  0.00000000000E+00 0. -1.
         11    1    3    3    0    0 -0.44522449539E+02  0.16929475054E+02 -0.78363634081E+02  0.91704497082E+02  0.00000000000E+00 0.  1.
          1    1    1    2  501    0 -0.28042975370E+02  0.45566882932E+01 -0.13509036381E+03  0.13804556592E+03  0.00000000000E+00 0. -1.
<scales pt_clust_5="13000.00000" pt_clust_6="13000.00000" pt_clust_7="13000.00000" pt_clust_8="13000.00000" pt_clust_9="28.41078"></scales>
<clustering>
<clus scale="   28.411">  1  9  2 -1</clus>
<clus scale="   75.772">  5  6 -1 -1</clus>
<clus scale="   90.003">  7  8 -1 -1</clus>
<clus scale="  111.850">  1  5  2 -1</clus>
<clus scale="   28.411">  1  5  2 -1</clus>
</clustering>
</event>
<event>
 9    2  0.1325014E-004  0.1368261E+03  0.7546771E-02  0.1220049E+00
         21   -1    0    0  501  502  0.00000000000E+00  0.00000000000E+00  0.11435342297E+03  0.11435342297E+03  0.00000000000E+00 0. -1.
          4   -1    0    0  502    0 -0.00000000000E+00 -0.00000000000E+00 -0.44729876632E+03  0.44729876632E+03  0.00000000000E+00 0. -1.
         23    2    1    2    0    0  0.51948384585E+01 -0.86895072687E+02 -0.15744296047E+03  0.20323507314E+03  0.94543477567E+02 0.  0.
         24    2    1    2    0    0 -0.11142552075E+03  0.81187696232E+02 -0.19169285687E+03  0.25080827146E+03  0.84566831352E+02 0.  0.
        -11    1    4    4    0    0 -0.89874043955E+02  0.30206089051E+02 -0.72385718455E+02  0.11928723246E+03  0.00000000000E+00 0.  1.
         12    1    4    4    0    0 -0.21551476798E+02  0.50981607181E+02 -0.11930713841E+03  0.13152103900E+03  0.00000000000E+00 0. -1.
        -11    1    3    3    0    0 -0.22663547357E+02 -0.54054867836E+02 -0.14794848233E+03  0.15913616352E+03  0.00000000000E+00 0.  1.
         11    1    3    3    0    0  0.27858385816E+02 -0.32840204851E+02 -0.94944781375E+01  0.44098909624E+02  0.00000000000E+00 0. -1.
          3    1    1    2  501    0  0.10623068229E+03  0.57073764542E+01  0.16190473977E+02  0.10760884468E+03  0.00000000000E+00 0. -1.
<scales pt_clust_5="13000.00000" pt_clust_6="13000.00000" pt_clust_7="13000.00000" pt_clust_8="13000.00000" pt_clust_9="106.38389"></scales>
<clustering>
<clus scale="   84.567">  5  6 -1 -1</clus>
<clus scale="   94.543">  7  8 -1 -1</clus>
<clus scale="  106.384">  1  9  2 -1</clus>
<clus scale="  130.132">  1  5  2 -1</clus>
<clus scale="  106.384">  1  5  2 -1</clus>
</clustering>
</event>
<event>
 9    2  0.1325014E-004  0.1120687E+03  0.7546771E-02  0.1263249E+00
         21   -1    0    0  501  502  0.00000000000E+00  0.00000000000E+00  0.23086255228E+03  0.23086255228E+03  0.00000000000E+00 0.  1.
          2   -1    0    0  502    0 -0.00000000000E+00 -0.00000000000E+00 -0.32749191408E+03  0.32749191408E+03  0.00000000000E+00 0. -1.
         23    2    1    2    0    0 -0.65004908757E+02 -0.39023292647E+01 -0.28647876009E+03  0.30742499949E+03  0.90549345625E+02 0.  0.
         24    2    1    2    0    0  0.80953603955E+02  0.35144077781E+02  0.18171788891E+03  0.21492211798E+03  0.73358935720E+02 0.  0.
        -11    1    4    4    0    0  0.12264845999E+01  0.34860713730E+02  0.60477722730E+02  0.69816391864E+02  0.00000000000E+00 0.  1.
         12    1    4    4    0    0  0.79727119355E+02  0.28336405077E+00  0.12124016618E+03  0.14510572612E+03  0.00000000000E+00 0. -1.
        -11    1    3    3    0    0 -0.88021192418E+02 -0.67463884988E+01 -0.22254334750E+03  0.23941341982E+03  0.00000000000E+00 0. -1.
         11    1    3    3    0    0  0.23016283662E+02  0.28440592341E+01 -0.63935412592E+02  0.68011579674E+02  0.00000000000E+00 0.  1.
          1    1    1    2  501    0 -0.15948695199E+02 -0.31241748516E+02  0.81315093778E+01  0.36007348884E+02  0.00000000000E+00 0. -1.
<scales pt_clust_5="13000.00000" pt_clust_6="13000.00000" pt_clust_7="13000.00000" pt_clust_8="13000.00000" pt_clust_9="35.07717"></scales>
<clustering>
<clus scale="   35.077">  1  9  2 -1</clus>
<clus scale="   73.359">  5  6 -1 -1</clus>
<clus scale="   90.549">  7  8 -1 -1</clus>
<clus scale="   98.700">  1  5  2 -1</clus>
<clus scale="   35.077">  1  5  2 -1</clus>
</clustering>
</event>
<event>
 9    2  0.1325014E-004  0.1330991E+03  0.7546771E-02  0.1225330E+00
         21   -1    0    0  501  502  0.00000000000E+00  0.00000000000E+00  0.15164596352E+03  0.15164596352E+03  0.00000000000E+00 0. -1.
          2   -1    0    0  502    0 -0.00000000000E+00 -0.00000000000E+00 -0.76712425685E+03  0.76712425685E+03  0.00000000000E+00 0. -1.
         24    2    1    2    0    0 -0.95527966471E+02 -0.51151680298E+01 -0.69316891356E+03  0.70444155942E+03  0.81258910806E+02 0.  0.
         23    2    1    2    0    0  0.12185097488E+03  0.37252868217E+02  0.49981912282E+02  0.16439365278E+03  0.91058471588E+02 0.  0.
        -13    1    3    3    0    0 -0.26829586867E+02 -0.29332051418E+02 -0.11445958360E+03  0.12116596985E+03  0.00000000000E+00 0.  1.
         14    1    3    3    0    0 -0.68698379604E+02  0.24216883388E+02 -0.57870932996E+03  0.58327558957E+03  0.00000000000E+00 0. -1.
        -13    1    4    4    0    0  0.29257446496E+02  0.39959656537E+02 -0.14409373635E+02  0.51579088539E+02  0.00000000000E+00 0. -1.
         13    1    4    4    0    0  0.92593528387E+02 -0.27067883196E+01  0.64391285917E+02  0.11281456424E+03  0.00000000000E+00 0.  1.
          1    1    1    2  501    0 -0.26323008411E+02 -0.32137700187E+02  0.27708707951E+02  0.49935008176E+02  0.00000000000E+00 0. -1.
<scales pt_clust_5="13000.00000" pt_clust_6="13000.00000" pt_clust_7="13000.00000" pt_clust_8="13000.00000" pt_clust_9="41.54194"></scales>
<clustering>
<clus scale="   41.542">  1  9  2 -1</clus>
<clus scale="   81.259">  5  6 -1 -1</clus>
<clus scale="   91.058">  7  8 -1 -1</clus>
<clus scale="  126.597">  2  5  1 -1</clus>
<clus scale="   41.542">  1  5  2 -1</clus>
</clustering>
</event>
<event>
 9    2  0.1325014E-004  0.1197618E+03  0.7546771E-02  0.1264830E+00
          2   -1    0    0  502    0 -0.00000000000E+00  0.00000000000E+00  0.85391265463E+03  0.85391265463E+03  0.00000000000E+00 0. -1.
         21   -1    0    0  501  502  0.00000000000E+00 -0.00000000000E+00 -0.31376711724E+02  0.31376711724E+02  0.00000000000E+00 0. -1.
         23    2    1    2    0    0  0.14730355864E+02  0.16187490596E+02  0.54592373419E+03  0.55890896765E+03  0.11776031728E+03 0.  0.
         24    2    1    2    0    0 -0.27166624591E+02  0.30326752553E+02  0.26264168829E+03  0.27624646772E+03  0.75324080406E+02 0.  0.
        -11    1    4    4    0    0 -0.33407413645E+02 -0.88557717329E+01  0.19321915100E+03  0.19628581277E+03  0.00000000000E+00 0.  1.
         12    1    4    4    0    0  0.62407890535E+01  0.39182524286E+02  0.69422537285E+02  0.79960654953E+02  0.00000000000E+00 0. -1.
        -13    1    3    3    0    0  0.47187838544E+02  0.52804970453E+02  0.31688629246E+03  0.32470290938E+03  0.00000000000E+00 0.  1.
         13    1    3    3    0    0 -0.32457482680E+02 -0.36617479857E+02  0.22903744174E+03  0.23420605827E+03  0.00000000000E+00 0. -1.
          1    1    1    2  501    0  0.12436268727E+02 -0.46514243148E+02  0.13970520427E+02  0.50133930990E+02  0.00000000000E+00 0. -1.
<scales pt_clust_5="13000.00000" pt_clust_6="13000.00000" pt_clust_7="13000.00000" pt_clust_8="13000.00000" pt_clust_9="48.14806"></scales>
<clustering>
<clus scale="   48.148">  2  9  1 -1</clus>
<clus scale="   75.324">  5  6 -1 -1</clus>
<clus scale="   78.416">  2  5  1 -1</clus>
<clus scale="  117.760">  7  8 -1 -1</clus>
<clus scale="   48.148">  2  5  1 -1</clus>
</clustering>
</event>
<event>
 9    2  0.1325014E-004  0.1830305E+03  0.7546771E-02  0.1197806E+00
         21   -1    0    0  501  502  0.00000000000E+00  0.00000000000E+00  0.10538091468E+04  0.10538091468E+04  0.00000000000E+00 0. -1.
          2   -1    0    0  502    0 -0.00000000000E+00 -0.00000000000E+00 -0.10685110496E+03  0.10685110496E+03  0.00000000000E+00 0. -1.
         23    2    1    2    0    0 -0.89412659845E+01  0.36443224732E+00 -0.45548482531E+02  0.98642533747E+02  0.87037958127E+02 0.  0.
         24    2    1    2    0    0  0.16295350911E+03 -0.46888662163E+02  0.32869575947E+03  0.37898843124E+03  0.82697859382E+02 0.  0.
        -11    1    4    4    0    0  0.21894238396E+02  0.15537825305E+02  0.96950009195E+02  0.10059863803E+03  0.00000000000E+00 0.  1.
         12    1    4    4    0    0  0.14105927071E+03 -0.62426487468E+02  0.23174575028E+03  0.27838979321E+03  0.00000000000E+00 0. -1.
        -13    1    3    3    0    0  0.21784151709E+02 -0.34453364737E+02 -0.17244255968E+02  0.44260004194E+02  0.00000000000E+00 0.  1.
         13    1    3    3    0    0 -0.30725417693E+02  0.34817796984E+02 -0.28304226563E+02  0.54382529553E+02  0.00000000000E+00 0. -1.
          1    1    1    2  501    0 -0.15401224313E+03  0.46524229916E+02  0.66381076491E+03  0.68302928679E+03  0.00000000000E+00 0. -1.
<scales pt_clust_5="13000.00000" pt_clust_6="13000.00000" pt_clust_7="13000.00000" pt_clust_8="13000.00000" pt_clust_9="163.28269"></scales>
<clustering>
<clus scale="   82.698">  5  6 -1 -1</clus>
<clus scale="   87.038">  7  8 -1 -1</clus>
<clus scale="   87.497">  2  7  1 -1</clus>
<clus scale="  163.283">  1  9  2 -1</clus>
<clus scale="  163.283">  1  5  2 -1</clus>
</clustering>
</event>
<event>
 9    2  0.1325014E-004  0.2119550E+03  0.7546771E-02  0.1141594E+00
         21   -1    0    0  501  502  0.00000000000E+00  0.00000000000E+00  0.30263007122E+03  0.30263007122E+03  0.00000000000E+00 0. -1.
          2   -1    0    0  502    0 -0.00000000000E+00 -0.00000000000E+00 -0.32999870306E+03  0.32999870306E+03  0.00000000000E+00 0. -1.
         23    2    1    2    0    0  0.11744326326E+02 -0.20203578050E+03 -0.14424845260E+03  0.26729034308E+03  0.98387629429E+02 0.  0.
         24    2    1    2    0    0  0.11500357676E+03  0.15090814529E+03  0.44559512787E+02  0.21071213019E+03  0.80093449469E+02 0.  0.
        -11    1    4    4    0    0  0.20335722164E+02  0.67230628670E+01  0.31019820057E+02  0.37695761122E+02  0.00000000000E+00 0.  1.
         12    1    4    4    0    0  0.94667854595E+02  0.14418508242E+03  0.13539692731E+02  0.17301636907E+03  0.00000000000E+00 0. -1.
        -11    1    3    3    0    0 -0.25702275817E+02 -0.11729651590E+03 -0.37179082290E+02  0.12570347563E+03  0.00000000000E+00 0.  1.
         11    1    3    3    0    0  0.37446602143E+02 -0.84739264594E+02 -0.10706937031E+03  0.14158686745E+03  0.00000000000E+00 0. -1.
          1    1    1    2  501    0 -0.12674790309E+03  0.51127635213E+02  0.72320307969E+02  0.15462630101E+03  0.00000000000E+00 0. -1.
<scales pt_clust_5="13000.00000" pt_clust_6="13000.00000" pt_clust_7="13000.00000" pt_clust_8="13000.00000" pt_clust_9="136.67138"></scales>
<clustering>
<clus scale="   80.093">  5  6 -1 -1</clus>
<clus scale="   98.388">  7  8 -1 -1</clus>
<clus scale="  136.671">  1  9  2 -1</clus>
<clus scale="  204.107">  1  5  2 -1</clus>
<clus scale="  136.671">  1  5  2 -1</clus>
</clustering>
</event>
<event>
 9    2  0.1325014E-004  0.2513407E+03  0.7546771E-02  0.1112826E+00
         -1   -1    0    0    0  501 -0.00000000000E+00  0.00000000000E+00  0.10933094806E+04  0.10933094806E+04  0.00000000000E+00 0.  1.
         21   -1    0    0  501  502  0.00000000000E+00 -0.00000000000E+00 -0.77173935715E+02  0.77173935715E+02  0.00000000000E+00 0.  1.
         24    2    1    2    0    0 -0.19731547315E+03 -0.11867845134E+03  0.66472978835E+03  0.70814967169E+03  0.81192950618E+02 0.  0.
         23    2    1    2    0    0  0.21751715232E+03  0.12003354009E+03  0.26566160473E+03  0.37423151040E+03  0.88041881258E+02 0.  0.
        -13    1    3    3    0    0 -0.12859203561E+03 -0.37832249306E+02  0.43319252208E+03  0.45345667036E+03  0.00000000000E+00 0.  1.
         14    1    3    3    0    0 -0.68723437532E+02 -0.80846202037E+02  0.23153726628E+03  0.25469300133E+03  0.00000000000E+00 0. -1.
        -11    1    4    4    0    0  0.19521017837E+03  0.12746967534E+03  0.26152233223E+03  0.35035619322E+03  0.00000000000E+00 0.  1.
         11    1    4    4    0    0  0.22306973945E+02 -0.74361352467E+01  0.41392724955E+01  0.23875317187E+02  0.00000000000E+00 0. -1.
         -2    1    1    2    0  502 -0.20201679170E+02 -0.13550887458E+01  0.85744151842E+02  0.88102234262E+02  0.00000000000E+00 0.  1.
<scales pt_clust_5="13000.00000" pt_clust_6="13000.00000" pt_clust_7="13000.00000" pt_clust_8="13000.00000" pt_clust_9="20.24709"></scales>
<clustering>
<clus scale="   20.247">  2  9  1 -1</clus>
<clus scale="   81.193">  5  6 -1 -1</clus>
<clus scale="   88.042">  7  8 -1 -1</clus>
<clus scale="  249.024">  1  5  2 -1</clus>
<clus scale="   20.247">  2  5  1 -1</clus>
</clustering>
</event>
<event>
 9    2  0.1325014E-004  0.1213328E+03  0.7546771E-02  0.1257612E+00
         21   -1    0    0  501  502  0.00000000000E+00  0.00000000000E+00  0.13717006117E+03  0.13717006117E+03  0.00000000000E+00 0.  1.
          2   -1    0    0  502    0 -0.00000000000E+00 -0.00000000000E+00 -0.21833889118E+03  0.21833889118E+03  0.00000000000E+00 0. -1.
         24    2    1    2    0    0 -0.18548425840E+02  0.23723514115E+02 -0.13559722995E+03  0.16017761495E+03  0.79770986813E+02 0.  0.
         23    2    1    2    0    0  0.63369810210E+02 -0.24406103648E+02  0.14848565429E+02  0.13553179120E+03  0.11634859600E+03 0.  0.
        -11    1    3    3    0    0  0.90255744132E+01  0.22187724424E+02 -0.23155937527E+01  0.24064872387E+02  0.00000000000E+00 0.  1.
         12    1    3    3    0    0 -0.27574000253E+02  0.15357896911E+01 -0.13328163620E+03  0.13611274256E+03  0.00000000000E+00 0. -1.
        -11    1    4    4    0    0  0.68319418692E+02  0.31740963401E+02  0.22568509014E+02  0.78640761232E+02  0.00000000000E+00 0.  1.
         11    1    4    4    0    0 -0.49496084818E+01 -0.56147067049E+02 -0.77199435851E+01  0.56891029972E+02  0.00000000000E+00 0. -1.
          1    1    1    2  501    0 -0.44821384370E+02  0.68258953368E+00  0.39579834514E+02  0.59799546198E+02  0.00000000000E+00 0. -1.
<scales pt_clust_5="13000.00000" pt_clust_6="13000.00000" pt_clust_7="13000.00000" pt_clust_8="13000.00000" pt_clust_9="44.82658"></scales>
<clustering>
<clus scale="   44.827">  1  9  2 -1</clus>
<clus scale="   79.771">  5  6 -1 -1</clus>
<clus scale="   86.880">  2  5  1 -1</clus>
<clus scale="  116.349">  7  8 -1 -1</clus>
<clus scale="   44.827">  1  5  2 -1</clus>
</clustering>
</event>
<event>
 9    2  0.1325014E-004  0.2853845E+03  0.7546771E-02  0.1092784E+00
          2   -1    0    0  502    0 -0.00000000000E+00  0.00000000000E+00  0.43761805820E+03  0.43761805820E+03  0.00000000000E+00 0. -1.
         21   -1    0    0  501  502  0.00000000000E+00 -0.00000000000E+00 -0.13516065877E+03  0.13516065877E+03  0.00000000000E+00 0. -1.
         24    2    1    2    0    0 -0.90830230650E+02 -0.13601910049E+03  0.31203847080E+02  0.18448619497E+03  0.79436449835E+02 0.  0.
         23    2    1    2    0    0  0.74724814125E+00 -0.58279226657E+01  0.53421377995E+02  0.11318094846E+03  0.99607029896E+02 0.  0.
        -13    1    3    3    0    0 -0.79789114015E+02 -0.48642419488E+02  0.10685895454E+02  0.94056238765E+02  0.00000000000E+00 0.  1.
         14    1    3    3    0    0 -0.11041116635E+02 -0.87376681005E+02  0.20517951627E+02  0.90429956204E+02  0.00000000000E+00 0. -1.
        -13    1    4    4    0    0 -0.36765912437E+02  0.82977039051E+01 -0.92294622642E+01  0.38804216023E+02  0.00000000000E+00 0. -1.
         13    1    4    4    0    0  0.37513160578E+02 -0.14125626571E+02  0.62650840259E+02  0.74376732436E+02  0.00000000000E+00 0.  1.
          1    1    1    2  501    0  0.90082982509E+02  0.14184702316E+03  0.21783217435E+03  0.27511157355E+03  0.00000000000E+00 0. -1.
<scales pt_clust_5="13000.00000" pt_clust_6="13000.00000" pt_clust_7="13000.00000" pt_clust_8="13000.00000" pt_clust_9="168.03437"></scales>
<clustering>
<clus scale="   79.436">  5  6 -1 -1</clus>
<clus scale="   99.607">  7  8 -1 -1</clus>
<clus scale="   99.757">  5  7 -1 -1</clus>
<clus scale="  168.034">  2  9  1 -1</clus>
<clus scale="  168.034">  2  5  1 -1</clus>
</clustering>
</event>
<event>
 9    2  0.1325014E-004  0.1106352E+03  0.7546771E-02  0.1264328E+00
         -3   -1    0    0    0  501 -0.00000000000E+00  0.00000000000E+00  0.72581920255E+03  0.72581920255E+03  0.00000000000E+00 0.  1.
         21   -1    0    0  501  502  0.00000000000E+00 -0.00000000000E+00 -0.46298008950E+02  0.46298008950E+02  0.00000000000E+00 0.  1.
         24    2    1    2    0    0 -0.54712271353E+02 -0.21790198602E+02  0.48066194599E+03  0.49078969082E+03  0.79814590764E+02 0.  0.
         23    2    1    2    0    0  0.48306958021E+02  0.75426936737E+02  0.81863142648E+02  0.15246318778E+03  0.92307445672E+02 0.  0.
        -11    1    3    3    0    0 -0.74248609750E+02 -0.68960742900E+01  0.36849168598E+03  0.37596081515E+03  0.00000000000E+00 0.  1.
         12    1    3    3    0    0  0.19536338397E+02 -0.14894124312E+02  0.11217026001E+03  0.11482887567E+03  0.00000000000E+00 0. -1.
        -11    1    4    4    0    0  0.46918657095E+02  0.36795163099E+02  0.94547442922E+02  0.11177863559E+03  0.00000000000E+00 0. -1.
         11    1    4    4    0    0  0.13883009259E+01  0.38631773638E+02 -0.12684300274E+02  0.40684552196E+02  0.00000000000E+00 0.  1.
         -4    1    1    2    0  502  0.64053133317E+01 -0.53636738135E+02  0.11699610496E+03  0.12886433290E+03  0.00000000000E+00 0.  1.
<scales pt_clust_5="13000.00000" pt_clust_6="13000.00000" pt_clust_7="13000.00000" pt_clust_8="13000.00000" pt_clust_9="54.01787"></scales>
<clustering>
<clus scale="   54.018">  2  9  1 -1</clus>
<clus scale="   79.815">  5  6 -1 -1</clus>
<clus scale="   92.307">  7  8 -1 -1</clus>
<clus scale="  100.448">  1  5  2 -1</clus>
<clus scale="   54.018">  2  5  1 -1</clus>
</clustering>
</event>
<event>
 9    2  0.1325014E-004  0.1690953E+03  0.7546771E-02  0.1205082E+00
          2   -1    0    0  502    0 -0.00000000000E+00  0.00000000000E+00  0.26957202974E+03  0.26957202974E+03  0.00000000000E+00 0. -1.
         21   -1    0    0  501  502  0.00000000000E+00 -0.00000000000E+00 -0.39269491239E+03  0.39269491239E+03  0.00000000000E+00 0. -1.
         23    2    1    2    0    0  0.21667377970E+02  0.23459150614E+02 -0.86925796991E+02  0.12860345489E+03  0.89235348436E+02 0.  0.
         24    2    1    2    0    0 -0.50237257159E+02 -0.16636896254E+03  0.18641369416E+03  0.26759016721E+03  0.81559907511E+02 0.  0.
        -13    1    4    4    0    0  0.22589928002E+02 -0.33090122997E+02  0.36975211885E+02  0.54519972313E+02  0.00000000000E+00 0.  1.
         14    1    4    4    0    0 -0.72827185161E+02 -0.13327883954E+03  0.14943848227E+03  0.21307019489E+03  0.00000000000E+00 0. -1.
        -11    1    3    3    0    0 -0.11385552036E+02  0.26133631316E+02 -0.90844297353E+02  0.95211784157E+02  0.00000000000E+00 0.  1.
         11    1    3    3    0    0  0.33052930006E+02 -0.26744807012E+01  0.39185003622E+01  0.33391670729E+02  0.00000000000E+00 0. -1.
          1    1    1    2  501    0  0.28569879189E+02  0.14290981193E+03 -0.22261077982E+03  0.26607332003E+03  0.00000000000E+00 0. -1.
<scales pt_clust_5="13000.00000" pt_clust_6="13000.00000" pt_clust_7="13000.00000" pt_clust_8="13000.00000" pt_clust_9="148.12566"></scales>
<clustering>
<clus scale="   81.560">  5  6 -1 -1</clus>
<clus scale="   89.235">  7  8 -1 -1</clus>
<clus scale="   94.777">  1  7  2 -1</clus>
<clus scale="  148.126">  2  9  1 -1</clus>
<clus scale="  148.126">  2  5  1 -1</clus>
</clustering>
</event>
<event>
 9    2  0.1325014E-004  0.9381329E+02  0.7546771E-02  0.1300234E+00
         21   -1    0    0  501  502  0.00000000000E+00  0.00000000000E+00  0.79097276208E+02  0.79097276208E+02  0.00000000000E+00 0. -1.
         -3   -1    0    0    0  501 -0.00000000000E+00 -0.00000000000E+00 -0.22254827716E+03  0.22254827716E+03  0.00000000000E+00 0.  1.
         23    2    1    2    0    0 -0.95108983193E+01  0.11756887301E+02 -0.15804309886E+03  0.18348866997E+03  0.91987984670E+02 0.  0.
         24    2    1    2    0    0 -0.19370880401E+01 -0.36297164103E+02  0.42813661891E+01  0.89181156210E+02  0.81324732367E+02 0.  0.
        -11    1    4    4    0    0 -0.24672247597E+02 -0.46279348990E+02 -0.18372018558E+02  0.55570036983E+02  0.00000000000E+00 0.  1.
         12    1    4    4    0    0  0.22735159557E+02  0.99821848868E+01  0.22653384747E+02  0.33611119227E+02  0.00000000000E+00 0. -1.
        -11    1    3    3    0    0 -0.31086093908E+02  0.91149739471E+01 -0.15847089434E+03  0.16174811386E+03  0.00000000000E+00 0.  1.
         11    1    3    3    0    0  0.21575195589E+02  0.26419133537E+01  0.42779548117E+00  0.21740556107E+02  0.00000000000E+00 0. -1.
         -4    1    1    2    0  502  0.11447986359E+02  0.24540276802E+02  0.10310731723E+02  0.28975727184E+02  0.00000000000E+00 0.  1.
<scales pt_clust_5="13000.00000" pt_clust_6="13000.00000" pt_clust_7="13000.00000" pt_clust_8="13000.00000" pt_clust_9="27.07917"></scales>
<clustering>
<clus scale="   27.079">  1  9  2 -1</clus>
<clus scale="   81.325">  5  6 -1 -1</clus>
<clus scale="   83.384">  1  5  2 -1</clus>
<clus scale="   91.988">  7  8 -1 -1</clus>
<clus scale="   27.079">  1  5  2 -1</clus>
</clustering>
</event>
<event>
 9    2  0.1325014E-004  0.2104261E+03  0.7546771E-02  0.1141422E+00
         21   -1    0    0  501  502  0.00000000000E+00  0.00000000000E+00  0.86621603303E+02  0.86621603303E+02  0.00000000000E+00 0. -1.
          2   -1    0    0  502    0 -0.00000000000E+00 -0.00000000000E+00 -0.30603597697E+04  0.30603597697E+04  0.00000000000E+00 0. -1.
         24    2    1    2    0    0 -0.47796992795E+02  0.18105654771E+03 -0.25555233057E+04  0.25640781449E+04  0.93441644237E+02 0.  0.
         23    2    1    2    0    0  0.72093144581E+02 -0.18306505427E+03 -0.47441977654E+03  0.52163880404E+03  0.91228734069E+02 0.  0.
        -11    1    3    3    0    0 -0.44322507022E+01  0.30969576725E+02 -0.13754076275E+03  0.14105396466E+03  0.00000000000E+00 0.  1.
         12    1    3    3    0    0 -0.43364742093E+02  0.15008697098E+03 -0.24179825430E+04  0.24230241802E+04  0.00000000000E+00 0. -1.
        -11    1    4    4    0    0  0.83983611924E+01 -0.94415567842E+02 -0.13393387535E+03  0.16408264651E+03  0.00000000000E+00 0.  1.
         11    1    4    4    0    0  0.63694783389E+02 -0.88649486426E+02 -0.34048590119E+03  0.35755615752E+03  0.00000000000E+00 0. -1.
          1    1    1    2  501    0 -0.24296151786E+02  0.20085065593E+01  0.56204915877E+02  0.61264424089E+02  0.00000000000E+00 0. -1.
<scales pt_clust_5="13000.00000" pt_clust_6="13000.00000" pt_clust_7="13000.00000" pt_clust_8="13000.00000" pt_clust_9="24.37903"></scales>
<clustering>
<clus scale="   24.379">  1  9  2 -1</clus>
<clus scale="   91.229">  7  8 -1 -1</clus>
<clus scale="   93.442">  5  6 -1 -1</clus>
<clus scale="  209.453">  1  7  2 -1</clus>
<clus scale="   24.379">  1  5  2 -1</clus>
</clustering>
</event>
<event>
 9    2  0.1325014E-004  0.1801907E+03  0.7546771E-02  0.1193570E+00
         21   -1    0    0  501  502  0.00000000000E+00  0.00000000000E+00  0.56775644633E+02  0.56775644633E+02  0.00000000000E+00 0. -1.
          2   -1    0    0  502    0 -0.00000000000E+00 -0.00000000000E+00 -0.11372172499E+04  0.11372172499E+04  0.00000000000E+00 0. -1.
         24    2    1    2    0    0 -0.34430278622E+02 -0.49750188816E+02 -0.84527522689E+02  0.13140072508E+03  0.80378623310E+02 0.  0.
         23    2    1    2    0    0 -0.13493821831E+03  0.79415657682E+02 -0.32943797919E+03  0.37429272577E+03  0.83967213757E+02 0.  0.
        -11    1    3    3    0    0 -0.33085625261E+02  0.13909926453E+02 -0.21659194050E+02  0.41919748803E+02  0.00000000000E+00 0.  1.
         12    1    3    3    0    0 -0.13446533613E+01 -0.63660115269E+02 -0.62868328638E+02  0.89480976272E+02  0.00000000000E+00 0. -1.
        -11    1    4    4    0    0 -0.98277662445E+02  0.58054182822E+02 -0.14239167156E+03  0.18249431555E+03  0.00000000000E+00 0.  1.
         11    1    4    4    0    0 -0.36660555861E+02  0.21361474860E+02 -0.18704630763E+03  0.19179841022E+03  0.00000000000E+00 0. -1.
          1    1    1    2  501    0  0.16936849693E+03 -0.29665468866E+02 -0.66647610340E+03  0.68829944370E+03  0.00000000000E+00 0. -1.
<scales pt_clust_5="13000.00000" pt_clust_6="13000.00000" pt_clust_7="13000.00000" pt_clust_8="13000.00000" pt_clust_9="159.43089"></scales>
<clustering>
<clus scale="   80.379">  5  6 -1 -1</clus>
<clus scale="   83.967">  7  8 -1 -1</clus>
<clus scale="  100.604">  2  5  1 -1</clus>
<clus scale="  159.431">  1  9  2 -1</clus>
<clus scale="  159.431">  1  5  2 -1</clus>
</clustering>
</event>
<event>
 9    2  0.1325014E-004  0.2297958E+03  0.7546771E-02  0.1138036E+00
          2   -1    0    0  502    0 -0.00000000000E+00  0.00000000000E+00  0.24106599248E+03  0.24106599248E+03  0.00000000000E+00 0. -1.
         21   -1    0    0  501  502  0.00000000000E+00 -0.00000000000E+00 -0.43590029342E+03  0.43590029342E+03  0.00000000000E+00 0. -1.
         23    2    1    2    0    0  0.95672229420E+01  0.14861547944E+03 -0.19951599342E+02  0.17565608345E+03  0.90988465481E+02 0.  0.
         24    2    1    2    0    0 -0.21783960064E+03 -0.11029648599E+03 -0.11494447664E+03  0.28122313017E+03  0.79087355529E+02 0.  0.
        -13    1    4    4    0    0 -0.69575536438E+02 -0.85204411312E+01 -0.62459560184E+02  0.93885834108E+02  0.00000000000E+00 0.  1.
         14    1    4    4    0    0 -0.14826406421E+03 -0.10177604486E+03 -0.52484916453E+02  0.18733729607E+03  0.00000000000E+00 0. -1.
        -11    1    3    3    0    0 -0.14184328761E+02  0.13756079231E+03  0.64786576580E+01  0.13844182810E+03  0.00000000000E+00 0.  1.
         11    1    3    3    0    0  0.23751551703E+02  0.11054687137E+02 -0.26430257000E+02  0.37214255348E+02  0.00000000000E+00 0. -1.
          1    1    1    2  501    0  0.20827237770E+03 -0.38318993452E+02 -0.59938224957E+02  0.22008707228E+03  0.00000000000E+00 0. -1.
<scales pt_clust_5="13000.00000" pt_clust_6="13000.00000" pt_clust_7="13000.00000" pt_clust_8="13000.00000" pt_clust_9="215.75758"></scales>
<clustering>
<clus scale="   79.087">  5  6 -1 -1</clus>
<clus scale="   90.988">  7  8 -1 -1</clus>
<clus scale="  174.519">  1  7  2 -1</clus>
<clus scale="  215.758">  2  9  1 -1</clus>
<clus scale="  215.758">  2  5  1 -1</clus>
</clustering>
</event>
<event>
 9    2  0.1325014E-004  0.9488318E+02  0.7546771E-02  0.1291549E+00
         -1   -1    0    0    0  501 -0.00000000000E+00  0.00000000000E+00  0.37530518364E+03  0.37530518364E+03  0.00000000000E+00 0.  1.
         21   -1    0    0  501  502  0.00000000000E+00 -0.00000000000E+00 -0.42539328960E+02  0.42539328960E+02  0.00000000000E+00 0. -1.
         23    2    1    2    0    0  0.27589874005E+02  0.24245908406E+02  0.19597752897E+03  0.21641477984E+03  0.84137386765E+02 0.  0.
         24    2    1    2    0    0 -0.31479803389E+02 -0.45894049865E+02  0.14618698970E+03  0.17751094383E+03  0.83918158868E+02 0.  0.
        -13    1    4    4    0    0 -0.27616547747E+02  0.20371248319E+02  0.49656826557E+02  0.60361095842E+02  0.00000000000E+00 0.  1.
         14    1    4    4    0    0 -0.38632556424E+01 -0.66265298184E+02  0.96530163143E+02  0.11714984799E+03  0.00000000000E+00 0. -1.
        -13    1    3    3    0    0 -0.29048963548E+02 -0.18804385336E+01  0.71035056024E+02  0.76768206418E+02  0.00000000000E+00 0.  1.
         13    1    3    3    0    0  0.56638837553E+02  0.26126346939E+02  0.12494247294E+03  0.13964657342E+03  0.00000000000E+00 0. -1.
         -2    1    1    2    0  502  0.38899293838E+01  0.21648141459E+02 -0.93986639839E+01  0.23918788931E+02  0.00000000000E+00 0.  1.
<scales pt_clust_5="13000.00000" pt_clust_6="13000.00000" pt_clust_7="13000.00000" pt_clust_8="13000.00000" pt_clust_9="21.99485"></scales>
<clustering>
<clus scale="   21.995">  2  9  1 -1</clus>
<clus scale="   83.918">  5  6 -1 -1</clus>
<clus scale="   84.137">  7  8 -1 -1</clus>
<clus scale="   94.689">  2  5  1 -1</clus>
<clus scale="   21.995">  2  5  1 -1</clus>
</clustering>
</event>
<event>
 9    2  0.1325014E-004  0.1562531E+03  0.7546771E-02  0.1209783E+00
         21   -1    0    0  501  502  0.00000000000E+00  0.00000000000E+00  0.18572767797E+02  0.18572767797E+02  0.00000000000E+00 0. -1.
         -1   -1    0    0    0  501 -0.00000000000E+00 -0.00000000000E+00 -0.23389453346E+04  0.23389453346E+04  0.00000000000E+00 0.  1.
         23    2    1    2    0    0 -0.59042282852E+02 -0.15786079033E+01 -0.55523836125E+03  0.56575892147E+03  0.91131971618E+02 0.  0.
         24    2    1    2    0    0 -0.19098699452E+01  0.13230443687E+03 -0.69945153672E+03  0.71635973982E+03  0.80191726464E+02 0.  0.
        -13    1    4    4    0    0  0.10717281565E+02  0.11460690778E+03 -0.66965047507E+03  0.67947138438E+03  0.00000000000E+00 0.  1.
         14    1    4    4    0    0 -0.12627151510E+02  0.17697529092E+02 -0.29801061653E+02  0.36888355438E+02  0.00000000000E+00 0. -1.
        -13    1    3    3    0    0  0.24496778545E+02  0.20891755220E+01 -0.10707688101E+03  0.10986316608E+03  0.00000000000E+00 0. -1.
         13    1    3    3    0    0 -0.83539061397E+02 -0.36677834253E+01 -0.44816148024E+03  0.45589575539E+03  0.00000000000E+00 0.  1.
         -2    1    1    2    0  502  0.60952152797E+02 -0.13072582897E+03 -0.10656826688E+04  0.10753994411E+04  0.00000000000E+00 0.  1.
<scales pt_clust_5="13000.00000" pt_clust_6="13000.00000" pt_clust_7="13000.00000" pt_clust_8="13000.00000" pt_clust_9="134.10574"></scales>
<clustering>
<clus scale="   80.192">  5  6 -1 -1</clus>
<clus scale="   91.132">  7  8 -1 -1</clus>
<clus scale="  108.598">  2  7  1 -1</clus>
<clus scale="  134.106">  1  9  2 -1</clus>
<clus scale="  134.106">  1  5  2 -1</clus>
</clustering>
</event>
<event>
 9    2  0.1325014E-004  0.1372541E+03  0.7546771E-02  0.1236928E+00
          2   -1    0    0  502    0 -0.00000000000E+00  0.00000000000E+00  0.12616879895E+04  0.12616879895E+04  0.00000000000E+00 0. -1.
         21   -1    0    0  501  502  0.00000000000E+00 -0.00000000000E+00 -0.35184377447E+02  0.35184377447E+02  0.00000000000E+00 0.  1.
         23    2    1    2    0    0  0.15935324131E+02  0.16088942996E+02  0.32972808797E+03  0.34202828938E+03  0.88033800882E+02 0.  0.
         24    2    1    2    0    0 -0.10795244503E+03 -0.42242397277E+02  0.16511666062E+03  0.21695801171E+03  0.79806746039E+02 0.  0.
        -13    1    4    4    0    0 -0.37125319353E+02 -0.29600129195E+02  0.12689866486E+03  0.13549069388E+03  0.00000000000E+00 0.  1.
         14    1    4    4    0    0 -0.70827125676E+02 -0.12642268083E+02  0.38217995767E+02  0.81467317829E+02  0.00000000000E+00 0. -1.
        -13    1    3    3    0    0  0.52335041297E+02  0.38004870162E+01  0.19269277881E+03  0.19970955725E+03  0.00000000000E+00 0. -1.
         13    1    3    3    0    0 -0.36399717166E+02  0.12288455980E+02  0.13703530916E+03  0.14231873214E+03  0.00000000000E+00 0.  1.
          1    1    1    2  501    0  0.92017120898E+02  0.26153454281E+02  0.73165886348E+03  0.73788606587E+03  0.00000000000E+00 0. -1.
<scales pt_clust_5="13000.00000" pt_clust_6="13000.00000" pt_clust_7="13000.00000" pt_clust_8="13000.00000" pt_clust_9="111.66727"></scales>
<clustering>
<clus scale="   79.807">  5  6 -1 -1</clus>
<clus scale="   88.034">  7  8 -1 -1</clus>
<clus scale="   90.900">  1  7  2 -1</clus>
<clus scale="  111.667">  2  9  1 -1</clus>
<clus scale="  111.667">  2  5  1 -1</clus>
</clustering>
</event>
<event>
 9    2  0.1325014E-004  0.1050708E+03  0.7546771E-02  0.1275385E+00
         -1   -1    0    0    0  501 -0.00000000000E+00  0.00000000000E+00  0.15810309607E+03  0.15810309607E+03  0.00000000000E+00 0.  1.
         21   -1    0    0  501  502  0.00000000000E+00 -0.00000000000E+00 -0.15390917795E+03  0.15390917795E+03  0.00000000000E+00 0. -1.
         23    2    1    2    0    0  0.21330976688E+01 -0.58611597910E+02  0.96303741272E+02  0.14509400621E+03  0.91312597926E+02 0.  0.
         24    2    1    2    0    0 -0.32872459546E+02  0.22412561924E+02 -0.76169278983E+02  0.11682456039E+03  0.79140996469E+02 0.  0.
        -11    1    4    4    0    0  0.24014894936E+02 -0.58493619177E+01 -0.26067815031E+02  0.35922989771E+02  0.00000000000E+00 0.  1.
         12    1    4    4    0    0 -0.56887354482E+02  0.28261923842E+02 -0.50101463952E+02  0.80901570624E+02  0.00000000000E+00 0. -1.
        -11    1    3    3    0    0 -0.37492293525E+02 -0.19839518959E+01  0.47202163883E+02  0.60312953950E+02  0.00000000000E+00 0.  1.
         11    1    3    3    0    0  0.39625391194E+02 -0.56627646014E+02  0.49101577388E+02  0.84781052261E+02  0.00000000000E+00 0. -1.
         -2    1    1    2    0  502  0.30739361877E+02  0.36199035986E+02 -0.15940544167E+02  0.50093707422E+02  0.00000000000E+00 0.  1.
<scales pt_clust_5="13000.00000" pt_clust_6="13000.00000" pt_clust_7="13000.00000" pt_clust_8="13000.00000" pt_clust_9="47.48977"></scales>
<clustering>
<clus scale="   47.490">  2  9  1 -1</clus>
<clus scale="   79.141">  5  6 -1 -1</clus>
<clus scale="   91.313">  7  8 -1 -1</clus>
<clus scale="   94.685">  2  5  1 -1</clus>
<clus scale="   47.490">  2  5  1 -1</clus>
</clustering>
</event>
<event>
 9    2  0.1325014E-004  0.1986448E+03  0.7546771E-02  0.1154187E+00
          2   -1    0    0  502    0 -0.00000000000E+00  0.00000000000E+00  0.32889663927E+03  0.32889663927E+03  0.00000000000E+00 0. -1.
         21   -1    0    0  501  502  0.00000000000E+00 -0.00000000000E+00 -0.18921844967E+03  0.18921844967E+03  0.00000000000E+00 0.  1.
         24    2    1    2    0    0 -0.75971996736E+02 -0.15924868987E+03  0.20966638396E+03  0.28597438713E+03  0.81789168090E+02 0.  0.
         23    2    1    2    0    0  0.69120080282E+02  0.10856037670E+03 -0.56293993038E+02  0.17918992278E+03  0.11125229834E+03 0.  0.
        -11    1    3    3    0    0 -0.41383523435E+02 -0.15086233314E+03  0.15142298825E+03  0.21771761744E+03  0.00000000000E+00 0.  1.
         12    1    3    3    0    0 -0.34588473300E+02 -0.83863567265E+01  0.58243395707E+02  0.68256769685E+02  0.00000000000E+00 0. -1.
        -11    1    4    4    0    0  0.99774948333E+02  0.79854074317E+02 -0.47093925652E+02  0.13619673760E+03  0.00000000000E+00 0.  1.
         11    1    4    4    0    0 -0.30654868051E+02  0.28706302384E+02 -0.92000673859E+01  0.42993185177E+02  0.00000000000E+00 0. -1.
          1    1    1    2  501    0  0.68519164536E+01  0.50688313168E+02 -0.13694201328E+02  0.52950779040E+02  0.00000000000E+00 0. -1.
<scales pt_clust_5="13000.00000" pt_clust_6="13000.00000" pt_clust_7="13000.00000" pt_clust_8="13000.00000" pt_clust_9="51.14933"></scales>
<clustering>
<clus scale="   51.149">  2  9  1 -1</clus>
<clus scale="   81.789">  5  6 -1 -1</clus>
<clus scale="  111.252">  7  8 -1 -1</clus>
<clus scale="  183.772">  1  5  2 -1</clus>
<clus scale="   51.149">  2  5  1 -1</clus>
</clustering>
</event>
<event>
 9    2  0.1325014E-004  0.3000252E+03  0.7546771E-02  0.1135785E+00
         21   -1    0    0  501  502  0.00000000000E+00  0.00000000000E+00  0.21337928635E+03  0.21337928635E+03  0.00000000000E+00 0. -1.
          2   -1    0    0  502    0 -0.00000000000E+00 -0.00000000000E+00 -0.16788019228E+04  0.16788019228E+04  0.00000000000E+00 0. -1.
         24    2    1    2    0    0  0.74833869130E+01  0.26808723116E+02 -0.19694847395E+03  0.21365181944E+03  0.77998011801E+02 0.  0.
         23    2    1    2    0    0 -0.28817298883E+03  0.41693833779E+02 -0.13459129080E+04  0.13794039775E+04  0.80571273191E+02 0.  0.
        -13    1    3    3    0    0 -0.16253526405E+02  0.45631166513E+02 -0.15130712880E+03  0.15887173349E+03  0.00000000000E+00 0.  1.
         14    1    3    3    0    0  0.23736913318E+02 -0.18822443397E+02 -0.45641345151E+02  0.54780085948E+02  0.00000000000E+00 0. -1.
        -11    1    4    4    0    0 -0.20169350622E+03  0.39897107446E+02 -0.10913152929E+04  0.11105138983E+04  0.00000000000E+00 0. -1.
         11    1    4    4    0    0 -0.86479482605E+02  0.17967263326E+01 -0.25459761503E+03  0.26889007924E+03  0.00000000000E+00 0.  1.
          1    1    1    2  501    0  0.28068960192E+03 -0.68502556895E+02  0.77438745469E+02  0.29912541220E+03  0.00000000000E+00 0. -1.
<scales pt_clust_5="13000.00000" pt_clust_6="13000.00000" pt_clust_7="13000.00000" pt_clust_8="13000.00000" pt_clust_9="289.00409"></scales>
<clustering>
<clus scale="   77.998">  5  6 -1 -1</clus>
<clus scale="   80.571">  7  8 -1 -1</clus>
<clus scale="   82.815">  2  5  1 -1</clus>
<clus scale="  289.004">  1  9  2 -1</clus>
<clus scale="  289.004">  1  5  2 -1</clus>
</clustering>
</event>
<event>
 9    2  0.1325014E-004  0.2613092E+03  0.7546771E-02  0.1107522E+00
         -3   -1    0    0    0  501 -0.00000000000E+00  0.00000000000E+00  0.33594149655E+03  0.33594149655E+03  0.00000000000E+00 0.  1.
         21   -1    0    0  501  502  0.00000000000E+00 -0.00000000000E+00 -0.64284643820E+03  0.64284643820E+03  0.00000000000E+00 0.  1.
         24    2    1    2    0    0  0.16773442004E+03  0.16374341430E+03  0.21937607648E+02  0.24885819381E+03  0.80637464033E+02 0.  0.
         23    2    1    2    0    0 -0.31261315840E+03 -0.38143183170E+02 -0.40543003202E+03  0.52345720185E+03  0.10223522914E+03 0.  0.
        -13    1    3    3    0    0  0.16330845724E+03  0.13430605552E+03  0.38309939905E+02  0.21488466732E+03  0.00000000000E+00 0.  1.
         14    1    3    3    0    0  0.44259628019E+01  0.29437358779E+02 -0.16372332256E+02  0.33973526489E+02  0.00000000000E+00 0. -1.
        -13    1    4    4    0    0 -0.21055903519E+03 -0.10745179902E+02 -0.19135399012E+03  0.28472252410E+03  0.00000000000E+00 0.  1.
         13    1    4    4    0    0 -0.10205412321E+03 -0.27398003268E+02 -0.21407604190E+03  0.23873467776E+03  0.00000000000E+00 0. -1.
         -4    1    1    2    0  502  0.14487873836E+03 -0.12560023113E+03  0.76587482719E+02  0.20647253908E+03  0.00000000000E+00 0.  1.
<scales pt_clust_5="13000.00000" pt_clust_6="13000.00000" pt_clust_7="13000.00000" pt_clust_8="13000.00000" pt_clust_9="191.74281"></scales>
<clustering>
<clus scale="   80.637">  5  6 -1 -1</clus>
<clus scale="  102.235">  7  8 -1 -1</clus>
<clus scale="  191.743">  2  9  1 -1</clus>
<clus scale="  253.639">  1  5  2 -1</clus>
<clus scale="  191.743">  2  5  1 -1</clus>
</clustering>
</event>
<event>
 9    2  0.1325014E-004  0.1032307E+03  0.7546771E-02  0.1277140E+00
         21   -1    0    0  501  502  0.00000000000E+00  0.00000000000E+00  0.16448309043E+03  0.16448309043E+03  0.00000000000E+00 0. -1.
          2   -1    0    0  502    0 -0.00000000000E+00 -0.00000000000E+00 -0.93055490948E+02  0.93055490948E+02  0.00000000000E+00 0. -1.
         24    2    1    2    0    0 -0.39809115541E+02 -0.36412363529E+01  0.12112195981E+02  0.90847372766E+02  0.80675371488E+02 0.  0.
         23    2    1    2    0    0  0.68847428158E+02  0.78313851322E+01  0.14869117369E+02  0.11343472265E+03  0.88572268197E+02 0.  0.
        -11    1    3    3    0    0 -0.83823516613E+01  0.32677492399E+02 -0.13595420838E+02  0.36371936938E+02  0.00000000000E+00 0.  1.
         12    1    3    3    0    0 -0.31426763880E+02 -0.36318728752E+02  0.25707616819E+02  0.54475435828E+02  0.00000000000E+00 0. -1.
        -11    1    4    4    0    0  0.54556501186E+02  0.41490436347E+02  0.28743290316E+02  0.74323918547E+02  0.00000000000E+00 0.  1.
         11    1    4    4    0    0  0.14290926972E+02 -0.33659051215E+02 -0.13874172947E+02  0.39110804100E+02  0.00000000000E+00 0. -1.
          1    1    1    2  501    0 -0.29038312617E+02 -0.41901487793E+01  0.44446286132E+02  0.53256485966E+02  0.00000000000E+00 0. -1.
<scales pt_clust_5="13000.00000" pt_clust_6="13000.00000" pt_clust_7="13000.00000" pt_clust_8="13000.00000" pt_clust_9="29.33907"></scales>
<clustering>
<clus scale="   29.339">  1  9  2 -1</clus>
<clus scale="   80.675">  5  6 -1 -1</clus>
<clus scale="   88.572">  7  8 -1 -1</clus>
<clus scale="   96.540">  2  5  1 -1</clus>
<clus scale="   29.339">  1  5  2 -1</clus>
</clustering>
</event>
<event>
 9    2  0.1325014E-004  0.1094819E+03  0.7546771E-02  0.1266945E+00
         21   -1    0    0  501  502  0.00000000000E+00  0.00000000000E+00  0.43192146673E+02  0.43192146673E+02  0.00000000000E+00 0. -1.
          2   -1    0    0  502    0 -0.00000000000E+00 -0.00000000000E+00 -0.80960149202E+03  0.80960149202E+03  0.00000000000E+00 0. -1.
         24    2    1    2    0    0 -0.54613283832E+02  0.33847401040E+02 -0.64763909300E+03  0.65588141970E+03  0.81337473553E+02 0.  0.
         23    2    1    2    0    0  0.16680891481E+02 -0.97075571272E+01 -0.11752470429E+03  0.15193278098E+03  0.94334643751E+02 0.  0.
        -11    1    3    3    0    0 -0.28768381429E+02 -0.20209964326E+02 -0.12602334933E+03  0.13083557240E+03  0.00000000000E+00 0.  1.
         12    1    3    3    0    0 -0.25844902403E+02  0.54057365366E+02 -0.52161574367E+03  0.52504584731E+03  0.00000000000E+00 0. -1.
        -11    1    4    4    0    0  0.34288028426E+02 -0.45098884539E+02 -0.65688322571E+02  0.86744071856E+02  0.00000000000E+00 0.  1.
         11    1    4    4    0    0 -0.17607136945E+02  0.35391327412E+02 -0.51836381722E+02  0.65188709125E+02  0.00000000000E+00 0. -1.
          1    1    1    2  501    0  0.37932392351E+02 -0.24139843913E+02 -0.12455480554E+01  0.44979438008E+02  0.00000000000E+00 0. -1.
<scales pt_clust_5="13000.00000" pt_clust_6="13000.00000" pt_clust_7="13000.00000" pt_clust_8="13000.00000" pt_clust_9="44.96219"></scales>
<clustering>
<clus scale="   44.962">  1  9  2 -1</clus>
<clus scale="   81.337">  5  6 -1 -1</clus>
<clus scale="   94.335">  7  8 -1 -1</clus>
<clus scale="   98.504">  2  5  1 -1</clus>
<clus scale="   44.962">  1  5  2 -1</clus>
</clustering>
</event>
<event>
 9    2  0.1325014E-004  0.2306540E+03  0.7546771E-02  0.1126789E+00
         21   -1    0    0  501  502  0.00000000000E+00  0.00000000000E+00  0.74874359205E+02  0.74874359205E+02  0.00000000000E+00 0. -1.
          2   -1    0    0  502    0 -0.00000000000E+00 -0.00000000000E+00 -0.13330753754E+04  0.13330753754E+04  0.00000000000E+00 0. -1.
         24    2    1    2    0    0  0.23185221811E+03 -0.10053499472E+02 -0.10419087966E+04  0.10704996976E+04  0.80864938117E+02 0.  0.
         23    2    1    2    0    0 -0.15413406999E+03 -0.95940057412E+01 -0.14587830700E+03  0.23075301694E+03  0.90095049226E+02 0.  0.
        -13    1    3    3    0    0  0.77834937509E+02  0.30919808772E+02 -0.28806217234E+03  0.29999021185E+03  0.00000000000E+00 0.  1.
         14    1    3    3    0    0  0.15401728060E+03 -0.40973308245E+02 -0.75384662422E+03  0.77050948571E+03  0.00000000000E+00 0. -1.
        -13    1    4    4    0    0 -0.45384781784E+02 -0.25236235018E+01  0.37898973137E+01  0.45612612453E+02  0.00000000000E+00 0. -1.
         13    1    4    4    0    0 -0.10874928821E+03 -0.70703822394E+01 -0.14966820432E+03  0.18514040449E+03  0.00000000000E+00 0.  1.
          1    1    1    2  501    0 -0.77718148118E+02  0.19647505214E+02 -0.70413912631E+02  0.10669702011E+03  0.00000000000E+00 0. -1.
<scales pt_clust_5="13000.00000" pt_clust_6="13000.00000" pt_clust_7="13000.00000" pt_clust_8="13000.00000" pt_clust_9="80.16318"></scales>
<clustering>
<clus scale="   80.163">  1  9  2 -1</clus>
<clus scale="   80.865">  5  6 -1 -1</clus>
<clus scale="   90.095">  7  8 -1 -1</clus>
<clus scale="  227.208">  2  5  1 -1</clus>
<clus scale="   80.163">  1  5  2 -1</clus>
</clustering>
</event>
<event>
 9    2  0.1325014E-004  0.2766217E+03  0.7546771E-02  0.1098229E+00
          2   -1    0    0  502    0 -0.00000000000E+00  0.00000000000E+00  0.13829031949E+04  0.13829031949E+04  0.00000000000E+00 0. -1.
         21   -1    0    0  501  502  0.00000000000E+00 -0.00000000000E+00 -0.12301838703E+03  0.12301838703E+03  0.00000000000E+00 0. -1.
         23    2    1    2    0    0 -0.13083416299E+03  0.24609477408E+03  0.93393565804E+03  0.97900795215E+03  0.92415047323E+02 0.  0.
         24    2    1    2    0    0  0.61028028708E+02 -0.22663075475E+03  0.36798223056E+03  0.44313699640E+03  0.76639130226E+02 0.  0.
        -13    1    4    4    0    0  0.64331160327E+02 -0.23169693527E+03  0.35449414366E+03  0.42835506987E+03  0.00000000000E+00 0.  1.
         14    1    4    4    0    0 -0.33031316197E+01  0.50661805111E+01  0.13488086908E+02  0.14781926529E+02  0.00000000000E+00 0. -1.
        -11    1    3    3    0    0 -0.11063488184E+03  0.20446487607E+03  0.86705789792E+03  0.89768333000E+03  0.00000000000E+00 0. -1.
         11    1    3    3    0    0 -0.20199281144E+02  0.41629898018E+02  0.66877760123E+02  0.81324622144E+02  0.00000000000E+00 0.  1.
          1    1    1    2  501    0  0.69806134278E+02 -0.19464019329E+02 -0.42033080713E+02  0.83776633410E+02  0.00000000000E+00 0. -1.
<scales pt_clust_5="13000.00000" pt_clust_6="13000.00000" pt_clust_7="13000.00000" pt_clust_8="13000.00000" pt_clust_9="72.46892"></scales>
<clustering>
<clus scale="   72.469">  2  9  1 -1</clus>
<clus scale="   76.639">  5  6 -1 -1</clus>
<clus scale="   92.415">  7  8 -1 -1</clus>
<clus scale="  271.758">  2  5  1 -1</clus>
<clus scale="   72.469">  2  5  1 -1</clus>
</clustering>
</event>
<event>
 9    2  0.1325014E-004  0.9807054E+02  0.7546771E-02  0.1288662E+00
          2   -1    0    0  502    0 -0.00000000000E+00  0.00000000000E+00  0.20990896598E+03  0.20990896598E+03  0.00000000000E+00 0. -1.
         21   -1    0    0  501  502  0.00000000000E+00 -0.00000000000E+00 -0.95001518070E+02  0.95001518070E+02  0.00000000000E+00 0.  1.
         23    2    1    2    0    0 -0.38605164582E+02 -0.79685118893E+01  0.14468522391E+03  0.17417202974E+03  0.88590213971E+02 0.  0.
         24    2    1    2    0    0  0.52616093502E+02 -0.74730798487E+01 -0.22335486820E+01  0.96192349716E+02  0.80147858277E+02 0.  0.
        -11    1    4    4    0    0  0.55038026893E+02 -0.27589677776E+02  0.21292197306E+02  0.65143935943E+02  0.00000000000E+00 0.  1.
         12    1    4    4    0    0 -0.24219333905E+01  0.20116597927E+02 -0.23525745988E+02  0.31048413773E+02  0.00000000000E+00 0. -1.
        -11    1    3    3    0    0 -0.28285921337E+02  0.37458040646E+02  0.95595288274E+02  0.10649721731E+03  0.00000000000E+00 0. -1.
         11    1    3    3    0    0 -0.10319243245E+02 -0.45426552535E+02  0.49089935636E+02  0.67674812428E+02  0.00000000000E+00 0.  1.
          1    1    1    2  501    0 -0.14010928920E+02  0.15441591738E+02 -0.27544227314E+02  0.34546104598E+02  0.00000000000E+00 0. -1.
<scales pt_clust_5="13000.00000" pt_clust_6="13000.00000" pt_clust_7="13000.00000" pt_clust_8="13000.00000" pt_clust_9="20.85063"></scales>
<clustering>
<clus scale="   20.851">  2  9  1 -1</clus>
<clus scale="   80.148">  5  6 -1 -1</clus>
<clus scale="   88.590">  7  8 -1 -1</clus>
<clus scale="   90.517">  2  5  1 -1</clus>
<clus scale="   20.851">  2  5  1 -1</clus>
</clustering>
</event>
<event>
 9    2  0.1325014E-004  0.1034699E+03  0.7546771E-02  0.1279212E+00
         21   -1    0    0  501  502  0.00000000000E+00  0.00000000000E+00  0.28219371007E+03  0.28219371007E+03  0.00000000000E+00 0.  1.
         -1   -1    0    0    0  501 -0.00000000000E+00 -0.00000000000E+00 -0.11396742942E+03  0.11396742942E+03  0.00000000000E+00 0.  1.
         23    2    1    2    0    0 -0.30620404407E+02 -0.45107041240E+02 -0.41510300207E+02  0.11542738200E+03  0.92887680327E+02 0.  0.
         24    2    1    2    0    0 -0.49546315784E+02  0.32035152635E+02  0.14966074107E+03  0.17970562367E+03  0.80091730829E+02 0.  0.
        -11    1    4    4    0    0 -0.57232319048E+02  0.15708313690E+02  0.15035743237E+03  0.16164667312E+03  0.00000000000E+00 0.  1.
         12    1    4    4    0    0  0.76860032645E+01  0.16326838945E+02 -0.69669129481E+00  0.18058950547E+02  0.00000000000E+00 0. -1.
        -13    1    3    3    0    0 -0.58991597542E+02 -0.12753833223E+02 -0.39929781356E+02  0.72367508466E+02  0.00000000000E+00 0.  1.
         13    1    3    3    0    0  0.28371193135E+02 -0.32353208017E+02 -0.15805188513E+01  0.43059873534E+02  0.00000000000E+00 0. -1.
         -2    1    1    2    0  502  0.80166720191E+02  0.13071888604E+02  0.60075839781E+02  0.10102813382E+03  0.00000000000E+00 0.  1.
<scales pt_clust_5="13000.00000" pt_clust_6="13000.00000" pt_clust_7="13000.00000" pt_clust_8="13000.00000" pt_clust_9="81.22547"></scales>
<clustering>
<clus scale="   80.092">  5  6 -1 -1</clus>
<clus scale="   81.225">  1  9  2 -1</clus>
<clus scale="   92.155">  1  5  2 -1</clus>
<clus scale="   92.888">  7  8 -1 -1</clus>
<clus scale="   81.225">  1  5  2 -1</clus>
</clustering>
</event>
<event>
 9    2  0.1325014E-004  0.1079695E+03  0.7546771E-02  0.1268749E+00
         21   -1    0    0  501  502  0.00000000000E+00  0.00000000000E+00  0.12281460347E+04  0.12281460347E+04  0.00000000000E+00 0. -1.
         -1   -1    0    0    0  501 -0.00000000000E+00 -0.00000000000E+00 -0.20236779923E+02  0.20236779923E+02  0.00000000000E+00 0.  1.
         23    2    1    2    0    0  0.37192457075E+02  0.54836534200E+02  0.19887559618E+03  0.22863388806E+03  0.91277750132E+02 0.  0.
         24    2    1    2    0    0  0.13562455464E+02 -0.40188653960E+02  0.73872831212E+03  0.74432996956E+03  0.80675376331E+02 0.  0.
        -13    1    4    4    0    0 -0.12639865598E+02 -0.21689968999E+02  0.62668268401E+02  0.67509501716E+02  0.00000000000E+00 0.  1.
         14    1    4    4    0    0  0.26202321062E+02 -0.18498684961E+02  0.67606004372E+03  0.67682046784E+03  0.00000000000E+00 0. -1.
        -11    1    3    3    0    0 -0.26708539256E+02 -0.19028242329E+01  0.57675224211E+02  0.63587721276E+02  0.00000000000E+00 0. -1.
         11    1    3    3    0    0  0.63900996331E+02  0.56739358433E+02  0.14120037196E+03  0.16504616678E+03  0.00000000000E+00 0.  1.
         -2    1    1    2    0  502 -0.50754912539E+02 -0.14647880240E+02  0.27030534650E+03  0.27541895702E+03  0.00000000000E+00 0.  1.
<scales pt_clust_5="13000.00000" pt_clust_6="13000.00000" pt_clust_7="13000.00000" pt_clust_8="13000.00000" pt_clust_9="52.82633"></scales>
<clustering>
<clus scale="   52.826">  1  9  2 -1</clus>
<clus scale="   80.675">  5  6 -1 -1</clus>
<clus scale="   91.278">  7  8 -1 -1</clus>
<clus scale="   99.168">  1  5  2 -1</clus>
<clus scale="   52.826">  1  5  2 -1</clus>
</clustering>
</event>
<event>
 9    2  0.1325014E-004  0.1123294E+03  0.7546771E-02  0.1259318E+00
         21   -1    0    0  501  502  0.00000000000E+00  0.00000000000E+00  0.13368301808E+03  0.13368301808E+03  0.00000000000E+00 0.  1.
          2   -1    0    0  502    0 -0.00000000000E+00 -0.00000000000E+00 -0.37904710213E+03  0.37904710213E+03  0.00000000000E+00 0. -1.
         23    2    1    2    0    0 -0.58833631875E+02  0.35783718211E+02 -0.23683221889E+03  0.26269800914E+03  0.90437123869E+02 0.  0.
         24    2    1    2    0    0  0.88727226283E+02  0.65778494761E+02  0.25420725258E+02  0.13885077951E+03  0.80212185110E+02 0.  0.
        -13    1    4    4    0    0  0.88745989092E+02  0.80523411801E+02  0.29774934503E+02  0.12347638298E+03  0.00000000000E+00 0.  1.
         14    1    4    4    0    0 -0.18762809540E-01 -0.14744917040E+02 -0.43542092451E+01  0.15374396531E+02  0.00000000000E+00 0. -1.
        -13    1    3    3    0    0 -0.32119301702E+02  0.61310243997E+02 -0.19481676132E+03  0.20674662283E+03  0.00000000000E+00 0. -1.
         13    1    3    3    0    0 -0.26714330173E+02 -0.25526525786E+02 -0.42015457575E+02  0.55951386315E+02  0.00000000000E+00 0.  1.
          1    1    1    2  501    0 -0.29893594408E+02 -0.10156221297E+03 -0.33952590414E+02  0.11118133155E+03  0.00000000000E+00 0. -1.
<scales pt_clust_5="13000.00000" pt_clust_6="13000.00000" pt_clust_7="13000.00000" pt_clust_8="13000.00000" pt_clust_9="105.87025"></scales>
<clustering>
<clus scale="   80.212">  5  6 -1 -1</clus>
<clus scale="   90.437">  7  8 -1 -1</clus>
<clus scale="  105.870">  1  9  2 -1</clus>
<clus scale="  105.870">  1  5  2 -1</clus>
<clus scale="  105.870">  1  5  2 -1</clus>
</clustering>
</event>
<event>
 9    2  0.1325014E-004  0.9926065E+02  0.7546771E-02  0.1286979E+00
         21   -1    0    0  501  502  0.00000000000E+00  0.00000000000E+00  0.18202475099E+03  0.18202475099E+03  0.00000000000E+00 0. -1.
         -1   -1    0    0    0  501 -0.00000000000E+00 -0.00000000000E+00 -0.95505358829E+02  0.95505358829E+02  0.00000000000E+00 0.  1.
         23    2    1    2    0    0  0.48962230380E+02  0.22091854203E+02 -0.19415850712E+02  0.10721899671E+03  0.90739120402E+02 0.  0.
         24    2    1    2    0    0 -0.16198043721E+00 -0.23252923098E+02  0.74828941572E+02  0.11242834835E+03  0.80622815290E+02 0.  0.
        -13    1    4    4    0    0 -0.24632912959E+02  0.20950935302E+02  0.20766545807E+02  0.38431387116E+02  0.00000000000E+00 0.  1.
         14    1    4    4    0    0  0.24470932522E+02 -0.44203858399E+02  0.54062395764E+02  0.73996961233E+02  0.00000000000E+00 0. -1.
        -11    1    3    3    0    0 -0.20505876775E+02 -0.81819671817E+00 -0.26737143920E+02  0.33705122654E+02  0.00000000000E+00 0.  1.
         11    1    3    3    0    0  0.69468107154E+02  0.22910050921E+02  0.73212932071E+01  0.73513874058E+02  0.00000000000E+00 0. -1.
         -2    1    1    2    0  502 -0.48800249942E+02  0.11610688946E+01  0.31106301305E+02  0.57882764760E+02  0.00000000000E+00 0.  1.
<scales pt_clust_5="13000.00000" pt_clust_6="13000.00000" pt_clust_7="13000.00000" pt_clust_8="13000.00000" pt_clust_9="48.81406"></scales>
<clustering>
<clus scale="   48.814">  1  9  2 -1</clus>
<clus scale="   80.623">  5  6 -1 -1</clus>
<clus scale="   90.106">  1  5  2 -1</clus>
<clus scale="   90.739">  7  8 -1 -1</clus>
<clus scale="   48.814">  1  5  2 -1</clus>
</clustering>
</event>
<event>
 9    2  0.1325014E-004  0.4487633E+03  0.7546771E-02  0.1028091E+00
          2   -1    0    0  502    0 -0.00000000000E+00  0.00000000000E+00  0.43106224749E+03  0.43106224749E+03  0.00000000000E+00 0. -1.
         21   -1    0    0  501  502  0.00000000000E+00 -0.00000000000E+00 -0.55689103905E+03  0.55689103905E+03  0.00000000000E+00 0. -1.
         24    2    1    2    0    0 -0.28553165681E+03 -0.10008466001E+01  0.17590750814E+03  0.34469315376E+03  0.79627822349E+02 0.  0.
         23    2    1    2    0    0 -0.10258757677E+03  0.39579950347E+02  0.12869876842E+02  0.14215941133E+03  0.89178927581E+02 0.  0.
        -11    1    3    3    0    0 -0.12850198827E+03  0.46632019972E+01  0.34094351399E+02  0.13302981335E+03  0.00000000000E+00 0.  1.
         12    1    3    3    0    0 -0.15702966855E+03 -0.56640485973E+01  0.14181315674E+03  0.21166334041E+03  0.00000000000E+00 0. -1.
        -11    1    4    4    0    0 -0.80235294832E+02  0.64590689715E+02 -0.68815260810E+01  0.10323282005E+03  0.00000000000E+00 0. -1.
         11    1    4    4    0    0 -0.22352281934E+02 -0.25010739368E+02  0.19751402923E+02  0.38926591282E+02  0.00000000000E+00 0.  1.
          1    1    1    2  501    0  0.38811923358E+03 -0.38579103747E+02 -0.31460617654E+03  0.50110072145E+03  0.00000000000E+00 0. -1.
<scales pt_clust_5="13000.00000" pt_clust_6="13000.00000" pt_clust_7="13000.00000" pt_clust_8="13000.00000" pt_clust_9="390.03190"></scales>
<clustering>
<clus scale="   79.628">  5  6 -1 -1</clus>
<clus scale="   89.179">  7  8 -1 -1</clus>
<clus scale="  109.148">  5  7 -1 -1</clus>
<clus scale="  390.032">  2  9  1 -1</clus>
<clus scale="  390.032">  2  5  1 -1</clus>
</clustering>
</event>
<event>
 9    2  0.1325014E-004  0.1053816E+03  0.7546771E-02  0.1274205E+00
          2   -1    0    0  502    0 -0.00000000000E+00  0.00000000000E+00  0.10597442952E+03  0.10597442952E+03  0.00000000000E+00 0. -1.
         21   -1    0    0  501  502  0.00000000000E+00 -0.00000000000E+00 -0.29540091017E+03  0.29540091017E+03  0.00000000000E+00 0. -1.
         23    2    1    2    0    0  0.46832197287E+02  0.21321319450E+02  0.53821493237E+02  0.11791419400E+03  0.91428390818E+02 0.  0.
         24    2    1    2    0    0 -0.61587885917E+02  0.22505402714E+01 -0.11974465283E+03  0.15686559588E+03  0.80435692733E+02 0.  0.
        -13    1    4    4    0    0 -0.40213681709E+02 -0.26427018248E+02 -0.10958395555E+03  0.11968362797E+03  0.00000000000E+00 0.  1.
         14    1    4    4    0    0 -0.21374204208E+02  0.28677558520E+02 -0.10160697278E+02  0.37181967906E+02  0.00000000000E+00 0. -1.
        -13    1    3    3    0    0 -0.26610096751E+02  0.46304546410E+01  0.26381741535E+02  0.37756253068E+02  0.00000000000E+00 0. -1.
         13    1    3    3    0    0  0.73442294039E+02  0.16690864809E+02  0.27439751702E+02  0.80157940936E+02  0.00000000000E+00 0.  1.
          1    1    1    2  501    0  0.14755688630E+02 -0.23571859721E+02 -0.12350332106E+03  0.12659554980E+03  0.00000000000E+00 0. -1.
<scales pt_clust_5="13000.00000" pt_clust_6="13000.00000" pt_clust_7="13000.00000" pt_clust_8="13000.00000" pt_clust_9="27.80940"></scales>
<clustering>
<clus scale="   27.809">  2  9  1 -1</clus>
<clus scale="   80.436">  5  6 -1 -1</clus>
<clus scale="   91.428">  7  8 -1 -1</clus>
<clus scale="   96.000">  2  5  1 -1</clus>
<clus scale="   27.809">  2  5  1 -1</clus>
</clustering>
</event>
<event>
 9    2  0.1325014E-004  0.1658349E+03  0.7546771E-02  0.1183952E+00
         21   -1    0    0  501  502  0.00000000000E+00  0.00000000000E+00  0.12182382074E+03  0.12182382074E+03  0.00000000000E+00 0.  1.
         -1   -1    0    0    0  501 -0.00000000000E+00 -0.00000000000E+00 -0.56743830414E+03  0.56743830414E+03  0.00000000000E+00 0.  1.
         24    2    1    2    0    0  0.12057468121E+03  0.67998870188E+02 -0.28466880115E+03  0.32664046301E+03  0.80595072004E+02 0.  0.
         23    2    1    2    0    0 -0.10077448332E+03 -0.95014615447E+02  0.29744957301E+02  0.16901169739E+03  0.92178727128E+02 0.  0.
        -11    1    3    3    0    0  0.68955823916E+02  0.76407086005E+02 -0.14766830430E+03  0.17999687924E+03  0.00000000000E+00 0.  1.
         12    1    3    3    0    0  0.51618857295E+02 -0.84082158169E+01 -0.13700049686E+03  0.14664358377E+03  0.00000000000E+00 0. -1.
        -13    1    4    4    0    0 -0.17738872349E+02 -0.79954744743E+02  0.11956933302E+02  0.82767125437E+02  0.00000000000E+00 0.  1.
         13    1    4    4    0    0 -0.83035610966E+02 -0.15059870704E+02  0.17788024000E+02  0.86244571956E+02  0.00000000000E+00 0. -1.
         -2    1    1    2    0  502 -0.19800197896E+02  0.27015745259E+02 -0.19069063955E+03  0.19360996446E+03  0.00000000000E+00 0.  1.
<scales pt_clust_5="13000.00000" pt_clust_6="13000.00000" pt_clust_7="13000.00000" pt_clust_8="13000.00000" pt_clust_9="33.49477"></scales>
<clustering>
<clus scale="   33.495">  1  9  2 -1</clus>
<clus scale="   80.595">  5  6 -1 -1</clus>
<clus scale="   92.179">  7  8 -1 -1</clus>
<clus scale="  159.687">  2  5  1 -1</clus>
<clus scale="   33.495">  1  5  2 -1</clus>
</clustering>
</event>
<event>
 9    2  0.1325014E-004  0.9882245E+02  0.7546771E-02  0.1288913E+00
         21   -1    0    0  501  502  0.00000000000E+00  0.00000000000E+00  0.17776941998E+03  0.17776941998E+03  0.00000000000E+00 0. -1.
          2   -1    0    0  502    0 -0.00000000000E+00 -0.00000000000E+00 -0.12470346690E+03  0.12470346690E+03  0.00000000000E+00 0. -1.
         23    2    1    2    0    0 -0.28546810761E+02  0.19238650134E+02 -0.71092950650E+02  0.12093448614E+03  0.91574539267E+02 0.  0.
         24    2    1    2    0    0  0.37561681018E+02 -0.38455442940E+02  0.12781691131E+03  0.15999927283E+03  0.79830467344E+02 0.  0.
        -13    1    4    4    0    0  0.30656878364E+02  0.13657475221E+02  0.17619337068E+02  0.37905301201E+02  0.00000000000E+00 0.  1.
         14    1    4    4    0    0  0.69048026548E+01 -0.52112918161E+02  0.11019757425E+03  0.12209397163E+03  0.00000000000E+00 0. -1.
        -13    1    3    3    0    0 -0.36844352053E+02  0.51127580290E+02 -0.35096527211E+02  0.72133916897E+02  0.00000000000E+00 0.  1.
         13    1    3    3    0    0  0.82975412922E+01 -0.31888930156E+02 -0.35996423439E+02  0.48800569243E+02  0.00000000000E+00 0. -1.
          1    1    1    2  501    0 -0.90148702573E+01  0.19216792806E+02 -0.36580075912E+01  0.21539127908E+02  0.00000000000E+00 0. -1.
<scales pt_clust_5="13000.00000" pt_clust_6="13000.00000" pt_clust_7="13000.00000" pt_clust_8="13000.00000" pt_clust_9="21.22624"></scales>
<clustering>
<clus scale="   21.226">  1  9  2 -1</clus>
<clus scale="   79.830">  5  6 -1 -1</clus>
<clus scale="   88.050">  1  5  2 -1</clus>
<clus scale="   91.575">  7  8 -1 -1</clus>
<clus scale="   21.226">  1  5  2 -1</clus>
</clustering>
</event>
<event>
 9    2  0.1325014E-004  0.1325371E+03  0.7546771E-02  0.1225813E+00
         -1   -1    0    0    0  501 -0.00000000000E+00  0.00000000000E+00  0.44546396215E+03  0.44546396215E+03  0.00000000000E+00 0.  1.
         21   -1    0    0  501  502  0.00000000000E+00 -0.00000000000E+00 -0.55820286973E+02  0.55820286973E+02  0.00000000000E+00 0.  1.
         23    2    1    2    0    0 -0.34772690041E+02 -0.10966797277E+03  0.21414120846E+03  0.25973904153E+03  0.91497039903E+02 0.  0.
         24    2    1    2    0    0  0.50911270669E+02  0.62388457268E+02  0.12842152720E+03  0.17289813018E+03  0.83170894480E+02 0.  0.
        -13    1    4    4    0    0  0.49241045037E+02  0.35029343217E+02  0.13207752253E+03  0.14524533507E+03  0.00000000000E+00 0.  1.
         14    1    4    4    0    0  0.16702256327E+01  0.27359114050E+02 -0.36559953291E+01  0.27652795105E+02  0.00000000000E+00 0. -1.
        -11    1    3    3    0    0 -0.50623534843E+02 -0.45936920094E+02  0.16217402541E+03  0.17599249252E+03  0.00000000000E+00 0.  1.
         11    1    3    3    0    0  0.15850844801E+02 -0.63731052681E+02  0.51967183052E+02  0.83746549010E+02  0.00000000000E+00 0. -1.
         -2    1    1    2    0  502 -0.16138580628E+02  0.47279515507E+02  0.47080939516E+02  0.68647077410E+02  0.00000000000E+00 0.  1.
<scales pt_clust_5="13000.00000" pt_clust_6="13000.00000" pt_clust_7="13000.00000" pt_clust_8="13000.00000" pt_clust_9="49.95805"></scales>
<clustering>
<clus scale="   49.958">  2  9  1 -1</clus>
<clus scale="   83.171">  5  6 -1 -1</clus>
<clus scale="   91.497">  7  8 -1 -1</clus>
<clus scale="  126.932">  2  5  1 -1</clus>
<clus scale="   49.958">  2  5  1 -1</clus>
</clustering>
</event>
<event>
 9    2  0.1325014E-004  0.1056923E+03  0.7546771E-02  0.1271554E+00
          2   -1    0    0  502    0 -0.00000000000E+00  0.00000000000E+00  0.14020177401E+03  0.14020177401E+03  0.00000000000E+00 0. -1.
         21   -1    0    0  501  502  0.00000000000E+00 -0.00000000000E+00 -0.38395970216E+03  0.38395970216E+03  0.00000000000E+00 0. -1.
         24    2    1    2    0    0  0.55143829873E+02 -0.14326003125E+02  0.48871150419E+02  0.10954512128E+03  0.79785135927E+02 0.  0.
         23    2    1    2    0    0 -0.34827201069E+02  0.84623528386E+02 -0.14308826298E+02  0.12683749832E+03  0.86654099602E+02 0.  0.
        -11    1    3    3    0    0  0.32844679984E+02  0.32179894906E+02  0.28464512707E+02  0.54079082121E+02  0.00000000000E+00 0.  1.
         12    1    3    3    0    0  0.22299149890E+02 -0.46505898032E+02  0.20406637713E+02  0.55466039162E+02  0.00000000000E+00 0. -1.
        -11    1    4    4    0    0  0.15989859307E+02  0.56817666560E+02 -0.30842450315E+02  0.66597143898E+02  0.00000000000E+00 0.  1.
         11    1    4    4    0    0 -0.50817060376E+02  0.27805861826E+02  0.16533624016E+02  0.60240354417E+02  0.00000000000E+00 0. -1.
          1    1    1    2  501    0 -0.20316628804E+02 -0.70297525261E+02 -0.27832025228E+03  0.28777885657E+03  0.00000000000E+00 0. -1.
<scales pt_clust_5="13000.00000" pt_clust_6="13000.00000" pt_clust_7="13000.00000" pt_clust_8="13000.00000" pt_clust_9="73.17450"></scales>
<clustering>
<clus scale="   73.175">  2  9  1 -1</clus>
<clus scale="   79.785">  5  6 -1 -1</clus>
<clus scale="   86.654">  7  8 -1 -1</clus>
<clus scale="  100.138">  1  5  2 -1</clus>
<clus scale="   73.175">  2  5  1 -1</clus>
</clustering>
</event>
<event>
 9    2  0.1325014E-004  0.9939895E+02  0.7546771E-02  0.1284755E+00
         -1   -1    0    0    0  501 -0.00000000000E+00  0.00000000000E+00  0.95561642533E+02  0.95561642533E+02  0.00000000000E+00 0.  1.
         21   -1    0    0  501  502  0.00000000000E+00 -0.00000000000E+00 -0.26945061937E+03  0.26945061937E+03  0.00000000000E+00 0. -1.
         23    2    1    2    0    0 -0.39625514246E+02 -0.52973622512E+02  0.20064214610E+01  0.11160374956E+03  0.89860921021E+02 0.  0.
         24    2    1    2    0    0  0.20069037418E+02 -0.33814199841E+02 -0.10445275587E+03  0.13930928775E+03  0.83369857095E+02 0.  0.
        -11    1    4    4    0    0  0.26269840294E+02 -0.10194910524E+02  0.37120736003E+01  0.28422177962E+02  0.00000000000E+00 0.  1.
         12    1    4    4    0    0 -0.62008028760E+01 -0.23619289317E+02 -0.10816482947E+03  0.11088710979E+03  0.00000000000E+00 0. -1.
        -11    1    3    3    0    0 -0.23110607789E+02 -0.26030800679E+02 -0.43803983950E+02  0.55950797906E+02  0.00000000000E+00 0.  1.
         11    1    3    3    0    0 -0.16514906456E+02 -0.26942821833E+02  0.45810405411E+02  0.55652951651E+02  0.00000000000E+00 0. -1.
         -2    1    1    2    0  502  0.19556476828E+02  0.86787822354E+02 -0.71442642428E+02  0.11409922459E+03  0.00000000000E+00 0.  1.
<scales pt_clust_5="13000.00000" pt_clust_6="13000.00000" pt_clust_7="13000.00000" pt_clust_8="13000.00000" pt_clust_9="88.96394"></scales>
<clustering>
<clus scale="   83.370">  5  6 -1 -1</clus>
<clus scale="   88.964">  2  9  1 -1</clus>
<clus scale="   89.861">  7  8 -1 -1</clus>
<clus scale="   93.572">  2  5  1 -1</clus>
<clus scale="   88.964">  2  5  1 -1</clus>
</clustering>
</event>
<event>
 9    2  0.1325014E-004  0.2773934E+03  0.7546771E-02  0.1138483E+00
         21   -1    0    0  501  502  0.00000000000E+00  0.00000000000E+00  0.74872604754E+03  0.74872604754E+03  0.00000000000E+00 0. -1.
          2   -1    0    0  502    0 -0.00000000000E+00 -0.00000000000E+00 -0.15520157120E+03  0.15520157120E+03  0.00000000000E+00 0. -1.
         24    2    1    2    0    0 -0.56143855475E+02  0.46407046286E+01  0.10508225367E+02  0.98708968589E+02  0.80370199902E+02 0.  0.
         23    2    1    2    0    0 -0.18448245248E+03  0.15858529850E+03  0.32899437429E+03  0.41912169081E+03  0.90788882707E+02 0.  0.
        -11    1    3    3    0    0 -0.24969063164E+02 -0.36306852529E+02  0.16163175979E+02  0.46934954071E+02  0.00000000000E+00 0.  1.
         12    1    3    3    0    0 -0.31174792311E+02  0.40947557158E+02 -0.56549506121E+01  0.51774014518E+02  0.00000000000E+00 0. -1.
        -11    1    4    4    0    0 -0.21843731957E+02  0.64001970251E+02  0.12133006263E+03  0.13890422931E+03  0.00000000000E+00 0.  1.
         11    1    4    4    0    0 -0.16263872052E+03  0.94583328245E+02  0.20766431166E+03  0.28021746150E+03  0.00000000000E+00 0. -1.
          1    1    1    2  501    0  0.24062630795E+03 -0.16322600312E+03  0.25402187670E+03  0.38609695934E+03  0.00000000000E+00 0. -1.
<scales pt_clust_5="13000.00000" pt_clust_6="13000.00000" pt_clust_7="13000.00000" pt_clust_8="13000.00000" pt_clust_9="262.11547"></scales>
<clustering>
<clus scale="   80.370">  5  6 -1 -1</clus>
<clus scale="   90.789">  7  8 -1 -1</clus>
<clus scale="   98.148">  2  5  1 -1</clus>
<clus scale="  262.115">  1  9  2 -1</clus>
<clus scale="  262.115">  1  5  2 -1</clus>
</clustering>
</event>
<event>
 9    2  0.1325014E-004  0.9948931E+02  0.7546771E-02  0.1286511E+00
         21   -1    0    0  501  502  0.00000000000E+00  0.00000000000E+00  0.44319425631E+02  0.44319425631E+02  0.00000000000E+00 0. -1.
          2   -1    0    0  502    0 -0.00000000000E+00 -0.00000000000E+00 -0.61853796581E+03  0.61853796581E+03  0.00000000000E+00 0. -1.
         24    2    1    2    0    0 -0.49950268733E+01  0.39702910608E+02 -0.29624535553E+03  0.31009582975E+03  0.82442959381E+02 0.  0.
         23    2    1    2    0    0  0.35165398917E+02 -0.13382455819E+02 -0.33864527435E+02  0.10539128414E+03  0.92438201784E+02 0.  0.
        -13    1    3    3    0    0  0.38025330854E+02  0.22391256226E+02 -0.12016506183E+03  0.12801146912E+03  0.00000000000E+00 0.  1.
         14    1    3    3    0    0 -0.43020357727E+02  0.17311654382E+02 -0.17608029370E+03  0.18208436063E+03  0.00000000000E+00 0. -1.
        -13    1    4    4    0    0 -0.23930876404E+02  0.15448454544E+02 -0.27055959248E+02  0.39285703814E+02  0.00000000000E+00 0.  1.
         13    1    4    4    0    0  0.59096275322E+02 -0.28830910364E+02 -0.68085681869E+01  0.66105580325E+02  0.00000000000E+00 0. -1.
          1    1    1    2  501    0 -0.30170372044E+02 -0.26320454788E+02 -0.24410865721E+03  0.24737027755E+03  0.00000000000E+00 0. -1.
<scales pt_clust_5="13000.00000" pt_clust_6="13000.00000" pt_clust_7="13000.00000" pt_clust_8="13000.00000" pt_clust_9="40.03772"></scales>
<clustering>
<clus scale="   40.038">  1  9  2 -1</clus>
<clus scale="   82.443">  5  6 -1 -1</clus>
<clus scale="   90.278">  2  5  1 -1</clus>
<clus scale="   92.438">  7  8 -1 -1</clus>
<clus scale="   40.038">  1  5  2 -1</clus>
</clustering>
</event>
<event>
 9    2  0.1325014E-004  0.1462370E+03  0.7546771E-02  0.1208071E+00
         21   -1    0    0  501  502  0.00000000000E+00  0.00000000000E+00  0.13079249324E+03  0.13079249324E+03  0.00000000000E+00 0.  1.
          2   -1    0    0  502    0 -0.00000000000E+00 -0.00000000000E+00 -0.59032462096E+03  0.59032462096E+03  0.00000000000E+00 0. -1.
         23    2    1    2    0    0 -0.10846164585E+03  0.10386789948E+02 -0.39691492201E+03  0.42003032679E+03  0.83738916169E+02 0.  0.
         24    2    1    2    0    0  0.19171411091E+02 -0.12316274834E+03 -0.13151609436E+02  0.14897496003E+03  0.80523091732E+02 0.  0.
        -13    1    4    4    0    0 -0.22551870408E+01 -0.54061836032E+02  0.32794782084E+02  0.63271365685E+02  0.00000000000E+00 0.  1.
         14    1    4    4    0    0  0.21426598132E+02 -0.69100912313E+02 -0.45946391519E+02  0.85703594345E+02  0.00000000000E+00 0. -1.
        -11    1    3    3    0    0 -0.55492500777E+02  0.42580311423E+02 -0.15083822080E+03  0.16626686205E+03  0.00000000000E+00 0. -1.
         11    1    3    3    0    0 -0.52969145074E+02 -0.32193521475E+02 -0.24607670121E+03  0.25376346474E+03  0.00000000000E+00 0.  1.
          1    1    1    2  501    0  0.89290234759E+02  0.11277595840E+03 -0.49465596271E+02  0.15211182738E+03  0.00000000000E+00 0. -1.
<scales pt_clust_5="13000.00000" pt_clust_6="13000.00000" pt_clust_7="13000.00000" pt_clust_8="13000.00000" pt_clust_9="122.07092"></scales>
<clustering>
<clus scale="   80.523">  5  6 -1 -1</clus>
<clus scale="   83.739">  7  8 -1 -1</clus>
<clus scale="  137.419">  2  7  1 -1</clus>
<clus scale="  122.071">  1  9  2 -1</clus>
<clus scale="  122.071">  1  5  2 -1</clus>
</clustering>
</event>
<event>
 9    2  0.1325014E-004  0.1299857E+03  0.7546771E-02  0.1230201E+00
         -1   -1    0    0    0  501 -0.00000000000E+00  0.00000000000E+00  0.15852150562E+03  0.15852150562E+03  0.00000000000E+00 0.  1.
         21   -1    0    0  501  502  0.00000000000E+00 -0.00000000000E+00 -0.15114390508E+03  0.15114390508E+03  0.00000000000E+00 0.  1.
         24    2    1    2    0    0  0.53102180546E+02  0.90661748200E+02  0.74502682053E+01  0.13253932186E+03  0.80447319261E+02 0.  0.
         23    2    1    2    0    0 -0.64448376363E+02 -0.49750738781E+02 -0.29354819180E+02  0.12555195533E+03  0.90955257421E+02 0.  0.
        -11    1    3    3    0    0  0.73550162454E+02  0.62641537035E+02 -0.18430248738E+01  0.96628077182E+02  0.00000000000E+00 0.  1.
         12    1    3    3    0    0 -0.20447981908E+02  0.28020211164E+02  0.92932930791E+01  0.35911244674E+02  0.00000000000E+00 0. -1.
        -11    1    4    4    0    0 -0.70773617053E+02 -0.70736469453E+02 -0.25928692986E+02  0.10336754859E+03  0.00000000000E+00 0.  1.
         11    1    4    4    0    0  0.63252406898E+01  0.20985730672E+02 -0.34261261943E+01  0.22184406738E+02  0.00000000000E+00 0. -1.
         -2    1    1    2    0  502  0.11346195817E+02 -0.40911009418E+02  0.29282151513E+02  0.51574133520E+02  0.00000000000E+00 0.  1.
<scales pt_clust_5="13000.00000" pt_clust_6="13000.00000" pt_clust_7="13000.00000" pt_clust_8="13000.00000" pt_clust_9="42.45525"></scales>
<clustering>
<clus scale="   42.455">  2  9  1 -1</clus>
<clus scale="   80.447">  5  6 -1 -1</clus>
<clus scale="   90.955">  7  8 -1 -1</clus>
<clus scale="  122.862">  1  5  2 -1</clus>
<clus scale="   42.455">  2  5  1 -1</clus>
</clustering>
</event>
<event>
 9    2  0.1325014E-004  0.9472275E+02  0.7546771E-02  0.1297324E+00
         21   -1    0    0  501  502  0.00000000000E+00  0.00000000000E+00  0.61906161344E+02  0.61906161344E+02  0.00000000000E+00 0. -1.
          2   -1    0    0  502    0 -0.00000000000E+00 -0.00000000000E+00 -0.55479018125E+03  0.55479018125E+03  0.00000000000E+00 0. -1.
         23    2    1    2    0    0  0.24926102235E+01  0.44925246348E+01 -0.29763091227E+03  0.31123165392E+03  0.90854755404E+02 0.  0.
         24    2    1    2    0    0  0.38213575289E+02 -0.73287358424E+02 -0.19347922436E+03  0.22550926762E+03  0.81172072057E+02 0.  0.
        -11    1    4    4    0    0  0.85672720463E+01 -0.21461861018E+02 -0.85425892814E-01  0.23108806249E+02  0.00000000000E+00 0.  1.
         12    1    4    4    0    0  0.29646303242E+02 -0.51825497405E+02 -0.19339379846E+03  0.20240046137E+03  0.00000000000E+00 0. -1.
        -11    1    3    3    0    0 -0.28619176901E+02 -0.31670148311E+02 -0.15862778621E+03  0.16427060035E+03  0.00000000000E+00 0.  1.
         11    1    3    3    0    0  0.31111787125E+02  0.36162672946E+02 -0.13900312606E+03  0.14696105357E+03  0.00000000000E+00 0. -1.
          1    1    1    2  501    0 -0.40706185512E+02  0.68794833789E+02 -0.17738832814E+01  0.79955421060E+02  0.00000000000E+00 0. -1.
<scales pt_clust_5="13000.00000" pt_clust_6="13000.00000" pt_clust_7="13000.00000" pt_clust_8="13000.00000" pt_clust_9="79.93574"></scales>
<clustering>
<clus scale="   79.936">  1  9  2 -1</clus>
<clus scale="   81.172">  5  6 -1 -1</clus>
<clus scale="   85.479">  1  5  2 -1</clus>
<clus scale="   90.855">  7  8 -1 -1</clus>
<clus scale="   79.936">  1  5  2 -1</clus>
</clustering>
</event>
<event>
 9    2  0.1325014E-004  0.1938487E+03  0.7546771E-02  0.1182402E+00
         -3   -1    0    0    0  501 -0.00000000000E+00  0.00000000000E+00  0.32212569529E+03  0.32212569529E+03  0.00000000000E+00 0.  1.
         21   -1    0    0  501  502  0.00000000000E+00 -0.00000000000E+00 -0.21816228167E+03  0.21816228167E+03  0.00000000000E+00 0.  1.
         24    2    1    2    0    0 -0.58237092387E+02 -0.32006031938E+02  0.12502947768E+03  0.16231317426E+03  0.79355221885E+02 0.  0.
         23    2    1    2    0    0 -0.71855343983E+01 -0.14591688316E+03  0.44170425382E+02  0.17749417180E+03  0.90607868588E+02 0.  0.
        -11    1    3    3    0    0 -0.72090509211E+02 -0.20295728683E+02  0.63577388365E+02  0.98239719220E+02  0.00000000000E+00 0.  1.
         12    1    3    3    0    0  0.13853416824E+02 -0.11710303254E+02  0.61452089316E+02  0.64073455044E+02  0.00000000000E+00 0. -1.
        -11    1    4    4    0    0  0.10101910875E+02 -0.32559992681E+02  0.52419807506E+02  0.62530296223E+02  0.00000000000E+00 0. -1.
         11    1    4    4    0    0 -0.17287445273E+02 -0.11335689047E+03 -0.82493821247E+01  0.11496387558E+03  0.00000000000E+00 0.  1.
         -4    1    1    2    0  502  0.65422626786E+02  0.17792291509E+03 -0.65236489448E+02  0.20048063090E+03  0.00000000000E+00 0.  1.
<scales pt_clust_5="13000.00000" pt_clust_6="13000.00000" pt_clust_7="13000.00000" pt_clust_8="13000.00000" pt_clust_9="171.36963"></scales>
<clustering>
<clus scale="   79.355">  5  6 -1 -1</clus>
<clus scale="   90.608">  7  8 -1 -1</clus>
<clus scale="  103.505">  1  5  2 -1</clus>
<clus scale="  171.370">  2  9  1 -1</clus>
<clus scale="  171.370">  2  5  1 -1</clus>
</clustering>
</event>
<event>
 9    2  0.1325014E-004  0.1288263E+03  0.7546771E-02  0.1232441E+00
         21   -1    0    0  501  502  0.00000000000E+00  0.00000000000E+00  0.82103008265E+03  0.82103008265E+03  0.00000000000E+00 0. -1.
         -3   -1    0    0    0  501 -0.00000000000E+00 -0.00000000000E+00 -0.29341544952E+02  0.29341544952E+02  0.00000000000E+00 0.  1.
         24    2    1    2    0    0  0.53418295422E+02 -0.68876865308E+02  0.25777106703E+03  0.28286160593E+03  0.77247836562E+02 0.  0.
         23    2    1    2    0    0 -0.73573074639E+02  0.73042408974E+02  0.52883787270E+03  0.54631169167E+03  0.89659232785E+02 0.  0.
        -13    1    3    3    0    0  0.71211518497E+02 -0.38155438824E+02  0.17175755487E+03  0.18980931361E+03  0.00000000000E+00 0.  1.
         14    1    3    3    0    0 -0.17793223075E+02 -0.30721426484E+02  0.86013512159E+02  0.93052292322E+02  0.00000000000E+00 0. -1.
        -11    1    4    4    0    0 -0.91789290937E+02  0.49983154841E+02  0.45480924158E+03  0.46666372896E+03  0.00000000000E+00 0. -1.
         11    1    4    4    0    0  0.18216216297E+02  0.23059254132E+02  0.74028631125E+02  0.79647962708E+02  0.00000000000E+00 0.  1.
         -4    1    1    2    0  502  0.20154779218E+02 -0.41655436654E+01  0.50795979630E+01  0.21198330000E+02  0.00000000000E+00 0.  1.
<scales pt_clust_5="13000.00000" pt_clust_6="13000.00000" pt_clust_7="13000.00000" pt_clust_8="13000.00000" pt_clust_9="20.58075"></scales>
<clustering>
<clus scale="   20.581">  1  9  2 -1</clus>
<clus scale="   77.248">  5  6 -1 -1</clus>
<clus scale="   89.659">  7  8 -1 -1</clus>
<clus scale="  120.518">  2  5  1 -1</clus>
<clus scale="   20.581">  1  5  2 -1</clus>
</clustering>
</event>
<event>
 9    2  0.1325014E-004  0.1225361E+03  0.7546771E-02  0.1241057E+00
          2   -1    0    0  502    0 -0.00000000000E+00  0.00000000000E+00  0.10507563642E+04  0.10507563642E+04  0.00000000000E+00 0. -1.
         21   -1    0    0  501  502  0.00000000000E+00 -0.00000000000E+00 -0.28286631525E+02  0.28286631525E+02  0.00000000000E+00 0. -1.
         23    2    1    2    0    0  0.44670164820E+02 -0.50536615524E+02  0.43300007724E+03  0.44722594042E+03  0.89289426951E+02 0.  0.
         24    2    1    2    0    0 -0.36007480999E+02  0.98861498297E+02  0.24094727173E+03  0.27985372152E+03  0.95876916714E+02 0.  0.
        -13    1    4    4    0    0 -0.53263056540E+02  0.53100923360E+02  0.72553792446E+02  0.10450222032E+03  0.00000000000E+00 0.  1.
         14    1    4    4    0    0  0.17255575540E+02  0.45760574937E+02  0.16839347929E+03  0.17535150120E+03  0.00000000000E+00 0. -1.
        -11    1    3    3    0    0  0.15166202403E+02 -0.70616891309E+02  0.22876841832E+03  0.23989945446E+03  0.00000000000E+00 0. -1.
         11    1    3    3    0    0  0.29503962417E+02  0.20080275785E+02  0.20423165892E+03  0.20732648596E+03  0.00000000000E+00 0.  1.
          1    1    1    2  501    0 -0.86626838205E+01 -0.48324882772E+02  0.34852238368E+03  0.35196333376E+03  0.00000000000E+00 0. -1.
<scales pt_clust_5="13000.00000" pt_clust_6="13000.00000" pt_clust_7="13000.00000" pt_clust_8="13000.00000" pt_clust_9="49.09520"></scales>
<clustering>
<clus scale="   49.095">  2  9  1 -1</clus>
<clus scale="   89.289">  7  8 -1 -1</clus>
<clus scale="   95.877">  5  6 -1 -1</clus>
<clus scale="  117.453">  1  7  2 -1</clus>
<clus scale="   49.095">  2  5  1 -1</clus>
</clustering>
</event>
<event>
 9    2  0.1325014E-004  0.1444469E+03  0.7546771E-02  0.1213592E+00
          2   -1    0    0  502    0 -0.00000000000E+00  0.00000000000E+00  0.21040125373E+04  0.21040125373E+04  0.00000000000E+00 0. -1.
         21   -1    0    0  501  502  0.00000000000E+00 -0.00000000000E+00 -0.22816089328E+02  0.22816089328E+02  0.00000000000E+00 0.  1.
         24    2    1    2    0    0  0.75848544306E+02  0.62002226735E+02  0.42546479988E+03  0.44394456795E+03  0.80431372469E+02 0.  0.
         23    2    1    2    0    0  0.59214660976E+02 -0.95374044917E+02  0.55409803740E+03  0.57250017917E+03  0.90162273625E+02 0.  0.
        -13    1    3    3    0    0  0.75015057809E+02  0.11086445603E+02  0.25546811848E+03  0.26648476079E+03  0.00000000000E+00 0.  1.
         14    1    3    3    0    0  0.83348649694E+00  0.50915781132E+02  0.16999668140E+03  0.17745980716E+03  0.00000000000E+00 0. -1.
        -11    1    4    4    0    0 -0.91323214752E+01 -0.65210087628E+02  0.19839989454E+03  0.20904131882E+03  0.00000000000E+00 0.  1.
         11    1    4    4    0    0  0.68346982451E+02 -0.30163957289E+02  0.35569814287E+03  0.36345886035E+03  0.00000000000E+00 0. -1.
          1    1    1    2  501    0 -0.13506320528E+03  0.33371818182E+02  0.11016336107E+04  0.11103838795E+04  0.00000000000E+00 0. -1.
<scales pt_clust_5="13000.00000" pt_clust_6="13000.00000" pt_clust_7="13000.00000" pt_clust_8="13000.00000" pt_clust_9="112.85255"></scales>
<clustering>
<clus scale="   80.431">  5  6 -1 -1</clus>
<clus scale="   90.162">  7  8 -1 -1</clus>
<clus scale="  126.754">  1  5  2 -1</clus>
<clus scale="  112.853">  2  9  1 -1</clus>
<clus scale="  112.853">  2  5  1 -1</clus>
</clustering>
</event>
<event>
 9    2  0.1325014E-004  0.1175803E+03  0.7546771E-02  0.1250261E+00
          2   -1    0    0  502    0 -0.00000000000E+00  0.00000000000E+00  0.20323907179E+03  0.20323907179E+03  0.00000000000E+00 0. -1.
         21   -1    0    0  501  502  0.00000000000E+00 -0.00000000000E+00 -0.12233951672E+03  0.12233951672E+03  0.00000000000E+00 0. -1.
         23    2    1    2    0    0 -0.34854081581E+02 -0.70610151009E+02  0.10697303848E+03  0.16102718934E+03  0.91027052662E+02 0.  0.
         24    2    1    2    0    0  0.32023055353E+02  0.50579952156E+02 -0.65266856838E+02  0.12044534408E+03  0.81630329377E+02 0.  0.
        -11    1    4    4    0    0  0.43285553801E+01 -0.22582795574E+02 -0.15385431056E+02  0.27666415315E+02  0.00000000000E+00 0.  1.
         12    1    4    4    0    0  0.27694499973E+02  0.73162747730E+02 -0.49881425782E+02  0.92778928762E+02  0.00000000000E+00 0. -1.
        -11    1    3    3    0    0 -0.14157534824E+02  0.16774115478E+02  0.79350838459E+00  0.21964434842E+02  0.00000000000E+00 0.  1.
         11    1    3    3    0    0 -0.20696546758E+02 -0.87384266487E+02  0.10617953009E+03  0.13906275449E+03  0.00000000000E+00 0. -1.
          1    1    1    2  501    0  0.28310262288E+01  0.20030198852E+02  0.39193373425E+02  0.44106055095E+02  0.00000000000E+00 0. -1.
<scales pt_clust_5="13000.00000" pt_clust_6="13000.00000" pt_clust_7="13000.00000" pt_clust_8="13000.00000" pt_clust_9="20.22929"></scales>
<clustering>
<clus scale="   20.229">  2  9  1 -1</clus>
<clus scale="   81.630">  5  6 -1 -1</clus>
<clus scale="   91.027">  7  8 -1 -1</clus>
<clus scale="  110.466">  2  5  1 -1</clus>
<clus scale="   20.229">  2  5  1 -1</clus>
</clustering>
</event>
<event>
 9    2  0.1325014E-004  0.9472897E+02  0.7546771E-02  0.1300256E+00
         21   -1    0    0  501  502  0.00000000000E+00  0.00000000000E+00  0.60911013551E+02  0.60911013551E+02  0.00000000000E+00 0. -1.
          2   -1    0    0  502    0 -0.00000000000E+00 -0.00000000000E+00 -0.22959832312E+03  0.22959832312E+03  0.00000000000E+00 0. -1.
         24    2    1    2    0    0  0.25993820796E+02  0.41474892008E+00 -0.12005282035E+03  0.14637330343E+03  0.79602848864E+02 0.  0.
         23    2    1    2    0    0  0.14718928028E+02  0.17382553156E+01 -0.30644903338E+02  0.99573845858E+02  0.93574421209E+02 0.  0.
        -13    1    3    3    0    0  0.44858934675E+02 -0.94006020341E+01 -0.11599769532E+03  0.12472433868E+03  0.00000000000E+00 0.  1.
         14    1    3    3    0    0 -0.18865113879E+02  0.98153509542E+01 -0.40551250321E+01  0.21648964757E+02  0.00000000000E+00 0. -1.
        -11    1    4    4    0    0 -0.57163815865E+01  0.37769734056E+02  0.12080719651E+02  0.40064618011E+02  0.00000000000E+00 0.  1.
         11    1    4    4    0    0  0.20435309614E+02 -0.36031478740E+02 -0.42725622989E+02  0.59509227847E+02  0.00000000000E+00 0. -1.
          1    1    1    2  501    0 -0.40712748824E+02 -0.21530042356E+01 -0.17989585881E+02  0.44562187381E+02  0.00000000000E+00 0. -1.
<scales pt_clust_5="13000.00000" pt_clust_6="13000.00000" pt_clust_7="13000.00000" pt_clust_8="13000.00000" pt_clust_9="40.76964"></scales>
<clustering>
<clus scale="   40.770">  1  9  2 -1</clus>
<clus scale="   79.603">  5  6 -1 -1</clus>
<clus scale="   80.957">  2  5  1 -1</clus>
<clus scale="   93.574">  7  8 -1 -1</clus>
<clus scale="   40.770">  1  5  2 -1</clus>
</clustering>
</event>
<event>
 9    2  0.1325014E-004  0.1193437E+03  0.7546771E-02  0.1247899E+00
          2   -1    0    0  502    0 -0.00000000000E+00  0.00000000000E+00  0.10157646410E+04  0.10157646410E+04  0.00000000000E+00 0. -1.
         21   -1    0    0  501  502  0.00000000000E+00 -0.00000000000E+00 -0.32231611507E+02  0.32231611507E+02  0.00000000000E+00 0. -1.
         24    2    1    2    0    0  0.43236184208E+02 -0.94758250412E+02  0.50111266794E+03  0.51813003426E+03  0.80599831182E+02 0.  0.
         23    2    1    2    0    0  0.44961466907E+02  0.40859720035E+02  0.18968988869E+03  0.21942297547E+03  0.92049650014E+02 0.  0.
        -13    1    3    3    0    0 -0.23529877680E+02 -0.28576626539E+02  0.16627191184E+03  0.17034267638E+03  0.00000000000E+00 0.  1.
         14    1    3    3    0    0  0.66766061888E+02 -0.66181623873E+02  0.33484075610E+03  0.34778735789E+03  0.00000000000E+00 0. -1.
        -13    1    4    4    0    0 -0.18702270602E+02 -0.13362084096E+02  0.20959070917E+02  0.31106315609E+02  0.00000000000E+00 0.  1.
         13    1    4    4    0    0  0.63663737509E+02  0.54221804132E+02  0.16873081777E+03  0.18831665987E+03  0.00000000000E+00 0. -1.
          1    1    1    2  501    0 -0.88197651114E+02  0.53898530377E+02  0.29273047286E+03  0.31044324277E+03  0.00000000000E+00 0. -1.
<scales pt_clust_5="13000.00000" pt_clust_6="13000.00000" pt_clust_7="13000.00000" pt_clust_8="13000.00000" pt_clust_9="103.36289"></scales>
<clustering>
<clus scale="   80.600">  5  6 -1 -1</clus>
<clus scale="   92.050">  7  8 -1 -1</clus>
<clus scale="  103.363">  2  9  1 -1</clus>
<clus scale="  110.752">  1  5  2 -1</clus>
<clus scale="  103.363">  2  5  1 -1</clus>
</clustering>
</event>
<event>
 9    2  0.1325014E-004  0.2147906E+03  0.7546771E-02  0.1137828E+00
          2   -1    0    0  502    0 -0.00000000000E+00  0.00000000000E+00  0.52344689111E+03  0.52344689111E+03  0.00000000000E+00 0. -1.
         21   -1    0    0  501  502  0.00000000000E+00 -0.00000000000E+00 -0.51516006707E+02  0.51516006707E+02  0.00000000000E+00 0.  1.
         24    2    1    2    0    0  0.57859180063E+02  0.69001172662E+02  0.13698115810E+03  0.18206931262E+03  0.79224682870E+02 0.  0.
         23    2    1    2    0    0  0.10922324847E+02  0.17659441781E+02  0.13638654762E+03  0.16558697852E+03  0.91578403672E+02 0.  0.
        -13    1    3    3    0    0 -0.42103170308E+01  0.55100553441E+02  0.51658430735E+02  0.75646488517E+02  0.00000000000E+00 0.  1.
         14    1    3    3    0    0  0.62069497094E+02  0.13900619222E+02  0.85322727366E+02  0.10642282410E+03  0.00000000000E+00 0. -1.
        -11    1    4    4    0    0  0.50881104647E+02  0.44201387042E+01  0.84955000299E+02  0.99125054916E+02  0.00000000000E+00 0.  1.
         11    1    4    4    0    0 -0.39958779800E+02  0.13239303077E+02  0.51431547320E+02  0.66461923601E+02  0.00000000000E+00 0. -1.
          1    1    1    2  501    0 -0.68781504910E+02 -0.86660614443E+02  0.19856317868E+03  0.22730660668E+03  0.00000000000E+00 0. -1.
<scales pt_clust_5="13000.00000" pt_clust_6="13000.00000" pt_clust_7="13000.00000" pt_clust_8="13000.00000" pt_clust_9="110.63892"></scales>
<clustering>
<clus scale="   79.225">  5  6 -1 -1</clus>
<clus scale="   91.578">  7  8 -1 -1</clus>
<clus scale="   91.812">  5  7 -1 -1</clus>
<clus scale="  110.639">  2  9  1 -1</clus>
<clus scale="  110.639">  2  5  1 -1</clus>
</clustering>
</event>
<event>
 9    2  0.1325014E-004  0.2380416E+03  0.7546771E-02  0.1122210E+00
         21   -1    0    0  501  502  0.00000000000E+00  0.00000000000E+00  0.11152506152E+03  0.11152506152E+03  0.00000000000E+00 0. -1.
          2   -1    0    0  502    0 -0.00000000000E+00 -0.00000000000E+00 -0.56200264747E+03  0.56200264747E+03  0.00000000000E+00 0. -1.
         23    2    1    2    0    0  0.17602318489E+03 -0.12632728419E+03 -0.26228439862E+03  0.35411154748E+03  0.98280913444E+02 0.  0.
         24    2    1    2    0    0 -0.18918112790E+03  0.10769274245E+03 -0.15576565226E+03  0.27976868189E+03  0.81365539467E+02 0.  0.
        -13    1    4    4    0    0 -0.14120562643E+03  0.50310086999E+02 -0.68427240441E+02  0.16477991693E+03  0.00000000000E+00 0.  1.
         14    1    4    4    0    0 -0.47975501472E+02  0.57382655455E+02 -0.87338411821E+02  0.11498876496E+03  0.00000000000E+00 0. -1.
        -11    1    3    3    0    0  0.14816000142E+03 -0.13991579892E+03 -0.24480325505E+03  0.31852229199E+03  0.00000000000E+00 0. -1.
         11    1    3    3    0    0  0.27863183472E+02  0.13588514735E+02 -0.17481143570E+02  0.35589255491E+02  0.00000000000E+00 0.  1.
          1    1    1    2  501    0  0.13157943008E+02  0.18634541731E+02 -0.32427535069E+02  0.39647479622E+02  0.00000000000E+00 0. -1.
<scales pt_clust_5="13000.00000" pt_clust_6="13000.00000" pt_clust_7="13000.00000" pt_clust_8="13000.00000" pt_clust_9="22.81180"></scales>
<clustering>
<clus scale="   22.812">  1  9  2 -1</clus>
<clus scale="   81.366">  5  6 -1 -1</clus>
<clus scale="   98.281">  7  8 -1 -1</clus>
<clus scale="  231.571">  1  5  2 -1</clus>
<clus scale="   22.812">  1  5  2 -1</clus>
</clustering>
</event>
<event>
 9    2  0.1325014E-004  0.2436884E+03  0.7546771E-02  0.1132421E+00
          2   -1    0    0  502    0 -0.00000000000E+00  0.00000000000E+00  0.26040237369E+03  0.26040237369E+03  0.00000000000E+00 0. -1.
         21   -1    0    0  501  502  0.00000000000E+00 -0.00000000000E+00 -0.42797039502E+03  0.42797039502E+03  0.00000000000E+00 0. -1.
         24    2    1    2    0    0  0.92456478494E+02  0.11198911277E+03 -0.87407096280E+02  0.18916483138E+03  0.83985541362E+02 0.  0.
         23    2    1    2    0    0  0.16830058786E+03 -0.12346435622E+01  0.34013418866E+02  0.19376304719E+03  0.89780808505E+02 0.  0.
        -13    1    3    3    0    0  0.79989938439E+02  0.42348806735E+02 -0.74550825586E+02  0.11725884734E+03  0.00000000000E+00 0.  1.
         14    1    3    3    0    0  0.12466540054E+02  0.69640306034E+02 -0.12856270694E+02  0.71905984045E+02  0.00000000000E+00 0. -1.
        -13    1    4    4    0    0  0.22381370219E+02  0.32517519754E+02  0.17166777069E+02  0.43046638182E+02  0.00000000000E+00 0.  1.
         13    1    4    4    0    0  0.14591921764E+03 -0.33752163316E+02  0.16846641797E+02  0.15071640901E+03  0.00000000000E+00 0. -1.
          1    1    1    2  501    0 -0.26075706635E+03 -0.11075446921E+03 -0.11417434392E+03  0.30544489014E+03  0.00000000000E+00 0. -1.
<scales pt_clust_5="13000.00000" pt_clust_6="13000.00000" pt_clust_7="13000.00000" pt_clust_8="13000.00000" pt_clust_9="226.54678"></scales>
<clustering>
<clus scale="   83.986">  5  6 -1 -1</clus>
<clus scale="   89.781">  7  8 -1 -1</clus>
<clus scale="  167.760">  1  5  2 -1</clus>
<clus scale="  226.547">  2  9  1 -1</clus>
<clus scale="  226.547">  2  5  1 -1</clus>
</clustering>
</event>
<event>
 9    2  0.1325014E-004  0.9739936E+02  0.7546771E-02  0.1292663E+00
         21   -1    0    0  501  502  0.00000000000E+00  0.00000000000E+00  0.41098721044E+02  0.41098721044E+02  0.00000000000E+00 0. -1.
          2   -1    0    0  502    0 -0.00000000000E+00 -0.00000000000E+00 -0.75064836216E+03  0.75064836216E+03  0.00000000000E+00 0. -1.
         24    2    1    2    0    0  0.17914972330E+02 -0.14327831881E+02 -0.46546905294E+03  0.47292810313E+03  0.80456935611E+02 0.  0.
         23    2    1    2    0    0 -0.38366815036E+00  0.67958785706E+02 -0.23504688233E+03  0.26167675684E+03  0.92785475280E+02 0.  0.
        -13    1    3    3    0    0  0.40853161998E+02 -0.32743284096E+02 -0.24701805416E+03  0.25250549020E+03  0.00000000000E+00 0.  1.
         14    1    3    3    0    0 -0.22938189667E+02  0.18415452215E+02 -0.21845099878E+03  0.22042261293E+03  0.00000000000E+00 0. -1.
        -13    1    4    4    0    0 -0.44603656158E+02  0.29301772471E+02 -0.82966218290E+02  0.98648230546E+02  0.00000000000E+00 0.  1.
         13    1    4    4    0    0  0.44219988007E+02  0.38657013235E+02 -0.15208066404E+03  0.16302852630E+03  0.00000000000E+00 0. -1.
          1    1    1    2  501    0 -0.17531304180E+02 -0.53630953825E+02 -0.90337058496E+01  0.57142223231E+02  0.00000000000E+00 0. -1.
<scales pt_clust_5="13000.00000" pt_clust_6="13000.00000" pt_clust_7="13000.00000" pt_clust_8="13000.00000" pt_clust_9="56.42363"></scales>
<clustering>
<clus scale="   56.424">  1  9  2 -1</clus>
<clus scale="   80.457">  5  6 -1 -1</clus>
<clus scale="   85.737">  2  5  1 -1</clus>
<clus scale="   92.785">  7  8 -1 -1</clus>
<clus scale="   56.424">  1  5  2 -1</clus>
</clustering>
</event>
<event>
 9    2  0.1325014E-004  0.9704711E+02  0.7546771E-02  0.1297662E+00
          2   -1    0    0  502    0 -0.00000000000E+00  0.00000000000E+00  0.56745401664E+02  0.56745401664E+02  0.00000000000E+00 0. -1.
         21   -1    0    0  501  502  0.00000000000E+00 -0.00000000000E+00 -0.19456485655E+03  0.19456485655E+03  0.00000000000E+00 0.  1.
         24    2    1    2    0    0 -0.20150334307E+02 -0.28819504183E+02 -0.22618599954E+02  0.84323777444E+02  0.73227717323E+02 0.  0.
         23    2    1    2    0    0  0.22322302294E+02  0.63536473647E+01 -0.76557053216E+02  0.12223410007E+03  0.92420445830E+02 0.  0.
        -13    1    3    3    0    0 -0.46781329721E+02 -0.27619469000E+02 -0.12045155260E+02  0.55645427877E+02  0.00000000000E+00 0.  1.
         14    1    3    3    0    0  0.26630995414E+02 -0.12000351830E+01 -0.10573444694E+02  0.28678349567E+02  0.00000000000E+00 0. -1.
        -11    1    4    4    0    0  0.15484454401E+02 -0.41965699752E+02 -0.48348825153E+02  0.65867269394E+02  0.00000000000E+00 0.  1.
         11    1    4    4    0    0  0.68378478929E+01  0.48319347117E+02 -0.28208228063E+02  0.56366830672E+02  0.00000000000E+00 0. -1.
          1    1    1    2  501    0 -0.21719679870E+01  0.22465856818E+02 -0.38643801715E+02  0.44752380702E+02  0.00000000000E+00 0. -1.
<scales pt_clust_5="13000.00000" pt_clust_6="13000.00000" pt_clust_7="13000.00000" pt_clust_8="13000.00000" pt_clust_9="22.57060"></scales>
<clustering>
<clus scale="   22.571">  2  9  1 -1</clus>
<clus scale="   73.228">  5  6 -1 -1</clus>
<clus scale="   78.987">  1  5  2 -1</clus>
<clus scale="   92.420">  7  8 -1 -1</clus>
<clus scale="   22.571">  2  5  1 -1</clus>
</clustering>
</event>
<event>
 9    2  0.1325014E-004  0.9372311E+02  0.7546771E-02  0.1298796E+00
         21   -1    0    0  501  502  0.00000000000E+00  0.00000000000E+00  0.15172095937E+02  0.15172095937E+02  0.00000000000E+00 0. -1.
          2   -1    0    0  502    0 -0.00000000000E+00 -0.00000000000E+00 -0.15756759933E+04  0.15756759933E+04  0.00000000000E+00 0. -1.
         24    2    1    2    0    0  0.12414614724E+02 -0.24642802863E+02 -0.89498079466E+03  0.89913039986E+03  0.81752447955E+02 0.  0.
         23    2    1    2    0    0 -0.62281366423E+02 -0.28028860588E+02 -0.34221313473E+03  0.36037144684E+03  0.89962016904E+02 0.  0.
        -11    1    3    3    0    0 -0.26305597712E+02 -0.20096969610E+01 -0.12060198812E+03  0.12345388974E+03  0.00000000000E+00 0.  1.
         12    1    3    3    0    0  0.38720212437E+02 -0.22633105902E+02 -0.77437880654E+03  0.77567651012E+03  0.00000000000E+00 0. -1.
        -11    1    4    4    0    0 -0.54293516612E+02  0.24679573628E+02 -0.18017884972E+03  0.18979274271E+03  0.00000000000E+00 0.  1.
         11    1    4    4    0    0 -0.79878498118E+01 -0.52708434216E+02 -0.16203428501E+03  0.17057870412E+03  0.00000000000E+00 0. -1.
          1    1    1    2  501    0  0.49866751699E+02  0.52671663451E+02 -0.32330996799E+03  0.33134624256E+03  0.00000000000E+00 0. -1.
<scales pt_clust_5="13000.00000" pt_clust_6="13000.00000" pt_clust_7="13000.00000" pt_clust_8="13000.00000" pt_clust_9="72.53273"></scales>
<clustering>
<clus scale="   72.533">  1  9  2 -1</clus>
<clus scale="   81.752">  5  6 -1 -1</clus>
<clus scale="   85.874">  2  5  1 -1</clus>
<clus scale="   89.962">  7  8 -1 -1</clus>
<clus scale="   72.533">  1  5  2 -1</clus>
</clustering>
</event>
<event>
 9    2  0.1325014E-004  0.9570831E+02  0.7546771E-02  0.1296287E+00
         21   -1    0    0  501  502  0.00000000000E+00  0.00000000000E+00  0.21355204110E+03  0.21355204110E+03  0.00000000000E+00 0.  1.
          2   -1    0    0  502    0 -0.00000000000E+00 -0.00000000000E+00 -0.15133618437E+03  0.15133618437E+03  0.00000000000E+00 0. -1.
         24    2    1    2    0    0 -0.42720158766E+01 -0.25294021557E+02 -0.11737781492E+03  0.14486663330E+03  0.80936718260E+02 0.  0.
         23    2    1    2    0    0  0.16694337855E+02  0.21175866445E+01  0.16497827571E+03  0.18993719394E+03  0.92601949729E+02 0.  0.
        -11    1    3    3    0    0 -0.36967195324E+02 -0.45253671148E+01 -0.25440205637E+02  0.45102733182E+02  0.00000000000E+00 0.  1.
         12    1    3    3    0    0  0.32695179447E+02 -0.20768654442E+02 -0.91937609284E+02  0.99763900120E+02  0.00000000000E+00 0. -1.
        -13    1    4    4    0    0 -0.20925641835E+02  0.32387901071E+02  0.11103276034E+03  0.11753779175E+03  0.00000000000E+00 0.  1.
         13    1    4    4    0    0  0.37619979690E+02 -0.30270314426E+02  0.53945515372E+02  0.72399402181E+02  0.00000000000E+00 0. -1.
          1    1    1    2  501    0 -0.12422321979E+02  0.23176434912E+02  0.14615395941E+02  0.30084398234E+02  0.00000000000E+00 0. -1.
<scales pt_clust_5="13000.00000" pt_clust_6="13000.00000" pt_clust_7="13000.00000" pt_clust_8="13000.00000" pt_clust_9="26.29565"></scales>
<clustering>
<clus scale="   26.296">  1  9  2 -1</clus>
<clus scale="   80.937">  5  6 -1 -1</clus>
<clus scale="   84.473">  2  5  1 -1</clus>
<clus scale="   92.602">  7  8 -1 -1</clus>
<clus scale="   26.296">  1  5  2 -1</clus>
</clustering>
</event>
<event>
 9    2  0.1325014E-004  0.1129001E+03  0.7546771E-02  0.1259800E+00
         -3   -1    0    0    0  501 -0.00000000000E+00  0.00000000000E+00  0.33163566716E+03  0.33163566716E+03  0.00000000000E+00 0.  1.
         21   -1    0    0  501  502  0.00000000000E+00 -0.00000000000E+00 -0.83526220794E+02  0.83526220794E+02  0.00000000000E+00 0. -1.
         24    2    1    2    0    0  0.27328708150E+02  0.78724430813E+02  0.20097838673E+03  0.23144016711E+03  0.78916694812E+02 0.  0.
         23    2    1    2    0    0 -0.56461407176E+00 -0.41690053020E+02  0.79335297754E+02  0.12782024660E+03  0.91134771971E+02 0.  0.
        -11    1    3    3    0    0  0.28110975680E+02  0.43636380165E+02  0.18630257022E+03  0.19339857367E+03  0.00000000000E+00 0.  1.
         12    1    3    3    0    0 -0.78226753021E+00  0.35088050648E+02  0.14675816515E+02  0.38041593436E+02  0.00000000000E+00 0. -1.
        -13    1    4    4    0    0 -0.25492111896E+02 -0.48355990229E+02  0.85322336627E+02  0.10133139043E+03  0.00000000000E+00 0.  1.
         13    1    4    4    0    0  0.24927497824E+02  0.66659372093E+01 -0.59870388735E+01  0.26488856169E+02  0.00000000000E+00 0. -1.
         -4    1    1    2    0  502 -0.26764094078E+02 -0.37034377794E+02 -0.32204238118E+02  0.55901474248E+02  0.00000000000E+00 0.  1.
<scales pt_clust_5="13000.00000" pt_clust_6="13000.00000" pt_clust_7="13000.00000" pt_clust_8="13000.00000" pt_clust_9="45.69313"></scales>
<clustering>
<clus scale="   45.693">  2  9  1 -1</clus>
<clus scale="   78.917">  5  6 -1 -1</clus>
<clus scale="   91.135">  7  8 -1 -1</clus>
<clus scale="  103.290">  1  5  2 -1</clus>
<clus scale="   45.693">  2  5  1 -1</clus>
</clustering>
</event>
<event>
 9    2  0.1325014E-004  0.9804917E+02  0.7546771E-02  0.1286380E+00
         21   -1    0    0  501  502  0.00000000000E+00  0.00000000000E+00  0.22969670424E+02  0.22969670424E+02  0.00000000000E+00 0.  1.
          2   -1    0    0  502    0 -0.00000000000E+00 -0.00000000000E+00 -0.96272595956E+03  0.96272595956E+03  0.00000000000E+00 0. -1.
         24    2    1    2    0    0  0.10232874712E+01  0.50778059136E+02 -0.71073269989E+03  0.71749374480E+03  0.84123984303E+02 0.  0.
         23    2    1    2    0    0  0.14478242668E+02 -0.21299407700E+02 -0.21157023661E+03  0.23059991920E+03  0.88040180818E+02 0.  0.
        -11    1    3    3    0    0  0.27075793635E+02  0.61615259985E+01 -0.80652560993E+02  0.85298878060E+02  0.00000000000E+00 0.  1.
         12    1    3    3    0    0 -0.26052506163E+02  0.44616533138E+02 -0.63008013890E+03  0.63219486674E+03  0.00000000000E+00 0. -1.
        -13    1    4    4    0    0 -0.19667391596E+02 -0.45704689541E+02 -0.11392902672E+03  0.12432034454E+03  0.00000000000E+00 0.  1.
         13    1    4    4    0    0  0.34145634264E+02  0.24405281841E+02 -0.97641209895E+02  0.10627957466E+03  0.00000000000E+00 0. -1.
          1    1    1    2  501    0 -0.15501530139E+02 -0.29478651436E+02 -0.17453352638E+02  0.37601965978E+02  0.00000000000E+00 0. -1.
<scales pt_clust_5="13000.00000" pt_clust_6="13000.00000" pt_clust_7="13000.00000" pt_clust_8="13000.00000" pt_clust_9="33.30598"></scales>
<clustering>
<clus scale="   33.306">  1  9  2 -1</clus>
<clus scale="   84.124">  5  6 -1 -1</clus>
<clus scale="   88.040">  7  8 -1 -1</clus>
<clus scale="   94.548">  2  5  1 -1</clus>
<clus scale="   33.306">  1  5  2 -1</clus>
</clustering>
</event>
<event>
 9    2  0.1325014E-004  0.1006618E+03  0.7546771E-02  0.1286332E+00
          2   -1    0    0  502    0 -0.00000000000E+00  0.00000000000E+00  0.17229185931E+04  0.17229185931E+04  0.00000000000E+00 0. -1.
         21   -1    0    0  501  502  0.00000000000E+00 -0.00000000000E+00 -0.52100014507E+02  0.52100014507E+02  0.00000000000E+00 0. -1.
         24    2    1    2    0    0 -0.21010743050E+02 -0.35493828608E+02  0.15256902834E+04  0.15282190998E+04  0.77598408225E+02 0.  0.
         23    2    1    2    0    0  0.35979698884E+02  0.13880614839E+02  0.17833672666E+03  0.20444386392E+03  0.92228494615E+02 0.  0.
        -13    1    3    3    0    0 -0.21145584779E+02  0.50938358546E+01  0.12079148011E+03  0.12273412152E+03  0.00000000000E+00 0.  1.
         14    1    3    3    0    0  0.13484172841E+00 -0.40587664463E+02  0.14048988033E+04  0.14054849783E+04  0.00000000000E+00 0. -1.
        -13    1    4    4    0    0  0.74688846410E+01  0.45151954589E+02  0.43567979822E+02  0.63187436305E+02  0.00000000000E+00 0.  1.
         13    1    4    4    0    0  0.28510814243E+02 -0.31271339750E+02  0.13476874684E+03  0.14125642762E+03  0.00000000000E+00 0. -1.
          1    1    1    2  501    0 -0.14968955834E+02  0.21613213770E+02 -0.33208431466E+02  0.42355643881E+02  0.00000000000E+00 0. -1.
<scales pt_clust_5="13000.00000" pt_clust_6="13000.00000" pt_clust_7="13000.00000" pt_clust_8="13000.00000" pt_clust_9="26.29070"></scales>
<clustering>
<clus scale="   26.291">  2  9  1 -1</clus>
<clus scale="   77.598">  5  6 -1 -1</clus>
<clus scale="   87.454">  1  5  2 -1</clus>
<clus scale="   92.228">  7  8 -1 -1</clus>
<clus scale="   26.291">  2  5  1 -1</clus>
</clustering>
</event>
<event>
 9    2  0.1325014E-004  0.8858031E+02  0.7546771E-02  0.1307622E+00
         21   -1    0    0  501  502  0.00000000000E+00  0.00000000000E+00  0.17753508423E+03  0.17753508423E+03  0.00000000000E+00 0. -1.
          2   -1    0    0  502    0 -0.00000000000E+00 -0.00000000000E+00 -0.33997399047E+03  0.33997399047E+03  0.00000000000E+00 0. -1.
         24    2    1    2    0    0 -0.24546150061E+02  0.29777137563E+02 -0.30218911154E+03  0.31470599972E+03  0.78945650411E+02 0.  0.
         23    2    1    2    0    0 -0.10979957159E+02 -0.13559444170E+02  0.33426647597E+02  0.89534293762E+02  0.81207333441E+02 0.  0.
        -13    1    3    3    0    0 -0.32483661271E+01 -0.25297784737E+02 -0.56008155078E+02  0.61542206902E+02  0.00000000000E+00 0.  1.
         14    1    3    3    0    0 -0.21297783934E+02  0.55074922300E+02 -0.24618095647E+03  0.25316379282E+03  0.00000000000E+00 0. -1.
        -11    1    4    4    0    0 -0.68603427895E+01 -0.46799896258E+02  0.91751044855E+01  0.48181709552E+02  0.00000000000E+00 0.  1.
         11    1    4    4    0    0 -0.41196143696E+01  0.33240452089E+02  0.24251543111E+02  0.41352584211E+02  0.00000000000E+00 0. -1.
          1    1    1    2  501    0  0.35526107220E+02 -0.16217693393E+02  0.10632355771E+03  0.11326878121E+03  0.00000000000E+00 0. -1.
<scales pt_clust_5="13000.00000" pt_clust_6="13000.00000" pt_clust_7="13000.00000" pt_clust_8="13000.00000" pt_clust_9="39.05276"></scales>
<clustering>
<clus scale="   39.053">  1  9  2 -1</clus>
<clus scale="   78.946">  5  6 -1 -1</clus>
<clus scale="   81.207">  7  8 -1 -1</clus>
<clus scale="   86.512">  2  5  1 -1</clus>
<clus scale="   39.053">  1  5  2 -1</clus>
</clustering>
</event>
<event>
 9    2  0.1325014E-004  0.1270118E+03  0.7546771E-02  0.1236225E+00
         -1   -1    0    0    0  501 -0.00000000000E+00  0.00000000000E+00  0.18359250266E+03  0.18359250266E+03  0.00000000000E+00 0.  1.
         21   -1    0    0  501  502  0.00000000000E+00 -0.00000000000E+00 -0.12601260091E+03  0.12601260091E+03  0.00000000000E+00 0.  1.
         23    2    1    2    0    0 -0.24992669784E+02  0.62002822155E+02  0.18380237698E+02  0.11458670287E+03  0.91232098730E+02 0.  0.
         24    2    1    2    0    0  0.91663791417E+01 -0.11259782709E+03  0.40786012783E+02  0.14198216307E+03  0.75717518574E+02 0.  0.
        -13    1    4    4    0    0  0.28607402349E+02 -0.10668359910E+03  0.47982685779E+02  0.12042471474E+03  0.00000000000E+00 0.  1.
         14    1    4    4    0    0 -0.19441023207E+02 -0.59142279850E+01 -0.71966729959E+01  0.21557448323E+02  0.00000000000E+00 0. -1.
        -13    1    3    3    0    0  0.18678640698E+02  0.30603061375E+02 -0.26460000186E+02  0.44559741849E+02  0.00000000000E+00 0.  1.
         13    1    3    3    0    0 -0.43671310482E+02  0.31399760780E+02  0.44840237885E+02  0.70026961021E+02  0.00000000000E+00 0. -1.
         -2    1    1    2    0  502  0.15826290642E+02  0.50595004933E+02 -0.15863487248E+01  0.53036237630E+02  0.00000000000E+00 0.  1.
<scales pt_clust_5="13000.00000" pt_clust_6="13000.00000" pt_clust_7="13000.00000" pt_clust_8="13000.00000" pt_clust_9="53.01251"></scales>
<clustering>
<clus scale="   53.013">  2  9  1 -1</clus>
<clus scale="   75.718">  5  6 -1 -1</clus>
<clus scale="   91.232">  7  8 -1 -1</clus>
<clus scale="  116.369">  2  5  1 -1</clus>
<clus scale="   53.013">  2  5  1 -1</clus>
</clustering>
</event>
<event>
 9    2  0.1325014E-004  0.1382704E+03  0.7546771E-02  0.1241832E+00
         21   -1    0    0  501  502  0.00000000000E+00  0.00000000000E+00  0.34252237592E+02  0.34252237592E+02  0.00000000000E+00 0. -1.
          2   -1    0    0  502    0 -0.00000000000E+00 -0.00000000000E+00 -0.12504282373E+04  0.12504282373E+04  0.00000000000E+00 0. -1.
         24    2    1    2    0    0  0.10536596697E+02  0.35811653081E+01 -0.70262819918E+03  0.70722151093E+03  0.79699652560E+02 0.  0.
         23    2    1    2    0    0 -0.11157459895E+03  0.80450985186E+01 -0.39918016045E+03  0.42441058924E+03  0.90917176711E+02 0.  0.
        -13    1    3    3    0    0  0.16617719069E+02 -0.22876597791E+02 -0.98350246644E+02  0.10233405263E+03  0.00000000000E+00 0.  1.
         14    1    3    3    0    0 -0.60811223724E+01  0.26457763099E+02 -0.60427795254E+03  0.60488745830E+03  0.00000000000E+00 0. -1.
        -13    1    4    4    0    0 -0.24529250673E+02 -0.38099565454E+02 -0.13917609958E+03  0.14636682589E+03  0.00000000000E+00 0.  1.
         13    1    4    4    0    0 -0.87045348276E+02  0.46144663972E+02 -0.26000406087E+03  0.27804376335E+03  0.00000000000E+00 0. -1.
          1    1    1    2  501    0  0.10103800225E+03 -0.11626263827E+02 -0.11436764008E+03  0.15304837473E+03  0.00000000000E+00 0. -1.
<scales pt_clust_5="13000.00000" pt_clust_6="13000.00000" pt_clust_7="13000.00000" pt_clust_8="13000.00000" pt_clust_9="104.17660"></scales>
<clustering>
<clus scale="   79.700">  5  6 -1 -1</clus>
<clus scale="   80.473">  2  5  1 -1</clus>
<clus scale="   90.917">  7  8 -1 -1</clus>
<clus scale="  104.177">  1  9  2 -1</clus>
<clus scale="  104.177">  1  5  2 -1</clus>
</clustering>
</event>
<event>
 9    2  0.1325014E-004  0.9982862E+02  0.7546771E-02  0.1287172E+00
         21   -1    0    0  501  502  0.00000000000E+00  0.00000000000E+00  0.29152520238E+03  0.29152520238E+03  0.00000000000E+00 0.  1.
          2   -1    0    0  502    0 -0.00000000000E+00 -0.00000000000E+00 -0.76824569166E+02  0.76824569166E+02  0.00000000000E+00 0. -1.
         24    2    1    2    0    0 -0.31454144766E+02  0.25773967627E+02  0.44529524915E+02  0.10064386979E+03  0.80576977526E+02 0.  0.
         23    2    1    2    0    0 -0.85709246709E+01 -0.38996318411E+02  0.19430756475E+03  0.21913219205E+03  0.93109152475E+02 0.  0.
        -13    1    3    3    0    0 -0.42616800387E+02  0.47363367821E+02  0.41765084682E+02  0.76182692162E+02  0.00000000000E+00 0.  1.
         14    1    3    3    0    0  0.11162655620E+02 -0.21589400194E+02  0.27644402324E+01  0.24461177630E+02  0.00000000000E+00 0. -1.
        -13    1    4    4    0    0 -0.29478799309E+02 -0.54992340188E+02  0.17687649602E+03  0.18755919581E+03  0.00000000000E+00 0.  1.
         13    1    4    4    0    0  0.20907874638E+02  0.15996021777E+02  0.17431068727E+02  0.31572996239E+02  0.00000000000E+00 0. -1.
          1    1    1    2  501    0  0.40025069437E+02  0.13222350784E+02 -0.24136456455E+02  0.48573709699E+02  0.00000000000E+00 0. -1.
<scales pt_clust_5="13000.00000" pt_clust_6="13000.00000" pt_clust_7="13000.00000" pt_clust_8="13000.00000" pt_clust_9="42.15256"></scales>
<clustering>
<clus scale="   42.153">  1  9  2 -1</clus>
<clus scale="   80.577">  5  6 -1 -1</clus>
<clus scale="   88.256">  2  5  1 -1</clus>
<clus scale="   93.109">  7  8 -1 -1</clus>
<clus scale="   42.153">  1  5  2 -1</clus>
</clustering>
</event>
<event>
 9    2  0.1325014E-004  0.1305992E+03  0.7546771E-02  0.1229758E+00
         -3   -1    0    0    0  501 -0.00000000000E+00  0.00000000000E+00  0.33471863772E+02  0.33471863772E+02  0.00000000000E+00 0.  1.
         21   -1    0    0  501  502  0.00000000000E+00 -0.00000000000E+00 -0.66283413986E+03  0.66283413986E+03  0.00000000000E+00 0.  1.
         23    2    1    2    0    0 -0.86173037810E+02  0.57108764641E+02 -0.25192486845E+03  0.28680057577E+03  0.90006819050E+02 0.  0.
         24    2    1    2    0    0  0.49426140143E+02 -0.74318212510E+02 -0.27326648278E+03  0.29771061058E+03  0.77400885029E+02 0.  0.
        -13    1    4    4    0    0  0.29636625336E+02 -0.34230535635E+02 -0.23358819211E+03  0.23793592126E+03  0.00000000000E+00 0.  1.
         14    1    4    4    0    0  0.19789514807E+02 -0.40087676874E+02 -0.39678290666E+02  0.59774689323E+02  0.00000000000E+00 0. -1.
        -13    1    3    3    0    0 -0.15381716542E+02  0.35110460018E+02 -0.17810636297E+03  0.18218457162E+03  0.00000000000E+00 0. -1.
         13    1    3    3    0    0 -0.70791321268E+02  0.21998304623E+02 -0.73818505478E+02  0.10461600415E+03  0.00000000000E+00 0.  1.
         -4    1    1    2    0  502  0.36746897667E+02  0.17209447869E+02 -0.10417092486E+03  0.11179481728E+03  0.00000000000E+00 0.  1.
<scales pt_clust_5="13000.00000" pt_clust_6="13000.00000" pt_clust_7="13000.00000" pt_clust_8="13000.00000" pt_clust_9="40.57708"></scales>
<clustering>
<clus scale="   40.577">  2  9  1 -1</clus>
<clus scale="   77.401">  5  6 -1 -1</clus>
<clus scale="   90.007">  7  8 -1 -1</clus>
<clus scale="  122.253">  2  5  1 -1</clus>
<clus scale="   40.577">  2  5  1 -1</clus>
</clustering>
</event>
<event>
 9    2  0.1325014E-004  0.1320941E+03  0.7546771E-02  0.1245084E+00
         21   -1    0    0  501  502  0.00000000000E+00  0.00000000000E+00  0.15901109255E+03  0.15901109255E+03  0.00000000000E+00 0. -1.
          2   -1    0    0  502    0 -0.00000000000E+00 -0.00000000000E+00 -0.25547139126E+03  0.25547139126E+03  0.00000000000E+00 0. -1.
         24    2    1    2    0    0  0.23084890842E+02  0.23547080144E+02 -0.10961932885E+03  0.13959494612E+03  0.79893520114E+02 0.  0.
         23    2    1    2    0    0 -0.47931463004E+02  0.71781708124E+02 -0.72023781383E+02  0.14465297469E+03  0.91033066710E+02 0.  0.
        -13    1    3    3    0    0  0.25702653394E+02  0.83693235724E+01  0.18239454393E+01  0.27092411216E+02  0.00000000000E+00 0.  1.
         14    1    3    3    0    0 -0.26177625523E+01  0.15177756572E+02 -0.11144327429E+03  0.11250253491E+03  0.00000000000E+00 0. -1.
        -13    1    4    4    0    0 -0.12353037266E+02  0.86169580190E+02 -0.51153546862E+02  0.10096771482E+03  0.00000000000E+00 0.  1.
         13    1    4    4    0    0 -0.35578425739E+02 -0.14387872066E+02 -0.20870234520E+02  0.43685259866E+02  0.00000000000E+00 0. -1.
          1    1    1    2  501    0  0.24846572163E+02 -0.95328788268E+02  0.85182811520E+02  0.13023456300E+03  0.00000000000E+00 0. -1.
<scales pt_clust_5="13000.00000" pt_clust_6="13000.00000" pt_clust_7="13000.00000" pt_clust_8="13000.00000" pt_clust_9="95.71749"></scales>
<clustering>
<clus scale="   79.894">  5  6 -1 -1</clus>
<clus scale="   86.431">  2  5  1 -1</clus>
<clus scale="   91.033">  7  8 -1 -1</clus>
<clus scale="   95.717">  1  9  2 -1</clus>
<clus scale="   95.717">  1  5  2 -1</clus>
</clustering>
</event>
<event>
 9    2  0.1325014E-004  0.1240976E+03  0.7546771E-02  0.1256994E+00
          4   -1    0    0  502    0 -0.00000000000E+00  0.00000000000E+00  0.20765731136E+03  0.20765731136E+03  0.00000000000E+00 0. -1.
         21   -1    0    0  501  502  0.00000000000E+00 -0.00000000000E+00 -0.10418054644E+03  0.10418054644E+03  0.00000000000E+00 0. -1.
         24    2    1    2    0    0  0.11857062099E+02  0.12426341847E+02  0.30634408020E+02  0.87721243507E+02  0.80383740361E+02 0.  0.
         23    2    1    2    0    0  0.58611481052E+02 -0.58028329200E+02  0.65262744989E+02  0.13983845970E+03  0.92157344946E+02 0.  0.
        -13    1    3    3    0    0 -0.28016036137E+02  0.13764137897E+01  0.36391137516E+02  0.45946791895E+02  0.00000000000E+00 0.  1.
         14    1    3    3    0    0  0.39873098236E+02  0.11049928057E+02 -0.57567294961E+01  0.41774451612E+02  0.00000000000E+00 0. -1.
        -13    1    4    4    0    0 -0.10737098791E+02 -0.51115556360E+02  0.39698975244E+02  0.65605594486E+02  0.00000000000E+00 0.  1.
         13    1    4    4    0    0  0.69348579843E+02 -0.69127728405E+01  0.25563769746E+02  0.74232865217E+02  0.00000000000E+00 0. -1.
          3    1    1    2  501    0 -0.70468543151E+02  0.45601987353E+02  0.75796119065E+01  0.84278154590E+02  0.00000000000E+00 0. -1.
<scales pt_clust_5="13000.00000" pt_clust_6="13000.00000" pt_clust_7="13000.00000" pt_clust_8="13000.00000" pt_clust_9="83.10979"></scales>
<clustering>
<clus scale="   80.384">  5  6 -1 -1</clus>
<clus scale="   82.198">  1  5  2 -1</clus>
<clus scale="   83.110">  2  9  1 -1</clus>
<clus scale="   92.157">  7  8 -1 -1</clus>
<clus scale="   83.110">  2  5  1 -1</clus>
</clustering>
</event>
<event>
 9    2  0.1325014E-004  0.1061700E+03  0.7546771E-02  0.1273025E+00
          2   -1    0    0  502    0 -0.00000000000E+00  0.00000000000E+00  0.81523294214E+03  0.81523294214E+03  0.00000000000E+00 0. -1.
         21   -1    0    0  501  502  0.00000000000E+00 -0.00000000000E+00 -0.79892057861E+02  0.79892057861E+02  0.00000000000E+00 0. -1.
         23    2    1    2    0    0 -0.18265250900E+01 -0.41064633482E+02  0.42461371029E+03  0.43642629830E+03  0.92094899758E+02 0.  0.
         24    2    1    2    0    0 -0.87452483049E+02  0.53092014357E+02  0.33997894811E+03  0.36398299301E+03  0.80194982768E+02 0.  0.
        -11    1    4    4    0    0 -0.32040030722E+02  0.65648896923E+02  0.18329891377E+03  0.19731911470E+03  0.00000000000E+00 0.  1.
         12    1    4    4    0    0 -0.55412452327E+02 -0.12556882566E+02  0.15668003434E+03  0.16666387831E+03  0.00000000000E+00 0. -1.
        -13    1    3    3    0    0 -0.31363860706E+02 -0.58558261825E+02  0.28876080158E+03  0.29630315947E+03  0.00000000000E+00 0. -1.
         13    1    3    3    0    0  0.29537335616E+02  0.17493628343E+02  0.13585290872E+03  0.14012313883E+03  0.00000000000E+00 0.  1.
          1    1    1    2  501    0  0.89279008139E+02 -0.12027380875E+02 -0.29251774119E+02  0.94715708698E+02  0.00000000000E+00 0. -1.
<scales pt_clust_5="13000.00000" pt_clust_6="13000.00000" pt_clust_7="13000.00000" pt_clust_8="13000.00000" pt_clust_9="90.08551"></scales>
<clustering>
<clus scale="   80.195">  5  6 -1 -1</clus>
<clus scale="   90.086">  2  9  1 -1</clus>
<clus scale="   92.095">  7  8 -1 -1</clus>
<clus scale="   96.030">  2  5  1 -1</clus>
<clus scale="   90.086">  2  5  1 -1</clus>
</clustering>
</event>
<event>
 9    2  0.1325014E-004  0.1957615E+03  0.7546771E-02  0.1182112E+00
         -1   -1    0    0    0  501 -0.00000000000E+00  0.00000000000E+00  0.13697788927E+03  0.13697788927E+03  0.00000000000E+00 0.  1.
         21   -1    0    0  501  502  0.00000000000E+00 -0.00000000000E+00 -0.53304301145E+03  0.53304301145E+03  0.00000000000E+00 0.  1.
         24    2    1    2    0    0  0.35140899933E+02  0.49784226510E+02  0.26997043124E+02  0.10469469455E+03  0.80739003409E+02 0.  0.
         23    2    1    2    0    0 -0.72870394674E+02  0.13962784568E+03 -0.19671955283E+03  0.26778389643E+03  0.90573743517E+02 0.  0.
        -13    1    3    3    0    0  0.27704605316E+02  0.33970883125E+02  0.55828134717E+02  0.70981312202E+02  0.00000000000E+00 0.  1.
         14    1    3    3    0    0  0.74362946175E+01  0.15813343385E+02 -0.28831091593E+02  0.33713382344E+02  0.00000000000E+00 0. -1.
        -13    1    4    4    0    0 -0.27528286652E+02  0.11800665913E+03 -0.93723957250E+02  0.15319124756E+03  0.00000000000E+00 0.  1.
         13    1    4    4    0    0 -0.45342108022E+02  0.21621186545E+02 -0.10299559558E+03  0.11459264887E+03  0.00000000000E+00 0. -1.
         -2    1    1    2    0  502  0.37729494741E+02 -0.18941207219E+03 -0.22634261248E+03  0.29754230975E+03  0.00000000000E+00 0.  1.
<scales pt_clust_5="13000.00000" pt_clust_6="13000.00000" pt_clust_7="13000.00000" pt_clust_8="13000.00000" pt_clust_9="173.54823"></scales>
<clustering>
<clus scale="   80.739">  5  6 -1 -1</clus>
<clus scale="   90.574">  7  8 -1 -1</clus>
<clus scale="  101.154">  1  5  2 -1</clus>
<clus scale="  173.548">  2  9  1 -1</clus>
<clus scale="  173.548">  2  5  1 -1</clus>
</clustering>
</event>
<event>
 9    2  0.1325014E-004  0.9948815E+02  0.7546771E-02  0.1286032E+00
          2   -1    0    0  502    0 -0.00000000000E+00  0.00000000000E+00  0.47646345800E+03  0.47646345800E+03  0.00000000000E+00 0. -1.
         21   -1    0    0  501  502  0.00000000000E+00 -0.00000000000E+00 -0.45243988945E+02  0.45243988945E+02  0.00000000000E+00 0. -1.
         24    2    1    2    0    0  0.96246720468E+01  0.28481110276E+02  0.17698734635E+03  0.19765488573E+03  0.82699003201E+02 0.  0.
         23    2    1    2    0    0 -0.16828567010E+02 -0.62366421218E+02  0.61109271072E+02  0.12784719375E+03  0.91857448118E+02 0.  0.
        -11    1    3    3    0    0 -0.24823367925E+02 -0.66036538862E+01  0.11846961171E+03  0.12122234422E+03  0.00000000000E+00 0.  1.
         12    1    3    3    0    0  0.34448039972E+02  0.35084764162E+02  0.58517734645E+02  0.76432541514E+02  0.00000000000E+00 0. -1.
        -11    1    4    4    0    0 -0.52778188459E+02 -0.20273553276E+02  0.36289811806E+02  0.67182621118E+02  0.00000000000E+00 0.  1.
         11    1    4    4    0    0  0.35949621449E+02 -0.42092867943E+02  0.24819459266E+02  0.60664572629E+02  0.00000000000E+00 0. -1.
          1    1    1    2  501    0  0.72038949631E+01  0.33885310942E+02  0.19312285163E+03  0.19620536747E+03  0.00000000000E+00 0. -1.
<scales pt_clust_5="13000.00000" pt_clust_6="13000.00000" pt_clust_7="13000.00000" pt_clust_8="13000.00000" pt_clust_9="34.64263"></scales>
<clustering>
<clus scale="   34.643">  2  9  1 -1</clus>
<clus scale="   82.699">  5  6 -1 -1</clus>
<clus scale="   91.100">  1  5  2 -1</clus>
<clus scale="   91.857">  7  8 -1 -1</clus>
<clus scale="   34.643">  2  5  1 -1</clus>
</clustering>
</event>
<event>
 9    2  0.1325014E-004  0.9374434E+02  0.7546771E-02  0.1299940E+00
         21   -1    0    0  501  502  0.00000000000E+00  0.00000000000E+00  0.32012740929E+02  0.32012740929E+02  0.00000000000E+00 0. -1.
          2   -1    0    0  502    0 -0.00000000000E+00 -0.00000000000E+00 -0.50364076302E+03  0.50364076302E+03  0.00000000000E+00 0. -1.
         24    2    1    2    0    0  0.24161886247E+02  0.59161838385E+01 -0.28304263031E+03  0.29534089405E+03  0.80587313830E+02 0.  0.
         23    2    1    2    0    0  0.18221020326E+01 -0.44805288464E+02 -0.14154052956E+03  0.17397446726E+03  0.90678331606E+02 0.  0.
        -11    1    3    3    0    0  0.17713701096E+02  0.11864079516E+02 -0.12617744839E+02  0.24773757771E+02  0.00000000000E+00 0.  1.
         12    1    3    3    0    0  0.64481851506E+01 -0.59478956778E+01 -0.27042488547E+03  0.27056713628E+03  0.00000000000E+00 0. -1.
        -13    1    4    4    0    0 -0.36393661745E+02 -0.31536563991E+02 -0.11733311300E+03  0.12683104072E+03  0.00000000000E+00 0.  1.
         13    1    4    4    0    0  0.38215763778E+02 -0.13268724473E+02 -0.24207416559E+02  0.47143426549E+02  0.00000000000E+00 0. -1.
          1    1    1    2  501    0 -0.25983988279E+02  0.38889104626E+02 -0.47044862223E+02  0.66338142626E+02  0.00000000000E+00 0. -1.
<scales pt_clust_5="13000.00000" pt_clust_6="13000.00000" pt_clust_7="13000.00000" pt_clust_8="13000.00000" pt_clust_9="46.77104"></scales>
<clustering>
<clus scale="   46.771">  1  9  2 -1</clus>
<clus scale="   80.587">  5  6 -1 -1</clus>
<clus scale="   84.022">  2  5  1 -1</clus>
<clus scale="   90.678">  7  8 -1 -1</clus>
<clus scale="   46.771">  1  5  2 -1</clus>
</clustering>
</event>
<event>
 9    2  0.1325014E-004  0.1018340E+03  0.7546771E-02  0.1284361E+00
          2   -1    0    0  502    0 -0.00000000000E+00  0.00000000000E+00  0.15731048219E+03  0.15731048219E+03  0.00000000000E+00 0. -1.
         21   -1    0    0  501  502  0.00000000000E+00 -0.00000000000E+00 -0.28979727588E+03  0.28979727588E+03  0.00000000000E+00 0. -1.
         24    2    1    2    0    0  0.74245073781E+01  0.37296331316E+02  0.11501868771E+03  0.14604959058E+03  0.81578457619E+02 0.  0.
         23    2    1    2    0    0  0.27199570401E+02  0.93035130256E+01 -0.97695290266E+02  0.14039247227E+03  0.96640077326E+02 0.  0.
        -13    1    3    3    0    0 -0.22949785500E+02  0.48831603302E+02  0.50933963590E+02  0.74198967530E+02  0.00000000000E+00 0.  1.
         14    1    3    3    0    0  0.30374292879E+02 -0.11535271986E+02  0.64084724115E+02  0.71850623049E+02  0.00000000000E+00 0. -1.
        -11    1    4    4    0    0 -0.32870599192E+02 -0.35832337636E+00 -0.61129751823E+02  0.69407861550E+02  0.00000000000E+00 0.  1.
         11    1    4    4    0    0  0.60070169593E+02  0.96618364020E+01 -0.36565538443E+02  0.70984610721E+02  0.00000000000E+00 0. -1.
          1    1    1    2  501    0 -0.34624077779E+02 -0.46599844341E+02 -0.14981019113E+03  0.16066569522E+03  0.00000000000E+00 0. -1.
<scales pt_clust_5="13000.00000" pt_clust_6="13000.00000" pt_clust_7="13000.00000" pt_clust_8="13000.00000" pt_clust_9="58.05491"></scales>
<clustering>
<clus scale="   58.055">  2  9  1 -1</clus>
<clus scale="   81.578">  5  6 -1 -1</clus>
<clus scale="   87.669">  1  5  2 -1</clus>
<clus scale="   96.640">  7  8 -1 -1</clus>
<clus scale="   58.055">  2  5  1 -1</clus>
</clustering>
</event>
<event>
 9    2  0.1325014E-004  0.9827737E+02  0.7546771E-02  0.1289866E+00
          2   -1    0    0  502    0 -0.00000000000E+00  0.00000000000E+00  0.18828121007E+03  0.18828121007E+03  0.00000000000E+00 0. -1.
         21   -1    0    0  501  502  0.00000000000E+00 -0.00000000000E+00 -0.10290120871E+03  0.10290120871E+03  0.00000000000E+00 0. -1.
         24    2    1    2    0    0  0.47406359053E+02  0.15879833549E+02  0.10662398332E+03  0.14234152284E+03  0.79955633419E+02 0.  0.
         23    2    1    2    0    0  0.48392781336E+01  0.27704662842E+01 -0.18951174359E+02  0.93318852962E+02  0.91203986822E+02 0.  0.
        -11    1    3    3    0    0  0.25752534538E+01 -0.24949698916E+02  0.62512777125E+02  0.67357009362E+02  0.00000000000E+00 0.  1.
         12    1    3    3    0    0  0.44831105600E+02  0.40829532465E+02  0.44111206190E+02  0.74984513482E+02  0.00000000000E+00 0. -1.
        -13    1    4    4    0    0 -0.71609569013E+01 -0.19080842368E+02 -0.49710249495E+02  0.53725848100E+02  0.00000000000E+00 0. -1.
         13    1    4    4    0    0  0.12000235035E+02  0.21851308652E+02  0.30759075136E+02  0.39593004861E+02  0.00000000000E+00 0.  1.
          1    1    1    2  501    0 -0.52245637187E+02 -0.18650299833E+02 -0.22928075932E+01  0.55522042970E+02  0.00000000000E+00 0. -1.
<scales pt_clust_5="13000.00000" pt_clust_6="13000.00000" pt_clust_7="13000.00000" pt_clust_8="13000.00000" pt_clust_9="55.47468"></scales>
<clustering>
<clus scale="   55.475">  2  9  1 -1</clus>
<clus scale="   79.956">  5  6 -1 -1</clus>
<clus scale="   87.938">  1  5  2 -1</clus>
<clus scale="   91.204">  7  8 -1 -1</clus>
<clus scale="   55.475">  2  5  1 -1</clus>
</clustering>
</event>
<event>
 9    2  0.1325014E-004  0.1909617E+03  0.7546771E-02  0.1174533E+00
          2   -1    0    0  502    0 -0.00000000000E+00  0.00000000000E+00  0.52534776579E+03  0.52534776579E+03  0.00000000000E+00 0. -1.
         21   -1    0    0  501  502  0.00000000000E+00 -0.00000000000E+00 -0.17498194733E+03  0.17498194733E+03  0.00000000000E+00 0. -1.
         23    2    1    2    0    0  0.47537101855E+02  0.69400451737E+02 -0.13494953528E+01  0.12928663589E+03  0.98168295940E+02 0.  0.
         24    2    1    2    0    0 -0.13105404412E+02  0.11667348034E+03  0.35458630069E+03  0.38178850648E+03  0.79035222557E+02 0.  0.
        -13    1    4    4    0    0 -0.33297708747E+02  0.13622034260E+02  0.10573769932E+03  0.11169045743E+03  0.00000000000E+00 0.  1.
         14    1    4    4    0    0  0.20192304334E+02  0.10305144608E+03  0.24884860138E+03  0.27009804905E+03  0.00000000000E+00 0. -1.
        -13    1    3    3    0    0 -0.83330435974E+01  0.72693076395E+02 -0.37809182028E+01  0.73266761316E+02  0.00000000000E+00 0.  1.
         13    1    3    3    0    0  0.55870145453E+02 -0.32926246583E+01  0.24314228500E+01  0.56019874573E+02  0.00000000000E+00 0. -1.
          1    1    1    2  501    0 -0.34431697443E+02 -0.18607393207E+03 -0.28709868844E+01  0.18925457075E+03  0.00000000000E+00 0. -1.
<scales pt_clust_5="13000.00000" pt_clust_6="13000.00000" pt_clust_7="13000.00000" pt_clust_8="13000.00000" pt_clust_9="173.83847"></scales>
<clustering>
<clus scale="   79.035">  5  6 -1 -1</clus>
<clus scale="   98.168">  7  8 -1 -1</clus>
<clus scale="  129.280">  1  7  2 -1</clus>
<clus scale="  173.838">  2  9  1 -1</clus>
<clus scale="  173.838">  2  5  1 -1</clus>
</clustering>
</event>
<event>
 9    2  0.1325014E-004  0.1031225E+03  0.7546771E-02  0.1276589E+00
          2   -1    0    0  502    0 -0.00000000000E+00  0.00000000000E+00  0.14654917035E+03  0.14654917035E+03  0.00000000000E+00 0. -1.
         21   -1    0    0  501  502  0.00000000000E+00 -0.00000000000E+00 -0.25143509365E+03  0.25143509365E+03  0.00000000000E+00 0.  1.
         24    2    1    2    0    0 -0.33456740637E+02 -0.28562174618E+02  0.10558819604E+03  0.14330914762E+03  0.86333616491E+02 0.  0.
         23    2    1    2    0    0  0.42721165065E+02  0.54400833130E+02 -0.17892186090E+03  0.21285393936E+03  0.92245425932E+02 0.  0.
        -13    1    3    3    0    0  0.98775229523E+01 -0.29158689504E+02  0.18032704987E+01  0.30839040481E+02  0.00000000000E+00 0.  1.
         14    1    3    3    0    0 -0.43334263589E+02  0.59651488664E+00  0.10378492554E+03  0.11247010714E+03  0.00000000000E+00 0. -1.
        -11    1    4    4    0    0  0.70470856779E+02  0.46249527140E+02 -0.14931632470E+03  0.17146581361E+03  0.00000000000E+00 0.  1.
         11    1    4    4    0    0 -0.27749691714E+02  0.81513059904E+01 -0.29605536196E+02  0.41388125749E+02  0.00000000000E+00 0. -1.
          1    1    1    2  501    0 -0.92644244283E+01 -0.25838658512E+02 -0.31552258449E+02  0.41821177015E+02  0.00000000000E+00 0. -1.
<scales pt_clust_5="13000.00000" pt_clust_6="13000.00000" pt_clust_7="13000.00000" pt_clust_8="13000.00000" pt_clust_9="27.44933"></scales>
<clustering>
<clus scale="   27.449">  2  9  1 -1</clus>
<clus scale="   86.334">  5  6 -1 -1</clus>
<clus scale="   92.245">  7  8 -1 -1</clus>
<clus scale="   97.870">  1  5  2 -1</clus>
<clus scale="   27.449">  2  5  1 -1</clus>
</clustering>
</event>
<event>
 9    2  0.1325014E-004  0.1099224E+03  0.7546771E-02  0.1264334E+00
          2   -1    0    0  502    0 -0.00000000000E+00  0.00000000000E+00  0.37013937620E+03  0.37013937620E+03  0.00000000000E+00 0. -1.
         21   -1    0    0  501  502  0.00000000000E+00 -0.00000000000E+00 -0.15871977369E+03  0.15871977369E+03  0.00000000000E+00 0. -1.
         24    2    1    2    0    0  0.92846910774E+01  0.43793319927E+02  0.31956784935E+03  0.33832406310E+03  0.10166366596E+03 0.  0.
         23    2    1    2    0    0 -0.23684582563E+02 -0.16991516928E+02 -0.23664427189E+02  0.10073971217E+03  0.93481620633E+02 0.  0.
        -13    1    3    3    0    0  0.27148312973E+02 -0.26859578807E+02  0.10704759323E+03  0.11365586253E+03  0.00000000000E+00 0.  1.
         14    1    3    3    0    0 -0.17863621896E+02  0.70652898735E+02  0.21252025612E+03  0.22466820057E+03  0.00000000000E+00 0. -1.
        -11    1    4    4    0    0 -0.11468312545E+02  0.37342324444E+02 -0.22410053680E+02  0.45035340494E+02  0.00000000000E+00 0. -1.
         11    1    4    4    0    0 -0.12216270018E+02 -0.54333841372E+02 -0.12543735091E+01  0.55704371680E+02  0.00000000000E+00 0.  1.
          1    1    1    2  501    0  0.14399891485E+02 -0.26801802999E+02 -0.84483819657E+02  0.89795374618E+02  0.00000000000E+00 0. -1.
<scales pt_clust_5="13000.00000" pt_clust_6="13000.00000" pt_clust_7="13000.00000" pt_clust_8="13000.00000" pt_clust_9="30.42521"></scales>
<clustering>
<clus scale="   30.425">  2  9  1 -1</clus>
<clus scale="   93.482">  7  8 -1 -1</clus>
<clus scale="  101.664">  5  6 -1 -1</clus>
<clus scale="  102.402">  2  7  1 -1</clus>
<clus scale="   30.425">  2  5  1 -1</clus>
</clustering>
</event>
<event>
 9    2  0.1325014E-004  0.1464139E+03  0.7546771E-02  0.1206581E+00
          2   -1    0    0  502    0 -0.00000000000E+00  0.00000000000E+00  0.64345489542E+02  0.64345489542E+02  0.00000000000E+00 0. -1.
         21   -1    0    0  501  502  0.00000000000E+00 -0.00000000000E+00 -0.64213258116E+03  0.64213258116E+03  0.00000000000E+00 0.  1.
         24    2    1    2    0    0 -0.83291582188E+02 -0.39640431872E+02 -0.13334080470E+03  0.18920807827E+03  0.97524741380E+02 0.  0.
         23    2    1    2    0    0  0.15401233422E+03  0.21187852396E+02 -0.37812538253E+03  0.41857660453E+03  0.89771068620E+02 0.  0.
        -13    1    3    3    0    0 -0.26052425082E+02 -0.64679187535E+02 -0.86597538114E+02  0.11118120237E+03  0.00000000000E+00 0.  1.
         14    1    3    3    0    0 -0.57239157106E+02  0.25038755663E+02 -0.46743266586E+02  0.78026875899E+02  0.00000000000E+00 0. -1.
        -13    1    4    4    0    0  0.43210342752E+02  0.46195997478E+01 -0.22317606491E+03  0.22736761064E+03  0.00000000000E+00 0.  1.
         13    1    4    4    0    0  0.11080199147E+03  0.16568252649E+02 -0.15494931763E+03  0.19120899389E+03  0.00000000000E+00 0. -1.
          1    1    1    2  501    0 -0.70720752035E+02  0.18452579476E+02 -0.66320904385E+02  0.98693387906E+02  0.00000000000E+00 0. -1.
<scales pt_clust_5="13000.00000" pt_clust_6="13000.00000" pt_clust_7="13000.00000" pt_clust_8="13000.00000" pt_clust_9="73.08849"></scales>
<clustering>
<clus scale="   73.088">  2  9  1 -1</clus>
<clus scale="   89.771">  7  8 -1 -1</clus>
<clus scale="   97.525">  5  6 -1 -1</clus>
<clus scale="  141.368">  2  7  1 -1</clus>
<clus scale="   73.088">  2  5  1 -1</clus>
</clustering>
</event>
<event>
 9    2  0.1325014E-004  0.9677230E+02  0.7546771E-02  0.1294123E+00
         21   -1    0    0  501  502  0.00000000000E+00  0.00000000000E+00  0.11926553845E+02  0.11926553845E+02  0.00000000000E+00 0.  1.
          2   -1    0    0  502    0 -0.00000000000E+00 -0.00000000000E+00 -0.16635934440E+04  0.16635934440E+04  0.00000000000E+00 0. -1.
         24    2    1    2    0    0  0.12227401591E+02  0.21124930221E+02 -0.11464950829E+04  0.11495705705E+04  0.80409883010E+02 0.  0.
         23    2    1    2    0    0  0.85677359428E+01 -0.48392404127E+02 -0.43964120772E+03  0.45198854346E+03  0.92703942825E+02 0.  0.
        -11    1    3    3    0    0 -0.48637863038E+01 -0.22573762533E+02 -0.13298974566E+03  0.13497964151E+03  0.00000000000E+00 0.  1.
         12    1    3    3    0    0  0.17091187895E+02  0.43698692754E+02 -0.10135053373E+04  0.10145909290E+04  0.00000000000E+00 0. -1.
        -11    1    4    4    0    0 -0.25572889185E+02  0.84128882871E+01 -0.50342502106E+02  0.57088675488E+02  0.00000000000E+00 0. -1.
         11    1    4    4    0    0  0.34140625128E+02 -0.56805292414E+02 -0.38929870561E+03  0.39489986797E+03  0.00000000000E+00 0.  1.
          1    1    1    2  501    0 -0.20795137534E+02  0.27267473905E+02 -0.65530599519E+02  0.73960883929E+02  0.00000000000E+00 0. -1.
<scales pt_clust_5="13000.00000" pt_clust_6="13000.00000" pt_clust_7="13000.00000" pt_clust_8="13000.00000" pt_clust_9="34.29217"></scales>
<clustering>
<clus scale="   34.292">  1  9  2 -1</clus>
<clus scale="   80.410">  5  6 -1 -1</clus>
<clus scale="   85.068">  2  5  1 -1</clus>
<clus scale="   92.704">  7  8 -1 -1</clus>
<clus scale="   34.292">  1  5  2 -1</clus>
</clustering>
</event>
<event>
 9    2  0.1325014E-004  0.1667319E+03  0.7546771E-02  0.1189478E+00
         21   -1    0    0  501  502  0.00000000000E+00  0.00000000000E+00  0.25415248706E+03  0.25415248706E+03  0.00000000000E+00 0. -1.
          2   -1    0    0  502    0 -0.00000000000E+00 -0.00000000000E+00 -0.96240199490E+03  0.96240199490E+03  0.00000000000E+00 0. -1.
         23    2    1    2    0    0  0.10344211905E+03  0.37010239492E+02 -0.61699721357E+03  0.63245345124E+03  0.85098628687E+02 0.  0.
         24    2    1    2    0    0 -0.46013652592E+02 -0.17105683881E+03 -0.28273682572E+03  0.34340860182E+03  0.81312095391E+02 0.  0.
        -13    1    4    4    0    0 -0.43984367924E+02 -0.41843206776E+02 -0.56865472392E+02  0.83181491483E+02  0.00000000000E+00 0.  1.
         14    1    4    4    0    0 -0.20292846677E+01 -0.12921363203E+03 -0.22587135333E+03  0.26022711034E+03  0.00000000000E+00 0. -1.
        -11    1    3    3    0    0  0.11614573018E+03  0.20335630027E+02 -0.53181922348E+03  0.54473393042E+03  0.00000000000E+00 0. -1.
         11    1    3    3    0    0 -0.12703611124E+02  0.16674609465E+02 -0.85177990097E+02  0.87719520823E+02  0.00000000000E+00 0.  1.
          1    1    1    2  501    0 -0.57428466461E+02  0.13404659932E+03  0.19148453145E+03  0.24069242890E+03  0.00000000000E+00 0. -1.
<scales pt_clust_5="13000.00000" pt_clust_6="13000.00000" pt_clust_7="13000.00000" pt_clust_8="13000.00000" pt_clust_9="145.56054"></scales>
<clustering>
<clus scale="   81.312">  5  6 -1 -1</clus>
<clus scale="   85.099">  7  8 -1 -1</clus>
<clus scale="  138.967">  2  7  1 -1</clus>
<clus scale="  145.561">  1  9  2 -1</clus>
<clus scale="  145.561">  1  5  2 -1</clus>
</clustering>
</event>
<event>
 9    2  0.1325014E-004  0.2003323E+03  0.7546771E-02  0.1173386E+00
          2   -1    0    0  502    0 -0.00000000000E+00  0.00000000000E+00  0.17468246045E+04  0.17468246045E+04  0.00000000000E+00 0. -1.
         21   -1    0    0  501  502  0.00000000000E+00 -0.00000000000E+00 -0.61070364099E+02  0.61070364099E+02  0.00000000000E+00 0. -1.
         24    2    1    2    0    0  0.65635391571E+02  0.50731889659E+02  0.31562877775E+03  0.33590227359E+03  0.79542961990E+02 0.  0.
         23    2    1    2    0    0  0.14617404045E+03  0.72590564075E+02  0.19412156538E+03  0.27071969129E+03  0.94708653298E+02 0.  0.
        -11    1    3    3    0    0  0.44925128009E+01  0.47756518492E+02  0.88437382383E+02  0.10060834127E+03  0.00000000000E+00 0.  1.
         12    1    3    3    0    0  0.61142878770E+02  0.29753711664E+01  0.22719139537E+03  0.23529393232E+03  0.00000000000E+00 0. -1.
        -11    1    4    4    0    0  0.11434025957E+03  0.94980986092E+02  0.14111857663E+03  0.20496227787E+03  0.00000000000E+00 0. -1.
         11    1    4    4    0    0  0.31833780882E+02 -0.22390422018E+02  0.53002988747E+02  0.65757413418E+02  0.00000000000E+00 0.  1.
          1    1    1    2  501    0 -0.21180943202E+03 -0.12332245373E+03  0.11760038973E+04  0.12012730038E+04  0.00000000000E+00 0. -1.
<scales pt_clust_5="13000.00000" pt_clust_6="13000.00000" pt_clust_7="13000.00000" pt_clust_8="13000.00000" pt_clust_9="176.53140"></scales>
<clustering>
<clus scale="   79.543">  5  6 -1 -1</clus>
<clus scale="   94.709">  7  8 -1 -1</clus>
<clus scale="  114.930">  1  5  2 -1</clus>
<clus scale="  176.531">  2  9  1 -1</clus>
<clus scale="  176.531">  2  5  1 -1</clus>
</clustering>
</event>
<event>
 9    2  0.1325014E-004  0.1583207E+03  0.7546771E-02  0.1192786E+00
         21   -1    0    0  501  502  0.00000000000E+00  0.00000000000E+00  0.77228311972E+03  0.77228311972E+03  0.00000000000E+00 0.  1.
          4   -1    0    0  502    0 -0.00000000000E+00 -0.00000000000E+00 -0.50328648818E+02  0.50328648818E+02  0.00000000000E+00 0. -1.
         24    2    1    2    0    0 -0.84757071488E+02 -0.10386996112E+03  0.21643332585E+03  0.26663778933E+03  0.79243903040E+02 0.  0.
         23    2    1    2    0    0  0.60618596324E+02  0.10014626762E+03  0.50977935959E+03  0.53118155562E+03  0.92601082233E+02 0.  0.
        -13    1    3    3    0    0 -0.60343450055E+02 -0.16324630752E+02  0.11140262030E+03  0.12774337299E+03  0.00000000000E+00 0.  1.
         14    1    3    3    0    0 -0.24413621433E+02 -0.87545330372E+02  0.10503070555E+03  0.13889441634E+03  0.00000000000E+00 0. -1.
        -11    1    4    4    0    0  0.65449028082E+02  0.32365789534E+02  0.35030498590E+03  0.35783334494E+03  0.00000000000E+00 0.  1.
         11    1    4    4    0    0 -0.48304317580E+01  0.67780478090E+02  0.15947437369E+03  0.17334821068E+03  0.00000000000E+00 0. -1.
          3    1    1    2  501    0  0.24138475165E+02  0.37236934997E+01 -0.42582145307E+01  0.24792423591E+02  0.00000000000E+00 0. -1.
<scales pt_clust_5="13000.00000" pt_clust_6="13000.00000" pt_clust_7="13000.00000" pt_clust_8="13000.00000" pt_clust_9="24.42401"></scales>
<clustering>
<clus scale="   24.424">  1  9  2 -1</clus>
<clus scale="   79.244">  5  6 -1 -1</clus>
<clus scale="   92.601">  7  8 -1 -1</clus>
<clus scale="  150.898">  2  5  1 -1</clus>
<clus scale="   24.424">  1  5  2 -1</clus>
</clustering>
</event>
<event>
 9    2  0.1325014E-004  0.9811174E+02  0.7546771E-02  0.1287166E+00
          4   -1    0    0  502    0 -0.00000000000E+00  0.00000000000E+00  0.75780327323E+03  0.75780327323E+03  0.00000000000E+00 0. -1.
         21   -1    0    0  501  502  0.00000000000E+00 -0.00000000000E+00 -0.23500773448E+03  0.23500773448E+03  0.00000000000E+00 0. -1.
         24    2    1    2    0    0  0.85841717325E+01 -0.26119199026E+02  0.68384832924E+03  0.69106388256E+03  0.95733232526E+02 0.  0.
         23    2    1    2    0    0  0.16049880249E+02 -0.47186503035E+02  0.19695454039E+02  0.10514984548E+03  0.90467753206E+02 0.  0.
        -11    1    3    3    0    0  0.48960964268E+02 -0.12162361811E+01  0.26032101075E+03  0.26488805917E+03  0.00000000000E+00 0.  1.
         12    1    3    3    0    0 -0.40376792536E+02 -0.24902962844E+02  0.42352731848E+03  0.42617582338E+03  0.00000000000E+00 0. -1.
        -11    1    4    4    0    0  0.49121900813E+02 -0.42346818873E+02 -0.27080194184E+01  0.64911844661E+02  0.00000000000E+00 0.  1.
         11    1    4    4    0    0 -0.33072020564E+02 -0.48396841616E+01  0.22403473458E+02  0.40238000820E+02  0.00000000000E+00 0. -1.
          3    1    1    2  501    0 -0.24634051981E+02  0.73305702060E+02 -0.18074824454E+03  0.19659727967E+03  0.00000000000E+00 0. -1.
<scales pt_clust_5="13000.00000" pt_clust_6="13000.00000" pt_clust_7="13000.00000" pt_clust_8="13000.00000" pt_clust_9="77.33410"></scales>
<clustering>
<clus scale="   77.334">  2  9  1 -1</clus>
<clus scale="   90.468">  7  8 -1 -1</clus>
<clus scale="   92.981">  2  7  1 -1</clus>
<clus scale="   95.733">  5  6 -1 -1</clus>
<clus scale="   77.334">  2  5  1 -1</clus>
</clustering>
</event>
<event>
 9    2  0.1325014E-004  0.1555496E+03  0.7546771E-02  0.1207623E+00
          2   -1    0    0  502    0 -0.00000000000E+00  0.00000000000E+00  0.17644669523E+03  0.17644669523E+03  0.00000000000E+00 0. -1.
         21   -1    0    0  501  502  0.00000000000E+00 -0.00000000000E+00 -0.30950250927E+03  0.30950250927E+03  0.00000000000E+00 0. -1.
         23    2    1    2    0    0  0.56231145640E+02  0.42542075941E+02 -0.14778489419E+03  0.18743349029E+03  0.91209475192E+02 0.  0.
         24    2    1    2    0    0  0.72807885593E+01  0.10725195437E+03  0.19256045817E+02  0.13575051302E+03  0.80631351767E+02 0.  0.
        -13    1    4    4    0    0 -0.15553031103E+02  0.16196465047E+02 -0.23582552382E+02  0.32563154536E+02  0.00000000000E+00 0.  1.
         14    1    4    4    0    0  0.22833819663E+02  0.91055489320E+02  0.42838598199E+02  0.10318735849E+03  0.00000000000E+00 0. -1.
        -11    1    3    3    0    0  0.76250007229E+02  0.13156969159E+02 -0.82594149550E+02  0.11317668921E+03  0.00000000000E+00 0.  1.
         11    1    3    3    0    0 -0.20018861588E+02  0.29385106783E+02 -0.65190744640E+02  0.74256801080E+02  0.00000000000E+00 0. -1.
          1    1    1    2  501    0 -0.63511934200E+02 -0.14979403031E+03 -0.45269656739E+01  0.16276520119E+03  0.00000000000E+00 0. -1.
<scales pt_clust_5="13000.00000" pt_clust_6="13000.00000" pt_clust_7="13000.00000" pt_clust_8="13000.00000" pt_clust_9="133.01981"></scales>
<clustering>
<clus scale="   80.631">  5  6 -1 -1</clus>
<clus scale="   91.209">  7  8 -1 -1</clus>
<clus scale="  115.286">  1  7  2 -1</clus>
<clus scale="  133.020">  2  9  1 -1</clus>
<clus scale="  133.020">  2  5  1 -1</clus>
</clustering>
</event>
<event>
 9    2  0.1325014E-004  0.2424202E+03  0.7546771E-02  0.1118983E+00
         21   -1    0    0  501  502  0.00000000000E+00  0.00000000000E+00  0.74928464458E+03  0.74928464458E+03  0.00000000000E+00 0. -1.
         -3   -1    0    0    0  501 -0.00000000000E+00 -0.00000000000E+00 -0.11830287880E+03  0.11830287880E+03  0.00000000000E+00 0.  1.
         24    2    1    2    0    0  0.17462395414E+03 -0.16499206334E+03  0.12345347823E+03  0.28163730773E+03  0.79767822417E+02 0.  0.
         23    2    1    2    0    0 -0.10916133143E+03  0.15283322232E+03  0.45566136148E+03  0.50155015399E+03  0.93011238559E+02 0.  0.
        -11    1    3    3    0    0  0.91131683727E+02 -0.12612865578E+03  0.10498231141E+03  0.18770910286E+03  0.00000000000E+00 0.  1.
         12    1    3    3    0    0  0.83492270418E+02 -0.38863407557E+02  0.18471166825E+02  0.93928204871E+02  0.00000000000E+00 0. -1.
        -13    1    4    4    0    0 -0.88453012440E+02  0.67586926562E+02  0.33021157427E+03  0.34847038875E+03  0.00000000000E+00 0. -1.
         13    1    4    4    0    0 -0.20708318994E+02  0.85246295763E+02  0.12544978721E+03  0.15307976525E+03  0.00000000000E+00 0.  1.
         -4    1    1    2    0  502 -0.65462622710E+02  0.12158841016E+02  0.51866926062E+02  0.84400061647E+02  0.00000000000E+00 0.  1.
<scales pt_clust_5="13000.00000" pt_clust_6="13000.00000" pt_clust_7="13000.00000" pt_clust_8="13000.00000" pt_clust_9="66.58226"></scales>
<clustering>
<clus scale="   66.582">  1  9  2 -1</clus>
<clus scale="   79.768">  5  6 -1 -1</clus>
<clus scale="   93.011">  7  8 -1 -1</clus>
<clus scale="  237.654">  2  5  1 -1</clus>
<clus scale="   66.582">  1  5  2 -1</clus>
</clustering>
</event>
<event>
 9    2  0.1325014E-004  0.2621185E+03  0.7546771E-02  0.1147482E+00
          2   -1    0    0  502    0 -0.00000000000E+00  0.00000000000E+00  0.13125639034E+04  0.13125639034E+04  0.00000000000E+00 0. -1.
         21   -1    0    0  501  502  0.00000000000E+00 -0.00000000000E+00 -0.10819258989E+03  0.10819258989E+03  0.00000000000E+00 0. -1.
         23    2    1    2    0    0  0.20009550730E+02  0.25052386273E+02  0.92958076716E+02  0.13201416384E+03  0.88082525213E+02 0.  0.
         24    2    1    2    0    0 -0.25443529436E+03 -0.14087622593E+02  0.16379879246E+03  0.31250015128E+03  0.76749723231E+02 0.  0.
        -11    1    4    4    0    0 -0.10722459164E+03  0.20249627028E+02  0.10141728211E+03  0.14897189520E+03  0.00000000000E+00 0.  1.
         12    1    4    4    0    0 -0.14721070271E+03 -0.34337249621E+02  0.62381510347E+02  0.16352825609E+03  0.00000000000E+00 0. -1.
        -11    1    3    3    0    0 -0.27099308633E+02  0.21594551905E+01  0.69493329366E+02  0.74621435269E+02  0.00000000000E+00 0.  1.
         11    1    3    3    0    0  0.47108859364E+02  0.22892931083E+02  0.23464747350E+02  0.57392728566E+02  0.00000000000E+00 0. -1.
          1    1    1    2  501    0  0.23442574363E+03 -0.10964763680E+02  0.94761444429E+03  0.97624217813E+03  0.00000000000E+00 0. -1.
<scales pt_clust_5="13000.00000" pt_clust_6="13000.00000" pt_clust_7="13000.00000" pt_clust_8="13000.00000" pt_clust_9="250.63047"></scales>
<clustering>
<clus scale="   76.750">  5  6 -1 -1</clus>
<clus scale="   88.083">  7  8 -1 -1</clus>
<clus scale="   93.737">  1  7  2 -1</clus>
<clus scale="  250.630">  2  9  1 -1</clus>
<clus scale="  250.630">  2  5  1 -1</clus>
</clustering>
</event>
<event>
 9    2  0.1325014E-004  0.1529797E+03  0.7546771E-02  0.1199407E+00
         -1   -1    0    0    0  501 -0.00000000000E+00  0.00000000000E+00  0.47403358867E+02  0.47403358867E+02  0.00000000000E+00 0.  1.
         21   -1    0    0  501  502  0.00000000000E+00 -0.00000000000E+00 -0.10081541644E+04  0.10081541644E+04  0.00000000000E+00 0.  1.
         23    2    1    2    0    0  0.12736583627E+03 -0.13694333392E+02 -0.12254745281E+03  0.19836551527E+03  0.89002294599E+02 0.  0.
         24    2    1    2    0    0 -0.10617739256E+03  0.14865570705E+01 -0.80818351256E+03  0.81847288155E+03  0.73901416228E+02 0.  0.
        -13    1    4    4    0    0 -0.10160225317E+03  0.21075189784E+02 -0.56428492998E+03  0.57374616659E+03  0.00000000000E+00 0.  1.
         14    1    4    4    0    0 -0.45751393893E+01 -0.19588632714E+02 -0.24389858258E+03  0.24472671496E+03  0.00000000000E+00 0. -1.
        -11    1    3    3    0    0  0.10490424549E+03  0.27930666770E+02 -0.81646280876E+02  0.13583496623E+03  0.00000000000E+00 0.  1.
         11    1    3    3    0    0  0.22461590778E+02 -0.41625000162E+02 -0.40901171931E+02  0.62530549047E+02  0.00000000000E+00 0. -1.
         -2    1    1    2    0  502 -0.21188443710E+02  0.12207776321E+02 -0.30019840204E+02  0.38719126481E+02  0.00000000000E+00 0.  1.
<scales pt_clust_5="13000.00000" pt_clust_6="13000.00000" pt_clust_7="13000.00000" pt_clust_8="13000.00000" pt_clust_9="24.45364"></scales>
<clustering>
<clus scale="   24.454">  2  9  1 -1</clus>
<clus scale="   73.901">  5  6 -1 -1</clus>
<clus scale="   89.002">  7  8 -1 -1</clus>
<clus scale="  144.716">  2  5  1 -1</clus>
<clus scale="   24.454">  2  5  1 -1</clus>
</clustering>
</event>
<event>
 9    2  0.1325014E-004  0.1407214E+03  0.7546771E-02  0.1213916E+00
          2   -1    0    0  502    0 -0.00000000000E+00  0.00000000000E+00  0.43607187850E+03  0.43607187850E+03  0.00000000000E+00 0. -1.
         21   -1    0    0  501  502  0.00000000000E+00 -0.00000000000E+00 -0.25411033767E+03  0.25411033767E+03  0.00000000000E+00 0. -1.
         24    2    1    2    0    0  0.72162754140E+02  0.84339050519E+02 -0.14734335508E+02  0.13990318907E+03  0.83876475491E+02 0.  0.
         23    2    1    2    0    0 -0.13047042472E+03  0.85092826161E+00 -0.13136976470E+03  0.20635435255E+03  0.91108989313E+02 0.  0.
        -11    1    3    3    0    0  0.73893519246E+02  0.29883694757E+02 -0.26814825415E+02  0.84097100193E+02  0.00000000000E+00 0.  1.
         12    1    3    3    0    0 -0.17307651062E+01  0.54455355762E+02  0.12080489907E+02  0.55806088874E+02  0.00000000000E+00 0. -1.
        -13    1    4    4    0    0 -0.40958295450E+02  0.18045336443E+02  0.20128389267E+01  0.44802540709E+02  0.00000000000E+00 0.  1.
         13    1    4    4    0    0 -0.89512129273E+02 -0.17194408181E+02 -0.13338260362E+03  0.16155181184E+03  0.00000000000E+00 0. -1.
          1    1    1    2  501    0  0.58307670583E+02 -0.85189978780E+02  0.32806564104E+03  0.34392467455E+03  0.00000000000E+00 0. -1.
<scales pt_clust_5="13000.00000" pt_clust_6="13000.00000" pt_clust_7="13000.00000" pt_clust_8="13000.00000" pt_clust_9="103.23336"></scales>
<clustering>
<clus scale="   83.876">  5  6 -1 -1</clus>
<clus scale="   91.109">  7  8 -1 -1</clus>
<clus scale="  103.233">  2  9  1 -1</clus>
<clus scale="  136.150">  1  5  2 -1</clus>
<clus scale="  103.233">  2  5  1 -1</clus>
</clustering>
</event>
<event>
 9    2  0.1325014E-004  0.1476067E+03  0.7546771E-02  0.1227603E+00
         -3   -1    0    0    0  501 -0.00000000000E+00  0.00000000000E+00  0.52298497160E+02  0.52298497160E+02  0.00000000000E+00 0.  1.
         21   -1    0    0  501  502  0.00000000000E+00 -0.00000000000E+00 -0.64642258787E+03  0.64642258787E+03  0.00000000000E+00 0. -1.
         24    2    1    2    0    0 -0.31593421804E+02 -0.14466486546E+02 -0.91145514030E+02  0.12706825421E+03  0.81433487987E+02 0.  0.
         23    2    1    2    0    0  0.10986163605E+03  0.74642355353E+02 -0.38946128458E+03  0.42120940572E+03  0.89978947518E+02 0.  0.
        -13    1    3    3    0    0 -0.40821240431E+02  0.24226339406E+02 -0.60240630233E+02  0.76695649956E+02  0.00000000000E+00 0.  1.
         14    1    3    3    0    0  0.92278186275E+01 -0.38692825951E+02 -0.30904883797E+02  0.50372604253E+02  0.00000000000E+00 0. -1.
        -13    1    4    4    0    0  0.94562633466E+02  0.88293109245E+02 -0.37335829379E+03  0.39513817878E+03  0.00000000000E+00 0. -1.
         13    1    4    4    0    0  0.15299002588E+02 -0.13650753892E+02 -0.16102990786E+02  0.26071226942E+02  0.00000000000E+00 0.  1.
         -4    1    1    2    0  502 -0.78268214250E+02 -0.60175868807E+02 -0.11351729210E+03  0.15044342509E+03  0.00000000000E+00 0.  1.
<scales pt_clust_5="13000.00000" pt_clust_6="13000.00000" pt_clust_7="13000.00000" pt_clust_8="13000.00000" pt_clust_9="117.01082"></scales>
<clustering>
<clus scale="   81.433">  5  6 -1 -1</clus>
<clus scale="   88.537">  1  5  2 -1</clus>
<clus scale="   89.979">  7  8 -1 -1</clus>
<clus scale="  117.011">  2  9  1 -1</clus>
<clus scale="  117.011">  2  5  1 -1</clus>
</clustering>
</event>
<event>
 9    2  0.1591142E-004  0.9588192E+02  0.7546771E-02  0.1289802E+00
         -1   -1    0    0    0  501 -0.00000000000E+00  0.00000000000E+00  0.56236975866E+03  0.56236975866E+03  0.00000000000E+00 0.  1.
         21   -1    0    0  501  502  0.00000000000E+00 -0.00000000000E+00 -0.82294228908E+02  0.82294228908E+02  0.00000000000E+00 0. -1.
         23    2    1    2    0    0  0.32083976675E+02 -0.38874179192E+02  0.48149510758E+03  0.49065839327E+03  0.79796847628E+02 0.  0.
         24    2    1    2    0    0 -0.56720805185E+02  0.58826617725E+02  0.20907277635E+02  0.11522980809E+03  0.78504609543E+02 0.  0.
        -13    1    4    4    0    0  0.43531727616E+01  0.35862304337E+02  0.32930960325E+02  0.48882544261E+02  0.00000000000E+00 0.  1.
         14    1    4    4    0    0 -0.61073977946E+02  0.22964313388E+02 -0.12023682690E+02  0.66347263825E+02  0.00000000000E+00 0. -1.
        -13    1    3    3    0    0  0.50981760209E+02 -0.11895364968E+00  0.24180591648E+03  0.24712194412E+03  0.00000000000E+00 0.  1.
         13    1    3    3    0    0 -0.18897783533E+02 -0.38755225543E+02  0.23968919110E+03  0.24353644914E+03  0.00000000000E+00 0. -1.
         -2    1    1    2    0  502  0.24636828509E+02 -0.19952438533E+02 -0.22326855459E+02  0.38775786222E+02  0.00000000000E+00 0.  1.
<scales pt_clust_5="13000.00000" pt_clust_6="13000.00000" pt_clust_7="13000.00000" pt_clust_8="13000.00000" pt_clust_9="31.70289"></scales>
<clustering>
<clus scale="   31.703">  2  9  1 -1</clus>
<clus scale="   78.505">  5  6 -1 -1</clus>
<clus scale="   79.797">  7  8 -1 -1</clus>
<clus scale="   94.809">  2  5  1 -1</clus>
<clus scale="   31.703">  2  5  1 -1</clus>
</clustering>
</event>
<event>
 9    2  0.1325014E-004  0.2107625E+03  0.7546771E-02  0.1144532E+00
          2   -1    0    0  502    0 -0.00000000000E+00  0.00000000000E+00  0.45779380273E+03  0.45779380273E+03  0.00000000000E+00 0. -1.
         21   -1    0    0  501  502  0.00000000000E+00 -0.00000000000E+00 -0.13614294032E+03  0.13614294032E+03  0.00000000000E+00 0.  1.
         23    2    1    2    0    0  0.13945810917E+03 -0.11699610116E+03  0.16758613327E+03  0.25381726122E+03  0.56581252452E+02 0.  0.
         24    2    1    2    0    0 -0.13454460582E+03  0.13688938936E+03  0.35458751567E+02  0.21975643373E+03  0.10096836746E+03 0.  0.
        -13    1    4    4    0    0 -0.13073126357E+03  0.13877097397E+03  0.67883975804E+01  0.19077245302E+03  0.00000000000E+00 0.  1.
         14    1    4    4    0    0 -0.38133422578E+01 -0.18815846156E+01  0.28670353986E+02  0.28983980706E+02  0.00000000000E+00 0. -1.
        -11    1    3    3    0    0  0.72844438637E+02 -0.26889871990E+02  0.80994759668E+02  0.11220306836E+03  0.00000000000E+00 0.  1.
         11    1    3    3    0    0  0.66613670538E+02 -0.90106229168E+02  0.86591373605E+02  0.14161419286E+03  0.00000000000E+00 0. -1.
          1    1    1    2  501    0 -0.49135033513E+01 -0.19893288198E+02  0.11860597758E+03  0.12036304810E+03  0.00000000000E+00 0. -1.
<scales pt_clust_5="13000.00000" pt_clust_6="13000.00000" pt_clust_7="13000.00000" pt_clust_8="13000.00000" pt_clust_9="20.49112"></scales>
<clustering>
<clus scale="   20.491">  2  9  1 -1</clus>
<clus scale="   56.581">  7  8 -1 -1</clus>
<clus scale="  100.968">  5  6 -1 -1</clus>
<clus scale="  193.462">  1  7  2 -1</clus>
<clus scale="   20.491">  2  5  1 -1</clus>
</clustering>
</event>
<event>
 9    2  0.1325014E-004  0.9765615E+02  0.7546771E-02  0.1293515E+00
         21   -1    0    0  501  502  0.00000000000E+00  0.00000000000E+00  0.28159799495E+03  0.28159799495E+03  0.00000000000E+00 0. -1.
         -1   -1    0    0    0  501 -0.00000000000E+00 -0.00000000000E+00 -0.69462382181E+02  0.69462382181E+02  0.00000000000E+00 0.  1.
         23    2    1    2    0    0  0.97526068195E+01  0.32332420195E+02  0.34376903095E+02  0.10350081181E+03  0.91597750204E+02 0.  0.
         24    2    1    2    0    0 -0.29337240491E+02 -0.25129893920E+02  0.19966582140E+03  0.21730471769E+03  0.76568367134E+02 0.  0.
        -11    1    4    4    0    0 -0.39490548628E+02 -0.91693567153E+01  0.41514581334E+02  0.58026209568E+02  0.00000000000E+00 0.  1.
         12    1    4    4    0    0  0.10153308137E+02 -0.15960537205E+02  0.15815124007E+03  0.15927850812E+03  0.00000000000E+00 0. -1.
        -13    1    3    3    0    0 -0.28108664522E+02 -0.16234334225E+02 -0.10117139592E+01  0.32475747783E+02  0.00000000000E+00 0. -1.
         13    1    3    3    0    0  0.37861271341E+02  0.48566754420E+02  0.35388617055E+02  0.71025064023E+02  0.00000000000E+00 0.  1.
         -2    1    1    2    0  502  0.19584633672E+02 -0.72025262746E+01 -0.21907111732E+02  0.30254847632E+02  0.00000000000E+00 0.  1.
<scales pt_clust_5="13000.00000" pt_clust_6="13000.00000" pt_clust_7="13000.00000" pt_clust_8="13000.00000" pt_clust_9="20.86707"></scales>
<clustering>
<clus scale="   20.867">  1  9  2 -1</clus>
<clus scale="   76.568">  5  6 -1 -1</clus>
<clus scale="   83.722">  1  5  2 -1</clus>
<clus scale="   91.598">  7  8 -1 -1</clus>
<clus scale="   20.867">  1  5  2 -1</clus>
</clustering>
</event>
<event>
 9    2  0.1325014E-004  0.1765961E+03  0.7546771E-02  0.1194998E+00
         21   -1    0    0  501  502  0.00000000000E+00  0.00000000000E+00  0.37030529165E+02  0.37030529165E+02  0.00000000000E+00 0. -1.
          2   -1    0    0  502    0 -0.00000000000E+00 -0.00000000000E+00 -0.14180255970E+04  0.14180255970E+04  0.00000000000E+00 0. -1.
         23    2    1    2    0    0  0.46102668195E+02 -0.20334989458E+02 -0.18155671662E+03  0.20902400653E+03  0.90494343166E+02 0.  0.
         24    2    1    2    0    0 -0.17984232968E+03  0.35888887033E+02 -0.63962056297E+03  0.67025075765E+03  0.80562632724E+02 0.  0.
        -11    1    4    4    0    0 -0.70238060640E+02  0.48792433860E+02 -0.21155320722E+03  0.22818599047E+03  0.00000000000E+00 0.  1.
         12    1    4    4    0    0 -0.10960426904E+03 -0.12903546827E+02 -0.42806735575E+03  0.44206476717E+03  0.00000000000E+00 0. -1.
        -11    1    3    3    0    0 -0.27250849071E+02 -0.44415284800E+01 -0.37267125210E+02  0.46380756481E+02  0.00000000000E+00 0.  1.
         11    1    3    3    0    0  0.73353517266E+02 -0.15893460978E+02 -0.14428959141E+03  0.16264325005E+03  0.00000000000E+00 0. -1.
          1    1    1    2  501    0  0.13373966148E+03 -0.15553897574E+02 -0.55981778824E+03  0.57578136199E+03  0.00000000000E+00 0. -1.
<scales pt_clust_5="13000.00000" pt_clust_6="13000.00000" pt_clust_7="13000.00000" pt_clust_8="13000.00000" pt_clust_9="157.14907"></scales>
<clustering>
<clus scale="   80.563">  5  6 -1 -1</clus>
<clus scale="   90.494">  7  8 -1 -1</clus>
<clus scale="  103.577">  2  7  1 -1</clus>
<clus scale="  157.149">  1  9  2 -1</clus>
<clus scale="  157.149">  1  5  2 -1</clus>
</clustering>
</event>
<event>
 9    2  0.1325014E-004  0.2203915E+03  0.7546771E-02  0.1134673E+00
         -3   -1    0    0    0  501 -0.00000000000E+00  0.00000000000E+00  0.79881314635E+03  0.79881314635E+03  0.00000000000E+00 0.  1.
         21   -1    0    0  501  502  0.00000000000E+00 -0.00000000000E+00 -0.94985062840E+02  0.94985062840E+02  0.00000000000E+00 0.  1.
         23    2    1    2    0    0  0.91879620485E+02  0.16407924977E+03  0.34332492139E+03  0.40261154853E+03  0.94128595538E+02 0.  0.
         24    2    1    2    0    0 -0.16959027975E+03 -0.14187790777E+03  0.32921563957E+03  0.40452204725E+03  0.79780609628E+02 0.  0.
        -11    1    4    4    0    0 -0.10385152286E+03 -0.12332980403E+03  0.26820453847E+03  0.31293618170E+03  0.00000000000E+00 0.  1.
         12    1    4    4    0    0 -0.65738756897E+02 -0.18548103740E+02  0.61011101102E+02  0.91585865549E+02  0.00000000000E+00 0. -1.
        -11    1    3    3    0    0  0.77377908969E+02  0.75699672624E+02  0.25407026330E+03  0.27616929577E+03  0.00000000000E+00 0. -1.
         11    1    3    3    0    0  0.14501711516E+02  0.88379577141E+02  0.89254658090E+02  0.12644225276E+03  0.00000000000E+00 0.  1.
         -4    1    1    2    0  502  0.77710659270E+02 -0.22201341992E+02  0.31287522550E+02  0.86664613411E+02  0.00000000000E+00 0.  1.
<scales pt_clust_5="13000.00000" pt_clust_6="13000.00000" pt_clust_7="13000.00000" pt_clust_8="13000.00000" pt_clust_9="80.81984"></scales>
<clustering>
<clus scale="   79.781">  5  6 -1 -1</clus>
<clus scale="   80.820">  2  9  1 -1</clus>
<clus scale="   94.129">  7  8 -1 -1</clus>
<clus scale="  214.656">  2  5  1 -1</clus>
<clus scale="   80.820">  2  5  1 -1</clus>
</clustering>
</event>
<event>
 9    2  0.1325014E-004  0.1511445E+03  0.7546771E-02  0.1202226E+00
         21   -1    0    0  501  502  0.00000000000E+00  0.00000000000E+00  0.73502980261E+02  0.73502980261E+02  0.00000000000E+00 0. -1.
          4   -1    0    0  502    0 -0.00000000000E+00 -0.00000000000E+00 -0.51683824267E+03  0.51683824267E+03  0.00000000000E+00 0. -1.
         24    2    1    2    0    0 -0.11060071187E+03 -0.50836013497E+02 -0.18186898231E+03  0.23148747612E+03  0.75454006762E+02 0.  0.
         23    2    1    2    0    0  0.60294536175E+02  0.11758364239E+03 -0.15896676744E+03  0.22659601596E+03  0.92811514633E+02 0.  0.
        -11    1    3    3    0    0 -0.27838124848E+02  0.91706439703E+01 -0.90115339256E+01  0.30663816618E+02  0.00000000000E+00 0.  1.
         12    1    3    3    0    0 -0.82762587020E+02 -0.60006657467E+02 -0.17285744839E+03  0.20082365950E+03  0.00000000000E+00 0. -1.
        -11    1    4    4    0    0  0.53321453940E+02  0.11064871373E+02 -0.60035290801E+02  0.81054580193E+02  0.00000000000E+00 0.  1.
         11    1    4    4    0    0  0.69730822345E+01  0.10651877102E+03 -0.98931476639E+02  0.14554143577E+03  0.00000000000E+00 0. -1.
          3    1    1    2  501    0  0.50306175694E+02 -0.66747628896E+02 -0.10249951265E+03  0.13225773085E+03  0.00000000000E+00 0. -1.
<scales pt_clust_5="13000.00000" pt_clust_6="13000.00000" pt_clust_7="13000.00000" pt_clust_8="13000.00000" pt_clust_9="83.58208"></scales>
<clustering>
<clus scale="   75.454">  5  6 -1 -1</clus>
<clus scale="   83.582">  1  9  2 -1</clus>
<clus scale="   92.812">  7  8 -1 -1</clus>
<clus scale="  141.152">  2  5  1 -1</clus>
<clus scale="   83.582">  1  5  2 -1</clus>
</clustering>
</event>
<event>
 9    2  0.1325014E-004  0.1205737E+03  0.7546771E-02  0.1245654E+00
         21   -1    0    0  501  502  0.00000000000E+00  0.00000000000E+00  0.22636535754E+03  0.22636535754E+03  0.00000000000E+00 0.  1.
         -3   -1    0    0    0  501 -0.00000000000E+00 -0.00000000000E+00 -0.14939835688E+03  0.14939835688E+03  0.00000000000E+00 0.  1.
         24    2    1    2    0    0  0.57265823254E+02 -0.25191865077E+02  0.11905997128E+02  0.10265580620E+03  0.80513708150E+02 0.  0.
         23    2    1    2    0    0 -0.12049565078E+03 -0.54596713960E+02  0.57991513624E+02  0.17105789048E+03  0.91639419535E+02 0.  0.
        -13    1    3    3    0    0  0.63176898999E+02  0.24567572488E+01  0.29062288375E+02  0.69584285790E+02  0.00000000000E+00 0.  1.
         14    1    3    3    0    0 -0.59110757445E+01 -0.27648622326E+02 -0.17156291246E+02  0.33071520411E+02  0.00000000000E+00 0. -1.
        -11    1    4    4    0    0 -0.26297330956E+02  0.13498092429E+02  0.45358321665E+02  0.54139869403E+02  0.00000000000E+00 0. -1.
         11    1    4    4    0    0 -0.94198319820E+02 -0.68094806390E+02  0.12633191959E+02  0.11691802108E+03  0.00000000000E+00 0.  1.
         -4    1    1    2    0  502  0.63229827522E+02  0.79788579037E+02  0.70694899050E+01  0.10205001774E+03  0.00000000000E+00 0.  1.
<scales pt_clust_5="13000.00000" pt_clust_6="13000.00000" pt_clust_7="13000.00000" pt_clust_8="13000.00000" pt_clust_9="101.80491"></scales>
<clustering>
<clus scale="   80.514">  5  6 -1 -1</clus>
<clus scale="   91.639">  7  8 -1 -1</clus>
<clus scale="  101.805">  1  9  2 -1</clus>
<clus scale="  112.351">  2  5  1 -1</clus>
<clus scale="  101.805">  1  5  2 -1</clus>
</clustering>
</event>
<event>
 9    2  0.1325014E-004  0.1040130E+03  0.7546771E-02  0.1274649E+00
         21   -1    0    0  501  502  0.00000000000E+00  0.00000000000E+00  0.40295406231E+03  0.40295406231E+03  0.00000000000E+00 0.  1.
          4   -1    0    0  502    0 -0.00000000000E+00 -0.00000000000E+00 -0.63858320924E+02  0.63858320924E+02  0.00000000000E+00 0. -1.
         23    2    1    2    0    0 -0.22115578657E+02 -0.53122215770E+02  0.23634548976E+01  0.10671739515E+03  0.89844019726E+02 0.  0.
         24    2    1    2    0    0 -0.63664030195E+01  0.36174351124E+02  0.21062793126E+03  0.22970801863E+03  0.83979364304E+02 0.  0.
        -11    1    4    4    0    0 -0.39229926126E+02  0.21961110210E+02  0.16862225727E+03  0.17451287377E+03  0.00000000000E+00 0.  1.
         12    1    4    4    0    0  0.32863523107E+02  0.14213240914E+02  0.42005673986E+02  0.55195144853E+02  0.00000000000E+00 0. -1.
        -11    1    3    3    0    0 -0.22393865387E+02 -0.31049166295E+02 -0.42205593597E+02  0.56981120255E+02  0.00000000000E+00 0. -1.
         11    1    3    3    0    0  0.27828673033E+00 -0.22073049475E+02  0.44569048494E+02  0.49736274894E+02  0.00000000000E+00 0.  1.
          3    1    1    2  501    0  0.28481981676E+02  0.16947864646E+02  0.12610435523E+03  0.13038696946E+03  0.00000000000E+00 0. -1.
<scales pt_clust_5="13000.00000" pt_clust_6="13000.00000" pt_clust_7="13000.00000" pt_clust_8="13000.00000" pt_clust_9="33.14292"></scales>
<clustering>
<clus scale="   33.143">  1  9  2 -1</clus>
<clus scale="   83.979">  5  6 -1 -1</clus>
<clus scale="   89.844">  7  8 -1 -1</clus>
<clus scale="   98.991">  1  5  2 -1</clus>
<clus scale="   33.143">  1  5  2 -1</clus>
</clustering>
</event>
<event>
 9    2  0.1325014E-004  0.1868807E+03  0.7546771E-02  0.1184053E+00
         21   -1    0    0  501  502  0.00000000000E+00  0.00000000000E+00  0.34820237081E+03  0.34820237081E+03  0.00000000000E+00 0. -1.
          2   -1    0    0  502    0 -0.00000000000E+00 -0.00000000000E+00 -0.16386157488E+03  0.16386157488E+03  0.00000000000E+00 0. -1.
         24    2    1    2    0    0 -0.57984554799E+02 -0.49720602328E+02  0.27050135639E+02  0.11457297204E+03  0.80999439457E+02 0.  0.
         23    2    1    2    0    0  0.15215276665E+03  0.14631528040E+03  0.98168360664E+02  0.25020339689E+03  0.91684715721E+02 0.  0.
        -13    1    3    3    0    0 -0.12516951728E+02 -0.51558288521E+02 -0.12244130758E+02  0.54450435570E+02  0.00000000000E+00 0.  1.
         14    1    3    3    0    0 -0.45467603072E+02  0.18376861937E+01  0.39294266396E+02  0.60122536467E+02  0.00000000000E+00 0. -1.
        -11    1    4    4    0    0  0.57219523935E+02  0.67504137326E+02 -0.60445193577E+01  0.88698470616E+02  0.00000000000E+00 0. -1.
         11    1    4    4    0    0  0.94933242720E+02  0.78811143079E+02  0.10421288002E+03  0.16150492627E+03  0.00000000000E+00 0.  1.
          1    1    1    2  501    0 -0.94168211855E+02 -0.96594678077E+02  0.59122299623E+02  0.14728757677E+03  0.00000000000E+00 0. -1.
<scales pt_clust_5="13000.00000" pt_clust_6="13000.00000" pt_clust_7="13000.00000" pt_clust_8="13000.00000" pt_clust_9="162.84440"></scales>
<clustering>
<clus scale="   80.999">  5  6 -1 -1</clus>
<clus scale="   91.685">  7  8 -1 -1</clus>
<clus scale="  111.334">  2  5  1 -1</clus>
<clus scale="  162.844">  1  9  2 -1</clus>
<clus scale="  162.844">  1  5  2 -1</clus>
</clustering>
</event>
<event>
 9    2  0.1325014E-004  0.1345694E+03  0.7546771E-02  0.1223779E+00
         -3   -1    0    0    0  501 -0.00000000000E+00  0.00000000000E+00  0.12930414001E+03  0.12930414001E+03  0.00000000000E+00 0.  1.
         21   -1    0    0  501  502  0.00000000000E+00 -0.00000000000E+00 -0.35155800372E+03  0.35155800372E+03  0.00000000000E+00 0.  1.
         24    2    1    2    0    0  0.43780991463E+02  0.89227072252E+02  0.40980589396E+02  0.13471195422E+03  0.81176697802E+02 0.  0.
         23    2    1    2    0    0 -0.10706374220E+02 -0.94865743253E+02 -0.71276993825E+02  0.15128256498E+03  0.93230193204E+02 0.  0.
        -13    1    3    3    0    0  0.17550629943E+02  0.21582613472E+02  0.54240693407E+02  0.60958072779E+02  0.00000000000E+00 0.  1.
         14    1    3    3    0    0  0.26230361520E+02  0.67644458780E+02 -0.13260104011E+02  0.73753881440E+02  0.00000000000E+00 0. -1.
        -13    1    4    4    0    0 -0.44356893253E+02 -0.68419058613E+02 -0.19006816568E+02  0.83725507682E+02  0.00000000000E+00 0.  1.
         13    1    4    4    0    0  0.33650519033E+02 -0.26446684640E+02 -0.52270177257E+02  0.67557057293E+02  0.00000000000E+00 0. -1.
         -4    1    1    2    0  502 -0.33074617243E+02  0.56386710006E+01 -0.19195745929E+03  0.19486762454E+03  0.00000000000E+00 0.  1.
<scales pt_clust_5="13000.00000" pt_clust_6="13000.00000" pt_clust_7="13000.00000" pt_clust_8="13000.00000" pt_clust_9="33.55182"></scales>
<clustering>
<clus scale="   33.552">  2  9  1 -1</clus>
<clus scale="   81.177">  5  6 -1 -1</clus>
<clus scale="   93.230">  7  8 -1 -1</clus>
<clus scale="  126.518">  1  5  2 -1</clus>
<clus scale="   33.552">  2  5  1 -1</clus>
</clustering>
</event>
<event>
 9    2  0.1325014E-004  0.1112823E+03  0.7546771E-02  0.1262419E+00
          2   -1    0    0  502    0 -0.00000000000E+00  0.00000000000E+00  0.35133088825E+03  0.35133088825E+03  0.00000000000E+00 0. -1.
         21   -1    0    0  501  502  0.00000000000E+00 -0.00000000000E+00 -0.97305368677E+02  0.97305368677E+02  0.00000000000E+00 0.  1.
         24    2    1    2    0    0 -0.12104167421E+02 -0.50176881614E+02  0.92892310152E+02  0.13308944191E+03  0.80122331122E+02 0.  0.
         23    2    1    2    0    0 -0.51362719375E+02  0.10788915829E+03  0.21698435228E+02  0.15183728918E+03  0.91134740224E+02 0.  0.
        -11    1    3    3    0    0  0.12691676788E+02 -0.61755602234E+02  0.43416244863E+02  0.76549352610E+02  0.00000000000E+00 0.  1.
         12    1    3    3    0    0 -0.24795844209E+02  0.11578720621E+02  0.49476065289E+02  0.56540089297E+02  0.00000000000E+00 0. -1.
        -13    1    4    4    0    0 -0.69750389026E+02  0.41133712589E+02  0.13859046835E+02  0.82153346005E+02  0.00000000000E+00 0.  1.
         13    1    4    4    0    0  0.18387669651E+02  0.66755445697E+02  0.78393883928E+01  0.69683943170E+02  0.00000000000E+00 0. -1.
          1    1    1    2  501    0  0.63466886795E+02 -0.57712276671E+02  0.13943477420E+03  0.16370952585E+03  0.00000000000E+00 0. -1.
<scales pt_clust_5="13000.00000" pt_clust_6="13000.00000" pt_clust_7="13000.00000" pt_clust_8="13000.00000" pt_clust_9="85.78321"></scales>
<clustering>
<clus scale="   80.122">  5  6 -1 -1</clus>
<clus scale="   85.783">  2  9  1 -1</clus>
<clus scale="   91.135">  7  8 -1 -1</clus>
<clus scale="  102.459">  1  5  2 -1</clus>
<clus scale="   85.783">  2  5  1 -1</clus>
</clustering>
</event>
<event>
 9    2  0.1325014E-004  0.1323872E+03  0.7546771E-02  0.1226645E+00
          2   -1    0    0  502    0 -0.00000000000E+00  0.00000000000E+00  0.17432048290E+03  0.17432048290E+03  0.00000000000E+00 0. -1.
         21   -1    0    0  501  502  0.00000000000E+00 -0.00000000000E+00 -0.18007196654E+03  0.18007196654E+03  0.00000000000E+00 0.  1.
         24    2    1    2    0    0  0.79548946328E+02  0.82136429783E+01  0.35812351045E+02  0.12060092926E+03  0.82864714194E+02 0.  0.
         23    2    1    2    0    0 -0.10922590354E+03 -0.35080733340E+02  0.30790137395E+02  0.15110137803E+03  0.93395064247E+02 0.  0.
        -11    1    3    3    0    0  0.33488679171E+02 -0.21082780484E+02 -0.18423221065E+02  0.43650777083E+02  0.00000000000E+00 0.  1.
         12    1    3    3    0    0  0.46060267157E+02  0.29296423462E+02  0.54235572110E+02  0.76950152179E+02  0.00000000000E+00 0. -1.
        -13    1    4    4    0    0 -0.62329627160E+02 -0.34762717866E+02 -0.27328009342E+02  0.76421522296E+02  0.00000000000E+00 0.  1.
         13    1    4    4    0    0 -0.46896276378E+02 -0.31801547454E+00  0.58118146738E+02  0.74679855732E+02  0.00000000000E+00 0. -1.
          1    1    1    2  501    0  0.29676957210E+02  0.26867090362E+02 -0.72353972077E+02  0.82690142152E+02  0.00000000000E+00 0. -1.
<scales pt_clust_5="13000.00000" pt_clust_6="13000.00000" pt_clust_7="13000.00000" pt_clust_8="13000.00000" pt_clust_9="40.03202"></scales>
<clustering>
<clus scale="   40.032">  2  9  1 -1</clus>
<clus scale="   82.865">  5  6 -1 -1</clus>
<clus scale="   93.395">  7  8 -1 -1</clus>
<clus scale="  125.181">  1  5  2 -1</clus>
<clus scale="   40.032">  2  5  1 -1</clus>
</clustering>
</event>
<event>
 9    2  0.1325014E-004  0.1877732E+03  0.7546771E-02  0.1185870E+00
          2   -1    0    0  502    0 -0.00000000000E+00  0.00000000000E+00  0.11013832742E+04  0.11013832742E+04  0.00000000000E+00 0. -1.
         21   -1    0    0  501  502  0.00000000000E+00 -0.00000000000E+00 -0.58066029266E+02  0.58066029266E+02  0.00000000000E+00 0.  1.
         24    2    1    2    0    0  0.49791094721E+02  0.38472586799E+02  0.25095139189E+03  0.27218569461E+03  0.84552694898E+02 0.  0.
         23    2    1    2    0    0  0.10294411538E+03 -0.12694539348E+03  0.22029128821E+03  0.28857772322E+03  0.89645004642E+02 0.  0.
        -11    1    3    3    0    0  0.73465034698E+02  0.23222443558E+02  0.19077066239E+03  0.20574216592E+03  0.00000000000E+00 0.  1.
         12    1    3    3    0    0 -0.23673939976E+02  0.15250143241E+02  0.60180729491E+02  0.66443528691E+02  0.00000000000E+00 0. -1.
        -11    1    4    4    0    0  0.68929985865E+00 -0.68715661842E+02  0.79229996346E+02  0.10487950056E+03  0.00000000000E+00 0.  1.
         11    1    4    4    0    0  0.10225481552E+03 -0.58229731636E+02  0.14106129187E+03  0.18369822266E+03  0.00000000000E+00 0. -1.
          1    1    1    2  501    0 -0.15273521010E+03  0.88472806679E+02  0.57207456482E+03  0.59868588562E+03  0.00000000000E+00 0. -1.
<scales pt_clust_5="13000.00000" pt_clust_6="13000.00000" pt_clust_7="13000.00000" pt_clust_8="13000.00000" pt_clust_9="164.99263"></scales>
<clustering>
<clus scale="   84.553">  5  6 -1 -1</clus>
<clus scale="   89.645">  7  8 -1 -1</clus>
<clus scale="  105.397">  1  5  2 -1</clus>
<clus scale="  164.993">  2  9  1 -1</clus>
<clus scale="  164.993">  2  5  1 -1</clus>
</clustering>
</event>
<event>
 9    2  0.1325014E-004  0.9285967E+02  0.7546771E-02  0.1300182E+00
         21   -1    0    0  501  502  0.00000000000E+00  0.00000000000E+00  0.67844911310E+02  0.67844911310E+02  0.00000000000E+00 0.  1.
          2   -1    0    0  502    0 -0.00000000000E+00 -0.00000000000E+00 -0.50113244581E+03  0.50113244581E+03  0.00000000000E+00 0. -1.
         23    2    1    2    0    0 -0.33176682661E+02 -0.14732688113E+02 -0.29037055928E+03  0.30562155769E+03  0.88157418609E+02 0.  0.
         24    2    1    2    0    0 -0.18586735306E+02 -0.13350200213E+02  0.23059834527E+02  0.87241060042E+02  0.80966363471E+02 0.  0.
        -13    1    4    4    0    0 -0.27676002709E+02  0.23691197770E+02  0.31519597927E+02  0.48173841773E+02  0.00000000000E+00 0.  1.
         14    1    4    4    0    0  0.90892674024E+01 -0.37041397983E+02 -0.84597634001E+01  0.39067218269E+02  0.00000000000E+00 0. -1.
        -13    1    3    3    0    0  0.84469927671E+01  0.21369004586E+02 -0.22559056579E+02  0.32200886285E+02  0.00000000000E+00 0.  1.
         13    1    3    3    0    0 -0.41623675428E+02 -0.36101692699E+02 -0.26781150270E+03  0.27342067140E+03  0.00000000000E+00 0. -1.
          1    1    1    2  501    0  0.51763417967E+02  0.28082888327E+02 -0.16597680974E+03  0.17611473939E+03  0.00000000000E+00 0. -1.
<scales pt_clust_5="13000.00000" pt_clust_6="13000.00000" pt_clust_7="13000.00000" pt_clust_8="13000.00000" pt_clust_9="58.89061"></scales>
<clustering>
<clus scale="   58.891">  1  9  2 -1</clus>
<clus scale="   80.966">  5  6 -1 -1</clus>
<clus scale="   86.062">  1  5  2 -1</clus>
<clus scale="   88.157">  7  8 -1 -1</clus>
<clus scale="   58.891">  1  5  2 -1</clus>
</clustering>
</event>
<event>
 9    2  0.1325014E-004  0.1741318E+03  0.7546771E-02  0.1175201E+00
         -1   -1    0    0    0  501 -0.00000000000E+00  0.00000000000E+00  0.23466184345E+03  0.23466184345E+03  0.00000000000E+00 0.  1.
         21   -1    0    0  501  502  0.00000000000E+00 -0.00000000000E+00 -0.15934408318E+03  0.15934408318E+03  0.00000000000E+00 0. -1.
         23    2    1    2    0    0 -0.14541114071E+03  0.49920171232E+02  0.11272352691E+03  0.21215877760E+03  0.93103867032E+02 0.  0.
         24    2    1    2    0    0  0.12441630821E+03 -0.50544848004E+02 -0.35434091243E+02  0.16075068684E+03  0.80938304221E+02 0.  0.
        -11    1    4    4    0    0  0.62978208051E+02 -0.20092027445E+02  0.23677342617E+02  0.70217952189E+02  0.00000000000E+00 0.  1.
         12    1    4    4    0    0  0.61438100157E+02 -0.30452820558E+02 -0.59111433859E+02  0.90532734653E+02  0.00000000000E+00 0. -1.
        -13    1    3    3    0    0 -0.76690586361E+02 -0.12047451436E+02  0.85973168605E+02  0.11583597387E+03  0.00000000000E+00 0. -1.
         13    1    3    3    0    0 -0.68720554352E+02  0.61967622668E+02  0.26750358301E+02  0.96322803732E+02  0.00000000000E+00 0.  1.
         -2    1    1    2    0  502  0.20994832505E+02  0.62467677196E+00 -0.19716754005E+01  0.21096462188E+02  0.00000000000E+00 0.  1.
<scales pt_clust_5="13000.00000" pt_clust_6="13000.00000" pt_clust_7="13000.00000" pt_clust_8="13000.00000" pt_clust_9="21.00412"></scales>
<clustering>
<clus scale="   21.004">  2  9  1 -1</clus>
<clus scale="   80.938">  5  6 -1 -1</clus>
<clus scale="   93.104">  7  8 -1 -1</clus>
<clus scale="  167.942">  2  5  1 -1</clus>
<clus scale="   21.004">  2  5  1 -1</clus>
</clustering>
</event>
<event>
 9    2  0.1325014E-004  0.9526830E+02  0.7546771E-02  0.1296708E+00
         21   -1    0    0  501  502  0.00000000000E+00  0.00000000000E+00  0.26251837933E+03  0.26251837933E+03  0.00000000000E+00 0.  1.
         -1   -1    0    0    0  501 -0.00000000000E+00 -0.00000000000E+00 -0.22548409519E+03  0.22548409519E+03  0.00000000000E+00 0.  1.
         24    2    1    2    0    0 -0.71810211387E+01  0.30273653033E+02 -0.18299773992E+03  0.20216030018E+03  0.80078417938E+02 0.  0.
         23    2    1    2    0    0 -0.57395579129E+02 -0.35048917997E+01  0.99671833426E+02  0.14665424609E+03  0.90920056911E+02 0.  0.
        -11    1    3    3    0    0  0.29946658101E+02  0.33690206821E+02 -0.12809264717E+03  0.13579233641E+03  0.00000000000E+00 0.  1.
         12    1    3    3    0    0 -0.37127679240E+02 -0.34165537874E+01 -0.54905092750E+02  0.66367963773E+02  0.00000000000E+00 0. -1.
        -13    1    4    4    0    0 -0.35323733988E+02 -0.46985775678E+02  0.56277540856E+02  0.81379302674E+02  0.00000000000E+00 0.  1.
         13    1    4    4    0    0 -0.22071845141E+02  0.43480883878E+02  0.43394292570E+02  0.65274943420E+02  0.00000000000E+00 0. -1.
         -2    1    1    2    0  502  0.64576600268E+02 -0.26768761233E+02  0.12036019063E+03  0.13918792824E+03  0.00000000000E+00 0.  1.
<scales pt_clust_5="13000.00000" pt_clust_6="13000.00000" pt_clust_7="13000.00000" pt_clust_8="13000.00000" pt_clust_9="69.90496"></scales>
<clustering>
<clus scale="   69.905">  1  9  2 -1</clus>
<clus scale="   80.078">  5  6 -1 -1</clus>
<clus scale="   84.983">  2  5  1 -1</clus>
<clus scale="   90.920">  7  8 -1 -1</clus>
<clus scale="   69.905">  1  5  2 -1</clus>
</clustering>
</event>
<event>
 9    2  0.1325014E-004  0.2001163E+03  0.7546771E-02  0.1150185E+00
         -1   -1    0    0    0  501 -0.00000000000E+00  0.00000000000E+00  0.15827184624E+03  0.15827184624E+03  0.00000000000E+00 0.  1.
         21   -1    0    0  501  502  0.00000000000E+00 -0.00000000000E+00 -0.31671411862E+03  0.31671411862E+03  0.00000000000E+00 0. -1.
         23    2    1    2    0    0 -0.16815162196E+03  0.16718084956E+01 -0.35510674560E+02  0.19421488045E+03  0.90446939518E+02 0.  0.
         24    2    1    2    0    0  0.19133913199E+03 -0.50798644350E+01 -0.66378334486E+02  0.21955387229E+03  0.84624766435E+02 0.  0.
        -13    1    4    4    0    0  0.17874877289E+03 -0.20423138422E+02 -0.78505953322E+02  0.19629420037E+03  0.00000000000E+00 0.  1.
         14    1    4    4    0    0  0.12590359096E+02  0.15343273987E+02  0.12127618837E+02  0.23259671912E+02  0.00000000000E+00 0. -1.
        -13    1    3    3    0    0 -0.14330266658E+03  0.52739108588E+00  0.86131194020E+01  0.14356224510E+03  0.00000000000E+00 0.  1.
         13    1    3    3    0    0 -0.24848955380E+02  0.11444174097E+01 -0.44123793962E+02  0.50652635354E+02  0.00000000000E+00 0. -1.
         -2    1    1    2    0  502 -0.23187510026E+02  0.34080559394E+01 -0.56553263330E+02  0.61217212120E+02  0.00000000000E+00 0.  1.
<scales pt_clust_5="13000.00000" pt_clust_6="13000.00000" pt_clust_7="13000.00000" pt_clust_8="13000.00000" pt_clust_9="23.43663"></scales>
<clustering>
<clus scale="   23.437">  2  9  1 -1</clus>
<clus scale="   84.625">  5  6 -1 -1</clus>
<clus scale="   90.447">  7  8 -1 -1</clus>
<clus scale="  197.553">  2  5  1 -1</clus>
<clus scale="   23.437">  2  5  1 -1</clus>
</clustering>
</event>
<event>
 9    2  0.1325014E-004  0.1117384E+03  0.7546771E-02  0.1261564E+00
         21   -1    0    0  501  502  0.00000000000E+00  0.00000000000E+00  0.29435815782E+02  0.29435815782E+02  0.00000000000E+00 0.  1.
         -1   -1    0    0    0  501 -0.00000000000E+00 -0.00000000000E+00 -0.55263781167E+03  0.55263781167E+03  0.00000000000E+00 0.  1.
         24    2    1    2    0    0 -0.36076129767E+02 -0.43766373106E+02 -0.19144830927E+03  0.21523452343E+03  0.80352115105E+02 0.  0.
         23    2    1    2    0    0  0.34118012189E+02  0.67666557626E+02 -0.19727524151E+03  0.23023930445E+03  0.91377320065E+02 0.  0.
        -11    1    3    3    0    0 -0.54549573075E+02 -0.54376768967E+02 -0.14784911947E+03  0.16670888115E+03  0.00000000000E+00 0.  1.
         12    1    3    3    0    0  0.18473443308E+02  0.10610395861E+02 -0.43599189801E+02  0.48525642286E+02  0.00000000000E+00 0. -1.
        -13    1    4    4    0    0  0.26586735485E+02  0.99335490917E+01 -0.43414742344E+01  0.28711988783E+02  0.00000000000E+00 0.  1.
         13    1    4    4    0    0  0.75312767034E+01  0.57733008534E+02 -0.19293376728E+03  0.20152731567E+03  0.00000000000E+00 0. -1.
         -2    1    1    2    0  502  0.19581175779E+01 -0.23900184520E+02 -0.13447844510E+03  0.13659979957E+03  0.00000000000E+00 0.  1.
<scales pt_clust_5="13000.00000" pt_clust_6="13000.00000" pt_clust_7="13000.00000" pt_clust_8="13000.00000" pt_clust_9="23.98028"></scales>
<clustering>
<clus scale="   23.980">  1  9  2 -1</clus>
<clus scale="   80.352">  5  6 -1 -1</clus>
<clus scale="   91.377">  7  8 -1 -1</clus>
<clus scale="  102.918">  2  5  1 -1</clus>
<clus scale="   23.980">  1  5  2 -1</clus>
</clustering>
</event>
<event>
 9    2  0.1325014E-004  0.1211854E+03  0.7546771E-02  0.1244671E+00
          4   -1    0    0  502    0 -0.00000000000E+00  0.00000000000E+00  0.51244418969E+03  0.51244418969E+03  0.00000000000E+00 0. -1.
         21   -1    0    0  501  502  0.00000000000E+00 -0.00000000000E+00 -0.85919525975E+02  0.85919525975E+02  0.00000000000E+00 0. -1.
         24    2    1    2    0    0 -0.68583807927E+02  0.62379429787E+02  0.40304909773E+03  0.42133986443E+03  0.80521886503E+02 0.  0.
         23    2    1    2    0    0  0.36936049201E+02 -0.34043050180E+01  0.42021810238E+02  0.10757164357E+03  0.91814840528E+02 0.  0.
        -11    1    3    3    0    0  0.15045350740E+01  0.51609999201E+02  0.15661302816E+03  0.16490450640E+03  0.00000000000E+00 0.  1.
         12    1    3    3    0    0 -0.70088343001E+02  0.10769430586E+02  0.24643606957E+03  0.25643535802E+03  0.00000000000E+00 0. -1.
        -13    1    4    4    0    0  0.60299989330E+02 -0.16958998482E+02  0.49167501978E+02  0.79631272711E+02  0.00000000000E+00 0.  1.
         13    1    4    4    0    0 -0.23363940129E+02  0.13554693464E+02 -0.71456917402E+01  0.27940370858E+02  0.00000000000E+00 0. -1.
          3    1    1    2  501    0  0.31647758726E+02 -0.58975124769E+02 -0.18546244252E+02  0.69452207667E+02  0.00000000000E+00 0. -1.
<scales pt_clust_5="13000.00000" pt_clust_6="13000.00000" pt_clust_7="13000.00000" pt_clust_8="13000.00000" pt_clust_9="66.93016"></scales>
<clustering>
<clus scale="   66.930">  2  9  1 -1</clus>
<clus scale="   80.522">  5  6 -1 -1</clus>
<clus scale="   91.815">  7  8 -1 -1</clus>
<clus scale="  112.870">  1  5  2 -1</clus>
<clus scale="   66.930">  2  5  1 -1</clus>
</clustering>
</event>
<event>
 9    2  0.1325014E-004  0.1143039E+03  0.7546771E-02  0.1265485E+00
         -3   -1    0    0    0  501 -0.00000000000E+00  0.00000000000E+00  0.72435747136E+02  0.72435747136E+02  0.00000000000E+00 0.  1.
         21   -1    0    0  501  502  0.00000000000E+00 -0.00000000000E+00 -0.38494186884E+03  0.38494186884E+03  0.00000000000E+00 0.  1.
         23    2    1    2    0    0  0.33141610583E+01 -0.30630537238E+02 -0.55690196065E+02  0.10503039132E+03  0.83551012492E+02 0.  0.
         24    2    1    2    0    0  0.45713149076E+02 -0.62810664540E+02 -0.21078514855E+03  0.23722221535E+03  0.76217642488E+02 0.  0.
        -11    1    4    4    0    0  0.25100042617E+02 -0.23704994163E+02 -0.18017508080E+03  0.18345298752E+03  0.00000000000E+00 0.  1.
         12    1    4    4    0    0  0.20613106459E+02 -0.39105670377E+02 -0.30610067744E+02  0.53769227824E+02  0.00000000000E+00 0. -1.
        -13    1    3    3    0    0 -0.25109522188E+02  0.17499633228E+02 -0.82044146934E+01  0.31686553743E+02  0.00000000000E+00 0.  1.
         13    1    3    3    0    0  0.28423683246E+02 -0.48130170466E+02 -0.47485781371E+02  0.73343837579E+02  0.00000000000E+00 0. -1.
         -4    1    1    2    0  502 -0.49027310135E+02  0.93441201778E+02 -0.46030777091E+02  0.11512500931E+03  0.00000000000E+00 0.  1.
<scales pt_clust_5="13000.00000" pt_clust_6="13000.00000" pt_clust_7="13000.00000" pt_clust_8="13000.00000" pt_clust_9="85.18373"></scales>
<clustering>
<clus scale="   76.218">  5  6 -1 -1</clus>
<clus scale="   83.551">  7  8 -1 -1</clus>
<clus scale="   89.050">  1  7  2 -1</clus>
<clus scale="   85.184">  2  9  1 -1</clus>
<clus scale="   85.184">  2  5  1 -1</clus>
</clustering>
</event>
<event>
 9    2  0.1325014E-004  0.1036210E+03  0.7546771E-02  0.1277144E+00
          4   -1    0    0  502    0 -0.00000000000E+00  0.00000000000E+00  0.21783954164E+03  0.21783954164E+03  0.00000000000E+00 0. -1.
         21   -1    0    0  501  502  0.00000000000E+00 -0.00000000000E+00 -0.67697657311E+02  0.67697657311E+02  0.00000000000E+00 0.  1.
         23    2    1    2    0    0 -0.17470631826E+02  0.20267414806E+02  0.89741812138E+02  0.13392718247E+03  0.95743962108E+02 0.  0.
         24    2    1    2    0    0  0.36676368188E+02 -0.42934160328E+02  0.63889734110E+02  0.12169648439E+03  0.86831089367E+02 0.  0.
        -13    1    4    4    0    0  0.20227097420E+00  0.25754506951E+02  0.17533882488E+02  0.31157223511E+02  0.00000000000E+00 0.  1.
         14    1    4    4    0    0  0.36474097213E+02 -0.68688667279E+02  0.46355851622E+02  0.90539260874E+02  0.00000000000E+00 0. -1.
        -11    1    3    3    0    0  0.29863731697E+02  0.35237208999E+02  0.25575068038E+02  0.52797608601E+02  0.00000000000E+00 0.  1.
         11    1    3    3    0    0 -0.47334363522E+02 -0.14969794193E+02  0.64166744101E+02  0.81129573872E+02  0.00000000000E+00 0. -1.
          3    1    1    2  501    0 -0.19205736362E+02  0.22666745521E+02 -0.34896619215E+01  0.29913532089E+02  0.00000000000E+00 0. -1.
<scales pt_clust_5="13000.00000" pt_clust_6="13000.00000" pt_clust_7="13000.00000" pt_clust_8="13000.00000" pt_clust_9="29.70929"></scales>
<clustering>
<clus scale="   29.709">  2  9  1 -1</clus>
<clus scale="   86.831">  5  6 -1 -1</clus>
<clus scale="   95.447">  2  5  1 -1</clus>
<clus scale="   95.744">  7  8 -1 -1</clus>
<clus scale="   29.709">  2  5  1 -1</clus>
</clustering>
</event>
<event>
 9    2  0.1325014E-004  0.8862203E+02  0.7546771E-02  0.1312612E+00
          2   -1    0    0  502    0 -0.00000000000E+00  0.00000000000E+00  0.77186397687E+02  0.77186397687E+02  0.00000000000E+00 0. -1.
         21   -1    0    0  501  502  0.00000000000E+00 -0.00000000000E+00 -0.16100291062E+03  0.16100291062E+03  0.00000000000E+00 0. -1.
         24    2    1    2    0    0 -0.95018992189E+01  0.12577668549E+02  0.23103796094E+02  0.82660490969E+02  0.77784879883E+02 0.  0.
         23    2    1    2    0    0  0.15245811045E+02  0.80157651832E+01 -0.72563269898E+02  0.11506292832E+03  0.87620557465E+02 0.  0.
        -11    1    3    3    0    0  0.17518405736E+02 -0.11020668341E+02  0.38430442454E+02  0.43649153227E+02  0.00000000000E+00 0.  1.
         12    1    3    3    0    0 -0.27020304955E+02  0.23598336890E+02 -0.15326646360E+02  0.39011337742E+02  0.00000000000E+00 0. -1.
        -11    1    4    4    0    0 -0.35633729113E+02 -0.67202076857E+01 -0.31655948855E+02  0.48135464470E+02  0.00000000000E+00 0.  1.
         11    1    4    4    0    0  0.50879540158E+02  0.14735972869E+02 -0.40907321042E+02  0.66927463854E+02  0.00000000000E+00 0. -1.
          1    1    1    2  501    0 -0.57439118264E+01 -0.20593433732E+02 -0.34357039133E+02  0.40465889017E+02  0.00000000000E+00 0. -1.
<scales pt_clust_5="13000.00000" pt_clust_6="13000.00000" pt_clust_7="13000.00000" pt_clust_8="13000.00000" pt_clust_9="21.37948"></scales>
<clustering>
<clus scale="   21.379">  2  9  1 -1</clus>
<clus scale="   77.785">  5  6 -1 -1</clus>
<clus scale="   78.911">  1  5  2 -1</clus>
<clus scale="   87.621">  7  8 -1 -1</clus>
<clus scale="   21.379">  2  5  1 -1</clus>
</clustering>
</event>
<event>
 9    2  0.1325014E-004  0.1039087E+03  0.7546771E-02  0.1275950E+00
         21   -1    0    0  501  502  0.00000000000E+00  0.00000000000E+00  0.36085811088E+02  0.36085811088E+02  0.00000000000E+00 0.  1.
          2   -1    0    0  502    0 -0.00000000000E+00 -0.00000000000E+00 -0.57971174733E+03  0.57971174733E+03  0.00000000000E+00 0. -1.
         24    2    1    2    0    0  0.15323291656E+02  0.45336889295E+02 -0.22438955736E+03  0.24321887105E+03  0.80712508249E+02 0.  0.
         23    2    1    2    0    0 -0.52719823007E+02 -0.51487023183E+02 -0.10876621907E+03  0.15872356613E+03  0.89066193032E+02 0.  0.
        -11    1    3    3    0    0  0.47982290296E+02  0.29287493255E+02 -0.15476920327E+03  0.16466196806E+03  0.00000000000E+00 0.  1.
         12    1    3    3    0    0 -0.32658998640E+02  0.16049396041E+02 -0.69620354081E+02  0.78556902993E+02  0.00000000000E+00 0. -1.
        -13    1    4    4    0    0 -0.65821823024E+02 -0.29735730839E+02 -0.34127521143E+02  0.79883751627E+02  0.00000000000E+00 0.  1.
         13    1    4    4    0    0  0.13102000017E+02 -0.21751292344E+02 -0.74638697928E+02  0.78839814507E+02  0.00000000000E+00 0. -1.
          1    1    1    2  501    0  0.37396531351E+02  0.61501338879E+01 -0.21047015981E+03  0.21385512123E+03  0.00000000000E+00 0. -1.
<scales pt_clust_5="13000.00000" pt_clust_6="13000.00000" pt_clust_7="13000.00000" pt_clust_8="13000.00000" pt_clust_9="37.89889"></scales>
<clustering>
<clus scale="   37.899">  1  9  2 -1</clus>
<clus scale="   80.713">  5  6 -1 -1</clus>
<clus scale="   89.066">  7  8 -1 -1</clus>
<clus scale="   96.844">  2  5  1 -1</clus>
<clus scale="   37.899">  1  5  2 -1</clus>
</clustering>
</event>
<event>
 9    2  0.1325014E-004  0.1579516E+03  0.7546771E-02  0.1215885E+00
         21   -1    0    0  501  502  0.00000000000E+00  0.00000000000E+00  0.11879796561E+03  0.11879796561E+03  0.00000000000E+00 0.  1.
         -1   -1    0    0    0  501 -0.00000000000E+00 -0.00000000000E+00 -0.39317226895E+03  0.39317226895E+03  0.00000000000E+00 0.  1.
         23    2    1    2    0    0 -0.10250943478E+02 -0.76998329234E+01  0.37691536241E+01  0.92423954168E+02  0.91452782985E+02 0.  0.
         24    2    1    2    0    0 -0.53317478822E+02 -0.11548783477E+03 -0.22515575465E+03  0.27114195976E+03  0.81502484406E+02 0.  0.
        -13    1    4    4    0    0 -0.22854944189E+02 -0.11594082549E+03 -0.19661913611E+03  0.22939857928E+03  0.00000000000E+00 0.  1.
         14    1    4    4    0    0 -0.30462534633E+02  0.45299071906E+00 -0.28536618540E+02  0.41743380488E+02  0.00000000000E+00 0. -1.
        -11    1    3    3    0    0 -0.41387664475E+02 -0.14830150579E+02  0.28180959371E+02  0.52221055216E+02  0.00000000000E+00 0.  1.
         11    1    3    3    0    0  0.31136720997E+02  0.71303176554E+01 -0.24411805746E+02  0.40202898952E+02  0.00000000000E+00 0. -1.
         -2    1    1    2    0  502  0.63568422300E+02  0.12318766769E+03 -0.52987702307E+02  0.14840432063E+03  0.00000000000E+00 0.  1.
<scales pt_clust_5="13000.00000" pt_clust_6="13000.00000" pt_clust_7="13000.00000" pt_clust_8="13000.00000" pt_clust_9="135.29985"></scales>
<clustering>
<clus scale="   81.502">  5  6 -1 -1</clus>
<clus scale="   91.453">  7  8 -1 -1</clus>
<clus scale="   92.347">  2  7  1 -1</clus>
<clus scale="  135.300">  1  9  2 -1</clus>
<clus scale="  135.300">  1  5  2 -1</clus>
</clustering>
</event>
<event>
 9    2  0.1325014E-004  0.1509424E+03  0.7546771E-02  0.1213773E+00
         21   -1    0    0  501  502  0.00000000000E+00  0.00000000000E+00  0.14563965066E+03  0.14563965066E+03  0.00000000000E+00 0.  1.
          2   -1    0    0  502    0 -0.00000000000E+00 -0.00000000000E+00 -0.82166267616E+03  0.82166267616E+03  0.00000000000E+00 0. -1.
         24    2    1    2    0    0 -0.89694849091E+01 -0.76912856998E+02 -0.43401796541E+03  0.44790293975E+03  0.79053209360E+02 0.  0.
         23    2    1    2    0    0  0.83784857248E+02  0.16072196628E+03 -0.32195452464E+03  0.38151094080E+03  0.95102204291E+02 0.  0.
        -13    1    3    3    0    0 -0.24018706487E+02 -0.32982203732E+02 -0.70693155838E+02  0.81622584538E+02  0.00000000000E+00 0.  1.
         14    1    3    3    0    0  0.15049221578E+02 -0.43930653266E+02 -0.36332480957E+03  0.36628035521E+03  0.00000000000E+00 0. -1.
        -13    1    4    4    0    0  0.58840531978E+01  0.61489571525E+02 -0.18623978354E+03  0.19621632568E+03  0.00000000000E+00 0. -1.
         13    1    4    4    0    0  0.77900804050E+02  0.99232394755E+02 -0.13571474110E+03  0.18529461512E+03  0.00000000000E+00 0.  1.
          1    1    1    2  501    0 -0.74815372339E+02 -0.83809109282E+02  0.79949464549E+02  0.13788844628E+03  0.00000000000E+00 0. -1.
<scales pt_clust_5="13000.00000" pt_clust_6="13000.00000" pt_clust_7="13000.00000" pt_clust_8="13000.00000" pt_clust_9="117.21420"></scales>
<clustering>
<clus scale="   79.053">  5  6 -1 -1</clus>
<clus scale="   95.102">  7  8 -1 -1</clus>
<clus scale="  110.659">  2  5  1 -1</clus>
<clus scale="  117.214">  1  9  2 -1</clus>
<clus scale="  117.214">  1  5  2 -1</clus>
</clustering>
</event>
<event>
 9    2  0.1325014E-004  0.1085000E+03  0.7546771E-02  0.1267834E+00
          2   -1    0    0  502    0 -0.00000000000E+00  0.00000000000E+00  0.19857037054E+03  0.19857037054E+03  0.00000000000E+00 0. -1.
         21   -1    0    0  501  502  0.00000000000E+00 -0.00000000000E+00 -0.76763332721E+02  0.76763332721E+02  0.00000000000E+00 0.  1.
         24    2    1    2    0    0  0.44698988458E+02  0.15754453710E+02  0.57491154293E+02  0.10991321206E+03  0.80805191556E+02 0.  0.
         23    2    1    2    0    0 -0.74334599469E+02 -0.19631368689E+01  0.60070381597E+02  0.13245848054E+03  0.91691394016E+02 0.  0.
        -11    1    3    3    0    0  0.80870568034E+01  0.36293177503E+02 -0.18445327930E+01  0.37228987661E+02  0.00000000000E+00 0.  1.
         12    1    3    3    0    0  0.36611931654E+02 -0.20538723793E+02  0.59335687085E+02  0.72684224399E+02  0.00000000000E+00 0. -1.
        -13    1    4    4    0    0 -0.65528063334E+02  0.36842714897E+02  0.24448396130E+02  0.79050849449E+02  0.00000000000E+00 0.  1.
         13    1    4    4    0    0 -0.88065361351E+01 -0.38805851766E+02  0.35621985467E+02  0.53407631089E+02  0.00000000000E+00 0. -1.
          1    1    1    2  501    0  0.29635611011E+02 -0.13791316841E+02  0.42455019269E+01  0.32962010661E+02  0.00000000000E+00 0. -1.
<scales pt_clust_5="13000.00000" pt_clust_6="13000.00000" pt_clust_7="13000.00000" pt_clust_8="13000.00000" pt_clust_9="32.68746"></scales>
<clustering>
<clus scale="   32.687">  2  9  1 -1</clus>
<clus scale="   80.805">  5  6 -1 -1</clus>
<clus scale="   91.691">  7  8 -1 -1</clus>
<clus scale="   99.471">  1  5  2 -1</clus>
<clus scale="   32.687">  2  5  1 -1</clus>
</clustering>
</event>
<event>
 9    2  0.1325014E-004  0.2844023E+03  0.7546771E-02  0.1093885E+00
         21   -1    0    0  501  502  0.00000000000E+00  0.00000000000E+00  0.10042190186E+03  0.10042190186E+03  0.00000000000E+00 0.  1.
          2   -1    0    0  502    0 -0.00000000000E+00 -0.00000000000E+00 -0.13703265993E+04  0.13703265993E+04  0.00000000000E+00 0. -1.
         24    2    1    2    0    0 -0.21864347884E+03 -0.13508692617E+03 -0.80617173840E+03  0.84959331229E+03  0.76436091237E+02 0.  0.
         23    2    1    2    0    0  0.29520307947E+03  0.10460082379E+03 -0.32907659160E+03  0.46328463373E+03  0.90857351043E+02 0.  0.
        -13    1    3    3    0    0 -0.10965554120E+03 -0.83091949922E+02 -0.54101413183E+03  0.55823373303E+03  0.00000000000E+00 0.  1.
         14    1    3    3    0    0 -0.10898793764E+03 -0.51994976249E+02 -0.26515760657E+03  0.29135957926E+03  0.00000000000E+00 0. -1.
        -13    1    4    4    0    0  0.11372297530E+03  0.21186564697E+01 -0.15170144996E+03  0.18960678716E+03  0.00000000000E+00 0. -1.
         13    1    4    4    0    0  0.18148010417E+03  0.10248216733E+03 -0.17737514164E+03  0.27367784657E+03  0.00000000000E+00 0.  1.
          1    1    1    2  501    0 -0.76559600634E+02  0.30486102376E+02 -0.13465636749E+03  0.15787055518E+03  0.00000000000E+00 0. -1.
<scales pt_clust_5="13000.00000" pt_clust_6="13000.00000" pt_clust_7="13000.00000" pt_clust_8="13000.00000" pt_clust_9="82.40616"></scales>
<clustering>
<clus scale="   76.436">  5  6 -1 -1</clus>
<clus scale="   82.406">  1  9  2 -1</clus>
<clus scale="   90.857">  7  8 -1 -1</clus>
<clus scale="  280.129">  2  5  1 -1</clus>
<clus scale="   82.406">  1  5  2 -1</clus>
</clustering>
</event>
<event>
 9    2  0.1325014E-004  0.1274493E+03  0.7546771E-02  0.1247738E+00
         21   -1    0    0  501  502  0.00000000000E+00  0.00000000000E+00  0.76593396301E+02  0.76593396301E+02  0.00000000000E+00 0. -1.
         -1   -1    0    0    0  501 -0.00000000000E+00 -0.00000000000E+00 -0.41679144243E+03  0.41679144243E+03  0.00000000000E+00 0.  1.
         23    2    1    2    0    0 -0.15692762258E+01  0.86448305730E+00 -0.21766983203E+03  0.23601538862E+03  0.91213474509E+02 0.  0.
         24    2    1    2    0    0 -0.76324873137E+02  0.59436645803E+02 -0.56473706235E+02  0.13876539176E+03  0.81904537918E+02 0.  0.
        -13    1    4    4    0    0 -0.11326594917E+02 -0.20129250505E+02 -0.17103247959E+02  0.28740208229E+02  0.00000000000E+00 0.  1.
         14    1    4    4    0    0 -0.64998278220E+02  0.79565896308E+02 -0.39370458276E+02  0.11002518353E+03  0.00000000000E+00 0. -1.
        -11    1    3    3    0    0  0.27173224807E+02 -0.27537411737E+02 -0.48256234438E+02  0.61849473350E+02  0.00000000000E+00 0. -1.
         11    1    3    3    0    0 -0.28742501033E+02  0.28401894794E+02 -0.16941359759E+03  0.17416591527E+03  0.00000000000E+00 0.  1.
         -2    1    1    2    0  502  0.77894149363E+02 -0.60301128860E+02 -0.66054507863E+02  0.11860405834E+03  0.00000000000E+00 0.  1.
<scales pt_clust_5="13000.00000" pt_clust_6="13000.00000" pt_clust_7="13000.00000" pt_clust_8="13000.00000" pt_clust_9="97.64723"></scales>
<clustering>
<clus scale="   81.905">  5  6 -1 -1</clus>
<clus scale="   91.213">  7  8 -1 -1</clus>
<clus scale="   91.231">  2  7  1 -1</clus>
<clus scale="   97.647">  1  9  2 -1</clus>
<clus scale="   97.647">  1  5  2 -1</clus>
</clustering>
</event>
<event>
 9    2  0.1325014E-004  0.9095666E+02  0.7546771E-02  0.1304610E+00
         21   -1    0    0  501  502  0.00000000000E+00  0.00000000000E+00  0.50393437187E+02  0.50393437187E+02  0.00000000000E+00 0. -1.
          2   -1    0    0  502    0 -0.00000000000E+00 -0.00000000000E+00 -0.48519840875E+03  0.48519840875E+03  0.00000000000E+00 0. -1.
         23    2    1    2    0    0 -0.57622985455E+01 -0.19949434906E+02 -0.29371555196E+03  0.30686913188E+03  0.86421378140E+02 0.  0.
         24    2    1    2    0    0  0.62769093060E+02  0.13892216226E+02 -0.13740336554E+03  0.17127663923E+03  0.79517605399E+02 0.  0.
        -11    1    4    4    0    0  0.59631092283E+01  0.38353626028E+02 -0.38803635148E+02  0.54884254589E+02  0.00000000000E+00 0.  1.
         12    1    4    4    0    0  0.56805983831E+02 -0.24461409802E+02 -0.98599730390E+02  0.11639238464E+03  0.00000000000E+00 0. -1.
        -13    1    3    3    0    0 -0.39189221894E+02 -0.34227535104E+02 -0.15662038150E+03  0.16503715695E+03  0.00000000000E+00 0.  1.
         13    1    3    3    0    0  0.33426923348E+02  0.14278100197E+02 -0.13709517045E+03  0.14183197492E+03  0.00000000000E+00 0. -1.
          1    1    1    2  501    0 -0.57006794514E+02  0.60572186802E+01 -0.36860540659E+01  0.57446074831E+02  0.00000000000E+00 0. -1.
<scales pt_clust_5="13000.00000" pt_clust_6="13000.00000" pt_clust_7="13000.00000" pt_clust_8="13000.00000" pt_clust_9="57.32769"></scales>
<clustering>
<clus scale="   57.328">  1  9  2 -1</clus>
<clus scale="   79.518">  5  6 -1 -1</clus>
<clus scale="   84.425">  1  5  2 -1</clus>
<clus scale="   86.421">  7  8 -1 -1</clus>
<clus scale="   57.328">  1  5  2 -1</clus>
</clustering>
</event>
<event>
 9    2  0.1325014E-004  0.2028802E+03  0.7546771E-02  0.1181634E+00
         21   -1    0    0  501  502  0.00000000000E+00  0.00000000000E+00  0.30994085381E+02  0.30994085381E+02  0.00000000000E+00 0. -1.
          2   -1    0    0  502    0 -0.00000000000E+00 -0.00000000000E+00 -0.25570494049E+04  0.25570494049E+04  0.00000000000E+00 0. -1.
         24    2    1    2    0    0 -0.51835647830E+00 -0.42957934522E+02 -0.31040056608E+03  0.32370611323E+03  0.81187951609E+02 0.  0.
         23    2    1    2    0    0  0.10404224929E+03 -0.13827606770E+03 -0.51448039631E+03  0.55040705371E+03  0.91174481333E+02 0.  0.
        -11    1    3    3    0    0 -0.12203616860E+02 -0.64305590455E+02 -0.19260249218E+03  0.20342039530E+03  0.00000000000E+00 0.  1.
         12    1    3    3    0    0  0.11685260382E+02  0.21347655932E+02 -0.11779807390E+03  0.12028571793E+03  0.00000000000E+00 0. -1.
        -13    1    4    4    0    0  0.63783292146E+02 -0.13191008698E+03 -0.32363851441E+03  0.35526112568E+03  0.00000000000E+00 0. -1.
         13    1    4    4    0    0  0.40258957141E+02 -0.63659807148E+01 -0.19084188190E+03  0.19514592803E+03  0.00000000000E+00 0.  1.
          1    1    1    2  501    0 -0.10352389281E+03  0.18123400222E+03 -0.17011743571E+04  0.17139303233E+04  0.00000000000E+00 0. -1.
<scales pt_clust_5="13000.00000" pt_clust_6="13000.00000" pt_clust_7="13000.00000" pt_clust_8="13000.00000" pt_clust_9="181.23912"></scales>
<clustering>
<clus scale="   81.188">  5  6 -1 -1</clus>
<clus scale="   91.174">  7  8 -1 -1</clus>
<clus scale="   91.854">  2  5  1 -1</clus>
<clus scale="  181.239">  1  9  2 -1</clus>
<clus scale="  181.239">  1  5  2 -1</clus>
</clustering>
</event>
<event>
 9    2  0.1325014E-004  0.1684036E+03  0.7546771E-02  0.1202507E+00
         21   -1    0    0  501  502  0.00000000000E+00  0.00000000000E+00  0.64375698039E+02  0.64375698039E+02  0.00000000000E+00 0. -1.
          2   -1    0    0  502    0 -0.00000000000E+00 -0.00000000000E+00 -0.74955793015E+03  0.74955793015E+03  0.00000000000E+00 0. -1.
         24    2    1    2    0    0  0.51056149374E+02  0.33997849204E+02 -0.28325920405E+03  0.30087263276E+03  0.80783539968E+02 0.  0.
         23    2    1    2    0    0  0.10908778948E+03 -0.64477503140E+02 -0.19088588913E+03  0.24639310372E+03  0.90634676964E+02 0.  0.
        -13    1    3    3    0    0  0.44558757570E+02  0.54340233256E+02 -0.14680623623E+03  0.16275876266E+03  0.00000000000E+00 0.  1.
         14    1    3    3    0    0  0.64973918045E+01 -0.20342384052E+02 -0.13645296782E+03  0.13811387011E+03  0.00000000000E+00 0. -1.
        -13    1    4    4    0    0  0.79276444181E+02 -0.27907298364E+02 -0.17898291580E+03  0.19773329526E+03  0.00000000000E+00 0.  1.
         13    1    4    4    0    0  0.29811345299E+02 -0.36570204775E+02 -0.11902973327E+02  0.48659808465E+02  0.00000000000E+00 0. -1.
          1    1    1    2  501    0 -0.16014393885E+03  0.30479653936E+02 -0.21103713894E+03  0.26666789171E+03  0.00000000000E+00 0. -1.
<scales pt_clust_5="13000.00000" pt_clust_6="13000.00000" pt_clust_7="13000.00000" pt_clust_8="13000.00000" pt_clust_9="141.93364"></scales>
<clustering>
<clus scale="   80.784">  5  6 -1 -1</clus>
<clus scale="   90.635">  7  8 -1 -1</clus>
<clus scale="  101.433">  2  5  1 -1</clus>
<clus scale="  141.934">  1  9  2 -1</clus>
<clus scale="  141.934">  1  5  2 -1</clus>
</clustering>
</event>
<event>
 9    2  0.1325014E-004  0.1247457E+03  0.7546771E-02  0.1236467E+00
         -3   -1    0    0    0  501 -0.00000000000E+00  0.00000000000E+00  0.45234568079E+03  0.45234568079E+03  0.00000000000E+00 0.  1.
         21   -1    0    0  501  502  0.00000000000E+00 -0.00000000000E+00 -0.77269803765E+02  0.77269803765E+02  0.00000000000E+00 0. -1.
         24    2    1    2    0    0 -0.57886423983E+02  0.77096914034E+02  0.34024438046E+03  0.36295413762E+03  0.81698808731E+02 0.  0.
         23    2    1    2    0    0  0.37989502970E+02 -0.64716871565E+02  0.63020119949E+02  0.13000413202E+03  0.85428701397E+02 0.  0.
        -13    1    3    3    0    0 -0.45850778069E+02  0.71709470234E+02  0.33921186695E+03  0.34972736903E+03  0.00000000000E+00 0.  1.
         14    1    3    3    0    0 -0.12035645914E+02  0.53874438005E+01  0.10325135130E+01  0.13226768594E+02  0.00000000000E+00 0. -1.
        -11    1    4    4    0    0  0.89701688065E+01 -0.57469937971E+02  0.77397535000E+02  0.96817540368E+02  0.00000000000E+00 0.  1.
         11    1    4    4    0    0  0.29019334164E+02 -0.72469335937E+01 -0.14377415051E+02  0.33186591650E+02  0.00000000000E+00 0. -1.
         -4    1    1    2    0  502  0.19896921013E+02 -0.12380042469E+02 -0.28188623380E+02  0.36657214916E+02  0.00000000000E+00 0.  1.
<scales pt_clust_5="13000.00000" pt_clust_6="13000.00000" pt_clust_7="13000.00000" pt_clust_8="13000.00000" pt_clust_9="23.43401"></scales>
<clustering>
<clus scale="   23.434">  2  9  1 -1</clus>
<clus scale="   81.699">  5  6 -1 -1</clus>
<clus scale="   85.429">  7  8 -1 -1</clus>
<clus scale="  122.222">  1  5  2 -1</clus>
<clus scale="   23.434">  2  5  1 -1</clus>
</clustering>
</event>
<event>
 9    2  0.1325014E-004  0.1203070E+03  0.7546771E-02  0.1252615E+00
         21   -1    0    0  501  502  0.00000000000E+00  0.00000000000E+00  0.45589134668E+03  0.45589134668E+03  0.00000000000E+00 0. -1.
         -1   -1    0    0    0  501 -0.00000000000E+00 -0.00000000000E+00 -0.71631066794E+02  0.71631066794E+02  0.00000000000E+00 0.  1.
         23    2    1    2    0    0  0.20694461018E+02  0.28939755644E+02  0.43229614501E+02  0.10747330326E+03  0.91738438893E+02 0.  0.
         24    2    1    2    0    0 -0.50258856115E+02  0.71395674324E+02  0.26800906954E+03  0.29248185178E+03  0.78060728502E+02 0.  0.
        -11    1    4    4    0    0  0.43505666716E+01  0.25068781223E+02  0.15005869112E+02  0.29538912136E+02  0.00000000000E+00 0.  1.
         12    1    4    4    0    0 -0.54609422787E+02  0.46326893101E+02  0.25300320043E+03  0.26294293964E+03  0.00000000000E+00 0. -1.
        -11    1    3    3    0    0 -0.11711257375E+02  0.42302302240E+02 -0.87713928437E+01  0.44761318753E+02  0.00000000000E+00 0.  1.
         11    1    3    3    0    0  0.32405718393E+02 -0.13362546596E+02  0.52001007345E+02  0.62711984508E+02  0.00000000000E+00 0. -1.
         -2    1    1    2    0  502  0.29564395097E+02 -0.10033542997E+03  0.73021595843E+02  0.12756725843E+03  0.00000000000E+00 0.  1.
<scales pt_clust_5="13000.00000" pt_clust_6="13000.00000" pt_clust_7="13000.00000" pt_clust_8="13000.00000" pt_clust_9="91.54397"></scales>
<clustering>
<clus scale="   78.061">  5  6 -1 -1</clus>
<clus scale="   91.738">  7  8 -1 -1</clus>
<clus scale="   98.396">  2  7  1 -1</clus>
<clus scale="   91.544">  1  9  2 -1</clus>
<clus scale="   91.544">  1  5  2 -1</clus>
</clustering>
</event>
<event>
 9    2  0.1325014E-004  0.1095311E+03  0.7546771E-02  0.1265602E+00
          2   -1    0    0  502    0 -0.00000000000E+00  0.00000000000E+00  0.15219944510E+03  0.15219944510E+03  0.00000000000E+00 0. -1.
         21   -1    0    0  501  502  0.00000000000E+00 -0.00000000000E+00 -0.32074192840E+03  0.32074192840E+03  0.00000000000E+00 0. -1.
         23    2    1    2    0    0 -0.46703135896E+02 -0.32626796169E+02  0.10501650147E+03  0.15049828207E+03  0.91518176300E+02 0.  0.
         24    2    1    2    0    0  0.63352686853E+02  0.47920527296E+02 -0.11253758959E+03  0.15984236737E+03  0.81085963436E+02 0.  0.
        -11    1    4    4    0    0  0.35140852648E+02  0.27602291176E+02 -0.11657110965E+03  0.12484225891E+03  0.00000000000E+00 0.  1.
         12    1    4    4    0    0  0.28211834205E+02  0.20318236120E+02  0.40335200602E+01  0.35000108462E+02  0.00000000000E+00 0. -1.
        -13    1    3    3    0    0  0.20135343056E+02  0.34133025976E+01  0.57261103924E+02  0.60794051495E+02  0.00000000000E+00 0.  1.
         13    1    3    3    0    0 -0.66838478953E+02 -0.36040098766E+02  0.47755397550E+02  0.89704230575E+02  0.00000000000E+00 0. -1.
          1    1    1    2  501    0 -0.16649550957E+02 -0.15293731127E+02 -0.16102139518E+03  0.16260072406E+03  0.00000000000E+00 0. -1.
<scales pt_clust_5="13000.00000" pt_clust_6="13000.00000" pt_clust_7="13000.00000" pt_clust_8="13000.00000" pt_clust_9="22.60765"></scales>
<clustering>
<clus scale="   22.608">  2  9  1 -1</clus>
<clus scale="   81.086">  5  6 -1 -1</clus>
<clus scale="   91.518">  7  8 -1 -1</clus>
<clus scale="  100.977">  2  5  1 -1</clus>
<clus scale="   22.608">  2  5  1 -1</clus>
</clustering>
</event>
<event>
 9    2  0.1325014E-004  0.1002127E+03  0.7546771E-02  0.1282368E+00
          2   -1    0    0  502    0 -0.00000000000E+00  0.00000000000E+00  0.35479446922E+03  0.35479446922E+03  0.00000000000E+00 0. -1.
         21   -1    0    0  501  502  0.00000000000E+00 -0.00000000000E+00 -0.81532709645E+02  0.81532709645E+02  0.00000000000E+00 0.  1.
         23    2    1    2    0    0  0.24377329375E+02  0.36866968412E+02  0.68387064530E+02  0.12185974109E+03  0.90661890321E+02 0.  0.
         24    2    1    2    0    0 -0.70852403544E+02  0.46595533528E+02  0.40379582439E+02  0.12424503157E+03  0.81333328715E+02 0.  0.
        -13    1    4    4    0    0 -0.49040728429E+02  0.65039055172E+02  0.48175776067E+02  0.94636024548E+02  0.00000000000E+00 0.  1.
         14    1    4    4    0    0 -0.21811675115E+02 -0.18443521644E+02 -0.77961936285E+01  0.29609007025E+02  0.00000000000E+00 0. -1.
        -13    1    3    3    0    0  0.48744661144E+01 -0.29947193506E+02  0.13451092230E+02  0.33189255806E+02  0.00000000000E+00 0. -1.
         13    1    3    3    0    0  0.19502863261E+02  0.66814161918E+02  0.54935972300E+02  0.88670485285E+02  0.00000000000E+00 0.  1.
          1    1    1    2  501    0  0.46475074169E+02 -0.83462501940E+02  0.16449511261E+03  0.19022240620E+03  0.00000000000E+00 0. -1.
<scales pt_clust_5="13000.00000" pt_clust_6="13000.00000" pt_clust_7="13000.00000" pt_clust_8="13000.00000" pt_clust_9="95.52974"></scales>
<clustering>
<clus scale="   81.333">  5  6 -1 -1</clus>
<clus scale="   90.662">  7  8 -1 -1</clus>
<clus scale="   95.530">  2  9  1 -1</clus>
<clus scale="   95.530">  2  5  1 -1</clus>
<clus scale="   95.530">  2  5  1 -1</clus>
</clustering>
</event>
<event>
 9    2  0.1325014E-004  0.2862494E+03  0.7546771E-02  0.1092343E+00
         21   -1    0    0  501  502  0.00000000000E+00  0.00000000000E+00  0.52526371978E+03  0.52526371978E+03  0.00000000000E+00 0.  1.
         -1   -1    0    0    0  501 -0.00000000000E+00 -0.00000000000E+00 -0.56599266446E+03  0.56599266446E+03  0.00000000000E+00 0.  1.
         23    2    1    2    0    0  0.58918101958E+02  0.27926440030E+03 -0.43518122247E+03  0.52507316094E+03  0.69707818317E+02 0.  0.
         24    2    1    2    0    0 -0.79689450544E+02 -0.23146117383E+03  0.11073463279E+03  0.27771780170E+03  0.70287516403E+02 0.  0.
        -11    1    4    4    0    0  0.90450315948E+01 -0.65795639123E+02  0.22695313401E+02  0.70185154944E+02  0.00000000000E+00 0.  1.
         12    1    4    4    0    0 -0.88734482138E+02 -0.16566553471E+03  0.88039319392E+02  0.20753264675E+03  0.00000000000E+00 0. -1.
        -11    1    3    3    0    0  0.10526882287E+02  0.85303094984E+02 -0.79584416172E+02  0.11713715278E+03  0.00000000000E+00 0. -1.
         11    1    3    3    0    0  0.48391219671E+02  0.19396130531E+03 -0.35559680630E+03  0.40793600815E+03  0.00000000000E+00 0.  1.
         -2    1    1    2    0  502  0.20771348585E+02 -0.47803226467E+02  0.28371764500E+03  0.28846542161E+03  0.00000000000E+00 0.  1.
<scales pt_clust_5="13000.00000" pt_clust_6="13000.00000" pt_clust_7="13000.00000" pt_clust_8="13000.00000" pt_clust_9="52.12099"></scales>
<clustering>
<clus scale="   52.121">  1  9  2 -1</clus>
<clus scale="   69.708">  7  8 -1 -1</clus>
<clus scale="   70.288">  5  6 -1 -1</clus>
<clus scale="  286.108">  2  7  1 -1</clus>
<clus scale="   52.121">  1  5  2 -1</clus>
</clustering>
</event>
<event>
 9    2  0.1325014E-004  0.1711893E+03  0.7546771E-02  0.1178234E+00
          2   -1    0    0  502    0 -0.00000000000E+00  0.00000000000E+00  0.98882668890E+03  0.98882668890E+03  0.00000000000E+00 0. -1.
         21   -1    0    0  501  502  0.00000000000E+00 -0.00000000000E+00 -0.42149304628E+02  0.42149304628E+02  0.00000000000E+00 0.  1.
         23    2    1    2    0    0  0.13932556258E+03  0.44841914621E+02  0.70771106695E+03  0.72836246140E+03  0.90744207456E+02 0.  0.
         24    2    1    2    0    0 -0.12797944018E+03 -0.63888921769E+02  0.20434757168E+03  0.26150415942E+03  0.78523651925E+02 0.  0.
        -11    1    4    4    0    0 -0.98951557075E+02 -0.56251319392E+02  0.95455480702E+02  0.14855090164E+03  0.00000000000E+00 0.  1.
         12    1    4    4    0    0 -0.29027883104E+02 -0.76376023761E+01  0.10889209097E+03  0.11295325779E+03  0.00000000000E+00 0. -1.
        -13    1    3    3    0    0  0.40297565173E+02  0.42084303841E+02  0.13339958893E+03  0.14556933989E+03  0.00000000000E+00 0.  1.
         13    1    3    3    0    0  0.99027997406E+02  0.27576107797E+01  0.57431147802E+03  0.58279312151E+03  0.00000000000E+00 0. -1.
          1    1    1    2  501    0 -0.11346122400E+02  0.19047007148E+02  0.34618745643E+02  0.41109372711E+02  0.00000000000E+00 0. -1.
<scales pt_clust_5="13000.00000" pt_clust_6="13000.00000" pt_clust_7="13000.00000" pt_clust_8="13000.00000" pt_clust_9="22.17032"></scales>
<clustering>
<clus scale="   22.170">  2  9  1 -1</clus>
<clus scale="   78.524">  5  6 -1 -1</clus>
<clus scale="   90.744">  7  8 -1 -1</clus>
<clus scale="  165.037">  2  5  1 -1</clus>
<clus scale="   22.170">  2  5  1 -1</clus>
</clustering>
</event>
<event>
 9    2  0.1325014E-004  0.1773756E+03  0.7546771E-02  0.1172045E+00
          2   -1    0    0  502    0 -0.00000000000E+00  0.00000000000E+00  0.10305297322E+04  0.10305297322E+04  0.00000000000E+00 0. -1.
         21   -1    0    0  501  502  0.00000000000E+00 -0.00000000000E+00 -0.45872042316E+02  0.45872042316E+02  0.00000000000E+00 0. -1.
         24    2    1    2    0    0  0.32392153166E+02  0.11701620187E+03  0.34005084373E+03  0.37000287725E+03  0.80780627404E+02 0.  0.
         23    2    1    2    0    0 -0.47910296849E+02 -0.18829099487E+03  0.49088209627E+03  0.53624541471E+03  0.94047950864E+02 0.  0.
        -13    1    3    3    0    0  0.31452833941E+01  0.11518753683E+03  0.28922368778E+03  0.31133326681E+03  0.00000000000E+00 0.  1.
         14    1    3    3    0    0  0.29246869772E+02  0.18286650422E+01  0.50827155955E+02  0.58669610445E+02  0.00000000000E+00 0. -1.
        -11    1    4    4    0    0  0.25009457319E+02 -0.63400314225E+02  0.20195154317E+03  0.21314196816E+03  0.00000000000E+00 0.  1.
         11    1    4    4    0    0 -0.72919754169E+02 -0.12489068065E+03  0.28893055310E+03  0.32310344655E+03  0.00000000000E+00 0. -1.
          1    1    1    2  501    0  0.15518143683E+02  0.71274793000E+02  0.15372474989E+03  0.17015348256E+03  0.00000000000E+00 0. -1.
<scales pt_clust_5="13000.00000" pt_clust_6="13000.00000" pt_clust_7="13000.00000" pt_clust_8="13000.00000" pt_clust_9="72.94456"></scales>
<clustering>
<clus scale="   72.945">  2  9  1 -1</clus>
<clus scale="   80.781">  5  6 -1 -1</clus>
<clus scale="   94.048">  7  8 -1 -1</clus>
<clus scale="  170.712">  1  5  2 -1</clus>
<clus scale="   72.945">  2  5  1 -1</clus>
</clustering>
</event>
<event>
 9    2  0.1325014E-004  0.9665351E+02  0.7546771E-02  0.1290636E+00
         21   -1    0    0  501  502  0.00000000000E+00  0.00000000000E+00  0.16088227383E+03  0.16088227383E+03  0.00000000000E+00 0.  1.
         -3   -1    0    0    0  501 -0.00000000000E+00 -0.00000000000E+00 -0.10879658422E+03  0.10879658422E+03  0.00000000000E+00 0.  1.
         23    2    1    2    0    0  0.49823063349E+01  0.22869594087E+02 -0.45833423528E+02  0.10599824880E+03  0.92666522149E+02 0.  0.
         24    2    1    2    0    0  0.19085477582E+02 -0.40381739325E+02  0.57073636923E+02  0.11314066089E+03  0.86881924406E+02 0.  0.
        -11    1    4    4    0    0  0.47120832891E+02  0.15106245131E+01  0.30583568880E+02  0.56196170369E+02  0.00000000000E+00 0.  1.
         12    1    4    4    0    0 -0.28035355308E+02 -0.41892363838E+02  0.26490068043E+02  0.56944490516E+02  0.00000000000E+00 0. -1.
        -13    1    3    3    0    0 -0.23970017259E+02  0.12414383456E+02  0.19818503979E+02  0.33488083612E+02  0.00000000000E+00 0. -1.
         13    1    3    3    0    0  0.28952323594E+02  0.10455210631E+02 -0.65651927507E+02  0.72510165193E+02  0.00000000000E+00 0.  1.
         -4    1    1    2    0  502 -0.24067783917E+02  0.17512145238E+02  0.40845476208E+02  0.50539948360E+02  0.00000000000E+00 0.  1.
<scales pt_clust_5="13000.00000" pt_clust_6="13000.00000" pt_clust_7="13000.00000" pt_clust_8="13000.00000" pt_clust_9="29.76463"></scales>
<clustering>
<clus scale="   29.765">  1  9  2 -1</clus>
<clus scale="   86.882">  5  6 -1 -1</clus>
<clus scale="   91.122">  1  5  2 -1</clus>
<clus scale="   92.667">  7  8 -1 -1</clus>
<clus scale="   29.765">  1  5  2 -1</clus>
</clustering>
</event>
<event>
 9    2  0.1325014E-004  0.1644257E+03  0.7546771E-02  0.1209374E+00
         21   -1    0    0  501  502  0.00000000000E+00  0.00000000000E+00  0.77246727811E+02  0.77246727811E+02  0.00000000000E+00 0.  1.
         -1   -1    0    0    0  501 -0.00000000000E+00 -0.00000000000E+00 -0.53322813779E+03  0.53322813779E+03  0.00000000000E+00 0.  1.
         23    2    1    2    0    0 -0.12944596952E+02 -0.21057808535E+02 -0.13706568557E+03  0.16621001161E+03  0.90707066479E+02 0.  0.
         24    2    1    2    0    0  0.13831169687E+03 -0.46983184709E+02 -0.17790330260E+03  0.24368821125E+03  0.79980085602E+02 0.  0.
        -13    1    4    4    0    0  0.12341646095E+03 -0.63856350233E+02 -0.12792501393E+03  0.18887579381E+03  0.00000000000E+00 0.  1.
         14    1    4    4    0    0  0.14895235921E+02  0.16873165524E+02 -0.49978288669E+02  0.54812417446E+02  0.00000000000E+00 0. -1.
        -13    1    3    3    0    0  0.22384662152E+02 -0.33580507825E+02 -0.11685012668E+03  0.12362311964E+03  0.00000000000E+00 0.  1.
         13    1    3    3    0    0 -0.35329259104E+02  0.12522699290E+02 -0.20215558888E+02  0.42586891967E+02  0.00000000000E+00 0. -1.
         -2    1    1    2    0  502 -0.12536709992E+03  0.68040993245E+02 -0.14101242182E+03  0.20057664273E+03  0.00000000000E+00 0.  1.
<scales pt_clust_5="13000.00000" pt_clust_6="13000.00000" pt_clust_7="13000.00000" pt_clust_8="13000.00000" pt_clust_9="143.66280"></scales>
<clustering>
<clus scale="   79.980">  5  6 -1 -1</clus>
<clus scale="   90.707">  7  8 -1 -1</clus>
<clus scale="   94.015">  2  7  1 -1</clus>
<clus scale="  143.663">  1  9  2 -1</clus>
<clus scale="  143.663">  1  5  2 -1</clus>
</clustering>
</event>
<event>
 9    2  0.1325014E-004  0.3330642E+03  0.7546771E-02  0.1090630E+00
         21   -1    0    0  501  502  0.00000000000E+00  0.00000000000E+00  0.34804876234E+03  0.34804876234E+03  0.00000000000E+00 0.  1.
          2   -1    0    0  502    0 -0.00000000000E+00 -0.00000000000E+00 -0.93560762255E+03  0.93560762255E+03  0.00000000000E+00 0. -1.
         23    2    1    2    0    0  0.14611439098E+03  0.82790228220E+02 -0.13127014237E+03  0.23094732810E+03  0.88888587225E+02 0.  0.
         24    2    1    2    0    0 -0.67139891254E+02 -0.33024648862E+03  0.16048278016E+03  0.38347168997E+03  0.87893720118E+02 0.  0.
        -11    1    4    4    0    0 -0.83408278290E+02 -0.29786243196E+03  0.12783862333E+03  0.33469640404E+03  0.00000000000E+00 0.  1.
         12    1    4    4    0    0  0.16268387036E+02 -0.32384056656E+02  0.32644156830E+02  0.48775285929E+02  0.00000000000E+00 0. -1.
        -11    1    3    3    0    0  0.11813119278E+03  0.99997644303E+02 -0.93217722242E+02  0.18067664850E+03  0.00000000000E+00 0.  1.
         11    1    3    3    0    0  0.27983198200E+02 -0.17207416083E+02 -0.38052420129E+02  0.50270679600E+02  0.00000000000E+00 0. -1.
          1    1    1    2  501    0 -0.78974499725E+02  0.24745626040E+03 -0.61677149799E+03  0.66923736683E+03  0.00000000000E+00 0. -1.
<scales pt_clust_5="13000.00000" pt_clust_6="13000.00000" pt_clust_7="13000.00000" pt_clust_8="13000.00000" pt_clust_9="321.25782"></scales>
<clustering>
<clus scale="   87.894">  5  6 -1 -1</clus>
<clus scale="   88.889">  7  8 -1 -1</clus>
<clus scale="  190.013">  2  7  1 -1</clus>
<clus scale="  321.258">  1  9  2 -1</clus>
<clus scale="  321.258">  1  5  2 -1</clus>
</clustering>
</event>
<event>
 9    2  0.1325014E-004  0.1061693E+03  0.7546771E-02  0.1273491E+00
         21   -1    0    0  501  502  0.00000000000E+00  0.00000000000E+00  0.27881719855E+03  0.27881719855E+03  0.00000000000E+00 0. -1.
          2   -1    0    0  502    0 -0.00000000000E+00 -0.00000000000E+00 -0.41559816533E+03  0.41559816533E+03  0.00000000000E+00 0. -1.
         24    2    1    2    0    0  0.37466316763E+02 -0.64529504606E+01 -0.17283907143E+03  0.19436323826E+03  0.80363911766E+02 0.  0.
         23    2    1    2    0    0 -0.53748418574E+02  0.53651077627E+02 -0.21380008056E+03  0.24525439651E+03  0.93123111682E+02 0.  0.
        -11    1    3    3    0    0  0.33764041852E+02 -0.17780975087E+02 -0.24068631812E+02  0.45116212546E+02  0.00000000000E+00 0.  1.
         12    1    3    3    0    0  0.37022749105E+01  0.11328024626E+02 -0.14877043962E+03  0.14924702572E+03  0.00000000000E+00 0. -1.
        -13    1    4    4    0    0 -0.31015079527E+02  0.78997120442E+02 -0.16761796429E+03  0.18787831740E+03  0.00000000000E+00 0.  1.
         13    1    4    4    0    0 -0.22733339047E+02 -0.25346042815E+02 -0.46182116262E+02  0.57376079102E+02  0.00000000000E+00 0. -1.
          1    1    1    2  501    0  0.16282101811E+02 -0.47198127167E+02  0.24985818521E+03  0.25479772911E+03  0.00000000000E+00 0. -1.
<scales pt_clust_5="13000.00000" pt_clust_6="13000.00000" pt_clust_7="13000.00000" pt_clust_8="13000.00000" pt_clust_9="49.92765"></scales>
<clustering>
<clus scale="   49.928">  1  9  2 -1</clus>
<clus scale="   80.364">  5  6 -1 -1</clus>
<clus scale="   93.123">  7  8 -1 -1</clus>
<clus scale="   95.175">  2  5  1 -1</clus>
<clus scale="   49.928">  1  5  2 -1</clus>
</clustering>
</event>
<event>
 9    2  0.1325014E-004  0.1624396E+03  0.7546771E-02  0.1209609E+00
         21   -1    0    0  501  502  0.00000000000E+00  0.00000000000E+00  0.11458471204E+03  0.11458471204E+03  0.00000000000E+00 0.  1.
          2   -1    0    0  502    0 -0.00000000000E+00 -0.00000000000E+00 -0.53919948939E+03  0.53919948939E+03  0.00000000000E+00 0. -1.
         24    2    1    2    0    0  0.24060218695E+02  0.48377313727E+02 -0.81858312187E+02  0.12693710471E+03  0.80579070919E+02 0.  0.
         23    2    1    2    0    0  0.97506513420E+02  0.77988178719E+02 -0.15144019714E+02  0.15526046826E+03  0.91031837790E+02 0.  0.
        -11    1    3    3    0    0  0.14225674753E+02  0.70634225996E+02 -0.54635905702E+02  0.90424807968E+02  0.00000000000E+00 0.  1.
         12    1    3    3    0    0  0.98345439427E+01 -0.22256912269E+02 -0.27222406485E+02  0.36512296739E+02  0.00000000000E+00 0. -1.
        -13    1    4    4    0    0  0.31913409190E+02  0.37744281950E+02  0.37481912825E+02  0.62032171452E+02  0.00000000000E+00 0.  1.
         13    1    4    4    0    0  0.65593104230E+02  0.40243896770E+02 -0.52625932539E+02  0.93228296806E+02  0.00000000000E+00 0. -1.
          1    1    1    2  501    0 -0.12156673212E+03 -0.12636549245E+03 -0.32761244545E+03  0.37158662846E+03  0.00000000000E+00 0. -1.
<scales pt_clust_5="13000.00000" pt_clust_6="13000.00000" pt_clust_7="13000.00000" pt_clust_8="13000.00000" pt_clust_9="134.53573"></scales>
<clustering>
<clus scale="   80.579">  5  6 -1 -1</clus>
<clus scale="   91.032">  7  8 -1 -1</clus>
<clus scale="   97.017">  2  5  1 -1</clus>
<clus scale="  134.536">  1  9  2 -1</clus>
<clus scale="  134.536">  1  5  2 -1</clus>
</clustering>
</event>
<event>
 9    2  0.1325014E-004  0.1599717E+03  0.7546771E-02  0.1206463E+00
         21   -1    0    0  501  502  0.00000000000E+00  0.00000000000E+00  0.54079993206E+02  0.54079993206E+02  0.00000000000E+00 0. -1.
          2   -1    0    0  502    0 -0.00000000000E+00 -0.00000000000E+00 -0.99720911428E+03  0.99720911428E+03  0.00000000000E+00 0. -1.
         24    2    1    2    0    0  0.25107667704E+02  0.68227724785E+02 -0.16389425179E+03  0.19664191504E+03  0.80754563780E+02 0.  0.
         23    2    1    2    0    0  0.12550590062E+03 -0.61291421553E+01 -0.19683471984E+03  0.24989053477E+03  0.88949845202E+02 0.  0.
        -11    1    3    3    0    0  0.23131370539E+02  0.77990453863E+02 -0.87008406020E+02  0.11911353372E+03  0.00000000000E+00 0.  1.
         12    1    3    3    0    0  0.19762971655E+01 -0.97627290774E+01 -0.76885845773E+02  0.77528381318E+02  0.00000000000E+00 0. -1.
        -11    1    4    4    0    0  0.10873880118E+03  0.29889457560E+02 -0.15973377631E+03  0.19553103551E+03  0.00000000000E+00 0. -1.
         11    1    4    4    0    0  0.16767099445E+02 -0.36018599715E+02 -0.37100943530E+02  0.54359499263E+02  0.00000000000E+00 0.  1.
          1    1    1    2  501    0 -0.15061356833E+03 -0.62098582630E+02 -0.58240014945E+03  0.60475665768E+03  0.00000000000E+00 0. -1.
<scales pt_clust_5="13000.00000" pt_clust_6="13000.00000" pt_clust_7="13000.00000" pt_clust_8="13000.00000" pt_clust_9="132.96200"></scales>
<clustering>
<clus scale="   80.755">  5  6 -1 -1</clus>
<clus scale="   88.950">  7  8 -1 -1</clus>
<clus scale="  108.659">  2  5  1 -1</clus>
<clus scale="  132.962">  1  9  2 -1</clus>
<clus scale="  132.962">  1  5  2 -1</clus>
</clustering>
</event>
<event>
 9    2  0.1325014E-004  0.1976244E+03  0.7546771E-02  0.1180717E+00
         21   -1    0    0  501  502  0.00000000000E+00  0.00000000000E+00  0.81554925866E+02  0.81554925866E+02  0.00000000000E+00 0. -1.
          2   -1    0    0  502    0 -0.00000000000E+00 -0.00000000000E+00 -0.74011062259E+03  0.74011062259E+03  0.00000000000E+00 0. -1.
         24    2    1    2    0    0  0.54579082046E+02  0.28851526483E+02 -0.12240581356E+03  0.15897923336E+03  0.80497991713E+02 0.  0.
         23    2    1    2    0    0 -0.20845077041E+03 -0.45676092215E+02 -0.35654326150E+03  0.42558274903E+03  0.91975811322E+02 0.  0.
        -11    1    3    3    0    0  0.19249571456E+02 -0.26535490522E+02 -0.23872863167E+02  0.40553567714E+02  0.00000000000E+00 0.  1.
         12    1    3    3    0    0  0.35329510589E+02  0.55387017005E+02 -0.98532950389E+02  0.11842566565E+03  0.00000000000E+00 0. -1.
        -13    1    4    4    0    0 -0.20905744264E+03 -0.25380436540E+02 -0.33707483482E+03  0.39745267033E+03  0.00000000000E+00 0. -1.
         13    1    4    4    0    0  0.60667223173E+00 -0.20295655675E+02 -0.19468426681E+02  0.28130078704E+02  0.00000000000E+00 0.  1.
          1    1    1    2  501    0  0.15387168837E+03  0.16824565732E+02 -0.17960662167E+03  0.23710356606E+03  0.00000000000E+00 0. -1.
<scales pt_clust_5="13000.00000" pt_clust_6="13000.00000" pt_clust_7="13000.00000" pt_clust_8="13000.00000" pt_clust_9="174.91668"></scales>
<clustering>
<clus scale="   80.498">  5  6 -1 -1</clus>
<clus scale="   91.976">  7  8 -1 -1</clus>
<clus scale="  101.446">  2  5  1 -1</clus>
<clus scale="  174.917">  1  9  2 -1</clus>
<clus scale="  174.917">  1  5  2 -1</clus>
</clustering>
</event>
<event>
 9    2  0.1325014E-004  0.2489288E+03  0.7546771E-02  0.1114557E+00
         21   -1    0    0  501  502  0.00000000000E+00  0.00000000000E+00  0.48051902080E+03  0.48051902080E+03  0.00000000000E+00 0.  1.
         -1   -1    0    0    0  501 -0.00000000000E+00 -0.00000000000E+00 -0.21598824094E+03  0.21598824094E+03  0.00000000000E+00 0.  1.
         24    2    1    2    0    0  0.13373993129E+03  0.17589888776E+03  0.10556486096E+03  0.25785207749E+03  0.80727727959E+02 0.  0.
         23    2    1    2    0    0 -0.95217783486E+02 -0.23488968447E+03  0.21819985542E+03  0.34660884156E+03  0.91032532505E+02 0.  0.
        -11    1    3    3    0    0  0.92336075843E+02  0.67337472646E+02  0.78225184773E+02  0.13848994786E+03  0.00000000000E+00 0.  1.
         12    1    3    3    0    0  0.41403855448E+02  0.10856141511E+03  0.27339676182E+02  0.11936212964E+03  0.00000000000E+00 0. -1.
        -11    1    4    4    0    0 -0.48970078099E+02 -0.92965564524E+02  0.35999063091E+02  0.11107023580E+03  0.00000000000E+00 0. -1.
         11    1    4    4    0    0 -0.46247705387E+02 -0.14192411995E+03  0.18220079233E+03  0.23553860576E+03  0.00000000000E+00 0.  1.
         -2    1    1    2    0  502 -0.38522147805E+02  0.58990796711E+02 -0.59233936519E+02  0.92046342696E+02  0.00000000000E+00 0.  1.
<scales pt_clust_5="13000.00000" pt_clust_6="13000.00000" pt_clust_7="13000.00000" pt_clust_8="13000.00000" pt_clust_9="70.45477"></scales>
<clustering>
<clus scale="   70.455">  1  9  2 -1</clus>
<clus scale="   80.728">  5  6 -1 -1</clus>
<clus scale="   91.033">  7  8 -1 -1</clus>
<clus scale="  245.348">  2  5  1 -1</clus>
<clus scale="   70.455">  1  5  2 -1</clus>
</clustering>
</event>
<event>
 9    2  0.1325014E-004  0.1996530E+03  0.7546771E-02  0.1151056E+00
          2   -1    0    0  502    0 -0.00000000000E+00  0.00000000000E+00  0.86892493729E+03  0.86892493729E+03  0.00000000000E+00 0. -1.
         21   -1    0    0  501  502  0.00000000000E+00 -0.00000000000E+00 -0.95505324975E+02  0.95505324975E+02  0.00000000000E+00 0.  1.
         23    2    1    2    0    0  0.12322071130E+03 -0.50031728501E+02  0.21419604725E+03  0.26802608339E+03  0.90947881615E+02 0.  0.
         24    2    1    2    0    0 -0.25705536335E+03 -0.47828662036E+01  0.38826371221E+03  0.47247645578E+03  0.79905916034E+02 0.  0.
        -11    1    4    4    0    0 -0.15500906077E+03 -0.76029871188E+01  0.29896138379E+03  0.33684347008E+03  0.00000000000E+00 0.  1.
         12    1    4    4    0    0 -0.10204630257E+03  0.28201209152E+01  0.89302328419E+02  0.13563298571E+03  0.00000000000E+00 0. -1.
        -13    1    3    3    0    0  0.80665725507E+02 -0.50948844632E+01  0.56488478254E+02  0.98609661264E+02  0.00000000000E+00 0.  1.
         13    1    3    3    0    0  0.42554985796E+02 -0.44936844038E+02  0.15770756899E+03  0.16941642212E+03  0.00000000000E+00 0. -1.
          1    1    1    2  501    0  0.13383465204E+03  0.54814594705E+02  0.17095985286E+03  0.22392772309E+03  0.00000000000E+00 0. -1.
<scales pt_clust_5="13000.00000" pt_clust_6="13000.00000" pt_clust_7="13000.00000" pt_clust_8="13000.00000" pt_clust_9="144.62487"></scales>
<clustering>
<clus scale="   79.906">  5  6 -1 -1</clus>
<clus scale="   90.948">  7  8 -1 -1</clus>
<clus scale="  144.625">  2  9  1 -1</clus>
<clus scale="  194.871">  2  5  1 -1</clus>
<clus scale="  144.625">  2  5  1 -1</clus>
</clustering>
</event>
<event>
 9    2  0.1325014E-004  0.2100162E+03  0.7546771E-02  0.1176109E+00
         21   -1    0    0  501  502  0.00000000000E+00  0.00000000000E+00  0.21948665965E+03  0.21948665965E+03  0.00000000000E+00 0. -1.
          2   -1    0    0  502    0 -0.00000000000E+00 -0.00000000000E+00 -0.44494520065E+03  0.44494520065E+03  0.00000000000E+00 0. -1.
         23    2    1    2    0    0  0.11906692093E+02  0.19345514966E+02 -0.15752164690E+03  0.18332361010E+03  0.90986034709E+02 0.  0.
         24    2    1    2    0    0 -0.15616018772E+03  0.11186126460E+03 -0.16281559572E+03  0.26425286515E+03  0.80135583753E+02 0.  0.
        -13    1    4    4    0    0 -0.22071636890E+02  0.88054964228E+01  0.68163678837E+01  0.24721585576E+02  0.00000000000E+00 0.  1.
         14    1    4    4    0    0 -0.13408855083E+03  0.10305576818E+03 -0.16963196360E+03  0.23953127957E+03  0.00000000000E+00 0. -1.
        -11    1    3    3    0    0 -0.23694874124E+02  0.82536791662E+01 -0.40860098936E+01  0.25421757539E+02  0.00000000000E+00 0.  1.
         11    1    3    3    0    0  0.35601566217E+02  0.11091835800E+02 -0.15343563701E+03  0.15790185256E+03  0.00000000000E+00 0. -1.
          1    1    1    2  501    0  0.14425349562E+03 -0.13120677957E+03  0.94878701621E+02  0.21685538505E+03  0.00000000000E+00 0. -1.
<scales pt_clust_5="13000.00000" pt_clust_6="13000.00000" pt_clust_7="13000.00000" pt_clust_8="13000.00000" pt_clust_9="194.12653"></scales>
<clustering>
<clus scale="   80.136">  5  6 -1 -1</clus>
<clus scale="   90.986">  7  8 -1 -1</clus>
<clus scale="   93.779">  2  7  1 -1</clus>
<clus scale="  194.127">  1  9  2 -1</clus>
<clus scale="  194.127">  1  5  2 -1</clus>
</clustering>
</event>
<event>
 9    2  0.1325014E-004  0.9414432E+02  0.7546771E-02  0.1302024E+00
         21   -1    0    0  501  502  0.00000000000E+00  0.00000000000E+00  0.35265665824E+02  0.35265665824E+02  0.00000000000E+00 0. -1.
          2   -1    0    0  502    0 -0.00000000000E+00 -0.00000000000E+00 -0.11552209957E+04  0.11552209957E+04  0.00000000000E+00 0. -1.
         24    2    1    2    0    0 -0.23946573937E+00 -0.47456594160E+01 -0.96813681180E+03  0.97142097015E+03  0.79669544104E+02 0.  0.
         23    2    1    2    0    0  0.31089544169E+02 -0.41417334216E+01 -0.15786975271E+03  0.18639566644E+03  0.94004105938E+02 0.  0.
        -11    1    3    3    0    0 -0.21578596215E+02  0.18306995659E+02 -0.14789914502E+03  0.15058200093E+03  0.00000000000E+00 0.  1.
         12    1    3    3    0    0  0.21339130475E+02 -0.23052655075E+02 -0.82023766677E+03  0.82083896922E+03  0.00000000000E+00 0. -1.
        -13    1    4    4    0    0  0.60454584291E+02  0.15658111915E+02 -0.86103644135E+02  0.10636621063E+03  0.00000000000E+00 0. -1.
         13    1    4    4    0    0 -0.29365040121E+02 -0.19799845336E+02 -0.71766108578E+02  0.80029455809E+02  0.00000000000E+00 0.  1.
          1    1    1    2  501    0 -0.30850078430E+02  0.88873928376E+01  0.60512346110E+01  0.32670024960E+02  0.00000000000E+00 0. -1.
<scales pt_clust_5="13000.00000" pt_clust_6="13000.00000" pt_clust_7="13000.00000" pt_clust_8="13000.00000" pt_clust_9="32.10472"></scales>
<clustering>
<clus scale="   32.105">  1  9  2 -1</clus>
<clus scale="   79.670">  5  6 -1 -1</clus>
<clus scale="   79.835">  2  5  1 -1</clus>
<clus scale="   94.004">  7  8 -1 -1</clus>
<clus scale="   32.105">  1  5  2 -1</clus>
</clustering>
</event>
<event>
 9    2  0.1325014E-004  0.1113013E+03  0.7546771E-02  0.1262158E+00
         21   -1    0    0  501  502  0.00000000000E+00  0.00000000000E+00  0.40256647215E+03  0.40256647215E+03  0.00000000000E+00 0.  1.
          2   -1    0    0  502    0 -0.00000000000E+00 -0.00000000000E+00 -0.14598017967E+03  0.14598017967E+03  0.00000000000E+00 0. -1.
         24    2    1    2    0    0 -0.57595088031E+02  0.57624788233E+01 -0.10641360019E+03  0.14737010456E+03  0.83926712583E+02 0.  0.
         23    2    1    2    0    0  0.85277976543E+02 -0.26635762798E+02  0.32401626787E+03  0.34900606419E+03  0.94004754420E+02 0.  0.
        -11    1    3    3    0    0 -0.36539266507E+02 -0.11188762998E+02 -0.66334815247E+00  0.38219712781E+02  0.00000000000E+00 0.  1.
         12    1    3    3    0    0 -0.21055821524E+02  0.16951241822E+02 -0.10575025204E+03  0.10915039178E+03  0.00000000000E+00 0. -1.
        -11    1    4    4    0    0 -0.14909674215E+02 -0.22225339935E+02  0.10088486103E+03  0.10437441883E+03  0.00000000000E+00 0. -1.
         11    1    4    4    0    0  0.10018765076E+03 -0.44104228637E+01  0.22313140683E+03  0.24463164536E+03  0.00000000000E+00 0.  1.
          1    1    1    2  501    0 -0.27682888513E+02  0.20873283975E+02  0.38983624802E+02  0.52170483063E+02  0.00000000000E+00 0. -1.
<scales pt_clust_5="13000.00000" pt_clust_6="13000.00000" pt_clust_7="13000.00000" pt_clust_8="13000.00000" pt_clust_9="34.67040"></scales>
<clustering>
<clus scale="   34.670">  1  9  2 -1</clus>
<clus scale="   83.927">  5  6 -1 -1</clus>
<clus scale="   94.005">  7  8 -1 -1</clus>
<clus scale="  102.931">  2  5  1 -1</clus>
<clus scale="   34.670">  1  5  2 -1</clus>
</clustering>
</event>
<event>
 9    2  0.1325014E-004  0.1273395E+03  0.7546771E-02  0.1235570E+00
          2   -1    0    0  502    0 -0.00000000000E+00  0.00000000000E+00  0.53723358018E+03  0.53723358018E+03  0.00000000000E+00 0. -1.
         21   -1    0    0  501  502  0.00000000000E+00 -0.00000000000E+00 -0.10181452913E+03  0.10181452913E+03  0.00000000000E+00 0.  1.
         23    2    1    2    0    0  0.45453614478E+02 -0.61301654928E+02  0.33276894619E+03  0.35406637415E+03  0.93829109482E+02 0.  0.
         24    2    1    2    0    0 -0.98336312007E+02  0.61346310780E+02  0.15598058924E+03  0.20987699325E+03  0.79278042184E+02 0.  0.
        -11    1    4    4    0    0 -0.51994008228E+02  0.75716786361E+02  0.99303385896E+02  0.13526851474E+03  0.00000000000E+00 0.  1.
         12    1    4    4    0    0 -0.46342303779E+02 -0.14370475581E+02  0.56677203341E+02  0.74608478516E+02  0.00000000000E+00 0. -1.
        -13    1    3    3    0    0  0.29862574806E+02 -0.37062937155E+01  0.21136779290E+02  0.36773270536E+02  0.00000000000E+00 0.  1.
         13    1    3    3    0    0  0.15591039671E+02 -0.57595361213E+02  0.31163216690E+03  0.31729310361E+03  0.00000000000E+00 0. -1.
          1    1    1    2  501    0  0.52882697529E+02 -0.44655851640E-01 -0.53330484379E+02  0.75104741903E+02  0.00000000000E+00 0. -1.
<scales pt_clust_5="13000.00000" pt_clust_6="13000.00000" pt_clust_7="13000.00000" pt_clust_8="13000.00000" pt_clust_9="52.88272"></scales>
<clustering>
<clus scale="   52.883">  2  9  1 -1</clus>
<clus scale="   79.278">  5  6 -1 -1</clus>
<clus scale="   93.829">  7  8 -1 -1</clus>
<clus scale="  117.032">  2  5  1 -1</clus>
<clus scale="   52.883">  2  5  1 -1</clus>
</clustering>
</event>
<event>
 9    2  0.1325014E-004  0.1152997E+03  0.7546771E-02  0.1258740E+00
         21   -1    0    0  501  502  0.00000000000E+00  0.00000000000E+00  0.57301506715E+02  0.57301506715E+02  0.00000000000E+00 0. -1.
          2   -1    0    0  502    0 -0.00000000000E+00 -0.00000000000E+00 -0.39156920545E+03  0.39156920545E+03  0.00000000000E+00 0. -1.
         24    2    1    2    0    0  0.52463276552E+02 -0.28792146799E+02 -0.22636097982E+03  0.25749671406E+03  0.10716287352E+03 0.  0.
         23    2    1    2    0    0  0.28387595899E+01  0.16746862305E+02 -0.31542728724E+02  0.96322101345E+02  0.89411898085E+02 0.  0.
        -11    1    3    3    0    0 -0.23596136091E+02 -0.56524844802E+00 -0.86111993266E+01  0.25124687025E+02  0.00000000000E+00 0.  1.
         12    1    3    3    0    0  0.76059412643E+02 -0.28226898351E+02 -0.21774978050E+03  0.23237202704E+03  0.00000000000E+00 0. -1.
        -11    1    4    4    0    0  0.33314031791E+02  0.35126399594E+02  0.52881948830E+00  0.48414546498E+02  0.00000000000E+00 0. -1.
         11    1    4    4    0    0 -0.30475272201E+02 -0.18379537289E+02 -0.32071548212E+02  0.47907554847E+02  0.00000000000E+00 0.  1.
          1    1    1    2  501    0 -0.55302036142E+02  0.12045284494E+02 -0.76363990183E+02  0.95051896755E+02  0.00000000000E+00 0. -1.
<scales pt_clust_5="13000.00000" pt_clust_6="13000.00000" pt_clust_7="13000.00000" pt_clust_8="13000.00000" pt_clust_9="56.59865"></scales>
<clustering>
<clus scale="   56.599">  1  9  2 -1</clus>
<clus scale="   89.412">  7  8 -1 -1</clus>
<clus scale="   99.018">  1  7  2 -1</clus>
<clus scale="  107.163">  5  6 -1 -1</clus>
<clus scale="   56.599">  1  5  2 -1</clus>
</clustering>
</event>
<event>
 9    2  0.1325014E-004  0.2617244E+03  0.7546771E-02  0.1106112E+00
         21   -1    0    0  501  502  0.00000000000E+00  0.00000000000E+00  0.61223409980E+02  0.61223409980E+02  0.00000000000E+00 0. -1.
         -1   -1    0    0    0  501 -0.00000000000E+00 -0.00000000000E+00 -0.79530127540E+03  0.79530127540E+03  0.00000000000E+00 0.  1.
         24    2    1    2    0    0  0.13636580319E+03  0.51179267332E+02 -0.27519745878E+03  0.32216842023E+03  0.82727867063E+02 0.  0.
         23    2    1    2    0    0  0.34077966065E+02  0.39482093150E+01 -0.17964769528E+03  0.20260180135E+03  0.87162488275E+02 0.  0.
        -11    1    3    3    0    0  0.10154051175E+03  0.13646712984E+02 -0.23728707283E+03  0.25846056418E+03  0.00000000000E+00 0.  1.
         12    1    3    3    0    0  0.34825291443E+02  0.37532554348E+02 -0.37910385947E+02  0.63707856051E+02  0.00000000000E+00 0. -1.
        -13    1    4    4    0    0 -0.94743033357E+01 -0.26148589280E+02 -0.19596808356E+02  0.34022728327E+02  0.00000000000E+00 0. -1.
         13    1    4    4    0    0  0.43552269400E+02  0.30096798595E+02 -0.16005088692E+03  0.16857907302E+03  0.00000000000E+00 0.  1.
         -2    1    1    2    0  502 -0.17044376926E+03 -0.55127476647E+02 -0.27923271136E+03  0.33175446380E+03  0.00000000000E+00 0.  1.
<scales pt_clust_5="13000.00000" pt_clust_6="13000.00000" pt_clust_7="13000.00000" pt_clust_8="13000.00000" pt_clust_9="179.13715"></scales>
<clustering>
<clus scale="   82.728">  5  6 -1 -1</clus>
<clus scale="   87.162">  7  8 -1 -1</clus>
<clus scale="   88.369">  5  7 -1 -1</clus>
<clus scale="  179.137">  1  9  2 -1</clus>
<clus scale="  179.137">  1  5  2 -1</clus>
</clustering>
</event>
<event>
 9    2  0.1325014E-004  0.1120469E+03  0.7546771E-02  0.1261272E+00
         21   -1    0    0  501  502  0.00000000000E+00  0.00000000000E+00  0.23862121747E+03  0.23862121747E+03  0.00000000000E+00 0. -1.
          2   -1    0    0  502    0 -0.00000000000E+00 -0.00000000000E+00 -0.87933875921E+03  0.87933875921E+03  0.00000000000E+00 0. -1.
         24    2    1    2    0    0 -0.24652736971E+01 -0.66373134050E+02 -0.84885250256E+03  0.85516735018E+03  0.79681586338E+02 0.  0.
         23    2    1    2    0    0 -0.94147415900E+01  0.11605627833E+02  0.78095865693E+02  0.12119184698E+03  0.91461311926E+02 0.  0.
        -13    1    3    3    0    0 -0.59352891635E+01 -0.57389668924E+02 -0.26380167782E+03  0.27003726961E+03  0.00000000000E+00 0.  1.
         14    1    3    3    0    0  0.34700154663E+01 -0.89834651267E+01 -0.58505082474E+03  0.58513008057E+03  0.00000000000E+00 0. -1.
        -11    1    4    4    0    0 -0.36393322127E+02  0.26168556548E+02  0.91673014520E+01  0.45752668372E+02  0.00000000000E+00 0.  1.
         11    1    4    4    0    0  0.26978580537E+02 -0.14562928715E+02  0.68928564242E+02  0.75439178607E+02  0.00000000000E+00 0. -1.
          1    1    1    2  501    0  0.11880015287E+02  0.54767506217E+02  0.13003909513E+03  0.14160077952E+03  0.00000000000E+00 0. -1.
<scales pt_clust_5="13000.00000" pt_clust_6="13000.00000" pt_clust_7="13000.00000" pt_clust_8="13000.00000" pt_clust_9="56.04119"></scales>
<clustering>
<clus scale="   56.041">  1  9  2 -1</clus>
<clus scale="   79.682">  5  6 -1 -1</clus>
<clus scale="   91.461">  7  8 -1 -1</clus>
<clus scale="  102.657">  2  5  1 -1</clus>
<clus scale="   56.041">  1  5  2 -1</clus>
</clustering>
</event>
<event>
 9    2  0.1325014E-004  0.1542809E+03  0.7546771E-02  0.1197681E+00
          2   -1    0    0  502    0 -0.00000000000E+00  0.00000000000E+00  0.38552400364E+03  0.38552400364E+03  0.00000000000E+00 0. -1.
         21   -1    0    0  501  502  0.00000000000E+00 -0.00000000000E+00 -0.11728976204E+03  0.11728976204E+03  0.00000000000E+00 0.  1.
         24    2    1    2    0    0  0.30557281705E+02  0.13231384919E+03  0.92805058747E+02  0.18186383420E+03  0.77594929670E+02 0.  0.
         23    2    1    2    0    0 -0.11034389543E+03 -0.71714007250E+02  0.68114956645E+02  0.17413512391E+03  0.91458843015E+02 0.  0.
        -11    1    3    3    0    0  0.42397660238E+02  0.34423776689E+02  0.51139913613E+02  0.74818772775E+02  0.00000000000E+00 0.  1.
         12    1    3    3    0    0 -0.11840378532E+02  0.97890072497E+02  0.41665145134E+02  0.10704506143E+03  0.00000000000E+00 0. -1.
        -13    1    4    4    0    0 -0.17923101575E+02 -0.37420075376E+02 -0.16077457701E+02  0.44497014028E+02  0.00000000000E+00 0.  1.
         13    1    4    4    0    0 -0.92420793856E+02 -0.34293931873E+02  0.84192414346E+02  0.12963810988E+03  0.00000000000E+00 0. -1.
          1    1    1    2  501    0  0.79786613726E+02 -0.60599841936E+02  0.10731422621E+03  0.14681480756E+03  0.00000000000E+00 0. -1.
<scales pt_clust_5="13000.00000" pt_clust_6="13000.00000" pt_clust_7="13000.00000" pt_clust_8="13000.00000" pt_clust_9="100.19109"></scales>
<clustering>
<clus scale="   77.595">  5  6 -1 -1</clus>
<clus scale="   91.459">  7  8 -1 -1</clus>
<clus scale="  100.191">  2  9  1 -1</clus>
<clus scale="  146.488">  1  5  2 -1</clus>
<clus scale="  100.191">  2  5  1 -1</clus>
</clustering>
</event>
<event>
 9    2  0.1325014E-004  0.2487464E+03  0.7546771E-02  0.1151529E+00
         21   -1    0    0  501  502  0.00000000000E+00  0.00000000000E+00  0.15763714383E+04  0.15763714383E+04  0.00000000000E+00 0. -1.
         -3   -1    0    0    0  501 -0.00000000000E+00 -0.00000000000E+00 -0.94585247553E+02  0.94585247553E+02  0.00000000000E+00 0.  1.
         23    2    1    2    0    0  0.25235980983E+02  0.21469144151E+02  0.16010943412E+03  0.18858433334E+03  0.93974682754E+02 0.  0.
         24    2    1    2    0    0  0.19257268356E+03 -0.13409454502E+03  0.11659243526E+04  0.11918832707E+04  0.78361658805E+02 0.  0.
        -11    1    4    4    0    0  0.79192975564E+02 -0.51066766957E+02  0.29471749627E+03  0.30941516555E+03  0.00000000000E+00 0.  1.
         12    1    4    4    0    0  0.11337970799E+03 -0.83027778062E+02  0.87120685634E+03  0.88246810518E+03  0.00000000000E+00 0. -1.
        -11    1    3    3    0    0 -0.32023973124E+02 -0.10677498011E+02  0.48533482896E+02  0.59118886833E+02  0.00000000000E+00 0.  1.
         11    1    3    3    0    0  0.57259954106E+02  0.32146642162E+02  0.11157595123E+03  0.12946544650E+03  0.00000000000E+00 0. -1.
         -4    1    1    2    0  502 -0.21780866454E+03  0.11262540087E+03  0.15575240397E+03  0.29048908174E+03  0.00000000000E+00 0.  1.
<scales pt_clust_5="13000.00000" pt_clust_6="13000.00000" pt_clust_7="13000.00000" pt_clust_8="13000.00000" pt_clust_9="236.08107"></scales>
<clustering>
<clus scale="   78.362">  5  6 -1 -1</clus>
<clus scale="   93.975">  7  8 -1 -1</clus>
<clus scale="   99.644">  2  7  1 -1</clus>
<clus scale="  236.081">  1  9  2 -1</clus>
<clus scale="  236.081">  1  5  2 -1</clus>
</clustering>
</event>
<event>
 9    2  0.1325014E-004  0.2750167E+03  0.7546771E-02  0.1128324E+00
          2   -1    0    0  502    0 -0.00000000000E+00  0.00000000000E+00  0.59724885764E+03  0.59724885764E+03  0.00000000000E+00 0. -1.
         21   -1    0    0  501  502  0.00000000000E+00 -0.00000000000E+00 -0.23552957745E+03  0.23552957745E+03  0.00000000000E+00 0.  1.
         24    2    1    2    0    0 -0.46848908922E+02  0.89074700744E+02  0.24399498057E+03  0.27602432399E+03  0.80788330305E+02 0.  0.
         23    2    1    2    0    0  0.59193980506E+02  0.20995336265E+03  0.10080182965E+03  0.25699328398E+03  0.91105418788E+02 0.  0.
        -13    1    3    3    0    0 -0.60398222338E+02  0.40231840490E+02  0.10144007300E+03  0.12472623886E+03  0.00000000000E+00 0.  1.
         14    1    3    3    0    0  0.13549313416E+02  0.48842860254E+02  0.14255490757E+03  0.15129808513E+03  0.00000000000E+00 0. -1.
        -11    1    4    4    0    0  0.75226298815E+02  0.13738041839E+03  0.93256232346E+02  0.18228850831E+03  0.00000000000E+00 0.  1.
         11    1    4    4    0    0 -0.16032318309E+02  0.72572944255E+02  0.75455973012E+01  0.74704775663E+02  0.00000000000E+00 0. -1.
          1    1    1    2  501    0 -0.12345071584E+02 -0.29902806339E+03  0.16922469971E+02  0.29976082713E+03  0.00000000000E+00 0. -1.
<scales pt_clust_5="13000.00000" pt_clust_6="13000.00000" pt_clust_7="13000.00000" pt_clust_8="13000.00000" pt_clust_9="259.48792"></scales>
<clustering>
<clus scale="   80.788">  5  6 -1 -1</clus>
<clus scale="   91.105">  7  8 -1 -1</clus>
<clus scale="  129.058">  1  5  2 -1</clus>
<clus scale="  259.488">  2  9  1 -1</clus>
<clus scale="  259.488">  2  5  1 -1</clus>
</clustering>
</event>
<event>
 9    2  0.1325014E-004  0.9043558E+02  0.7546771E-02  0.1307812E+00
          2   -1    0    0  502    0 -0.00000000000E+00  0.00000000000E+00  0.57948971826E+03  0.57948971826E+03  0.00000000000E+00 0. -1.
         21   -1    0    0  501  502  0.00000000000E+00 -0.00000000000E+00 -0.30524319974E+02  0.30524319974E+02  0.00000000000E+00 0.  1.
         24    2    1    2    0    0  0.10464691018E+02  0.40191887915E+01  0.41489636518E+03  0.42282648982E+03  0.80731549083E+02 0.  0.
         23    2    1    2    0    0  0.11587145330E+02 -0.37238270856E+01  0.13748357328E+03  0.16487096692E+03  0.90180785013E+02 0.  0.
        -11    1    3    3    0    0 -0.19271795951E+02 -0.16832166722E+02  0.50381714876E+02  0.56507000890E+02  0.00000000000E+00 0.  1.
         12    1    3    3    0    0  0.29736486968E+02  0.20851355513E+02  0.36451465030E+03  0.36631948893E+03  0.00000000000E+00 0. -1.
        -13    1    4    4    0    0 -0.18657923303E+02 -0.24418565980E+02  0.10142370356E+02  0.32361275360E+02  0.00000000000E+00 0.  1.
         13    1    4    4    0    0  0.30245068633E+02  0.20694738895E+02  0.12734120293E+03  0.13250969156E+03  0.00000000000E+00 0. -1.
          1    1    1    2  501    0 -0.22051836348E+02 -0.29536170582E+00 -0.34145401784E+01  0.22316581492E+02  0.00000000000E+00 0. -1.
<scales pt_clust_5="13000.00000" pt_clust_6="13000.00000" pt_clust_7="13000.00000" pt_clust_8="13000.00000" pt_clust_9="22.05381"></scales>
<clustering>
<clus scale="   22.054">  2  9  1 -1</clus>
<clus scale="   80.732">  5  6 -1 -1</clus>
<clus scale="   81.016">  1  5  2 -1</clus>
<clus scale="   90.181">  7  8 -1 -1</clus>
<clus scale="   22.054">  2  5  1 -1</clus>
</clustering>
</event>
<event>
 9    2  0.1325014E-004  0.9962285E+02  0.7546771E-02  0.1286962E+00
         21   -1    0    0  501  502  0.00000000000E+00  0.00000000000E+00  0.86107741706E+02  0.86107741706E+02  0.00000000000E+00 0. -1.
          2   -1    0    0  502    0 -0.00000000000E+00 -0.00000000000E+00 -0.46807050402E+03  0.46807050402E+03  0.00000000000E+00 0. -1.
         23    2    1    2    0    0 -0.30149510386E+02 -0.30214194155E+02 -0.38479734216E+03  0.39803858003E+03  0.92432819650E+02 0.  0.
         24    2    1    2    0    0 -0.30787436021E+02  0.31067647719E+02 -0.13426655545E+02  0.93064570797E+02  0.81041188954E+02 0.  0.
        -13    1    4    4    0    0  0.27267288808E+02  0.71646789638E+01  0.24684184679E+01  0.28300720015E+02  0.00000000000E+00 0.  1.
         14    1    4    4    0    0 -0.58054724830E+02  0.23902968755E+02 -0.15895074013E+02  0.64763850783E+02  0.00000000000E+00 0. -1.
        -13    1    3    3    0    0  0.30562988115E+02 -0.10393657873E+02 -0.73806005649E+02  0.80557127782E+02  0.00000000000E+00 0.  1.
         13    1    3    3    0    0 -0.60712498501E+02 -0.19820536281E+02 -0.31099133651E+03  0.31748145224E+03  0.00000000000E+00 0. -1.
          1    1    1    2  501    0  0.60936946407E+02 -0.85345356402E+00  0.16261235394E+02  0.63075094902E+02  0.00000000000E+00 0. -1.
<scales pt_clust_5="13000.00000" pt_clust_6="13000.00000" pt_clust_7="13000.00000" pt_clust_8="13000.00000" pt_clust_9="60.94292"></scales>
<clustering>
<clus scale="   60.943">  1  9  2 -1</clus>
<clus scale="   81.041">  5  6 -1 -1</clus>
<clus scale="   89.155">  1  5  2 -1</clus>
<clus scale="   92.433">  7  8 -1 -1</clus>
<clus scale="   60.943">  1  5  2 -1</clus>
</clustering>
</event>
<event>
 9    2  0.1325014E-004  0.1925458E+03  0.7546771E-02  0.1157638E+00
          2   -1    0    0  502    0 -0.00000000000E+00  0.00000000000E+00  0.56476782381E+03  0.56476782381E+03  0.00000000000E+00 0. -1.
         21   -1    0    0  501  502  0.00000000000E+00 -0.00000000000E+00 -0.23547613751E+03  0.23547613751E+03  0.00000000000E+00 0. -1.
         23    2    1    2    0    0 -0.57245163779E+02  0.14890710616E+03  0.24904242476E+03  0.30943390037E+03  0.90977328626E+02 0.  0.
         24    2    1    2    0    0  0.12901246732E+03 -0.13866380249E+03  0.24014546830E+03  0.31524734262E+03  0.76414489689E+02 0.  0.
        -11    1    4    4    0    0  0.34970786393E+02 -0.75952857667E+02  0.61312458532E+02  0.10368707759E+03  0.00000000000E+00 0.  1.
         12    1    4    4    0    0  0.94041680925E+02 -0.62710944825E+02  0.17883300977E+03  0.21156026502E+03  0.00000000000E+00 0. -1.
        -11    1    3    3    0    0 -0.72489779969E+02  0.10750935730E+03  0.13513411714E+03  0.18728123163E+03  0.00000000000E+00 0.  1.
         11    1    3    3    0    0  0.15244616190E+02  0.41397748864E+02  0.11390830762E+03  0.12215266874E+03  0.00000000000E+00 0. -1.
          1    1    1    2  501    0 -0.71767303539E+02 -0.10243303672E+02 -0.15989620677E+03  0.17556271833E+03  0.00000000000E+00 0. -1.
<scales pt_clust_5="13000.00000" pt_clust_6="13000.00000" pt_clust_7="13000.00000" pt_clust_8="13000.00000" pt_clust_9="72.49463"></scales>
<clustering>
<clus scale="   72.495">  2  9  1 -1</clus>
<clus scale="   76.414">  5  6 -1 -1</clus>
<clus scale="   90.977">  7  8 -1 -1</clus>
<clus scale="  186.108">  2  5  1 -1</clus>
<clus scale="   72.495">  2  5  1 -1</clus>
</clustering>
</event>
<event>
 9    2  0.1325014E-004  0.1361614E+03  0.7546771E-02  0.1222821E+00
         21   -1    0    0  501  502  0.00000000000E+00  0.00000000000E+00  0.10910038540E+03  0.10910038540E+03  0.00000000000E+00 0. -1.
         -1   -1    0    0    0  501 -0.00000000000E+00 -0.00000000000E+00 -0.34280538267E+03  0.34280538267E+03  0.00000000000E+00 0.  1.
         23    2    1    2    0    0 -0.26771590161E+02 -0.91837787682E+02 -0.23078449508E+03  0.26646587678E+03  0.92691332038E+02 0.  0.
         24    2    1    2    0    0  0.14808058656E+02  0.11944350146E+03  0.25654464269E+02  0.14394615407E+03  0.74674728614E+02 0.  0.
        -13    1    4    4    0    0 -0.43189339634E+01  0.62254747079E+02 -0.22953733343E+02  0.66491958904E+02  0.00000000000E+00 0.  1.
         14    1    4    4    0    0  0.19126992619E+02  0.57188754378E+02  0.48608197612E+02  0.77454195168E+02  0.00000000000E+00 0. -1.
        -13    1    3    3    0    0 -0.40242512002E+02 -0.62733429809E+02 -0.69113271003E+02  0.10164441557E+03  0.00000000000E+00 0. -1.
         13    1    3    3    0    0  0.13470921841E+02 -0.29104357874E+02 -0.16167122408E+03  0.16482146121E+03  0.00000000000E+00 0.  1.
         -2    1    1    2    0  502  0.11963531505E+02 -0.27605713775E+02 -0.28574966461E+02  0.41493737207E+02  0.00000000000E+00 0.  1.
<scales pt_clust_5="13000.00000" pt_clust_6="13000.00000" pt_clust_7="13000.00000" pt_clust_8="13000.00000" pt_clust_9="30.08658"></scales>
<clustering>
<clus scale="   30.087">  1  9  2 -1</clus>
<clus scale="   74.675">  5  6 -1 -1</clus>
<clus scale="   92.691">  7  8 -1 -1</clus>
<clus scale="  124.598">  1  5  2 -1</clus>
<clus scale="   30.087">  1  5  2 -1</clus>
</clustering>
</event>
<event>
 9    2  0.1325014E-004  0.1520666E+03  0.7546771E-02  0.1207213E+00
         21   -1    0    0  501  502  0.00000000000E+00  0.00000000000E+00  0.30778170819E+02  0.30778170819E+02  0.00000000000E+00 0. -1.
          2   -1    0    0  502    0 -0.00000000000E+00 -0.00000000000E+00 -0.14038929349E+04  0.14038929349E+04  0.00000000000E+00 0. -1.
         24    2    1    2    0    0  0.81013063737E+02  0.50906030178E+02 -0.41340516418E+03  0.43174006889E+03  0.79631130249E+02 0.  0.
         23    2    1    2    0    0 -0.11586372465E+03  0.69702596661E+02 -0.59872681077E+03  0.62074053005E+03  0.92531924395E+02 0.  0.
        -13    1    3    3    0    0  0.53299225813E+02 -0.10937127416E+02 -0.14383896342E+03  0.15378581088E+03  0.00000000000E+00 0.  1.
         14    1    3    3    0    0  0.27713837924E+02  0.61843157594E+02 -0.26956620076E+03  0.27795425801E+03  0.00000000000E+00 0. -1.
        -11    1    4    4    0    0 -0.85210527746E+02  0.92406585949E+02 -0.46046576766E+03  0.47731387404E+03  0.00000000000E+00 0.  1.
         11    1    4    4    0    0 -0.30653196903E+02 -0.22703989288E+02 -0.13826104311E+03  0.14342665600E+03  0.00000000000E+00 0. -1.
          1    1    1    2  501    0  0.34850660912E+02 -0.12060862684E+03 -0.36098278914E+03  0.38219050680E+03  0.00000000000E+00 0. -1.
<scales pt_clust_5="13000.00000" pt_clust_6="13000.00000" pt_clust_7="13000.00000" pt_clust_8="13000.00000" pt_clust_9="120.67345"></scales>
<clustering>
<clus scale="   79.631">  5  6 -1 -1</clus>
<clus scale="   92.532">  7  8 -1 -1</clus>
<clus scale="  124.482">  2  5  1 -1</clus>
<clus scale="  120.673">  1  9  2 -1</clus>
<clus scale="  120.673">  1  5  2 -1</clus>
</clustering>
</event>
<event>
 9    2  0.1325014E-004  0.5049288E+03  0.7546771E-02  0.1055576E+00
         -1   -1    0    0    0  501 -0.00000000000E+00  0.00000000000E+00  0.34911281563E+03  0.34911281563E+03  0.00000000000E+00 0.  1.
         21   -1    0    0  501  502  0.00000000000E+00 -0.00000000000E+00 -0.10476537112E+04  0.10476537112E+04  0.00000000000E+00 0.  1.
         23    2    1    2    0    0 -0.70608765788E+02  0.72034963522E+02  0.29672047421E+02  0.14506694000E+03  0.99946750353E+02 0.  0.
         24    2    1    2    0    0 -0.45468203306E+03  0.14515495220E+02 -0.20624914688E+03  0.50613429142E+03  0.81772608960E+02 0.  0.
        -11    1    4    4    0    0 -0.27830820506E+03 -0.23588531447E+02 -0.99615670800E+02  0.29653862765E+03  0.00000000000E+00 0.  1.
         12    1    4    4    0    0 -0.17637382800E+03  0.38104026667E+02 -0.10663347608E+03  0.20959566377E+03  0.00000000000E+00 0. -1.
        -11    1    3    3    0    0  0.11359678484E+02 -0.16838560020E+02  0.97630011666E+01  0.22536539011E+02  0.00000000000E+00 0. -1.
         11    1    3    3    0    0 -0.81968444272E+02  0.88873523541E+02  0.19909046254E+02  0.12253040099E+03  0.00000000000E+00 0.  1.
         -2    1    1    2    0  502  0.52529079885E+03 -0.86550458742E+02 -0.52196379613E+03  0.74556529542E+03  0.00000000000E+00 0.  1.
<scales pt_clust_5="13000.00000" pt_clust_6="13000.00000" pt_clust_7="13000.00000" pt_clust_8="13000.00000" pt_clust_9="498.26332"></scales>
<clustering>
<clus scale="   81.773">  5  6 -1 -1</clus>
<clus scale="   99.947">  7  8 -1 -1</clus>
<clus scale="  142.000">  1  7  2 -1</clus>
<clus scale="  498.263">  2  9  1 -1</clus>
<clus scale="  498.263">  2  5  1 -1</clus>
</clustering>
</event>
<event>
 9    2  0.1325014E-004  0.1123814E+03  0.7546771E-02  0.1266824E+00
         21   -1    0    0  501  502  0.00000000000E+00  0.00000000000E+00  0.64216473067E+02  0.64216473067E+02  0.00000000000E+00 0.  1.
         -3   -1    0    0    0  501 -0.00000000000E+00 -0.00000000000E+00 -0.71105241941E+03  0.71105241941E+03  0.00000000000E+00 0.  1.
         23    2    1    2    0    0  0.41954960794E+02  0.12567135396E+02 -0.55250638436E+03  0.56361544047E+03  0.10237630755E+03 0.  0.
         24    2    1    2    0    0 -0.56257152750E+02  0.58079030092E+01 -0.13418349101E+03  0.16549578321E+03  0.78645063603E+02 0.  0.
        -13    1    4    4    0    0 -0.20041469962E+02  0.34785983002E+02 -0.26110871562E+02  0.47890528765E+02  0.00000000000E+00 0.  1.
         14    1    4    4    0    0 -0.36215682788E+02 -0.28978079992E+02 -0.10807261944E+03  0.11760525445E+03  0.00000000000E+00 0. -1.
        -13    1    3    3    0    0  0.74798304060E+02 -0.28157878564E+01 -0.35470526191E+03  0.36251694826E+03  0.00000000000E+00 0.  1.
         13    1    3    3    0    0 -0.32843343265E+02  0.15382923253E+02 -0.19780112245E+03  0.20109849221E+03  0.00000000000E+00 0. -1.
         -4    1    1    2    0  502  0.14302191955E+02 -0.18375038406E+02  0.39853929018E+02  0.46157668803E+02  0.00000000000E+00 0.  1.
<scales pt_clust_5="13000.00000" pt_clust_6="13000.00000" pt_clust_7="13000.00000" pt_clust_8="13000.00000" pt_clust_9="23.28508"></scales>
<clustering>
<clus scale="   23.285">  1  9  2 -1</clus>
<clus scale="   78.645">  5  6 -1 -1</clus>
<clus scale="   91.289">  1  5  2 -1</clus>
<clus scale="  102.376">  7  8 -1 -1</clus>
<clus scale="   23.285">  1  5  2 -1</clus>
</clustering>
</event>
<event>
 9    2  0.1325014E-004  0.2119167E+03  0.7546771E-02  0.1141125E+00
         21   -1    0    0  501  502  0.00000000000E+00  0.00000000000E+00  0.89015584531E+02  0.89015584531E+02  0.00000000000E+00 0. -1.
          2   -1    0    0  502    0 -0.00000000000E+00 -0.00000000000E+00 -0.11542548849E+04  0.11542548849E+04  0.00000000000E+00 0. -1.
         24    2    1    2    0    0  0.69393428919E+02  0.19328421011E+03 -0.73127538959E+03  0.76377275528E+03  0.80068048744E+02 0.  0.
         23    2    1    2    0    0 -0.11582630257E+03 -0.96123071645E+02 -0.62883465033E+02  0.18781139866E+03  0.93077462479E+02 0.  0.
        -13    1    3    3    0    0  0.75831239170E+02  0.11263825973E+03 -0.38736426575E+03  0.41047390754E+03  0.00000000000E+00 0.  1.
         14    1    3    3    0    0 -0.64378102515E+01  0.80645950373E+02 -0.34391112384E+03  0.35329884774E+03  0.00000000000E+00 0. -1.
        -13    1    4    4    0    0 -0.11313154971E+03 -0.50599133236E+02 -0.68926194330E+02  0.14180916786E+03  0.00000000000E+00 0.  1.
         13    1    4    4    0    0 -0.26947528628E+01 -0.45523938409E+02  0.60427292971E+01  0.46002230801E+02  0.00000000000E+00 0. -1.
          1    1    1    2  501    0  0.46432873650E+02 -0.97161138460E+02 -0.27108044573E+03  0.29168631548E+03  0.00000000000E+00 0. -1.
<scales pt_clust_5="13000.00000" pt_clust_6="13000.00000" pt_clust_7="13000.00000" pt_clust_8="13000.00000" pt_clust_9="107.68617"></scales>
<clustering>
<clus scale="   80.068">  5  6 -1 -1</clus>
<clus scale="   93.077">  7  8 -1 -1</clus>
<clus scale="  107.686">  1  9  2 -1</clus>
<clus scale="  206.534">  2  5  1 -1</clus>
<clus scale="  107.686">  1  5  2 -1</clus>
</clustering>
</event>
<event>
 9    2  0.1325014E-004  0.1272348E+03  0.7546771E-02  0.1233686E+00
          2   -1    0    0  502    0 -0.00000000000E+00  0.00000000000E+00  0.10474954843E+04  0.10474954843E+04  0.00000000000E+00 0. -1.
         21   -1    0    0  501  502  0.00000000000E+00 -0.00000000000E+00 -0.30992028369E+02  0.30992028369E+02  0.00000000000E+00 0.  1.
         24    2    1    2    0    0 -0.83410966165E+02  0.53394613557E+02  0.79104178679E+03  0.80143707460E+03  0.82133440665E+02 0.  0.
         23    2    1    2    0    0  0.34672793592E+02 -0.47580233553E+02  0.12196268961E+03  0.16250239030E+03  0.89811179466E+02 0.  0.
        -11    1    3    3    0    0 -0.37483794070E+02  0.44500006468E+02  0.19328011960E+03  0.20184769017E+03  0.00000000000E+00 0.  1.
         12    1    3    3    0    0 -0.45927172095E+02  0.88946070890E+01  0.59776166719E+03  0.59958938444E+03  0.00000000000E+00 0. -1.
        -13    1    4    4    0    0  0.86813003135E+01 -0.71303787160E+02  0.75407514963E+02  0.10414359486E+03  0.00000000000E+00 0.  1.
         13    1    4    4    0    0  0.25991493278E+02  0.23723553607E+02  0.46555174645E+02  0.58358795437E+02  0.00000000000E+00 0. -1.
          1    1    1    2  501    0  0.48738172573E+02 -0.58143800046E+01  0.10349897953E+03  0.11454804775E+03  0.00000000000E+00 0. -1.
<scales pt_clust_5="13000.00000" pt_clust_6="13000.00000" pt_clust_7="13000.00000" pt_clust_8="13000.00000" pt_clust_9="49.08377"></scales>
<clustering>
<clus scale="   49.084">  2  9  1 -1</clus>
<clus scale="   82.133">  5  6 -1 -1</clus>
<clus scale="   89.811">  7  8 -1 -1</clus>
<clus scale="  121.937">  1  5  2 -1</clus>
<clus scale="   49.084">  2  5  1 -1</clus>
</clustering>
</event>
<event>
 9    2  0.1325014E-004  0.1889940E+03  0.7546771E-02  0.1189241E+00
         21   -1    0    0  501  502  0.00000000000E+00  0.00000000000E+00  0.12549930388E+03  0.12549930388E+03  0.00000000000E+00 0.  1.
          2   -1    0    0  502    0 -0.00000000000E+00 -0.00000000000E+00 -0.70016648806E+03  0.70016648806E+03  0.00000000000E+00 0. -1.
         24    2    1    2    0    0  0.28352596249E+02  0.35921155056E+02  0.29593851301E+02  0.10037990209E+03  0.84297862453E+02 0.  0.
         23    2    1    2    0    0 -0.46777874865E+02  0.14786267762E+03 -0.15374535684E+03  0.23837689963E+03  0.95573900831E+02 0.  0.
        -13    1    3    3    0    0  0.12496833659E+02  0.57650588362E+02  0.40286139914E+02  0.71433425364E+02  0.00000000000E+00 0.  1.
         14    1    3    3    0    0  0.15855762590E+02 -0.21729433306E+02 -0.10692288613E+02  0.28946476727E+02  0.00000000000E+00 0. -1.
        -11    1    4    4    0    0 -0.31914214517E+02  0.52074727202E+02 -0.12190137172E+03  0.13634602571E+03  0.00000000000E+00 0.  1.
         11    1    4    4    0    0 -0.14863660349E+02  0.95787950420E+02 -0.31843985118E+02  0.10203087392E+03  0.00000000000E+00 0. -1.
          1    1    1    2  501    0  0.18425278616E+02 -0.18378383268E+03 -0.45051567864E+03  0.48690899021E+03  0.00000000000E+00 0. -1.
<scales pt_clust_5="13000.00000" pt_clust_6="13000.00000" pt_clust_7="13000.00000" pt_clust_8="13000.00000" pt_clust_9="163.04719"></scales>
<clustering>
<clus scale="   84.298">  5  6 -1 -1</clus>
<clus scale="   95.574">  7  8 -1 -1</clus>
<clus scale="   95.918">  2  5  1 -1</clus>
<clus scale="  163.047">  1  9  2 -1</clus>
<clus scale="  163.047">  1  5  2 -1</clus>
</clustering>
</event>
<event>
 9    2  0.1325014E-004  0.1180225E+03  0.7546771E-02  0.1256453E+00
         21   -1    0    0  501  502  0.00000000000E+00  0.00000000000E+00  0.10177488714E+03  0.10177488714E+03  0.00000000000E+00 0. -1.
          4   -1    0    0  502    0 -0.00000000000E+00 -0.00000000000E+00 -0.31303509987E+03  0.31303509987E+03  0.00000000000E+00 0. -1.
         24    2    1    2    0    0 -0.38835085496E+00  0.52001001942E+02  0.12453295523E+02  0.97382512506E+02  0.81388046746E+02 0.  0.
         23    2    1    2    0    0 -0.67528725884E+01  0.56665657225E+02 -0.66371241498E+02  0.12607432247E+03  0.90735853400E+02 0.  0.
        -13    1    3    3    0    0  0.50432891766E+01 -0.21904778033E+02  0.28989855365E+01  0.22664028404E+02  0.00000000000E+00 0.  1.
         14    1    3    3    0    0 -0.54316400316E+01  0.73905779974E+02  0.95543099868E+01  0.74718484101E+02  0.00000000000E+00 0. -1.
        -11    1    4    4    0    0 -0.39686328255E+02  0.20120153690E+02 -0.13191621203E+01  0.44514777587E+02  0.00000000000E+00 0.  1.
         11    1    4    4    0    0  0.32933455667E+02  0.36545503536E+02 -0.65052079377E+02  0.81559544887E+02  0.00000000000E+00 0. -1.
          3    1    1    2  501    0  0.71412234434E+01 -0.10866665917E+03 -0.15734226675E+03  0.19135315203E+03  0.00000000000E+00 0. -1.
<scales pt_clust_5="13000.00000" pt_clust_6="13000.00000" pt_clust_7="13000.00000" pt_clust_8="13000.00000" pt_clust_9="75.47401"></scales>
<clustering>
<clus scale="   81.388">  5  6 -1 -1</clus>
<clus scale="   90.736">  7  8 -1 -1</clus>
<clus scale="   96.583">  2  5  1 -1</clus>
<clus scale="   75.474">  1  9  2 -1</clus>
<clus scale="   75.474">  1  5  2 -1</clus>
</clustering>
</event>
<event>
 9    2  0.1325014E-004  0.1235111E+03  0.7546771E-02  0.1238296E+00
          2   -1    0    0  502    0 -0.00000000000E+00  0.00000000000E+00  0.53402632329E+03  0.53402632329E+03  0.00000000000E+00 0. -1.
         21   -1    0    0  501  502  0.00000000000E+00 -0.00000000000E+00 -0.36269171043E+02  0.36269171043E+02  0.00000000000E+00 0. -1.
         23    2    1    2    0    0  0.92007696536E+02 -0.26845691390E+02  0.26234029419E+03  0.29411992644E+03  0.92184563811E+02 0.  0.
         24    2    1    2    0    0 -0.61233231737E+02  0.30263071193E+02  0.16967204134E+03  0.20350420425E+03  0.89218817460E+02 0.  0.
        -11    1    4    4    0    0  0.21386315078E+02 -0.38460238963E+01  0.46406628391E+02  0.51241989921E+02  0.00000000000E+00 0.  1.
         12    1    4    4    0    0 -0.82619546815E+02  0.34109095089E+02  0.12326541294E+03  0.15226221433E+03  0.00000000000E+00 0. -1.
        -13    1    3    3    0    0  0.23617570211E+02 -0.53706464807E+02  0.13301557856E+03  0.14537990963E+03  0.00000000000E+00 0.  1.
         13    1    3    3    0    0  0.68390126325E+02  0.26860773417E+02  0.12932471563E+03  0.14874001681E+03  0.00000000000E+00 0. -1.
          1    1    1    2  501    0 -0.30774464798E+02 -0.34173798023E+01  0.65744816720E+02  0.72671363644E+02  0.00000000000E+00 0. -1.
<scales pt_clust_5="13000.00000" pt_clust_6="13000.00000" pt_clust_7="13000.00000" pt_clust_8="13000.00000" pt_clust_9="30.96364"></scales>
<clustering>
<clus scale="   30.964">  2  9  1 -1</clus>
<clus scale="   89.219">  5  6 -1 -1</clus>
<clus scale="   92.185">  7  8 -1 -1</clus>
<clus scale="  121.314">  2  5  1 -1</clus>
<clus scale="   30.964">  2  5  1 -1</clus>
</clustering>
</event>
<event>
 9    2  0.1325014E-004  0.1372803E+03  0.7546771E-02  0.1219616E+00
         21   -1    0    0  501  502  0.00000000000E+00  0.00000000000E+00  0.49137038116E+03  0.49137038116E+03  0.00000000000E+00 0.  1.
          2   -1    0    0  502    0 -0.00000000000E+00 -0.00000000000E+00 -0.47233647638E+02  0.47233647638E+02  0.00000000000E+00 0. -1.
         24    2    1    2    0    0 -0.98783263397E+02 -0.42142452782E+02  0.14421613378E+03  0.19677780637E+03  0.79931798317E+02 0.  0.
         23    2    1    2    0    0  0.96001603813E+02  0.16825505096E+02  0.21425963500E+03  0.25245907886E+03  0.91263299037E+02 0.  0.
        -11    1    3    3    0    0 -0.40310206483E+02 -0.60345155513E+02  0.81296294342E+02  0.10897494214E+03  0.00000000000E+00 0.  1.
         12    1    3    3    0    0 -0.58473056913E+02  0.18202702731E+02  0.62919839443E+02  0.87802864231E+02  0.00000000000E+00 0. -1.
        -11    1    4    4    0    0  0.67031707975E+02 -0.39115106580E+01  0.20490268988E+03  0.21562389039E+03  0.00000000000E+00 0.  1.
         11    1    4    4    0    0  0.28969895838E+02  0.20737015754E+02  0.93569451243E+01  0.36835188466E+02  0.00000000000E+00 0. -1.
          1    1    1    2  501    0  0.27816595835E+01  0.25316947686E+02  0.85660964740E+02  0.89367143573E+02  0.00000000000E+00 0. -1.
<scales pt_clust_5="13000.00000" pt_clust_6="13000.00000" pt_clust_7="13000.00000" pt_clust_8="13000.00000" pt_clust_9="25.46930"></scales>
<clustering>
<clus scale="   25.469">  1  9  2 -1</clus>
<clus scale="   79.932">  5  6 -1 -1</clus>
<clus scale="   91.263">  7  8 -1 -1</clus>
<clus scale="  130.023">  2  5  1 -1</clus>
<clus scale="   25.469">  1  5  2 -1</clus>
</clustering>
</event>
<event>
 9    2  0.1325014E-004  0.1524228E+03  0.7546771E-02  0.1200501E+00
          2   -1    0    0  502    0 -0.00000000000E+00  0.00000000000E+00  0.46844770297E+03  0.46844770297E+03  0.00000000000E+00 0. -1.
         21   -1    0    0  501  502  0.00000000000E+00 -0.00000000000E+00 -0.82594570474E+02  0.82594570474E+02  0.00000000000E+00 0.  1.
         23    2    1    2    0    0 -0.12796596278E+03  0.61170285880E+01  0.30351933530E+03  0.34237850572E+03  0.93200582658E+02 0.  0.
         24    2    1    2    0    0  0.10201903206E+03  0.43982619964E+02  0.52066491306E+02  0.14463777453E+03  0.76595120878E+02 0.  0.
        -11    1    4    4    0    0  0.69953625479E+02  0.64693126872E+02  0.46629760042E+02  0.10608037002E+03  0.00000000000E+00 0.  1.
         12    1    4    4    0    0  0.32065406578E+02 -0.20710506908E+02  0.54367312643E+01  0.38557404506E+02  0.00000000000E+00 0. -1.
        -13    1    3    3    0    0 -0.74207492171E+02 -0.12310262215E+02  0.26038768477E+03  0.27103512841E+03  0.00000000000E+00 0. -1.
         13    1    3    3    0    0 -0.53758470613E+02  0.18427290803E+02  0.43131650527E+02  0.71343377311E+02  0.00000000000E+00 0.  1.
          1    1    1    2  501    0  0.25946930727E+02 -0.50099648552E+02  0.30267305892E+02  0.64025993199E+02  0.00000000000E+00 0. -1.
<scales pt_clust_5="13000.00000" pt_clust_6="13000.00000" pt_clust_7="13000.00000" pt_clust_8="13000.00000" pt_clust_9="56.42001"></scales>
<clustering>
<clus scale="   56.420">  2  9  1 -1</clus>
<clus scale="   76.595">  5  6 -1 -1</clus>
<clus scale="   93.201">  7  8 -1 -1</clus>
<clus scale="  142.875">  2  5  1 -1</clus>
<clus scale="   56.420">  2  5  1 -1</clus>
</clustering>
</event>
<event>
 9    2  0.1325014E-004  0.1009640E+03  0.7546771E-02  0.1285842E+00
         -3   -1    0    0    0  501 -0.00000000000E+00  0.00000000000E+00  0.13376600547E+03  0.13376600547E+03  0.00000000000E+00 0.  1.
         21   -1    0    0  501  502  0.00000000000E+00 -0.00000000000E+00 -0.32255114988E+03  0.32255114988E+03  0.00000000000E+00 0.  1.
         23    2    1    2    0    0 -0.44390019491E+02  0.46290862115E+02  0.56244115127E+02  0.12711578672E+03  0.94242798134E+02 0.  0.
         24    2    1    2    0    0 -0.33762422165E+02 -0.13097563299E+02 -0.21481689763E+02  0.90071455881E+02  0.79623846018E+02 0.  0.
        -13    1    4    4    0    0 -0.55921725196E+02 -0.24194641046E+02 -0.23271876356E+02  0.65224230416E+02  0.00000000000E+00 0.  1.
         14    1    4    4    0    0  0.22159303031E+02  0.11097077746E+02  0.17901865931E+01  0.24847225466E+02  0.00000000000E+00 0. -1.
        -11    1    3    3    0    0  0.20879733448E+02 -0.13725991126E+02  0.16524781660E+02  0.29957211321E+02  0.00000000000E+00 0. -1.
         11    1    3    3    0    0 -0.65269752938E+02  0.60016853241E+02  0.39719333467E+02  0.97158575394E+02  0.00000000000E+00 0.  1.
         -4    1    1    2    0  502  0.78152441656E+02 -0.33193298815E+02 -0.22354756978E+03  0.23912991276E+03  0.00000000000E+00 0.  1.
<scales pt_clust_5="13000.00000" pt_clust_6="13000.00000" pt_clust_7="13000.00000" pt_clust_8="13000.00000" pt_clust_9="84.90936"></scales>
<clustering>
<clus scale="   79.624">  5  6 -1 -1</clus>
<clus scale="   84.909">  2  9  1 -1</clus>
<clus scale="   87.476">  2  5  1 -1</clus>
<clus scale="   94.243">  7  8 -1 -1</clus>
<clus scale="   84.909">  2  5  1 -1</clus>
</clustering>
</event>
<event>
 9    2  0.1325014E-004  0.1369114E+03  0.7546771E-02  0.1220250E+00
         21   -1    0    0  501  502  0.00000000000E+00  0.00000000000E+00  0.12418118944E+03  0.12418118944E+03  0.00000000000E+00 0. -1.
         -3   -1    0    0    0  501 -0.00000000000E+00 -0.00000000000E+00 -0.19135537533E+03  0.19135537533E+03  0.00000000000E+00 0.  1.
         24    2    1    2    0    0 -0.93121175046E+02  0.48872733640E+02 -0.79822305930E+02  0.15393137147E+03  0.79140187415E+02 0.  0.
         23    2    1    2    0    0  0.96055728273E+02 -0.22538969793E+02  0.14764600103E+02  0.13502403063E+03  0.90987841706E+02 0.  0.
        -13    1    3    3    0    0 -0.72607583671E+02  0.67770195848E+02 -0.44260441226E+02  0.10873659600E+03  0.00000000000E+00 0.  1.
         14    1    3    3    0    0 -0.20513591376E+02 -0.18897462208E+02 -0.35561864704E+02  0.45194775475E+02  0.00000000000E+00 0. -1.
        -13    1    4    4    0    0  0.32504292481E+02  0.15929157657E+02  0.42412083799E+02  0.55758873245E+02  0.00000000000E+00 0. -1.
         13    1    4    4    0    0  0.63551435793E+02 -0.38468127449E+02 -0.27647483697E+02  0.79265157387E+02  0.00000000000E+00 0.  1.
         -4    1    1    2    0  502 -0.29345532271E+01 -0.26333763847E+02 -0.21164800609E+01  0.26581162670E+02  0.00000000000E+00 0.  1.
<scales pt_clust_5="13000.00000" pt_clust_6="13000.00000" pt_clust_7="13000.00000" pt_clust_8="13000.00000" pt_clust_9="26.49677"></scales>
<clustering>
<clus scale="   26.497">  1  9  2 -1</clus>
<clus scale="   79.140">  5  6 -1 -1</clus>
<clus scale="   90.988">  7  8 -1 -1</clus>
<clus scale="  129.341">  2  5  1 -1</clus>
<clus scale="   26.497">  1  5  2 -1</clus>
</clustering>
</event>
<event>
 9    2  0.1325014E-004  0.2654827E+03  0.7546771E-02  0.1137216E+00
          2   -1    0    0  502    0 -0.00000000000E+00  0.00000000000E+00  0.19257535976E+04  0.19257535976E+04  0.00000000000E+00 0. -1.
         21   -1    0    0  501  502  0.00000000000E+00 -0.00000000000E+00 -0.57713780016E+02  0.57713780016E+02  0.00000000000E+00 0. -1.
         24    2    1    2    0    0  0.10080717343E+02 -0.80606293260E+02  0.21753401754E+03  0.24627147115E+03  0.82034098662E+02 0.  0.
         23    2    1    2    0    0  0.15591667602E+03  0.24263248260E+03  0.10792142115E+04  0.11206071458E+04  0.88749813665E+02 0.  0.
        -13    1    3    3    0    0  0.30270710529E+02 -0.49760528782E+02  0.19395104280E+03  0.20250785946E+03  0.00000000000E+00 0.  1.
         14    1    3    3    0    0 -0.20189993186E+02 -0.30845764478E+02  0.23582974742E+02  0.43763611697E+02  0.00000000000E+00 0. -1.
        -11    1    4    4    0    0  0.11251173248E+03  0.14736274204E+03  0.82699693631E+03  0.84752498509E+03  0.00000000000E+00 0.  1.
         11    1    4    4    0    0  0.43404943537E+02  0.95269740558E+02  0.25221727520E+03  0.27308216071E+03  0.00000000000E+00 0. -1.
          1    1    1    2  501    0 -0.16599739336E+03 -0.16202618934E+03  0.57129158851E+03  0.61658876063E+03  0.00000000000E+00 0. -1.
<scales pt_clust_5="13000.00000" pt_clust_6="13000.00000" pt_clust_7="13000.00000" pt_clust_8="13000.00000" pt_clust_9="250.20899"></scales>
<clustering>
<clus scale="   82.034">  5  6 -1 -1</clus>
<clus scale="   88.750">  7  8 -1 -1</clus>
<clus scale="  115.450">  1  5  2 -1</clus>
<clus scale="  250.209">  2  9  1 -1</clus>
<clus scale="  250.209">  2  5  1 -1</clus>
</clustering>
</event>
<event>
 9    2  0.1325014E-004  0.1897147E+03  0.7546771E-02  0.1170039E+00
         21   -1    0    0  501  502  0.00000000000E+00  0.00000000000E+00  0.21176323693E+03  0.21176323693E+03  0.00000000000E+00 0.  1.
          2   -1    0    0  502    0 -0.00000000000E+00 -0.00000000000E+00 -0.57306183448E+03  0.57306183448E+03  0.00000000000E+00 0. -1.
         23    2    1    2    0    0 -0.56551270263E+02  0.95986809630E+02  0.10358134070E+03  0.17906232697E+03  0.94460092152E+02 0.  0.
         24    2    1    2    0    0  0.53646773813E+02  0.13083316956E+03 -0.18996096323E+03  0.24934139001E+03  0.78042723068E+02 0.  0.
        -13    1    4    4    0    0  0.61714470684E+02  0.13652893040E+03 -0.16708185666E+03  0.22442186069E+03  0.00000000000E+00 0.  1.
         14    1    4    4    0    0 -0.80676968711E+01 -0.56957608425E+01 -0.22879106568E+02  0.24919529324E+02  0.00000000000E+00 0. -1.
        -13    1    3    3    0    0 -0.33249504670E+02  0.93487166558E+02  0.11591189644E+03  0.15258095427E+03  0.00000000000E+00 0.  1.
         13    1    3    3    0    0 -0.23301765593E+02  0.24996430726E+01 -0.12330555739E+02  0.26481372700E+02  0.00000000000E+00 0. -1.
          1    1    1    2  501    0  0.29044964500E+01 -0.22681997919E+03 -0.27491897503E+03  0.35642135442E+03  0.00000000000E+00 0. -1.
<scales pt_clust_5="13000.00000" pt_clust_6="13000.00000" pt_clust_7="13000.00000" pt_clust_8="13000.00000" pt_clust_9="172.91909"></scales>
<clustering>
<clus scale="   78.043">  5  6 -1 -1</clus>
<clus scale="   94.460">  7  8 -1 -1</clus>
<clus scale="  146.062">  2  7  1 -1</clus>
<clus scale="  172.919">  1  9  2 -1</clus>
<clus scale="  172.919">  1  5  2 -1</clus>
</clustering>
</event>
<event>
 9    2  0.1325014E-004  0.1054939E+03  0.7546771E-02  0.1270540E+00
         21   -1    0    0  501  502  0.00000000000E+00  0.00000000000E+00  0.53395986748E+02  0.53395986748E+02  0.00000000000E+00 0. -1.
          2   -1    0    0  502    0 -0.00000000000E+00 -0.00000000000E+00 -0.71797030221E+03  0.71797030221E+03  0.00000000000E+00 0. -1.
         24    2    1    2    0    0 -0.28380769976E+02  0.51687270912E+02 -0.37966886087E+03  0.39469361941E+03  0.90319251594E+02 0.  0.
         23    2    1    2    0    0 -0.65728060037E+02 -0.26764952901E+02 -0.60479383449E+02  0.13204099697E+03  0.93490793548E+02 0.  0.
        -13    1    3    3    0    0  0.17083119505E+02  0.39332061924E+02 -0.74916295020E+02  0.86320885808E+02  0.00000000000E+00 0.  1.
         14    1    3    3    0    0 -0.45463889480E+02  0.12355208988E+02 -0.30475256585E+03  0.30837273360E+03  0.00000000000E+00 0. -1.
        -11    1    4    4    0    0 -0.42203377849E+02 -0.50809819924E+01  0.18852105556E+02  0.46501003900E+02  0.00000000000E+00 0. -1.
         11    1    4    4    0    0 -0.23524682188E+02 -0.21683970909E+02 -0.79331489005E+02  0.85539993069E+02  0.00000000000E+00 0.  1.
          1    1    1    2  501    0  0.94108830012E+02 -0.24922318011E+02 -0.22442607114E+03  0.24463167258E+03  0.00000000000E+00 0. -1.
<scales pt_clust_5="13000.00000" pt_clust_6="13000.00000" pt_clust_7="13000.00000" pt_clust_8="13000.00000" pt_clust_9="97.35298"></scales>
<clustering>
<clus scale="   90.319">  5  6 -1 -1</clus>
<clus scale="   93.491">  7  8 -1 -1</clus>
<clus scale="   97.353">  1  9  2 -1</clus>
<clus scale="  102.694">  2  5  1 -1</clus>
<clus scale="   97.353">  1  5  2 -1</clus>
</clustering>
</event>
<event>
 9    2  0.1325014E-004  0.2035065E+03  0.7546771E-02  0.1172677E+00
         21   -1    0    0  501  502  0.00000000000E+00  0.00000000000E+00  0.61403590854E+03  0.61403590854E+03  0.00000000000E+00 0. -1.
          2   -1    0    0  502    0 -0.00000000000E+00 -0.00000000000E+00 -0.49187600273E+03  0.49187600273E+03  0.00000000000E+00 0. -1.
         24    2    1    2    0    0  0.66983106375E+02 -0.37524326199E+02 -0.41083197584E+03  0.42567249873E+03  0.80742505585E+02 0.  0.
         23    2    1    2    0    0 -0.20507117450E+03  0.20514811731E+02  0.48233823262E+03  0.53217378418E+03  0.89909520132E+02 0.  0.
        -13    1    3    3    0    0  0.22021418947E+02 -0.51761854693E+02 -0.14201539999E+03  0.15275014346E+03  0.00000000000E+00 0.  1.
         14    1    3    3    0    0  0.44961687428E+02  0.14237528494E+02 -0.26881657585E+03  0.27292235527E+03  0.00000000000E+00 0. -1.
        -11    1    4    4    0    0 -0.40252711051E+02  0.13434377640E+02  0.33773157354E+02  0.54234577598E+02  0.00000000000E+00 0.  1.
         11    1    4    4    0    0 -0.16481846345E+03  0.70804340916E+01  0.44856507526E+03  0.47793920658E+03  0.00000000000E+00 0. -1.
          1    1    1    2  501    0  0.13808806813E+03  0.17009514468E+02  0.50653649027E+02  0.14806562836E+03  0.00000000000E+00 0. -1.
<scales pt_clust_5="13000.00000" pt_clust_6="13000.00000" pt_clust_7="13000.00000" pt_clust_8="13000.00000" pt_clust_9="182.56834"></scales>
<clustering>
<clus scale="   80.743">  5  6 -1 -1</clus>
<clus scale="   89.910">  7  8 -1 -1</clus>
<clus scale="  111.419">  2  5  1 -1</clus>
<clus scale="  182.568">  1  9  2 -1</clus>
<clus scale="  182.568">  1  5  2 -1</clus>
</clustering>
</event>
<event>
 9    2  0.1325014E-004  0.3438234E+03  0.7546771E-02  0.1065466E+00
         21   -1    0    0  501  502  0.00000000000E+00  0.00000000000E+00  0.20172318737E+03  0.20172318737E+03  0.00000000000E+00 0.  1.
          2   -1    0    0  502    0 -0.00000000000E+00 -0.00000000000E+00 -0.14439202985E+04  0.14439202985E+04  0.00000000000E+00 0. -1.
         23    2    1    2    0    0  0.71169083745E+02 -0.35178806257E+03 -0.45263788473E+03  0.58491159333E+03  0.91764033585E+02 0.  0.
         24    2    1    2    0    0  0.14683657069E+03  0.29498837124E+03 -0.12933309333E+03  0.36312798123E+03  0.80967672943E+02 0.  0.
        -13    1    4    4    0    0  0.49007003550E+02  0.57262347561E+02 -0.61454391414E+02  0.97248676439E+02  0.00000000000E+00 0.  1.
         14    1    4    4    0    0  0.97829567145E+02  0.23772602368E+03 -0.67878701913E+02  0.26587930479E+03  0.00000000000E+00 0. -1.
        -13    1    3    3    0    0 -0.10658910942E+02 -0.16440120609E+03 -0.17836506818E+03  0.24280746795E+03  0.00000000000E+00 0.  1.
         13    1    3    3    0    0  0.81827994687E+02 -0.18738685649E+03 -0.27427281656E+03  0.34210412538E+03  0.00000000000E+00 0. -1.
          1    1    1    2  501    0 -0.21800565444E+03  0.56799691331E+02 -0.66022613304E+03  0.69760391129E+03  0.00000000000E+00 0. -1.
<scales pt_clust_5="13000.00000" pt_clust_6="13000.00000" pt_clust_7="13000.00000" pt_clust_8="13000.00000" pt_clust_9="225.28365"></scales>
<clustering>
<clus scale="   80.968">  5  6 -1 -1</clus>
<clus scale="   91.764">  7  8 -1 -1</clus>
<clus scale="  225.284">  1  9  2 -1</clus>
<clus scale="  341.101">  1  5  2 -1</clus>
<clus scale="  225.284">  1  5  2 -1</clus>
</clustering>
</event>
<event>
 9    2  0.1325014E-004  0.1219575E+03  0.7546771E-02  0.1241794E+00
          2   -1    0    0  502    0 -0.00000000000E+00  0.00000000000E+00  0.93283287786E+03  0.93283287786E+03  0.00000000000E+00 0. -1.
         21   -1    0    0  501  502  0.00000000000E+00 -0.00000000000E+00 -0.77940149730E+02  0.77940149730E+02  0.00000000000E+00 0.  1.
         24    2    1    2    0    0  0.51571606463E+02 -0.58652931694E+02  0.71482667766E+03  0.72411833940E+03  0.85266601736E+02 0.  0.
         23    2    1    2    0    0 -0.12350528653E+03  0.40601542275E+02  0.43345130159E+02  0.16477260003E+03  0.91483158991E+02 0.  0.
        -13    1    3    3    0    0  0.40165114181E+02  0.13564542813E+02  0.24646474599E+03  0.25008419430E+03  0.00000000000E+00 0.  1.
         14    1    3    3    0    0  0.11406492281E+02 -0.72217474508E+02  0.46836193167E+03  0.47403414510E+03  0.00000000000E+00 0. -1.
        -13    1    4    4    0    0 -0.58071659990E+02  0.33512643946E+02  0.67046057720E+02  0.94818715737E+02  0.00000000000E+00 0. -1.
         13    1    4    4    0    0 -0.65433626535E+02  0.70888983287E+01 -0.23700927561E+02  0.69953884298E+02  0.00000000000E+00 0.  1.
          1    1    1    2  501    0  0.71933680062E+02  0.18051389419E+02  0.96720920315E+02  0.12188208816E+03  0.00000000000E+00 0. -1.
<scales pt_clust_5="13000.00000" pt_clust_6="13000.00000" pt_clust_7="13000.00000" pt_clust_8="13000.00000" pt_clust_9="74.16405"></scales>
<clustering>
<clus scale="   74.164">  2  9  1 -1</clus>
<clus scale="   85.267">  5  6 -1 -1</clus>
<clus scale="   91.483">  7  8 -1 -1</clus>
<clus scale="  117.366">  1  5  2 -1</clus>
<clus scale="   74.164">  2  5  1 -1</clus>
</clustering>
</event>
<event>
 9    2  0.1325014E-004  0.1154185E+03  0.7546771E-02  0.1255456E+00
         21   -1    0    0  501  502  0.00000000000E+00  0.00000000000E+00  0.15561782136E+03  0.15561782136E+03  0.00000000000E+00 0. -1.
         -1   -1    0    0    0  501 -0.00000000000E+00 -0.00000000000E+00 -0.15201371490E+03  0.15201371490E+03  0.00000000000E+00 0.  1.
         24    2    1    2    0    0  0.63627320800E+02  0.30011547613E+02 -0.84401299268E+02  0.13415762729E+03  0.76977663649E+02 0.  0.
         23    2    1    2    0    0 -0.59012893081E+02 -0.55481198894E+02  0.59969832962E+02  0.13531647955E+03  0.90296643305E+02 0.  0.
        -13    1    3    3    0    0  0.71639680015E+02 -0.51601183438E+00 -0.67136548701E+02  0.98182616549E+02  0.00000000000E+00 0.  1.
         14    1    3    3    0    0 -0.80123592152E+01  0.30527559448E+02 -0.17264750566E+02  0.35975010746E+02  0.00000000000E+00 0. -1.
        -13    1    4    4    0    0 -0.80131496370E+02 -0.25030049844E+02  0.37201987761E+02  0.91823461049E+02  0.00000000000E+00 0.  1.
         13    1    4    4    0    0  0.21118603289E+02 -0.30451149050E+02  0.22767845201E+02  0.43493018502E+02  0.00000000000E+00 0. -1.
         -2    1    1    2    0  502 -0.46144277191E+01  0.25469651280E+02  0.28035572758E+02  0.38157429413E+02  0.00000000000E+00 0.  1.
<scales pt_clust_5="13000.00000" pt_clust_6="13000.00000" pt_clust_7="13000.00000" pt_clust_8="13000.00000" pt_clust_9="25.88428"></scales>
<clustering>
<clus scale="   25.884">  1  9  2 -1</clus>
<clus scale="   76.978">  5  6 -1 -1</clus>
<clus scale="   90.297">  7  8 -1 -1</clus>
<clus scale="  105.326">  2  5  1 -1</clus>
<clus scale="   25.884">  1  5  2 -1</clus>
</clustering>
</event>
<event>
 9    2  0.1325014E-004  0.1741824E+03  0.7546771E-02  0.1174393E+00
         -1   -1    0    0    0  501 -0.00000000000E+00  0.00000000000E+00  0.35611561667E+03  0.35611561667E+03  0.00000000000E+00 0.  1.
         21   -1    0    0  501  502  0.00000000000E+00 -0.00000000000E+00 -0.22973786345E+03  0.22973786345E+03  0.00000000000E+00 0.  1.
         23    2    1    2    0    0 -0.10094594499E+03  0.12526070308E+03  0.27653334228E+03  0.33249451964E+03  0.90562622813E+02 0.  0.
         24    2    1    2    0    0  0.54683863837E+02 -0.88565137526E+02 -0.62519001884E+02  0.14768533040E+03  0.84072722502E+02 0.  0.
        -13    1    4    4    0    0  0.15249213429E+02 -0.91776889459E+02 -0.52682174610E+02  0.10691560911E+03  0.00000000000E+00 0.  1.
         14    1    4    4    0    0  0.39434650409E+02  0.32117519331E+01 -0.98368272736E+01  0.40769721291E+02  0.00000000000E+00 0. -1.
        -13    1    3    3    0    0 -0.11819378369E+02  0.86676293004E+02  0.12897219000E+03  0.15584063420E+03  0.00000000000E+00 0.  1.
         13    1    3    3    0    0 -0.89126566625E+02  0.38584410078E+02  0.14756115228E+03  0.17665388544E+03  0.00000000000E+00 0. -1.
         -2    1    1    2    0  502  0.46262081157E+02 -0.36695565555E+02 -0.87636587171E+02  0.10567363009E+03  0.00000000000E+00 0.  1.
<scales pt_clust_5="13000.00000" pt_clust_6="13000.00000" pt_clust_7="13000.00000" pt_clust_8="13000.00000" pt_clust_9="59.04866"></scales>
<clustering>
<clus scale="   59.049">  2  9  1 -1</clus>
<clus scale="   84.073">  5  6 -1 -1</clus>
<clus scale="   90.563">  7  8 -1 -1</clus>
<clus scale="  170.898">  2  5  1 -1</clus>
<clus scale="   59.049">  2  5  1 -1</clus>
</clustering>
</event>
<event>
 9    2  0.1325014E-004  0.3149899E+03  0.7546771E-02  0.1078281E+00
         21   -1    0    0  501  502  0.00000000000E+00  0.00000000000E+00  0.28375483670E+03  0.28375483670E+03  0.00000000000E+00 0.  1.
         -1   -1    0    0    0  501 -0.00000000000E+00 -0.00000000000E+00 -0.18474348926E+04  0.18474348926E+04  0.00000000000E+00 0.  1.
         24    2    1    2    0    0  0.77925942099E+02 -0.31085522959E+03 -0.10701261735E+04  0.11199622291E+04  0.80261704097E+02 0.  0.
         23    2    1    2    0    0 -0.13605440095E+03  0.25028008210E+03 -0.71474645221E+03  0.77463836438E+03  0.89728396317E+02 0.  0.
        -11    1    3    3    0    0  0.27955894365E+02 -0.24649585765E+03 -0.77027467010E+03  0.80923717615E+03  0.00000000000E+00 0.  1.
         12    1    3    3    0    0  0.49970047734E+02 -0.64359371942E+02 -0.29985150342E+03  0.31072505295E+03  0.00000000000E+00 0. -1.
        -13    1    4    4    0    0 -0.90121818471E+02  0.76982771398E+02 -0.31365057390E+03  0.33529833248E+03  0.00000000000E+00 0.  1.
         13    1    4    4    0    0 -0.45932582476E+02  0.17329731071E+03 -0.40109587831E+03  0.43934003190E+03  0.00000000000E+00 0. -1.
         -2    1    1    2    0  502  0.58128458847E+02  0.60575147491E+02  0.22119256985E+03  0.23658913580E+03  0.00000000000E+00 0.  1.
<scales pt_clust_5="13000.00000" pt_clust_6="13000.00000" pt_clust_7="13000.00000" pt_clust_8="13000.00000" pt_clust_9="83.95395"></scales>
<clustering>
<clus scale="   80.262">  5  6 -1 -1</clus>
<clus scale="   83.954">  1  9  2 -1</clus>
<clus scale="   89.728">  7  8 -1 -1</clus>
<clus scale="  312.425">  2  5  1 -1</clus>
<clus scale="   83.954">  1  5  2 -1</clus>
</clustering>
</event>
<event>
 9    2  0.1325014E-004  0.1458154E+03  0.7546771E-02  0.1214339E+00
          4   -1    0    0  502    0 -0.00000000000E+00  0.00000000000E+00  0.11240377275E+04  0.11240377275E+04  0.00000000000E+00 0. -1.
         21   -1    0    0  501  502  0.00000000000E+00 -0.00000000000E+00 -0.11532537191E+03  0.11532537191E+03  0.00000000000E+00 0. -1.
         24    2    1    2    0    0 -0.82473794156E+02 -0.37193529951E+02  0.94439530829E+03  0.95215124771E+03  0.80772611667E+02 0.  0.
         23    2    1    2    0    0 -0.12405412088E+02 -0.84056124651E+02  0.29031484932E+02  0.12926055091E+03  0.92984603902E+02 0.  0.
        -11    1    3    3    0    0 -0.97040326314E+01  0.20051508455E+02  0.88413496387E+02  0.91176628496E+02  0.00000000000E+00 0.  1.
         12    1    3    3    0    0 -0.72769761524E+02 -0.57245038405E+02  0.85598181190E+03  0.86097461921E+03  0.00000000000E+00 0. -1.
        -13    1    4    4    0    0  0.38846441498E+02 -0.48839155822E+02  0.50389800237E+01  0.62607511356E+02  0.00000000000E+00 0.  1.
         13    1    4    4    0    0 -0.51251853586E+02 -0.35216968829E+02  0.23992504909E+02  0.66653039550E+02  0.00000000000E+00 0. -1.
          3    1    1    2  501    0  0.94879206244E+02  0.12124965460E+03  0.35285562392E+02  0.15795130082E+03  0.00000000000E+00 0. -1.
<scales pt_clust_5="13000.00000" pt_clust_6="13000.00000" pt_clust_7="13000.00000" pt_clust_8="13000.00000" pt_clust_9="112.32104"></scales>
<clustering>
<clus scale="   80.773">  5  6 -1 -1</clus>
<clus scale="   92.985">  7  8 -1 -1</clus>
<clus scale="  121.283">  1  5  2 -1</clus>
<clus scale="  112.321">  2  9  1 -1</clus>
<clus scale="  112.321">  2  5  1 -1</clus>
</clustering>
</event>
<event>
 9    2  0.1325014E-004  0.9557109E+02  0.7546771E-02  0.1295597E+00
         21   -1    0    0  501  502  0.00000000000E+00  0.00000000000E+00  0.20515655384E+03  0.20515655384E+03  0.00000000000E+00 0. -1.
          4   -1    0    0  502    0 -0.00000000000E+00 -0.00000000000E+00 -0.13822711157E+03  0.13822711157E+03  0.00000000000E+00 0. -1.
         24    2    1    2    0    0  0.12277145222E+02  0.34892810527E+02 -0.57422301887E+02  0.10538556881E+03  0.80253104851E+02 0.  0.
         23    2    1    2    0    0  0.43449738817E+02 -0.20194025624E+02  0.16265016626E+01  0.10241408196E+03  0.90500387851E+02 0.  0.
        -13    1    3    3    0    0 -0.20024204633E+02 -0.71816989330E+01  0.65725216279E+01  0.22265300611E+02  0.00000000000E+00 0.  1.
         14    1    3    3    0    0  0.32301349855E+02  0.42074509460E+02 -0.63994823515E+02  0.83120268199E+02  0.00000000000E+00 0. -1.
        -13    1    4    4    0    0  0.49987399342E+02  0.24961570298E+02  0.76397255167E+01  0.56393133365E+02  0.00000000000E+00 0. -1.
         13    1    4    4    0    0 -0.65376605255E+01 -0.45155595921E+02 -0.60132238541E+01  0.46020948592E+02  0.00000000000E+00 0.  1.
          3    1    1    2  501    0 -0.55726884039E+02 -0.14698784903E+02  0.12272524250E+03  0.13558401465E+03  0.00000000000E+00 0. -1.
<scales pt_clust_5="13000.00000" pt_clust_6="13000.00000" pt_clust_7="13000.00000" pt_clust_8="13000.00000" pt_clust_9="57.63280"></scales>
<clustering>
<clus scale="   57.633">  1  9  2 -1</clus>
<clus scale="   80.253">  5  6 -1 -1</clus>
<clus scale="   85.931">  2  5  1 -1</clus>
<clus scale="   90.500">  7  8 -1 -1</clus>
<clus scale="   57.633">  1  5  2 -1</clus>
</clustering>
</event>
<event>
 9    2  0.1325014E-004  0.1525985E+03  0.7546771E-02  0.1198619E+00
         21   -1    0    0  501  502  0.00000000000E+00  0.00000000000E+00  0.37282794554E+03  0.37282794554E+03  0.00000000000E+00 0.  1.
          2   -1    0    0  502    0 -0.00000000000E+00 -0.00000000000E+00 -0.17871202841E+03  0.17871202841E+03  0.00000000000E+00 0. -1.
         24    2    1    2    0    0 -0.84470313767E+02 -0.88345186048E+02 -0.77259702705E+02  0.16597924062E+03  0.81485832209E+02 0.  0.
         23    2    1    2    0    0  0.11295885702E+03  0.80179975324E+02  0.30135364846E+03  0.34340684901E+03  0.89026460579E+02 0.  0.
        -11    1    3    3    0    0 -0.17562640183E+02 -0.69215317598E+02 -0.62378663061E+02  0.94817214290E+02  0.00000000000E+00 0.  1.
         12    1    3    3    0    0 -0.66907673583E+02 -0.19129868450E+02 -0.14881039644E+02  0.71162026335E+02  0.00000000000E+00 0. -1.
        -13    1    4    4    0    0  0.62968665965E+02  0.60562681391E+02  0.26376368618E+03  0.27785638991E+03  0.00000000000E+00 0.  1.
         13    1    4    4    0    0  0.49990191055E+02  0.19617293933E+02  0.37589962284E+02  0.65550459095E+02  0.00000000000E+00 0. -1.
          1    1    1    2  501    0 -0.28488543253E+02  0.81652107234E+01 -0.29978028628E+02  0.42153884320E+02  0.00000000000E+00 0. -1.
<scales pt_clust_5="13000.00000" pt_clust_6="13000.00000" pt_clust_7="13000.00000" pt_clust_8="13000.00000" pt_clust_9="29.63560"></scales>
<clustering>
<clus scale="   29.636">  1  9  2 -1</clus>
<clus scale="   81.486">  5  6 -1 -1</clus>
<clus scale="   89.026">  7  8 -1 -1</clus>
<clus scale="  148.326">  2  5  1 -1</clus>
<clus scale="   29.636">  1  5  2 -1</clus>
</clustering>
</event>
<event>
 9    2  0.1325014E-004  0.1058714E+03  0.7546771E-02  0.1272665E+00
          2   -1    0    0  502    0 -0.00000000000E+00  0.00000000000E+00  0.37633063698E+03  0.37633063698E+03  0.00000000000E+00 0. -1.
         21   -1    0    0  501  502  0.00000000000E+00 -0.00000000000E+00 -0.84239083998E+02  0.84239083998E+02  0.00000000000E+00 0. -1.
         24    2    1    2    0    0  0.30665344683E+01  0.48635231943E+02  0.25238058939E+03  0.26944268802E+03  0.80799819334E+02 0.  0.
         23    2    1    2    0    0 -0.20930697293E+02 -0.75555762319E+02  0.76457440269E+02  0.14219701337E+03  0.90705474637E+02 0.  0.
        -11    1    3    3    0    0 -0.18806225209E+02  0.17898237657E+02  0.16941986867E+02  0.31000837680E+02  0.00000000000E+00 0.  1.
         12    1    3    3    0    0  0.21872759677E+02  0.30736994285E+02  0.23543860253E+03  0.23844185034E+03  0.00000000000E+00 0. -1.
        -13    1    4    4    0    0  0.68619354876E+01 -0.67596302903E+02  0.87906042068E+02  0.11110273875E+03  0.00000000000E+00 0. -1.
         13    1    4    4    0    0 -0.27792632780E+02 -0.79594594153E+01 -0.11448601798E+02  0.31094274621E+02  0.00000000000E+00 0.  1.
          1    1    1    2  501    0  0.17864162825E+02  0.26920530376E+02 -0.36746476679E+02  0.48930019594E+02  0.00000000000E+00 0. -1.
<scales pt_clust_5="13000.00000" pt_clust_6="13000.00000" pt_clust_7="13000.00000" pt_clust_8="13000.00000" pt_clust_9="32.30856"></scales>
<clustering>
<clus scale="   32.309">  2  9  1 -1</clus>
<clus scale="   80.800">  5  6 -1 -1</clus>
<clus scale="   90.705">  7  8 -1 -1</clus>
<clus scale="   97.519">  1  5  2 -1</clus>
<clus scale="   32.309">  2  5  1 -1</clus>
</clustering>
</event>
<event>
 9    2  0.1325014E-004  0.1279184E+03  0.7546771E-02  0.1233167E+00
         -1   -1    0    0    0  501 -0.00000000000E+00  0.00000000000E+00  0.37907897532E+03  0.37907897532E+03  0.00000000000E+00 0.  1.
         21   -1    0    0  501  502  0.00000000000E+00 -0.00000000000E+00 -0.16414973180E+03  0.16414973180E+03  0.00000000000E+00 0. -1.
         23    2    1    2    0    0 -0.73066183582E+02 -0.53165784495E+02  0.32221880488E+03  0.34664268126E+03  0.90393154784E+02 0.  0.
         24    2    1    2    0    0  0.51994391299E+02  0.83439416482E+02 -0.75742974482E+02  0.14805046810E+03  0.80724159786E+02 0.  0.
        -13    1    4    4    0    0  0.30164288179E+02  0.40411302365E+02  0.83350073372E+01  0.51111935861E+02  0.00000000000E+00 0.  1.
         14    1    4    4    0    0  0.21830103120E+02  0.43028114117E+02 -0.84077981819E+02  0.96938532243E+02  0.00000000000E+00 0. -1.
        -13    1    3    3    0    0  0.20802981052E+02 -0.81958604366E+01  0.78646459798E+02  0.81763083281E+02  0.00000000000E+00 0.  1.
         13    1    3    3    0    0 -0.93869164634E+02 -0.44969924059E+02  0.24357234508E+03  0.26487959798E+03  0.00000000000E+00 0. -1.
         -2    1    1    2    0  502  0.21071792283E+02 -0.30273631986E+02 -0.31546586874E+02  0.48535557760E+02  0.00000000000E+00 0.  1.
<scales pt_clust_5="13000.00000" pt_clust_6="13000.00000" pt_clust_7="13000.00000" pt_clust_8="13000.00000" pt_clust_9="36.88514"></scales>
<clustering>
<clus scale="   36.885">  2  9  1 -1</clus>
<clus scale="   80.724">  5  6 -1 -1</clus>
<clus scale="   90.393">  7  8 -1 -1</clus>
<clus scale="  121.279">  2  5  1 -1</clus>
<clus scale="   36.885">  2  5  1 -1</clus>
</clustering>
</event>
<event>
 9    2  0.1325014E-004  0.9479914E+02  0.7546771E-02  0.1296101E+00
          4   -1    0    0  502    0 -0.00000000000E+00  0.00000000000E+00  0.76735567548E+03  0.76735567548E+03  0.00000000000E+00 0. -1.
         21   -1    0    0  501  502  0.00000000000E+00 -0.00000000000E+00 -0.19037682640E+02  0.19037682640E+02  0.00000000000E+00 0. -1.
         23    2    1    2    0    0 -0.12987768923E+02 -0.16475136565E+02  0.47876269902E+03  0.48756738000E+03  0.89822690874E+02 0.  0.
         24    2    1    2    0    0  0.33337943728E+02  0.39824610397E+02  0.21996435552E+03  0.24035727963E+03  0.81791723810E+02 0.  0.
        -11    1    4    4    0    0  0.27067116884E+02  0.30665675935E+02  0.22462493320E+03  0.22831857812E+03  0.00000000000E+00 0.  1.
         12    1    4    4    0    0  0.62708268438E+01  0.91589344619E+01 -0.46605776786E+01  0.12038701511E+02  0.00000000000E+00 0. -1.
        -11    1    3    3    0    0 -0.28865359307E+02  0.30532181051E+02  0.19196853197E+03  0.19651295202E+03  0.00000000000E+00 0.  1.
         11    1    3    3    0    0  0.15877590384E+02 -0.47007317616E+02  0.28679416705E+03  0.29105442797E+03  0.00000000000E+00 0. -1.
          3    1    1    2  501    0 -0.20350174805E+02 -0.23349473832E+02  0.49590938291E+02  0.58468698493E+02  0.00000000000E+00 0. -1.
<scales pt_clust_5="13000.00000" pt_clust_6="13000.00000" pt_clust_7="13000.00000" pt_clust_8="13000.00000" pt_clust_9="30.97301"></scales>
<clustering>
<clus scale="   30.973">  2  9  1 -1</clus>
<clus scale="   81.792">  5  6 -1 -1</clus>
<clus scale="   87.228">  2  5  1 -1</clus>
<clus scale="   89.823">  7  8 -1 -1</clus>
<clus scale="   30.973">  2  5  1 -1</clus>
</clustering>
</event>
<event>
 9    2  0.1325014E-004  0.1581403E+03  0.7546771E-02  0.1192498E+00
         21   -1    0    0  501  502  0.00000000000E+00  0.00000000000E+00  0.17229719644E+03  0.17229719644E+03  0.00000000000E+00 0. -1.
         -3   -1    0    0    0  501 -0.00000000000E+00 -0.00000000000E+00 -0.38146369099E+03  0.38146369099E+03  0.00000000000E+00 0.  1.
         23    2    1    2    0    0  0.12682356773E+03  0.36308944499E+02 -0.22598078282E+03  0.27730366494E+03  0.91801152512E+02 0.  0.
         24    2    1    2    0    0 -0.12442293205E+03 -0.10941424781E+02 -0.84900444856E+02  0.17159940904E+03  0.81470797515E+02 0.  0.
        -11    1    4    4    0    0 -0.22022315583E+02  0.21617073568E+02 -0.49751149768E+02  0.58544488695E+02  0.00000000000E+00 0.  1.
         12    1    4    4    0    0 -0.10240061647E+03 -0.32558498349E+02 -0.35149295088E+02  0.11305492034E+03  0.00000000000E+00 0. -1.
        -11    1    3    3    0    0  0.13291971466E+03  0.14459521094E+02 -0.16582625475E+03  0.21301426023E+03  0.00000000000E+00 0.  1.
         11    1    3    3    0    0 -0.60961469364E+01  0.21849423405E+02 -0.60154528068E+02  0.64289404708E+02  0.00000000000E+00 0. -1.
         -4    1    1    2    0  502 -0.24006356722E+01 -0.25367519718E+02  0.10171473313E+03  0.10485781346E+03  0.00000000000E+00 0.  1.
<scales pt_clust_5="13000.00000" pt_clust_6="13000.00000" pt_clust_7="13000.00000" pt_clust_8="13000.00000" pt_clust_9="25.48086"></scales>
<clustering>
<clus scale="   25.481">  1  9  2 -1</clus>
<clus scale="   81.471">  5  6 -1 -1</clus>
<clus scale="   91.801">  7  8 -1 -1</clus>
<clus scale="  152.376">  1  5  2 -1</clus>
<clus scale="   25.481">  1  5  2 -1</clus>
</clustering>
</event>
<event>
 9    2  0.1325014E-004  0.1284861E+03  0.7546771E-02  0.1232727E+00
         21   -1    0    0  501  502  0.00000000000E+00  0.00000000000E+00  0.28441048279E+02  0.28441048279E+02  0.00000000000E+00 0. -1.
          2   -1    0    0  502    0 -0.00000000000E+00 -0.00000000000E+00 -0.11832655740E+04  0.11832655740E+04  0.00000000000E+00 0. -1.
         24    2    1    2    0    0 -0.56655445048E+02 -0.24973635052E+02 -0.30856603666E+03  0.32466903425E+03  0.79771303877E+02 0.  0.
         23    2    1    2    0    0  0.12326075552E+03  0.80136665732E+02 -0.46551439792E+03  0.49659515913E+03  0.91038444404E+02 0.  0.
        -11    1    3    3    0    0 -0.63456517464E+01 -0.45808539722E+02 -0.15383549092E+03  0.16063638403E+03  0.00000000000E+00 0.  1.
         12    1    3    3    0    0 -0.50309793301E+02  0.20834904670E+02 -0.15473054574E+03  0.16403265022E+03  0.00000000000E+00 0. -1.
        -13    1    4    4    0    0  0.12202198478E+03  0.35885821495E+02 -0.31509611024E+03  0.33979805126E+03  0.00000000000E+00 0. -1.
         13    1    4    4    0    0  0.12387707442E+01  0.44250844237E+02 -0.15041828768E+03  0.15679710787E+03  0.00000000000E+00 0.  1.
          1    1    1    2  501    0 -0.66605310476E+02 -0.55163030680E+02 -0.38074409113E+03  0.39044242888E+03  0.00000000000E+00 0. -1.
<scales pt_clust_5="13000.00000" pt_clust_6="13000.00000" pt_clust_7="13000.00000" pt_clust_8="13000.00000" pt_clust_9="86.48257"></scales>
<clustering>
<clus scale="   79.771">  5  6 -1 -1</clus>
<clus scale="   86.483">  1  9  2 -1</clus>
<clus scale="   91.038">  7  8 -1 -1</clus>
<clus scale="  120.765">  2  5  1 -1</clus>
<clus scale="   86.483">  1  5  2 -1</clus>
</clustering>
</event>
<event>
 9    2  0.1325014E-004  0.2526302E+03  0.7546771E-02  0.1112425E+00
          2   -1    0    0  502    0 -0.00000000000E+00  0.00000000000E+00  0.44249725357E+03  0.44249725357E+03  0.00000000000E+00 0. -1.
         21   -1    0    0  501  502  0.00000000000E+00 -0.00000000000E+00 -0.26851580339E+03  0.26851580339E+03  0.00000000000E+00 0. -1.
         24    2    1    2    0    0 -0.23233989313E+03 -0.49002964958E+02  0.30555459143E+03  0.39487189750E+03  0.78594469123E+02 0.  0.
         23    2    1    2    0    0  0.21058511841E+03  0.85020567595E+02 -0.11086571162E+03  0.26924408530E+03  0.92879397321E+02 0.  0.
        -13    1    3    3    0    0 -0.13798815368E+03 -0.62896950300E+02  0.21694044418E+03  0.26468833226E+03  0.00000000000E+00 0.  1.
         14    1    3    3    0    0 -0.94351739448E+02  0.13893985342E+02  0.88614147245E+02  0.13018356524E+03  0.00000000000E+00 0. -1.
        -11    1    4    4    0    0  0.83261307908E+02  0.29041360723E+02  0.48521223853E+01  0.88314150162E+02  0.00000000000E+00 0.  1.
         11    1    4    4    0    0  0.12732381050E+03  0.55979206871E+02 -0.11571783400E+03  0.18092993514E+03  0.00000000000E+00 0. -1.
          1    1    1    2  501    0  0.21754774724E+02 -0.36017602637E+02 -0.20707429626E+02  0.46897074159E+02  0.00000000000E+00 0. -1.
<scales pt_clust_5="13000.00000" pt_clust_6="13000.00000" pt_clust_7="13000.00000" pt_clust_8="13000.00000" pt_clust_9="42.07776"></scales>
<clustering>
<clus scale="   42.078">  2  9  1 -1</clus>
<clus scale="   78.594">  5  6 -1 -1</clus>
<clus scale="   92.879">  7  8 -1 -1</clus>
<clus scale="  247.735">  1  5  2 -1</clus>
<clus scale="   42.078">  2  5  1 -1</clus>
</clustering>
</event>
<event>
 9    2  0.1325014E-004  0.9519583E+02  0.7546771E-02  0.1303541E+00
         21   -1    0    0  501  502  0.00000000000E+00  0.00000000000E+00  0.35843923373E+02  0.35843923373E+02  0.00000000000E+00 0. -1.
          2   -1    0    0  502    0 -0.00000000000E+00 -0.00000000000E+00 -0.34862868504E+03  0.34862868504E+03  0.00000000000E+00 0. -1.
         24    2    1    2    0    0 -0.21953016735E+02 -0.15367525102E+01 -0.21728844766E+03  0.22981425042E+03  0.71526384369E+02 0.  0.
         23    2    1    2    0    0  0.22318005158E+02  0.21647476491E+02 -0.92367735213E+02  0.13430246349E+03  0.92404797490E+02 0.  0.
        -13    1    3    3    0    0 -0.34008772273E+02 -0.20405016412E+02 -0.66934779452E+02  0.77802480594E+02  0.00000000000E+00 0.  1.
         14    1    3    3    0    0  0.12055755538E+02  0.18868263902E+02 -0.15035366820E+03  0.15201176983E+03  0.00000000000E+00 0. -1.
        -11    1    4    4    0    0 -0.31945449328E+02  0.15412764013E+02 -0.12629518197E+02  0.37650627580E+02  0.00000000000E+00 0. -1.
         11    1    4    4    0    0  0.54263454485E+02  0.62347124775E+01 -0.79738217016E+02  0.96651835912E+02  0.00000000000E+00 0.  1.
          1    1    1    2  501    0 -0.36498842256E+00 -0.20110723980E+02 -0.31285788005E+01  0.20355894499E+02  0.00000000000E+00 0. -1.
<scales pt_clust_5="13000.00000" pt_clust_6="13000.00000" pt_clust_7="13000.00000" pt_clust_8="13000.00000" pt_clust_9="20.11404"></scales>
<clustering>
<clus scale="   20.114">  1  9  2 -1</clus>
<clus scale="   71.526">  5  6 -1 -1</clus>
<clus scale="   75.097">  2  5  1 -1</clus>
<clus scale="   92.405">  7  8 -1 -1</clus>
<clus scale="   20.114">  1  5  2 -1</clus>
</clustering>
</event>
<event>
 9    2  0.1325014E-004  0.1211419E+03  0.7546771E-02  0.1256473E+00
         21   -1    0    0  501  502  0.00000000000E+00  0.00000000000E+00  0.36357404701E+02  0.36357404701E+02  0.00000000000E+00 0. -1.
          2   -1    0    0  502    0 -0.00000000000E+00 -0.00000000000E+00 -0.92928779583E+03  0.92928779583E+03  0.00000000000E+00 0. -1.
         24    2    1    2    0    0 -0.10814480352E+02  0.32656461458E+02 -0.21750062017E+03  0.23511037202E+03  0.82383067426E+02 0.  0.
         23    2    1    2    0    0 -0.45326231639E+02  0.56044550451E+02 -0.12840245199E+03  0.17352626775E+03  0.91808044380E+02 0.  0.
        -13    1    3    3    0    0 -0.38289549045E+02 -0.71537153541E+01 -0.12185248683E+03  0.12792690786E+03  0.00000000000E+00 0.  1.
         14    1    3    3    0    0  0.27475068694E+02  0.39810176812E+02 -0.95648133346E+02  0.10718346416E+03  0.00000000000E+00 0. -1.
        -13    1    4    4    0    0 -0.23809616626E+02  0.63056952035E+02 -0.13419067359E+03  0.15016728646E+03  0.00000000000E+00 0.  1.
         13    1    4    4    0    0 -0.21516615012E+02 -0.70124015834E+01  0.57882216039E+01  0.23358981290E+02  0.00000000000E+00 0. -1.
          1    1    1    2  501    0  0.56140711990E+02 -0.88701011909E+02 -0.54702731897E+03  0.55700856076E+03  0.00000000000E+00 0. -1.
<scales pt_clust_5="13000.00000" pt_clust_6="13000.00000" pt_clust_7="13000.00000" pt_clust_8="13000.00000" pt_clust_9="79.03571"></scales>
<clustering>
<clus scale="   82.383">  5  6 -1 -1</clus>
<clus scale="   89.277">  2  5  1 -1</clus>
<clus scale="   79.036">  1  9  2 -1</clus>
<clus scale="   91.808">  7  8 -1 -1</clus>
<clus scale="   79.036">  1  5  2 -1</clus>
</clustering>
</event>
<event>
 9    2  0.1325014E-004  0.1806901E+03  0.7546771E-02  0.1178585E+00
          2   -1    0    0  502    0 -0.00000000000E+00  0.00000000000E+00  0.13006414101E+04  0.13006414101E+04  0.00000000000E+00 0. -1.
         21   -1    0    0  501  502  0.00000000000E+00 -0.00000000000E+00 -0.49658775031E+02  0.49658775031E+02  0.00000000000E+00 0.  1.
         23    2    1    2    0    0  0.31676432309E+02  0.10041542622E+03  0.35567540090E+03  0.38196021874E+03  0.91115112395E+02 0.  0.
         24    2    1    2    0    0  0.11035974954E+03 -0.16371774079E+03  0.56835880464E+03  0.60629475436E+03  0.74691534850E+02 0.  0.
        -13    1    4    4    0    0  0.75081039510E+02 -0.15107571651E+03  0.40577510014E+03  0.43944791103E+03  0.00000000000E+00 0.  1.
         14    1    4    4    0    0  0.35278710034E+02 -0.12642024280E+02  0.16258370450E+03  0.16684684332E+03  0.00000000000E+00 0. -1.
        -13    1    3    3    0    0  0.48785100012E+02  0.87920444482E+02  0.34263317585E+03  0.35708190060E+03  0.00000000000E+00 0.  1.
         13    1    3    3    0    0 -0.17108667703E+02  0.12494981736E+02  0.13042225044E+02  0.24878318135E+02  0.00000000000E+00 0. -1.
          1    1    1    2  501    0 -0.14203618185E+03  0.63302314572E+02  0.32694842949E+03  0.36204521200E+03  0.00000000000E+00 0. -1.
<scales pt_clust_5="13000.00000" pt_clust_6="13000.00000" pt_clust_7="13000.00000" pt_clust_8="13000.00000" pt_clust_9="164.52992"></scales>
<clustering>
<clus scale="   74.692">  5  6 -1 -1</clus>
<clus scale="   91.115">  7  8 -1 -1</clus>
<clus scale="  139.243">  1  7  2 -1</clus>
<clus scale="  164.530">  2  9  1 -1</clus>
<clus scale="  164.530">  2  5  1 -1</clus>
</clustering>
</event>
<event>
 9    2  0.1325014E-004  0.9903455E+02  0.7546771E-02  0.1288373E+00
          2   -1    0    0  502    0 -0.00000000000E+00  0.00000000000E+00  0.71461141491E+03  0.71461141491E+03  0.00000000000E+00 0. -1.
         21   -1    0    0  501  502  0.00000000000E+00 -0.00000000000E+00 -0.78874956930E+02  0.78874956930E+02  0.00000000000E+00 0. -1.
         24    2    1    2    0    0  0.23685154393E+02  0.16454847224E+02  0.44262246114E+03  0.45089843994E+03  0.81012415711E+02 0.  0.
         23    2    1    2    0    0 -0.18058873291E+00 -0.78695475477E+02  0.23460263117E+03  0.26418087105E+03  0.92520957655E+02 0.  0.
        -13    1    3    3    0    0 -0.26988034848E+02 -0.98117115443E+01  0.16300938223E+03  0.16551943210E+03  0.00000000000E+00 0.  1.
         14    1    3    3    0    0  0.50673189240E+02  0.26266558768E+02  0.27961307891E+03  0.28537900784E+03  0.00000000000E+00 0. -1.
        -11    1    4    4    0    0  0.25142095459E+02 -0.87698442301E+02  0.20388605181E+03  0.22336665792E+03  0.00000000000E+00 0. -1.
         11    1    4    4    0    0 -0.25322684192E+02  0.90029668235E+01  0.30716579356E+02  0.40814213133E+02  0.00000000000E+00 0.  1.
          1    1    1    2  501    0 -0.23504565660E+02  0.62240628254E+02 -0.41488634329E+02  0.78407060847E+02  0.00000000000E+00 0. -1.
<scales pt_clust_5="13000.00000" pt_clust_6="13000.00000" pt_clust_7="13000.00000" pt_clust_8="13000.00000" pt_clust_9="66.53090"></scales>
<clustering>
<clus scale="   66.531">  2  9  1 -1</clus>
<clus scale="   81.012">  5  6 -1 -1</clus>
<clus scale="   88.378">  1  5  2 -1</clus>
<clus scale="   92.521">  7  8 -1 -1</clus>
<clus scale="   66.531">  2  5  1 -1</clus>
</clustering>
</event>
<event>
 9    2  0.1325014E-004  0.9842294E+02  0.7546771E-02  0.1287619E+00
         -1   -1    0    0    0  501 -0.00000000000E+00  0.00000000000E+00  0.44451825670E+03  0.44451825670E+03  0.00000000000E+00 0.  1.
         21   -1    0    0  501  502  0.00000000000E+00 -0.00000000000E+00 -0.72526799469E+02  0.72526799469E+02  0.00000000000E+00 0. -1.
         23    2    1    2    0    0  0.32400822482E+02 -0.38510884964E+02  0.33656316117E+03  0.35180408280E+03  0.89210143283E+02 0.  0.
         24    2    1    2    0    0 -0.34421973559E+02 -0.26613933777E+02  0.38689022495E+02  0.10000325878E+03  0.81305827401E+02 0.  0.
        -11    1    4    4    0    0 -0.47720902665E+02  0.13794087321E+02  0.20571880847E+02  0.53765822580E+02  0.00000000000E+00 0.  1.
         12    1    4    4    0    0  0.13298929106E+02 -0.40408021098E+02  0.18117141648E+02  0.46237436195E+02  0.00000000000E+00 0. -1.
        -11    1    3    3    0    0 -0.30340449162E+02 -0.42206890127E+01  0.11355280608E+03  0.11761206077E+03  0.00000000000E+00 0. -1.
         11    1    3    3    0    0  0.62741271645E+02 -0.34290195952E+02  0.22301035509E+03  0.23419202203E+03  0.00000000000E+00 0.  1.
         -2    1    1    2    0  502  0.20211510768E+01  0.65124818741E+02 -0.32607264333E+01  0.65237714588E+02  0.00000000000E+00 0.  1.
<scales pt_clust_5="13000.00000" pt_clust_6="13000.00000" pt_clust_7="13000.00000" pt_clust_8="13000.00000" pt_clust_9="65.15617"></scales>
<clustering>
<clus scale="   65.156">  2  9  1 -1</clus>
<clus scale="   81.306">  5  6 -1 -1</clus>
<clus scale="   89.210">  7  8 -1 -1</clus>
<clus scale="   91.320">  2  5  1 -1</clus>
<clus scale="   65.156">  2  5  1 -1</clus>
</clustering>
</event>
<event>
 9    2  0.1325014E-004  0.2164757E+03  0.7546771E-02  0.1137559E+00
         -3   -1    0    0    0  501 -0.00000000000E+00  0.00000000000E+00  0.82891020879E+03  0.82891020879E+03  0.00000000000E+00 0.  1.
         21   -1    0    0  501  502  0.00000000000E+00 -0.00000000000E+00 -0.83307723230E+02  0.83307723230E+02  0.00000000000E+00 0.  1.
         24    2    1    2    0    0 -0.15263928346E+03 -0.13282461580E+03  0.43551489686E+03  0.48687133302E+03  0.80183165999E+02 0.  0.
         23    2    1    2    0    0  0.12138728561E+03  0.13427540481E+03  0.12780368573E+03  0.24039738046E+03  0.93232832208E+02 0.  0.
        -13    1    3    3    0    0 -0.48821115142E+02  0.14878896799E+00  0.91003112546E+02  0.10327192220E+03  0.00000000000E+00 0.  1.
         14    1    3    3    0    0 -0.10381816832E+03 -0.13297340476E+03  0.34451178431E+03  0.38359941082E+03  0.00000000000E+00 0. -1.
        -11    1    4    4    0    0  0.65527221211E+02  0.90564052926E+02  0.12737018980E+03  0.16946630831E+03  0.00000000000E+00 0.  1.
         11    1    4    4    0    0  0.55860064396E+02  0.43711351881E+02  0.43349593103E+00  0.70931072150E+02  0.00000000000E+00 0. -1.
         -4    1    1    2    0  502  0.31251997854E+02 -0.14507890129E+01  0.18228390297E+03  0.18494921855E+03  0.00000000000E+00 0.  1.
<scales pt_clust_5="13000.00000" pt_clust_6="13000.00000" pt_clust_7="13000.00000" pt_clust_8="13000.00000" pt_clust_9="31.28567"></scales>
<clustering>
<clus scale="   31.286">  2  9  1 -1</clus>
<clus scale="   80.183">  5  6 -1 -1</clus>
<clus scale="   93.233">  7  8 -1 -1</clus>
<clus scale="  211.184">  1  5  2 -1</clus>
<clus scale="   31.286">  2  5  1 -1</clus>
</clustering>
</event>
<event>
 9    2  0.1325014E-004  0.2190731E+03  0.7546771E-02  0.1173879E+00
         21   -1    0    0  501  502  0.00000000000E+00  0.00000000000E+00  0.28409966645E+03  0.28409966645E+03  0.00000000000E+00 0. -1.
          2   -1    0    0  502    0 -0.00000000000E+00 -0.00000000000E+00 -0.79219430850E+03  0.79219430850E+03  0.00000000000E+00 0. -1.
         24    2    1    2    0    0 -0.22884688962E+02  0.13753006789E+02 -0.63096014661E+03  0.63691720898E+03  0.82704112946E+02 0.  0.
         23    2    1    2    0    0  0.22680474847E+02  0.19149494894E+03  0.33495899155E+02  0.21551589087E+03  0.90224190475E+02 0.  0.
        -11    1    3    3    0    0  0.11337666572E+02 -0.26178012992E+02 -0.12412896625E+03  0.12736495322E+03  0.00000000000E+00 0.  1.
         12    1    3    3    0    0 -0.34222355535E+02  0.39931019781E+02 -0.50683118036E+03  0.50955225576E+03  0.00000000000E+00 0. -1.
        -11    1    4    4    0    0  0.52174713843E+01  0.31438840498E+02 -0.28726490289E+02  0.42904940786E+02  0.00000000000E+00 0.  1.
         11    1    4    4    0    0  0.17463003463E+02  0.16005610844E+03  0.62222389444E+02  0.17261095008E+03  0.00000000000E+00 0. -1.
          1    1    1    2  501    0  0.20421411516E+00 -0.20524795573E+03  0.89369605409E+02  0.22386087511E+03  0.00000000000E+00 0. -1.
<scales pt_clust_5="13000.00000" pt_clust_6="13000.00000" pt_clust_7="13000.00000" pt_clust_8="13000.00000" pt_clust_9="199.63118"></scales>
<clustering>
<clus scale="   82.704">  5  6 -1 -1</clus>
<clus scale="   86.907">  2  5  1 -1</clus>
<clus scale="   90.224">  7  8 -1 -1</clus>
<clus scale="  199.631">  1  9  2 -1</clus>
<clus scale="  199.631">  1  5  2 -1</clus>
</clustering>
</event>
<event>
 9    2  0.1325014E-004  0.3932798E+03  0.7546771E-02  0.1046132E+00
          2   -1    0    0  502    0 -0.00000000000E+00  0.00000000000E+00  0.17794512529E+04  0.17794512529E+04  0.00000000000E+00 0. -1.
         21   -1    0    0  501  502  0.00000000000E+00 -0.00000000000E+00 -0.21720098329E+03  0.21720098329E+03  0.00000000000E+00 0. -1.
         24    2    1    2    0    0  0.24796900468E+03  0.24616990885E+02  0.14883057736E+01  0.26211592744E+03  0.81289118843E+02 0.  0.
         23    2    1    2    0    0  0.97241930495E+02 -0.84380030619E+01 -0.49082706590E+01  0.13117869656E+03  0.87501807795E+02 0.  0.
        -13    1    3    3    0    0  0.15369607116E+03 -0.83374910709E+01 -0.31166835508E+02  0.15704575028E+03  0.00000000000E+00 0.  1.
         14    1    3    3    0    0  0.94272933524E+02  0.32954481956E+02  0.32655141281E+02  0.10507017716E+03  0.00000000000E+00 0. -1.
        -11    1    4    4    0    0  0.54039273734E+02  0.30180390166E+02  0.24043512443E+02  0.66401728493E+02  0.00000000000E+00 0.  1.
         11    1    4    4    0    0  0.43202656761E+02 -0.38618393228E+02 -0.28951783102E+02  0.64776968064E+02  0.00000000000E+00 0. -1.
          1    1    1    2  501    0 -0.34521093518E+03 -0.16178987823E+02  0.15656702345E+04  0.16033576122E+04  0.00000000000E+00 0. -1.
<scales pt_clust_5="13000.00000" pt_clust_6="13000.00000" pt_clust_7="13000.00000" pt_clust_8="13000.00000" pt_clust_9="345.59003"></scales>
<clustering>
<clus scale="   81.289">  5  6 -1 -1</clus>
<clus scale="   87.502">  7  8 -1 -1</clus>
<clus scale="   92.631">  5  7 -1 -1</clus>
<clus scale="  345.590">  2  9  1 -1</clus>
<clus scale="  345.590">  2  5  1 -1</clus>
</clustering>
</event>
<event>
 9    2  0.1325014E-004  0.2348263E+03  0.7546771E-02  0.1149966E+00
         21   -1    0    0  501  502  0.00000000000E+00  0.00000000000E+00  0.23303853571E+03  0.23303853571E+03  0.00000000000E+00 0. -1.
          4   -1    0    0  502    0 -0.00000000000E+00 -0.00000000000E+00 -0.36046177190E+03  0.36046177190E+03  0.00000000000E+00 0. -1.
         24    2    1    2    0    0  0.37598026227E+02 -0.80641812363E+02 -0.31139077436E+01  0.12293600061E+03  0.84775293261E+02 0.  0.
         23    2    1    2    0    0 -0.14519118336E+03  0.21215971584E+03 -0.81726275775E+02  0.29538850168E+03  0.12034516201E+03 0.  0.
        -11    1    3    3    0    0  0.38825913208E+01 -0.64598596432E+02 -0.35232559232E+02  0.73684370163E+02  0.00000000000E+00 0.  1.
         12    1    3    3    0    0  0.33715434907E+02 -0.16043215931E+02  0.32118651488E+02  0.49251630448E+02  0.00000000000E+00 0. -1.
        -13    1    4    4    0    0 -0.35137941187E+02 -0.90943882439E+01 -0.50057352469E+01  0.36639325782E+02  0.00000000000E+00 0.  1.
         13    1    4    4    0    0 -0.11005324217E+03  0.22125410408E+03 -0.76720540528E+02  0.25874917589E+03  0.00000000000E+00 0. -1.
          3    1    1    2  501    0  0.10759315713E+03 -0.13151790348E+03 -0.42583052672E+02  0.17517580533E+03  0.00000000000E+00 0. -1.
<scales pt_clust_5="13000.00000" pt_clust_6="13000.00000" pt_clust_7="13000.00000" pt_clust_8="13000.00000" pt_clust_9="201.64434"></scales>
<clustering>
<clus scale="   84.775">  5  6 -1 -1</clus>
<clus scale="  120.345">  7  8 -1 -1</clus>
<clus scale="  122.897">  2  5  1 -1</clus>
<clus scale="  201.644">  1  9  2 -1</clus>
<clus scale="  201.644">  1  5  2 -1</clus>
</clustering>
</event>
<event>
 9    2  0.1325014E-004  0.4232437E+03  0.7546771E-02  0.1095599E+00
         21   -1    0    0  501  502  0.00000000000E+00  0.00000000000E+00  0.25174317229E+04  0.25174317229E+04  0.00000000000E+00 0.  1.
         -1   -1    0    0    0  501 -0.00000000000E+00 -0.00000000000E+00 -0.21609624567E+03  0.21609624567E+03  0.00000000000E+00 0.  1.
         24    2    1    2    0    0 -0.13221241456E+02 -0.71369319521E+00 -0.11402974843E+03  0.14002141832E+03  0.80174207067E+02 0.  0.
         23    2    1    2    0    0 -0.35767873863E+03  0.18938351951E+03  0.59035571573E+03  0.72165644677E+03  0.92021511335E+02 0.  0.
        -11    1    3    3    0    0 -0.18302563996E+02  0.30894333478E+02 -0.97686117063E+02  0.10407699629E+03  0.00000000000E+00 0.  1.
         12    1    3    3    0    0  0.50813225399E+01 -0.31608026674E+02 -0.16343631362E+02  0.35944422030E+02  0.00000000000E+00 0. -1.
        -13    1    4    4    0    0 -0.27045019576E+03  0.17104614496E+03  0.40657404553E+03  0.51739979377E+03  0.00000000000E+00 0.  1.
         13    1    4    4    0    0 -0.87228542868E+02  0.18337374551E+02  0.18378167020E+03  0.20425665301E+03  0.00000000000E+00 0. -1.
         -2    1    1    2    0  502  0.37089998009E+03 -0.18866982632E+03  0.18250095099E+04  0.18718501035E+04  0.00000000000E+00 0.  1.
<scales pt_clust_5="13000.00000" pt_clust_6="13000.00000" pt_clust_7="13000.00000" pt_clust_8="13000.00000" pt_clust_9="413.11891"></scales>
<clustering>
<clus scale="   80.174">  5  6 -1 -1</clus>
<clus scale="   81.260">  2  5  1 -1</clus>
<clus scale="   92.022">  7  8 -1 -1</clus>
<clus scale="  413.119">  1  9  2 -1</clus>
<clus scale="  413.119">  1  5  2 -1</clus>
</clustering>
</event>
<event>
 9    2  0.1325014E-004  0.1167734E+03  0.7546771E-02  0.1252112E+00
         21   -1    0    0  501  502  0.00000000000E+00  0.00000000000E+00  0.58751370070E+02  0.58751370070E+02  0.00000000000E+00 0.  1.
         -1   -1    0    0    0  501 -0.00000000000E+00 -0.00000000000E+00 -0.53660011954E+03  0.53660011954E+03  0.00000000000E+00 0.  1.
         24    2    1    2    0    0  0.44791552663E+02  0.95282133996E+02 -0.19041663557E+03  0.23231341229E+03  0.81400603069E+02 0.  0.
         23    2    1    2    0    0  0.11189878039E+02 -0.29979699495E+02 -0.47802446177E+02  0.10843896854E+03  0.91923556753E+02 0.  0.
        -13    1    3    3    0    0  0.38111171844E+02  0.98207323073E+02 -0.19640813811E+03  0.22287506913E+03  0.00000000000E+00 0.  1.
         14    1    3    3    0    0  0.66803808188E+01 -0.29251890762E+01  0.59915025368E+01  0.94383431631E+01  0.00000000000E+00 0. -1.
        -11    1    4    4    0    0 -0.25198975529E+02 -0.35033890000E+02  0.57079218217E+01  0.43530933688E+02  0.00000000000E+00 0.  1.
         11    1    4    4    0    0  0.36388853568E+02  0.50541905044E+01 -0.53510367999E+02  0.64908034857E+02  0.00000000000E+00 0. -1.
         -2    1    1    2    0  502 -0.55981430702E+02 -0.65302434501E+02 -0.23962966772E+03  0.25459910877E+03  0.00000000000E+00 0.  1.
<scales pt_clust_5="13000.00000" pt_clust_6="13000.00000" pt_clust_7="13000.00000" pt_clust_8="13000.00000" pt_clust_9="86.01358"></scales>
<clustering>
<clus scale="   81.401">  5  6 -1 -1</clus>
<clus scale="   86.014">  1  9  2 -1</clus>
<clus scale="   91.924">  7  8 -1 -1</clus>
<clus scale="  108.684">  2  5  1 -1</clus>
<clus scale="   86.014">  1  5  2 -1</clus>
</clustering>
</event>
<event>
 9    2  0.1325014E-004  0.1917484E+03  0.7546771E-02  0.1189644E+00
          2   -1    0    0  502    0 -0.00000000000E+00  0.00000000000E+00  0.38108995405E+03  0.38108995405E+03  0.00000000000E+00 0. -1.
         21   -1    0    0  501  502  0.00000000000E+00 -0.00000000000E+00 -0.26412854902E+03  0.26412854902E+03  0.00000000000E+00 0. -1.
         23    2    1    2    0    0 -0.57024203465E+01  0.32038729158E+02  0.15243271645E+03  0.17754508205E+03  0.85014853714E+02 0.  0.
         24    2    1    2    0    0  0.15813146611E+02  0.14787971165E+03  0.13778392024E+03  0.21769292694E+03  0.79292730048E+02 0.  0.
        -13    1    4    4    0    0 -0.68810956071E+01  0.47686047062E+02  0.30704446483E+01  0.48277698697E+02  0.00000000000E+00 0.  1.
         14    1    4    4    0    0  0.22694242218E+02  0.10019366458E+03  0.13471347559E+03  0.16941522824E+03  0.00000000000E+00 0. -1.
        -11    1    3    3    0    0  0.35105240813E+02 -0.16096142784E+00  0.37302333322E+02  0.51223704594E+02  0.00000000000E+00 0. -1.
         11    1    3    3    0    0 -0.40807661159E+02  0.32199690586E+02  0.11513038313E+03  0.12632137746E+03  0.00000000000E+00 0.  1.
          1    1    1    2  501    0 -0.10110726264E+02 -0.17991844080E+03 -0.17325523166E+03  0.24998049409E+03  0.00000000000E+00 0. -1.
<scales pt_clust_5="13000.00000" pt_clust_6="13000.00000" pt_clust_7="13000.00000" pt_clust_8="13000.00000" pt_clust_9="174.58556"></scales>
<clustering>
<clus scale="   79.293">  5  6 -1 -1</clus>
<clus scale="   85.015">  7  8 -1 -1</clus>
<clus scale="   91.030">  1  7  2 -1</clus>
<clus scale="  174.586">  2  9  1 -1</clus>
<clus scale="  174.586">  2  5  1 -1</clus>
</clustering>
</event>
<event>
 9    2  0.1325014E-004  0.1184560E+03  0.7546771E-02  0.1251661E+00
         21   -1    0    0  501  502  0.00000000000E+00  0.00000000000E+00  0.27928171725E+03  0.27928171725E+03  0.00000000000E+00 0. -1.
          2   -1    0    0  502    0 -0.00000000000E+00 -0.00000000000E+00 -0.88073995557E+02  0.88073995557E+02  0.00000000000E+00 0. -1.
         23    2    1    2    0    0 -0.77963589756E+02 -0.45544864050E+01  0.37922102491E+02  0.13099355362E+03  0.98092612154E+02 0.  0.
         24    2    1    2    0    0  0.38105952002E+02  0.33452586518E+02  0.16013160378E+03  0.18665703890E+03  0.81409953450E+02 0.  0.
        -11    1    4    4    0    0 -0.23350077587E+01 -0.24796622967E+02  0.45286010325E+02  0.51683145250E+02  0.00000000000E+00 0.  1.
         12    1    4    4    0    0  0.40440959761E+02  0.58249209486E+02  0.11484559345E+03  0.13497389365E+03  0.00000000000E+00 0. -1.
        -11    1    3    3    0    0 -0.69425237614E+02  0.38108677022E+02  0.37150832353E+02  0.87477535554E+02  0.00000000000E+00 0. -1.
         11    1    3    3    0    0 -0.85383521417E+01 -0.42663163427E+02  0.77127013846E+00  0.43516018068E+02  0.00000000000E+00 0.  1.
          1    1    1    2  501    0  0.39857637754E+02 -0.28898100113E+02 -0.68459845757E+01  0.49705120282E+02  0.00000000000E+00 0. -1.
<scales pt_clust_5="13000.00000" pt_clust_6="13000.00000" pt_clust_7="13000.00000" pt_clust_8="13000.00000" pt_clust_9="49.23143"></scales>
<clustering>
<clus scale="   49.231">  1  9  2 -1</clus>
<clus scale="   81.410">  5  6 -1 -1</clus>
<clus scale="   98.093">  7  8 -1 -1</clus>
<clus scale="  105.058">  1  5  2 -1</clus>
<clus scale="   49.231">  1  5  2 -1</clus>
</clustering>
</event>
<event>
 9    2  0.1325014E-004  0.1115063E+03  0.7546771E-02  0.1262116E+00
         21   -1    0    0  501  502  0.00000000000E+00  0.00000000000E+00  0.20400696111E+03  0.20400696111E+03  0.00000000000E+00 0. -1.
          2   -1    0    0  502    0 -0.00000000000E+00 -0.00000000000E+00 -0.12138509208E+03  0.12138509208E+03  0.00000000000E+00 0. -1.
         23    2    1    2    0    0 -0.75527233899E+02  0.40733701178E+02  0.43719062056E+01  0.12509221310E+03  0.90913974406E+02 0.  0.
         24    2    1    2    0    0  0.47553930428E+01 -0.43476176982E+02  0.90776503630E+02  0.12837565184E+03  0.79543338164E+02 0.  0.
        -11    1    4    4    0    0  0.27655255507E+01  0.21135660013E+02  0.43001376145E+02  0.47994610178E+02  0.00000000000E+00 0.  1.
         12    1    4    4    0    0  0.19898674921E+01 -0.64611836995E+02  0.47775127485E+02  0.80381041662E+02  0.00000000000E+00 0. -1.
        -11    1    3    3    0    0  0.61054355697E+01  0.29682806097E+02  0.25993124716E+02  0.39924777442E+02  0.00000000000E+00 0.  1.
         11    1    3    3    0    0 -0.81632669469E+02  0.11050895081E+02 -0.21621218510E+02  0.85167435658E+02  0.00000000000E+00 0. -1.
          1    1    1    2  501    0  0.70771840857E+02  0.27424758037E+01 -0.12526540806E+02  0.71924188256E+02  0.00000000000E+00 0. -1.
<scales pt_clust_5="13000.00000" pt_clust_6="13000.00000" pt_clust_7="13000.00000" pt_clust_8="13000.00000" pt_clust_9="70.82499"></scales>
<clustering>
<clus scale="   70.825">  1  9  2 -1</clus>
<clus scale="   79.543">  5  6 -1 -1</clus>
<clus scale="   90.914">  7  8 -1 -1</clus>
<clus scale="  102.447">  1  5  2 -1</clus>
<clus scale="   70.825">  1  5  2 -1</clus>
</clustering>
</event>
<event>
 9    2  0.1325014E-004  0.1317596E+03  0.7546771E-02  0.1228643E+00
          2   -1    0    0  502    0 -0.00000000000E+00  0.00000000000E+00  0.61504575997E+03  0.61504575997E+03  0.00000000000E+00 0. -1.
         21   -1    0    0  501  502  0.00000000000E+00 -0.00000000000E+00 -0.12154119105E+03  0.12154119105E+03  0.00000000000E+00 0. -1.
         24    2    1    2    0    0 -0.89654213452E+02  0.33843149554E+02  0.51845779215E+03  0.53319028577E+03  0.79436527058E+02 0.  0.
         23    2    1    2    0    0  0.68081790930E+02 -0.27164465978E+02  0.46907064208E+02  0.12807153573E+03  0.93962796479E+02 0.  0.
        -13    1    3    3    0    0 -0.29662884307E+02  0.52781145045E+02  0.22033121233E+03  0.22849853196E+03  0.00000000000E+00 0.  1.
         14    1    3    3    0    0 -0.59991329146E+02 -0.18937995491E+02  0.29812657982E+03  0.30469175381E+03  0.00000000000E+00 0. -1.
        -11    1    4    4    0    0  0.81632830844E+02 -0.46344708567E+02  0.46083855389E+02  0.10457281105E+03  0.00000000000E+00 0.  1.
         11    1    4    4    0    0 -0.13551039914E+02  0.19180242589E+02  0.82320881963E+00  0.23498724674E+02  0.00000000000E+00 0. -1.
          1    1    1    2  501    0  0.21572422522E+02 -0.66786835759E+01 -0.71860287444E+02  0.75325129534E+02  0.00000000000E+00 0. -1.
<scales pt_clust_5="13000.00000" pt_clust_6="13000.00000" pt_clust_7="13000.00000" pt_clust_8="13000.00000" pt_clust_9="22.58261"></scales>
<clustering>
<clus scale="   22.583">  2  9  1 -1</clus>
<clus scale="   79.437">  5  6 -1 -1</clus>
<clus scale="   93.963">  7  8 -1 -1</clus>
<clus scale="  121.827">  1  5  2 -1</clus>
<clus scale="   22.583">  2  5  1 -1</clus>
</clustering>
</event>
<event>
 9    2  0.1325014E-004  0.9663674E+02  0.7546771E-02  0.1295234E+00
          2   -1    0    0  502    0 -0.00000000000E+00  0.00000000000E+00  0.36579479121E+03  0.36579479121E+03  0.00000000000E+00 0. -1.
         21   -1    0    0  501  502  0.00000000000E+00 -0.00000000000E+00 -0.12024943646E+03  0.12024943646E+03  0.00000000000E+00 0.  1.
         24    2    1    2    0    0 -0.29588468617E+02 -0.10395275129E+02  0.32374529528E+03  0.33454444120E+03  0.78265111649E+02 0.  0.
         23    2    1    2    0    0  0.10506328537E+02 -0.18504580045E+02 -0.49993779197E+02  0.10683529010E+03  0.91986949235E+02 0.  0.
        -11    1    3    3    0    0  0.91840934907E+01 -0.36184940092E+02  0.12773312756E+03  0.13307685501E+03  0.00000000000E+00 0.  1.
         12    1    3    3    0    0 -0.38772562108E+02  0.25789664964E+02  0.19601216772E+03  0.20146758619E+03  0.00000000000E+00 0. -1.
        -11    1    4    4    0    0  0.32730759547E+02 -0.19968845494E+02 -0.68086673995E+02  0.78139955123E+02  0.00000000000E+00 0.  1.
         11    1    4    4    0    0 -0.22224431010E+02  0.14642654495E+01  0.18092894798E+02  0.28695334973E+02  0.00000000000E+00 0. -1.
          1    1    1    2  501    0  0.19082140080E+02  0.28899855174E+02 -0.28206161332E+02  0.44664496372E+02  0.00000000000E+00 0. -1.
<scales pt_clust_5="13000.00000" pt_clust_6="13000.00000" pt_clust_7="13000.00000" pt_clust_8="13000.00000" pt_clust_9="34.63134"></scales>
<clustering>
<clus scale="   34.631">  2  9  1 -1</clus>
<clus scale="   78.265">  5  6 -1 -1</clus>
<clus scale="   83.681">  1  5  2 -1</clus>
<clus scale="   91.987">  7  8 -1 -1</clus>
<clus scale="   34.631">  2  5  1 -1</clus>
</clustering>
</event>
<event>
 9    2  0.1325014E-004  0.1009797E+03  0.7546771E-02  0.1287440E+00
          2   -1    0    0  502    0 -0.00000000000E+00  0.00000000000E+00  0.39694567676E+03  0.39694567676E+03  0.00000000000E+00 0. -1.
         21   -1    0    0  501  502  0.00000000000E+00 -0.00000000000E+00 -0.47870006919E+02  0.47870006919E+02  0.00000000000E+00 0.  1.
         24    2    1    2    0    0  0.26852582270E+02  0.70896740087E+01  0.25762721227E+03  0.27131673673E+03  0.80434236936E+02 0.  0.
         23    2    1    2    0    0 -0.96145933202E+01 -0.38656134992E+02  0.88465768874E+02  0.13740897392E+03  0.97305172900E+02 0.  0.
        -11    1    3    3    0    0 -0.25183468506E+01 -0.32272041950E+02  0.66206573319E+02  0.73696248976E+02  0.00000000000E+00 0.  1.
         12    1    3    3    0    0  0.29370929120E+02  0.39361715959E+02  0.19142063895E+03  0.19762048775E+03  0.00000000000E+00 0. -1.
        -11    1    4    4    0    0  0.33311341077E+02 -0.41318462496E+02  0.75875423757E+02  0.92595576124E+02  0.00000000000E+00 0.  1.
         11    1    4    4    0    0 -0.42925934397E+02  0.26623275040E+01  0.12590345117E+02  0.44813397793E+02  0.00000000000E+00 0. -1.
          1    1    1    2  501    0 -0.17237988949E+02  0.31566460983E+02  0.29826886946E+01  0.36089973038E+02  0.00000000000E+00 0. -1.
<scales pt_clust_5="13000.00000" pt_clust_6="13000.00000" pt_clust_7="13000.00000" pt_clust_8="13000.00000" pt_clust_9="35.96651"></scales>
<clustering>
<clus scale="   35.967">  2  9  1 -1</clus>
<clus scale="   80.434">  5  6 -1 -1</clus>
<clus scale="   84.843">  1  5  2 -1</clus>
<clus scale="   97.305">  7  8 -1 -1</clus>
<clus scale="   35.967">  2  5  1 -1</clus>
</clustering>
</event>
<event>
 9    2  0.1325014E-004  0.2059168E+03  0.7546771E-02  0.1162628E+00
          2   -1    0    0  502    0 -0.00000000000E+00  0.00000000000E+00  0.19684638165E+04  0.19684638165E+04  0.00000000000E+00 0. -1.
         21   -1    0    0  501  502  0.00000000000E+00 -0.00000000000E+00 -0.45178112744E+02  0.45178112744E+02  0.00000000000E+00 0.  1.
         23    2    1    2    0    0 -0.84620182138E+02  0.55178865981E+02  0.30916472488E+03  0.33754348539E+03  0.90263475114E+02 0.  0.
         24    2    1    2    0    0  0.21080440337E+03  0.19987568636E+02  0.46217391778E+03  0.51482565844E+03  0.81257177727E+02 0.  0.
        -13    1    4    4    0    0  0.17832670207E+03 -0.15134969727E+02  0.36513738412E+03  0.40663840112E+03  0.00000000000E+00 0.  1.
         14    1    4    4    0    0  0.32477701305E+02  0.35122538363E+02  0.97036533662E+02  0.10818725733E+03  0.00000000000E+00 0. -1.
        -11    1    3    3    0    0 -0.25846900886E+01  0.31116480898E+02  0.17974078070E+03  0.18243262935E+03  0.00000000000E+00 0.  1.
         11    1    3    3    0    0 -0.82035492050E+02  0.24062385083E+02  0.12942394418E+03  0.15511085603E+03  0.00000000000E+00 0. -1.
          1    1    1    2  501    0 -0.12618422124E+03 -0.75166434618E+02  0.11519470611E+04  0.11612727854E+04  0.00000000000E+00 0. -1.
<scales pt_clust_5="13000.00000" pt_clust_6="13000.00000" pt_clust_7="13000.00000" pt_clust_8="13000.00000" pt_clust_9="189.20630"></scales>
<clustering>
<clus scale="   81.257">  5  6 -1 -1</clus>
<clus scale="   90.263">  7  8 -1 -1</clus>
<clus scale="  135.472">  1  7  2 -1</clus>
<clus scale="  189.206">  2  9  1 -1</clus>
<clus scale="  189.206">  2  5  1 -1</clus>
</clustering>
</event>
<event>
 9    2  0.1325014E-004  0.2133725E+03  0.7546771E-02  0.1161396E+00
         21   -1    0    0  501  502  0.00000000000E+00  0.00000000000E+00  0.32917685544E+02  0.32917685544E+02  0.00000000000E+00 0. -1.
          2   -1    0    0  502    0 -0.00000000000E+00 -0.00000000000E+00 -0.25482213632E+04  0.25482213632E+04  0.00000000000E+00 0. -1.
         23    2    1    2    0    0 -0.81337372638E+02 -0.52564215634E+02 -0.33948659747E+03  0.36186991146E+03  0.79497911917E+02 0.  0.
         24    2    1    2    0    0 -0.37668727720E+01 -0.17371213880E+03 -0.83273961623E+03  0.85460771579E+03  0.81908381391E+02 0.  0.
        -13    1    4    4    0    0 -0.14317084157E+01 -0.45964351082E+02 -0.91168258995E+02  0.10210985656E+03  0.00000000000E+00 0.  1.
         14    1    4    4    0    0 -0.23351643563E+01 -0.12774778772E+03 -0.74157135724E+03  0.75249785923E+03  0.00000000000E+00 0. -1.
        -13    1    3    3    0    0 -0.53106264323E+02 -0.10982947273E+02 -0.74432735777E+02  0.92093064866E+02  0.00000000000E+00 0. -1.
         13    1    3    3    0    0 -0.28231108316E+02 -0.41581268360E+02 -0.26505386170E+03  0.26977684659E+03  0.00000000000E+00 0.  1.
          1    1    1    2  501    0  0.85104245410E+02  0.22627635444E+03 -0.13430774639E+04  0.13646614215E+04  0.00000000000E+00 0. -1.
<scales pt_clust_5="13000.00000" pt_clust_6="13000.00000" pt_clust_7="13000.00000" pt_clust_8="13000.00000" pt_clust_9="197.02504"></scales>
<clustering>
<clus scale="   79.498">  7  8 -1 -1</clus>
<clus scale="   81.908">  5  6 -1 -1</clus>
<clus scale="  125.294">  2  7  1 -1</clus>
<clus scale="  197.025">  1  9  2 -1</clus>
<clus scale="  197.025">  1  5  2 -1</clus>
</clustering>
</event>
<event>
 9    2  0.1325014E-004  0.2926247E+03  0.7546771E-02  0.1089407E+00
          2   -1    0    0  502    0 -0.00000000000E+00  0.00000000000E+00  0.45025241966E+03  0.45025241966E+03  0.00000000000E+00 0. -1.
         21   -1    0    0  501  502  0.00000000000E+00 -0.00000000000E+00 -0.29329652255E+03  0.29329652255E+03  0.00000000000E+00 0. -1.
         24    2    1    2    0    0 -0.32804477726E+02  0.32206354650E+03  0.21124969345E+03  0.39495802419E+03  0.81020652576E+02 0.  0.
         23    2    1    2    0    0  0.34510687890E+02 -0.20689253085E+03 -0.40850905862E+02  0.23262546928E+03  0.91925543501E+02 0.  0.
        -11    1    3    3    0    0 -0.28810362662E+02  0.76936088879E+02  0.21432442033E+02  0.84903170377E+02  0.00000000000E+00 0.  1.
         12    1    3    3    0    0 -0.39941150642E+01  0.24512745762E+03  0.18981725142E+03  0.31005485381E+03  0.00000000000E+00 0. -1.
        -11    1    4    4    0    0  0.63121510029E+02 -0.15425764646E+03 -0.44795736543E+02  0.17258738230E+03  0.00000000000E+00 0. -1.
         11    1    4    4    0    0 -0.28610822138E+02 -0.52634884395E+02  0.39448306808E+01  0.60038086977E+02  0.00000000000E+00 0.  1.
          1    1    1    2  501    0 -0.17062101647E+01 -0.11517101565E+03 -0.13442890479E+02  0.11596544875E+03  0.00000000000E+00 0. -1.
<scales pt_clust_5="13000.00000" pt_clust_6="13000.00000" pt_clust_7="13000.00000" pt_clust_8="13000.00000" pt_clust_9="115.18365"></scales>
<clustering>
<clus scale="   81.021">  5  6 -1 -1</clus>
<clus scale="   91.926">  7  8 -1 -1</clus>
<clus scale="  115.184">  2  9  1 -1</clus>
<clus scale="  289.384">  1  5  2 -1</clus>
<clus scale="  115.184">  2  5  1 -1</clus>
</clustering>
</event>
<event>
 9    2  0.1325014E-004  0.2499275E+03  0.7546771E-02  0.1142186E+00
          2   -1    0    0  502    0 -0.00000000000E+00  0.00000000000E+00  0.13318499093E+03  0.13318499093E+03  0.00000000000E+00 0. -1.
         21   -1    0    0  501  502  0.00000000000E+00 -0.00000000000E+00 -0.77052804266E+03  0.77052804266E+03  0.00000000000E+00 0.  1.
         23    2    1    2    0    0  0.38459603114E+02  0.73903021246E+02 -0.88846806457E+02  0.15151597293E+03  0.90125120881E+02 0.  0.
         24    2    1    2    0    0 -0.25300595936E+03 -0.41821497199E+02 -0.42739230575E+03  0.50375083442E+03  0.73073025532E+02 0.  0.
        -13    1    4    4    0    0 -0.25745533513E+03 -0.37830068893E+02 -0.42151662026E+03  0.49536918037E+03  0.00000000000E+00 0.  1.
         14    1    4    4    0    0  0.44493757698E+01 -0.39914283063E+01 -0.58756854920E+01  0.83816540531E+01  0.00000000000E+00 0. -1.
        -11    1    3    3    0    0  0.30906993490E+02 -0.12168069642E+02 -0.10376847267E+02  0.34799182816E+02  0.00000000000E+00 0.  1.
         11    1    3    3    0    0  0.75526096239E+01  0.86071090888E+02 -0.78469959190E+02  0.11671679011E+03  0.00000000000E+00 0. -1.
          1    1    1    2  501    0  0.21454635625E+03 -0.32081524047E+02 -0.12110393953E+03  0.24844622624E+03  0.00000000000E+00 0. -1.
<scales pt_clust_5="13000.00000" pt_clust_6="13000.00000" pt_clust_7="13000.00000" pt_clust_8="13000.00000" pt_clust_9="239.00662"></scales>
<clustering>
<clus scale="   73.073">  5  6 -1 -1</clus>
<clus scale="   90.125">  7  8 -1 -1</clus>
<clus scale="  122.733">  1  7  2 -1</clus>
<clus scale="  239.007">  2  9  1 -1</clus>
<clus scale="  239.007">  2  5  1 -1</clus>
</clustering>
</event>
<event>
 9    2  0.1325014E-004  0.1068827E+03  0.7546771E-02  0.1271577E+00
         21   -1    0    0  501  502  0.00000000000E+00  0.00000000000E+00  0.89097906680E+02  0.89097906680E+02  0.00000000000E+00 0. -1.
          4   -1    0    0  502    0 -0.00000000000E+00 -0.00000000000E+00 -0.28968248725E+03  0.28968248725E+03  0.00000000000E+00 0. -1.
         23    2    1    2    0    0 -0.49835893976E+02 -0.32355735884E+02 -0.23638917310E+03  0.26022018198E+03  0.91127339368E+02 0.  0.
         24    2    1    2    0    0  0.25255576543E+02  0.29097363934E+02  0.31428195010E+02  0.93381612941E+02  0.79043617449E+02 0.  0.
        -11    1    4    4    0    0  0.25636971042E+02 -0.98338173716E+01 -0.16187941089E+02  0.31874875451E+02  0.00000000000E+00 0.  1.
         12    1    4    4    0    0 -0.38139449832E+00  0.38931181306E+02  0.47616136100E+02  0.61506737490E+02  0.00000000000E+00 0. -1.
        -11    1    3    3    0    0  0.23349677987E+02  0.73980081451E+01 -0.40041109841E+02  0.46938560522E+02  0.00000000000E+00 0.  1.
         11    1    3    3    0    0 -0.73185571964E+02 -0.39753744029E+02 -0.19634806326E+03  0.21328162146E+03  0.00000000000E+00 0. -1.
          3    1    1    2  501    0  0.24580317433E+02  0.32583719503E+01  0.43763975152E+01  0.25178599010E+02  0.00000000000E+00 0. -1.
<scales pt_clust_5="13000.00000" pt_clust_6="13000.00000" pt_clust_7="13000.00000" pt_clust_8="13000.00000" pt_clust_9="24.79534"></scales>
<clustering>
<clus scale="   24.795">  1  9  2 -1</clus>
<clus scale="   79.044">  5  6 -1 -1</clus>
<clus scale="   91.127">  7  8 -1 -1</clus>
<clus scale="   96.786">  1  5  2 -1</clus>
<clus scale="   24.795">  1  5  2 -1</clus>
</clustering>
</event>
<event>
 9    2  0.1325014E-004  0.2177112E+03  0.7546771E-02  0.1136451E+00
         21   -1    0    0  501  502  0.00000000000E+00  0.00000000000E+00  0.85011742335E+02  0.85011742335E+02  0.00000000000E+00 0. -1.
          2   -1    0    0  502    0 -0.00000000000E+00 -0.00000000000E+00 -0.88150603827E+03  0.88150603827E+03  0.00000000000E+00 0. -1.
         23    2    1    2    0    0 -0.18999783862E+03  0.41863215622E+02 -0.56308845062E+03  0.60265320256E+03  0.90942684339E+02 0.  0.
         24    2    1    2    0    0  0.19494405682E+03 -0.78230822056E+02 -0.14306021768E+03  0.26634842397E+03  0.79699499742E+02 0.  0.
        -11    1    4    4    0    0  0.41303470380E+02  0.41226132772E+01 -0.10774950107E+01  0.41522687788E+02  0.00000000000E+00 0.  1.
         12    1    4    4    0    0  0.15364058644E+03 -0.82353435333E+02 -0.14198272267E+03  0.22482573618E+03  0.00000000000E+00 0. -1.
        -13    1    3    3    0    0 -0.52596718644E+02 -0.27347757986E+02 -0.19179439258E+03  0.20074711381E+03  0.00000000000E+00 0.  1.
         13    1    3    3    0    0 -0.13740111997E+03  0.69210973608E+02 -0.37129405804E+03  0.40190608875E+03  0.00000000000E+00 0. -1.
          1    1    1    2  501    0 -0.49462182066E+01  0.36367606434E+02 -0.90345627643E+02  0.97516154080E+02  0.00000000000E+00 0. -1.
<scales pt_clust_5="13000.00000" pt_clust_6="13000.00000" pt_clust_7="13000.00000" pt_clust_8="13000.00000" pt_clust_9="36.70244"></scales>
<clustering>
<clus scale="   36.702">  1  9  2 -1</clus>
<clus scale="   79.699">  5  6 -1 -1</clus>
<clus scale="   90.943">  7  8 -1 -1</clus>
<clus scale="  213.260">  1  5  2 -1</clus>
<clus scale="   36.702">  1  5  2 -1</clus>
</clustering>
</event>
<event>
 9    2  0.1325014E-004  0.1082308E+03  0.7546771E-02  0.1265028E+00
          4   -1    0    0  502    0 -0.00000000000E+00  0.00000000000E+00  0.12869328754E+03  0.12869328754E+03  0.00000000000E+00 0. -1.
         21   -1    0    0  501  502  0.00000000000E+00 -0.00000000000E+00 -0.24562584751E+03  0.24562584751E+03  0.00000000000E+00 0. -1.
         24    2    1    2    0    0  0.69707760675E+02  0.27955061360E+02  0.73929240262E+02  0.13466914624E+03  0.83842644450E+02 0.  0.
         23    2    1    2    0    0 -0.16279143768E+02 -0.15286000730E+02 -0.11023763282E+03  0.14210318686E+03  0.86846460410E+02 0.  0.
        -11    1    3    3    0    0  0.41662949756E+02 -0.15012811921E+02 -0.47528212888E+00  0.44287828997E+02  0.00000000000E+00 0.  1.
         12    1    3    3    0    0  0.28044810919E+02  0.42967873281E+02  0.74404522390E+02  0.90381317239E+02  0.00000000000E+00 0. -1.
        -11    1    4    4    0    0  0.21495051270E+02  0.12352354231E+02 -0.85784112819E+02  0.89294635316E+02  0.00000000000E+00 0. -1.
         11    1    4    4    0    0 -0.37774195038E+02 -0.27638354961E+02 -0.24453520002E+02  0.52808551544E+02  0.00000000000E+00 0.  1.
          3    1    1    2  501    0 -0.53428616907E+02 -0.12669060630E+02 -0.80624167408E+02  0.97546801957E+02  0.00000000000E+00 0. -1.
<scales pt_clust_5="13000.00000" pt_clust_6="13000.00000" pt_clust_7="13000.00000" pt_clust_8="13000.00000" pt_clust_9="54.91013"></scales>
<clustering>
<clus scale="   54.910">  2  9  1 -1</clus>
<clus scale="   83.843">  5  6 -1 -1</clus>
<clus scale="   86.846">  7  8 -1 -1</clus>
<clus scale="  105.836">  1  5  2 -1</clus>
<clus scale="   54.910">  2  5  1 -1</clus>
</clustering>
</event>
<event>
 9    2  0.1325014E-004  0.1891191E+03  0.7546771E-02  0.1160571E+00
         21   -1    0    0  501  502  0.00000000000E+00  0.00000000000E+00  0.16217293671E+03  0.16217293671E+03  0.00000000000E+00 0.  1.
         -3   -1    0    0    0  501 -0.00000000000E+00 -0.00000000000E+00 -0.43615843707E+03  0.43615843707E+03  0.00000000000E+00 0.  1.
         23    2    1    2    0    0 -0.12551465585E+03  0.16417929004E+03 -0.14826790110E+03  0.27090293255E+03  0.93253741250E+02 0.  0.
         24    2    1    2    0    0  0.12831506231E+03 -0.35494806660E+02 -0.13154759049E+02  0.15643741359E+03  0.81086251425E+02 0.  0.
        -11    1    4    4    0    0  0.11004219699E+03 -0.58138324760E+02  0.11802676927E+00  0.12445627287E+03  0.00000000000E+00 0.  1.
         12    1    4    4    0    0  0.18272865314E+02  0.22643518099E+02 -0.13272785819E+02  0.31981140725E+02  0.00000000000E+00 0. -1.
        -11    1    3    3    0    0 -0.65517066878E+01  0.69243665611E+02 -0.21429364736E+02  0.72779308603E+02  0.00000000000E+00 0.  1.
         11    1    3    3    0    0 -0.11896294917E+03  0.94935624426E+02 -0.12683853636E+03  0.19812362395E+03  0.00000000000E+00 0. -1.
         -4    1    1    2    0  502 -0.28004064544E+01 -0.12868448338E+03 -0.11256284021E+03  0.17099102764E+03  0.00000000000E+00 0.  1.
<scales pt_clust_5="13000.00000" pt_clust_6="13000.00000" pt_clust_7="13000.00000" pt_clust_8="13000.00000" pt_clust_9="128.71502"></scales>
<clustering>
<clus scale="   81.086">  5  6 -1 -1</clus>
<clus scale="   93.254">  7  8 -1 -1</clus>
<clus scale="  128.715">  1  9  2 -1</clus>
<clus scale="  183.425">  1  5  2 -1</clus>
<clus scale="  128.715">  1  5  2 -1</clus>
</clustering>
</event>
<event>
 9    2  0.1325014E-004  0.1093990E+03  0.7546771E-02  0.1266058E+00
         21   -1    0    0  501  502  0.00000000000E+00  0.00000000000E+00  0.49748959883E+02  0.49748959883E+02  0.00000000000E+00 0. -1.
          2   -1    0    0  502    0 -0.00000000000E+00 -0.00000000000E+00 -0.76089149031E+03  0.76089149031E+03  0.00000000000E+00 0. -1.
         24    2    1    2    0    0  0.66194769043E+01  0.58220213869E+02 -0.60489101491E+03  0.61309399261E+03  0.80979584322E+02 0.  0.
         23    2    1    2    0    0  0.20383927082E+02 -0.65871699949E+02 -0.12016235331E+03  0.16622169942E+03  0.91848118477E+02 0.  0.
        -13    1    3    3    0    0  0.24793367433E+02  0.38015313109E+01 -0.57866191277E+02  0.63068683211E+02  0.00000000000E+00 0.  1.
         14    1    3    3    0    0 -0.18173890529E+02  0.54418682558E+02 -0.54702482363E+03  0.55002530939E+03  0.00000000000E+00 0. -1.
        -11    1    4    4    0    0  0.81779960102E+01 -0.86202178658E+02 -0.72292015508E+02  0.11279995891E+03  0.00000000000E+00 0.  1.
         11    1    4    4    0    0  0.12205931072E+02  0.20330478709E+02 -0.47870337800E+02  0.53421740508E+02  0.00000000000E+00 0. -1.
          1    1    1    2  501    0 -0.27003403987E+02  0.76514860802E+01  0.13910837790E+02  0.31324758165E+02  0.00000000000E+00 0. -1.
<scales pt_clust_5="13000.00000" pt_clust_6="13000.00000" pt_clust_7="13000.00000" pt_clust_8="13000.00000" pt_clust_9="28.06651"></scales>
<clustering>
<clus scale="   28.067">  1  9  2 -1</clus>
<clus scale="   80.980">  5  6 -1 -1</clus>
<clus scale="   91.848">  7  8 -1 -1</clus>
<clus scale="  100.448">  2  5  1 -1</clus>
<clus scale="   28.067">  1  5  2 -1</clus>
</clustering>
</event>
<event>
 9    2  0.1325014E-004  0.1295900E+03  0.7546771E-02  0.1246475E+00
         -1   -1    0    0    0  501 -0.00000000000E+00  0.00000000000E+00  0.22217456149E+03  0.22217456149E+03  0.00000000000E+00 0.  1.
         21   -1    0    0  501  502  0.00000000000E+00 -0.00000000000E+00 -0.25029387030E+03  0.25029387030E+03  0.00000000000E+00 0.  1.
         24    2    1    2    0    0 -0.29242423562E+02 -0.13871083961E+02  0.19326414828E+02  0.91086701292E+02  0.82920145539E+02 0.  0.
         23    2    1    2    0    0 -0.64215409257E+02 -0.26607448973E+00  0.13557776817E+03  0.17539186590E+03  0.90869608882E+02 0.  0.
        -13    1    3    3    0    0 -0.37934377801E+02 -0.22515539121E+02 -0.21058829823E+02  0.48881907027E+02  0.00000000000E+00 0.  1.
         14    1    3    3    0    0  0.86919542392E+01  0.86444551599E+01  0.40385244651E+02  0.42204794266E+02  0.00000000000E+00 0. -1.
        -13    1    4    4    0    0 -0.30058706759E+02 -0.10757971570E+02 -0.32019395803E+01  0.32086012862E+02  0.00000000000E+00 0. -1.
         13    1    4    4    0    0 -0.34156702498E+02  0.10491897080E+02  0.13877970775E+03  0.14330585303E+03  0.00000000000E+00 0.  1.
         -2    1    1    2    0  502  0.93457832819E+02  0.14137158451E+02 -0.18302349181E+03  0.20598986460E+03  0.00000000000E+00 0.  1.
<scales pt_clust_5="13000.00000" pt_clust_6="13000.00000" pt_clust_7="13000.00000" pt_clust_8="13000.00000" pt_clust_9="92.39206"></scales>
<clustering>
<clus scale="   82.920">  5  6 -1 -1</clus>
<clus scale="   89.013">  1  5  2 -1</clus>
<clus scale="   90.870">  7  8 -1 -1</clus>
<clus scale="   92.392">  2  9  1 -1</clus>
<clus scale="   92.392">  2  5  1 -1</clus>
</clustering>
</event>
<event>
 9    2  0.1325014E-004  0.1043369E+03  0.7546771E-02  0.1276043E+00
         -3   -1    0    0    0  501 -0.00000000000E+00  0.00000000000E+00  0.58772185404E+03  0.58772185404E+03  0.00000000000E+00 0.  1.
         21   -1    0    0  501  502  0.00000000000E+00 -0.00000000000E+00 -0.27248002745E+02  0.27248002745E+02  0.00000000000E+00 0. -1.
         23    2    1    2    0    0 -0.21001226986E+02  0.28328557612E+02  0.21047954877E+03  0.23183935309E+03  0.90577516407E+02 0.  0.
         24    2    1    2    0    0  0.32029917487E+02 -0.66636991713E+02  0.19878224596E+03  0.22675194319E+03  0.80222553877E+02 0.  0.
        -13    1    4    4    0    0  0.44184954215E+02 -0.59671964049E+02  0.19935270064E+03  0.21273117478E+03  0.00000000000E+00 0.  1.
         14    1    4    4    0    0 -0.12155036728E+02 -0.69650276637E+01 -0.57045467262E+00  0.14020768408E+02  0.00000000000E+00 0. -1.
        -11    1    3    3    0    0 -0.16504248461E+02  0.53516859274E+02  0.19272235494E+03  0.20069466993E+03  0.00000000000E+00 0.  1.
         11    1    3    3    0    0 -0.44969785257E+01 -0.25188301662E+02  0.17757193833E+02  0.31144683163E+02  0.00000000000E+00 0. -1.
         -4    1    1    2    0  502 -0.11028690500E+02  0.38308434101E+02  0.15121205656E+03  0.15637856051E+03  0.00000000000E+00 0.  1.
<scales pt_clust_5="13000.00000" pt_clust_6="13000.00000" pt_clust_7="13000.00000" pt_clust_8="13000.00000" pt_clust_9="39.86439"></scales>
<clustering>
<clus scale="   39.864">  2  9  1 -1</clus>
<clus scale="   80.223">  5  6 -1 -1</clus>
<clus scale="   90.578">  7  8 -1 -1</clus>
<clus scale="   95.486">  2  5  1 -1</clus>
<clus scale="   39.864">  2  5  1 -1</clus>
</clustering>
</event>
<event>
 9    2  0.2365516E-004  0.2201991E+03  0.7546771E-02  0.1175064E+00
         -1   -1    0    0    0  501 -0.00000000000E+00  0.00000000000E+00  0.17223308954E+04  0.17223308954E+04  0.00000000000E+00 0.  1.
         21   -1    0    0  501  502  0.00000000000E+00 -0.00000000000E+00 -0.39851737267E+02  0.39851737267E+02  0.00000000000E+00 0.  1.
         24    2    1    2    0    0  0.11241331393E+02 -0.38372132122E+02  0.26599111294E+03  0.27873206886E+03  0.73085607311E+02 0.  0.
         23    2    1    2    0    0  0.99079486994E+02 -0.15690505548E+03  0.52916614138E+03  0.56822161761E+03  0.91777232236E+02 0.  0.
        -11    1    3    3    0    0  0.42128076460E+02 -0.16640585091E+02  0.15566429377E+03  0.16212049918E+03  0.00000000000E+00 0.  1.
         12    1    3    3    0    0 -0.30886745067E+02 -0.21731547031E+02  0.11032681917E+03  0.11661156969E+03  0.00000000000E+00 0. -1.
        -11    1    4    4    0    0  0.62370294821E+02 -0.15316448873E+03  0.47245514643E+03  0.50056296274E+03  0.00000000000E+00 0.  1.
         11    1    4    4    0    0  0.36709192173E+02 -0.37405667441E+01  0.56710994955E+02  0.67658654867E+02  0.00000000000E+00 0. -1.
         -2    1    1    2    0  502 -0.11032081839E+03  0.19527718760E+03  0.88732190385E+03  0.91522894623E+03  0.00000000000E+00 0.  1.
<scales pt_clust_5="13000.00000" pt_clust_6="13000.00000" pt_clust_7="13000.00000" pt_clust_8="13000.00000" pt_clust_9="200.16148"></scales>
<clustering>
<clus scale="   73.086">  5  6 -1 -1</clus>
<clus scale="   83.308">  1  5  2 -1</clus>
<clus scale="   91.777">  7  8 -1 -1</clus>
<clus scale="  200.161">  2  9  1 -1</clus>
<clus scale="  200.161">  2  5  1 -1</clus>
</clustering>
</event>
<event>
 9    2  0.1325014E-004  0.9694062E+02  0.7546771E-02  0.1291387E+00
         -3   -1    0    0    0  501 -0.00000000000E+00  0.00000000000E+00  0.11106481887E+03  0.11106481887E+03  0.00000000000E+00 0.  1.
         21   -1    0    0  501  502  0.00000000000E+00 -0.00000000000E+00 -0.30854505381E+03  0.30854505381E+03  0.00000000000E+00 0.  1.
         24    2    1    2    0    0  0.29950380525E+02 -0.12518294295E+02  0.39633216458E+02  0.94613834229E+02  0.79544030543E+02 0.  0.
         23    2    1    2    0    0 -0.65574219470E+02 -0.12627406775E+02 -0.31896591684E+02  0.11519774557E+03  0.88281925453E+02 0.  0.
        -13    1    3    3    0    0  0.35651812493E+02 -0.20486401892E+02  0.59579522726E+02  0.72391048650E+02  0.00000000000E+00 0.  1.
         14    1    3    3    0    0 -0.57014319678E+01  0.79681075977E+01 -0.19946306267E+02  0.22222785579E+02  0.00000000000E+00 0. -1.
        -13    1    4    4    0    0 -0.55669182130E+02  0.26685998396E+02 -0.40392623153E+02  0.73775093050E+02  0.00000000000E+00 0. -1.
         13    1    4    4    0    0 -0.99050373398E+01 -0.39313405170E+02  0.84960314687E+01  0.41422652516E+02  0.00000000000E+00 0.  1.
         -4    1    1    2    0  502  0.35623838945E+02  0.25145701069E+02 -0.20521685972E+03  0.20979829288E+03  0.00000000000E+00 0.  1.
<scales pt_clust_5="13000.00000" pt_clust_6="13000.00000" pt_clust_7="13000.00000" pt_clust_8="13000.00000" pt_clust_9="43.60463"></scales>
<clustering>
<clus scale="   43.605">  2  9  1 -1</clus>
<clus scale="   79.544">  5  6 -1 -1</clus>
<clus scale="   88.282">  7  8 -1 -1</clus>
<clus scale="   89.056">  1  5  2 -1</clus>
<clus scale="   43.605">  2  5  1 -1</clus>
</clustering>
</event>
<event>
 9    2  0.1325014E-004  0.3073736E+03  0.7546771E-02  0.1081612E+00
         -3   -1    0    0    0  501 -0.00000000000E+00  0.00000000000E+00  0.13631352653E+04  0.13631352653E+04  0.00000000000E+00 0.  1.
         21   -1    0    0  501  502  0.00000000000E+00 -0.00000000000E+00 -0.54389076861E+02  0.54389076861E+02  0.00000000000E+00 0.  1.
         24    2    1    2    0    0 -0.44147119690E+02  0.14953279684E+03  0.37250209502E+03  0.41174040433E+03  0.80394802457E+02 0.  0.
         23    2    1    2    0    0 -0.70014172470E+02  0.58253804381E+02  0.38082373787E+03  0.40188010141E+03  0.90473236461E+02 0.  0.
        -11    1    3    3    0    0 -0.48115322112E+02  0.11336415469E+03  0.34442852422E+03  0.36578343878E+03  0.00000000000E+00 0.  1.
         12    1    3    3    0    0  0.39682024218E+01  0.36168642152E+02  0.28073570796E+02  0.45956965553E+02  0.00000000000E+00 0. -1.
        -13    1    4    4    0    0 -0.53655977858E+02  0.29962023737E+02  0.35485778002E+03  0.36013987681E+03  0.00000000000E+00 0.  1.
         13    1    4    4    0    0 -0.16358194611E+02  0.28291780644E+02  0.25965957845E+02  0.41740224602E+02  0.00000000000E+00 0. -1.
         -4    1    1    2    0  502  0.11416129216E+03 -0.20778660122E+03  0.55542035560E+03  0.60390383646E+03  0.00000000000E+00 0.  1.
<scales pt_clust_5="13000.00000" pt_clust_6="13000.00000" pt_clust_7="13000.00000" pt_clust_8="13000.00000" pt_clust_9="237.08242"></scales>
<clustering>
<clus scale="   80.395">  5  6 -1 -1</clus>
<clus scale="   90.473">  7  8 -1 -1</clus>
<clus scale="  111.156">  5  7 -1 -1</clus>
<clus scale="  237.082">  2  9  1 -1</clus>
<clus scale="  237.082">  2  5  1 -1</clus>
</clustering>
</event>
<event>
 9    2  0.1325014E-004  0.1586010E+03  0.7546771E-02  0.1192115E+00
          2   -1    0    0  502    0 -0.00000000000E+00  0.00000000000E+00  0.40811461775E+03  0.40811461775E+03  0.00000000000E+00 0. -1.
         21   -1    0    0  501  502  0.00000000000E+00 -0.00000000000E+00 -0.53619739791E+03  0.53619739791E+03  0.00000000000E+00 0. -1.
         24    2    1    2    0    0  0.90457539832E+02  0.98645280647E+02  0.31533053439E+03  0.35205157405E+03  0.81200412349E+02 0.  0.
         23    2    1    2    0    0 -0.14020075737E+03  0.74577147641E+00 -0.38386908696E+02  0.17226120546E+03  0.92431377822E+02 0.  0.
        -11    1    3    3    0    0 -0.98422052861E+01  0.35714969900E+02  0.58551610694E+02  0.69287222449E+02  0.00000000000E+00 0.  1.
         12    1    3    3    0    0  0.10029974512E+03  0.62930310747E+02  0.25677892369E+03  0.28276435160E+03  0.00000000000E+00 0. -1.
        -13    1    4    4    0    0  0.14993375245E+01  0.21459061382E+02 -0.17103729995E+02  0.27482301726E+02  0.00000000000E+00 0.  1.
         13    1    4    4    0    0 -0.14170009489E+03 -0.20713289906E+02 -0.21283178701E+02  0.14477890374E+03  0.00000000000E+00 0. -1.
          1    1    1    2  501    0  0.49743217536E+02 -0.99391052123E+02 -0.40502640585E+03  0.41999923615E+03  0.00000000000E+00 0. -1.
<scales pt_clust_5="13000.00000" pt_clust_6="13000.00000" pt_clust_7="13000.00000" pt_clust_8="13000.00000" pt_clust_9="111.14391"></scales>
<clustering>
<clus scale="   81.200">  5  6 -1 -1</clus>
<clus scale="   92.431">  7  8 -1 -1</clus>
<clus scale="  111.144">  2  9  1 -1</clus>
<clus scale="  152.329">  1  5  2 -1</clus>
<clus scale="  111.144">  2  5  1 -1</clus>
</clustering>
</event>
<event>
 9    2  0.1325014E-004  0.1808237E+03  0.7546771E-02  0.1169137E+00
          2   -1    0    0  502    0 -0.00000000000E+00  0.00000000000E+00  0.50260453680E+03  0.50260453680E+03  0.00000000000E+00 0. -1.
         21   -1    0    0  501  502  0.00000000000E+00 -0.00000000000E+00 -0.23394024746E+03  0.23394024746E+03  0.00000000000E+00 0. -1.
         24    2    1    2    0    0  0.27913510591E+02 -0.15157720057E+03  0.44021587183E+03  0.47324298413E+03  0.80088054147E+02 0.  0.
         23    2    1    2    0    0 -0.45360976758E+02  0.12905179998E+03 -0.12722391636E+03  0.21060692626E+03  0.97248995911E+02 0.  0.
        -11    1    3    3    0    0 -0.18152964689E+02 -0.28944830581E+02  0.42631043640E+02  0.54632766965E+02  0.00000000000E+00 0.  1.
         12    1    3    3    0    0  0.46066475280E+02 -0.12263236999E+03  0.39758482819E+03  0.41861021717E+03  0.00000000000E+00 0. -1.
        -13    1    4    4    0    0  0.29083819895E+02  0.38448825913E+02 -0.21758872015E+02  0.52892620517E+02  0.00000000000E+00 0.  1.
         13    1    4    4    0    0 -0.74444796653E+02  0.90602974066E+02 -0.10546504434E+03  0.15771430574E+03  0.00000000000E+00 0. -1.
          1    1    1    2  501    0  0.17447466167E+02  0.22525400590E+02 -0.44327666126E+02  0.52694873864E+02  0.00000000000E+00 0. -1.
<scales pt_clust_5="13000.00000" pt_clust_6="13000.00000" pt_clust_7="13000.00000" pt_clust_8="13000.00000" pt_clust_9="28.49224"></scales>
<clustering>
<clus scale="   28.492">  2  9  1 -1</clus>
<clus scale="   80.088">  5  6 -1 -1</clus>
<clus scale="   97.249">  7  8 -1 -1</clus>
<clus scale="  172.203">  1  5  2 -1</clus>
<clus scale="   28.492">  2  5  1 -1</clus>
</clustering>
</event>
<event>
 9    2  0.2486152E-004  0.9410573E+02  0.7546771E-02  0.1299306E+00
         21   -1    0    0  501  502  0.00000000000E+00  0.00000000000E+00  0.38836625859E+02  0.38836625859E+02  0.00000000000E+00 0. -1.
         -3   -1    0    0    0  501 -0.00000000000E+00 -0.00000000000E+00 -0.61191318392E+03  0.61191318392E+03  0.00000000000E+00 0.  1.
         23    2    1    2    0    0 -0.21204030920E+02  0.87493130088E+00 -0.19135143108E+03  0.21187784808E+03  0.88467371931E+02 0.  0.
         24    2    1    2    0    0  0.18156639031E+02 -0.78735356352E+02 -0.11331196923E+03  0.15937749729E+03  0.77670228464E+02 0.  0.
        -13    1    4    4    0    0  0.25042078668E+02 -0.25561005712E+02 -0.96911761355E+02  0.10330711595E+03  0.00000000000E+00 0.  1.
         14    1    4    4    0    0 -0.68854396364E+01 -0.53174350640E+02 -0.16400207878E+02  0.56070381338E+02  0.00000000000E+00 0. -1.
        -11    1    3    3    0    0  0.41329419303E+01  0.39144049236E+02 -0.52362277085E+02  0.65506838277E+02  0.00000000000E+00 0. -1.
         11    1    3    3    0    0 -0.25336972851E+02 -0.38269117935E+02 -0.13898915400E+03  0.14637100980E+03  0.00000000000E+00 0.  1.
         -4    1    1    2    0  502  0.30473918892E+01  0.77860425051E+02 -0.26841315775E+03  0.27949446442E+03  0.00000000000E+00 0.  1.
<scales pt_clust_5="13000.00000" pt_clust_6="13000.00000" pt_clust_7="13000.00000" pt_clust_8="13000.00000" pt_clust_9="77.92008"></scales>
<clustering>
<clus scale="   77.670">  5  6 -1 -1</clus>
<clus scale="   77.920">  1  9  2 -1</clus>
<clus scale="   84.036">  1  5  2 -1</clus>
<clus scale="   88.467">  7  8 -1 -1</clus>
<clus scale="   77.920">  1  5  2 -1</clus>
</clustering>
</event>
<event>
 9    2  0.1325014E-004  0.1065569E+03  0.7546771E-02  0.1268312E+00
         -3   -1    0    0    0  501 -0.00000000000E+00  0.00000000000E+00  0.72669720100E+02  0.72669720100E+02  0.00000000000E+00 0.  1.
         21   -1    0    0  501  502  0.00000000000E+00 -0.00000000000E+00 -0.24092957377E+03  0.24092957377E+03  0.00000000000E+00 0.  1.
         23    2    1    2    0    0  0.47774742862E+02 -0.34412333391E+02 -0.36884834705E+02  0.10856073090E+03  0.83416464309E+02 0.  0.
         24    2    1    2    0    0 -0.82399060646E+02  0.18383934526E+02 -0.11456323489E+03  0.16334457016E+03  0.80181915473E+02 0.  0.
        -11    1    4    4    0    0 -0.59086131093E+02  0.42729649121E+01 -0.12154523868E+03  0.13521343928E+03  0.00000000000E+00 0.  1.
         12    1    4    4    0    0 -0.23312929553E+02  0.14110969614E+02  0.69820037884E+01  0.28131130882E+02  0.00000000000E+00 0. -1.
        -13    1    3    3    0    0  0.67680357149E+02 -0.39751277987E+02 -0.39354412613E+02  0.87804126540E+02  0.00000000000E+00 0.  1.
         13    1    3    3    0    0 -0.19905614288E+02  0.53389445958E+01  0.24695779082E+01  0.20756604361E+02  0.00000000000E+00 0. -1.
         -4    1    1    2    0  502  0.34624317784E+02  0.16028398865E+02 -0.16811784075E+02  0.41693992805E+02  0.00000000000E+00 0.  1.
<scales pt_clust_5="13000.00000" pt_clust_6="13000.00000" pt_clust_7="13000.00000" pt_clust_8="13000.00000" pt_clust_9="38.15435"></scales>
<clustering>
<clus scale="   38.154">  2  9  1 -1</clus>
<clus scale="   80.182">  5  6 -1 -1</clus>
<clus scale="   83.416">  7  8 -1 -1</clus>
<clus scale="  104.044">  2  5  1 -1</clus>
<clus scale="   38.154">  2  5  1 -1</clus>
</clustering>
</event>
<event>
 9    2  0.1325014E-004  0.1223420E+03  0.7546771E-02  0.1246509E+00
         21   -1    0    0  501  502  0.00000000000E+00  0.00000000000E+00  0.56362394788E+02  0.56362394788E+02  0.00000000000E+00 0.  1.
         -3   -1    0    0    0  501 -0.00000000000E+00 -0.00000000000E+00 -0.37231469549E+03  0.37231469549E+03  0.00000000000E+00 0.  1.
         24    2    1    2    0    0  0.79277571510E+02 -0.10243084816E+02 -0.23173741228E+03  0.25406534428E+03  0.66761641546E+02 0.  0.
         23    2    1    2    0    0 -0.90695809247E+02 -0.92883154833E+01 -0.61782384337E+02  0.14275159863E+03  0.90823748430E+02 0.  0.
        -11    1    3    3    0    0  0.43318792447E+02 -0.25194492626E+02 -0.19197951329E+03  0.19841223188E+03  0.00000000000E+00 0.  1.
         12    1    3    3    0    0  0.35958779063E+02  0.14951407810E+02 -0.39757898989E+02  0.55653112395E+02  0.00000000000E+00 0. -1.
        -13    1    4    4    0    0 -0.16281550179E+02  0.32877377725E+02  0.92014990037E+00  0.36699557466E+02  0.00000000000E+00 0. -1.
         13    1    4    4    0    0 -0.74414259068E+02 -0.42165693209E+02 -0.62702534237E+02  0.10605204117E+03  0.00000000000E+00 0.  1.
         -4    1    1    2    0  502  0.11418237737E+02  0.19531400299E+02 -0.22432504090E+02  0.31860147369E+02  0.00000000000E+00 0.  1.
<scales pt_clust_5="13000.00000" pt_clust_6="13000.00000" pt_clust_7="13000.00000" pt_clust_8="13000.00000" pt_clust_9="22.62414"></scales>
<clustering>
<clus scale="   22.624">  1  9  2 -1</clus>
<clus scale="   66.762">  5  6 -1 -1</clus>
<clus scale="   90.824">  7  8 -1 -1</clus>
<clus scale="  105.715">  2  5  1 -1</clus>
<clus scale="   22.624">  1  5  2 -1</clus>
</clustering>
</event>
<event>
 9    2  0.1325014E-004  0.9005644E+02  0.7546771E-02  0.1306522E+00
         21   -1    0    0  501  502  0.00000000000E+00  0.00000000000E+00  0.26596837451E+02  0.26596837451E+02  0.00000000000E+00 0. -1.
          2   -1    0    0  502    0 -0.00000000000E+00 -0.00000000000E+00 -0.60454368032E+03  0.60454368032E+03  0.00000000000E+00 0. -1.
         23    2    1    2    0    0 -0.25410942380E+02  0.10370930824E+02 -0.33516314384E+03  0.34741867876E+03  0.87247539572E+02 0.  0.
         24    2    1    2    0    0 -0.16669933138E+02 -0.36388840505E+02 -0.11195658348E+03  0.14385237891E+03  0.80976514793E+02 0.  0.
        -13    1    4    4    0    0 -0.15411073491E+02 -0.42001634266E+02 -0.12328242356E+03  0.13114951172E+03  0.00000000000E+00 0.  1.
         14    1    4    4    0    0 -0.12588596468E+01  0.56127937607E+01  0.11325840072E+02  0.12702867186E+02  0.00000000000E+00 0. -1.
        -13    1    3    3    0    0  0.10160077226E+02  0.40420328899E+02 -0.11331963470E+03  0.12074092001E+03  0.00000000000E+00 0.  1.
         13    1    3    3    0    0 -0.35571019606E+02 -0.30049398075E+02 -0.22184350914E+03  0.22667775874E+03  0.00000000000E+00 0. -1.
          1    1    1    2  501    0  0.42080875517E+02  0.26017909681E+02 -0.13082711555E+03  0.13986946011E+03  0.00000000000E+00 0. -1.
<scales pt_clust_5="13000.00000" pt_clust_6="13000.00000" pt_clust_7="13000.00000" pt_clust_8="13000.00000" pt_clust_9="49.47458"></scales>
<clustering>
<clus scale="   49.475">  1  9  2 -1</clus>
<clus scale="   80.977">  5  6 -1 -1</clus>
<clus scale="   83.995">  1  5  2 -1</clus>
<clus scale="   87.248">  7  8 -1 -1</clus>
<clus scale="   49.475">  1  5  2 -1</clus>
</clustering>
</event>
<event>
 9    2  0.1325014E-004  0.1492457E+03  0.7546771E-02  0.1219444E+00
          2   -1    0    0  502    0 -0.00000000000E+00  0.00000000000E+00  0.14504380286E+03  0.14504380286E+03  0.00000000000E+00 0. -1.
         21   -1    0    0  501  502  0.00000000000E+00 -0.00000000000E+00 -0.28580534711E+03  0.28580534711E+03  0.00000000000E+00 0.  1.
         24    2    1    2    0    0  0.45322364551E+02  0.43085795707E+02 -0.99569861727E+02  0.14222399848E+03  0.80018784410E+02 0.  0.
         23    2    1    2    0    0 -0.94926321584E+02  0.69935602290E+02  0.20999805253E+02  0.15041455092E+03  0.91003023628E+02 0.  0.
        -11    1    3    3    0    0  0.60139858178E+02  0.53456797366E+02 -0.93009647178E+02  0.12298465837E+03  0.00000000000E+00 0.  1.
         12    1    3    3    0    0 -0.14817493628E+02 -0.10371001659E+02 -0.65602145485E+01  0.19239340107E+02  0.00000000000E+00 0. -1.
        -11    1    4    4    0    0  0.69910070620E+01  0.39556348022E+02 -0.61940399270E+01  0.40644126011E+02  0.00000000000E+00 0. -1.
         11    1    4    4    0    0 -0.10191732865E+03  0.30379254268E+02  0.27193845180E+02  0.10977042491E+03  0.00000000000E+00 0.  1.
          1    1    1    2  501    0  0.49603957033E+02 -0.11302139800E+03 -0.62191487782E+02  0.13821060057E+03  0.00000000000E+00 0. -1.
<scales pt_clust_5="13000.00000" pt_clust_6="13000.00000" pt_clust_7="13000.00000" pt_clust_8="13000.00000" pt_clust_9="118.29085"></scales>
<clustering>
<clus scale="   80.019">  5  6 -1 -1</clus>
<clus scale="   91.003">  7  8 -1 -1</clus>
<clus scale="  101.555">  1  5  2 -1</clus>
<clus scale="  118.291">  2  9  1 -1</clus>
<clus scale="  118.291">  2  5  1 -1</clus>
</clustering>
</event>
<event>
 9    2  0.1325014E-004  0.1749796E+03  0.7546771E-02  0.1200543E+00
         21   -1    0    0  501  502  0.00000000000E+00  0.00000000000E+00  0.14071725881E+03  0.14071725881E+03  0.00000000000E+00 0. -1.
          2   -1    0    0  502    0 -0.00000000000E+00 -0.00000000000E+00 -0.59366975660E+03  0.59366975660E+03  0.00000000000E+00 0. -1.
         23    2    1    2    0    0  0.19146647666E+02  0.59523937344E+01 -0.28820976604E+03  0.30326061300E+03  0.92196014273E+02 0.  0.
         24    2    1    2    0    0 -0.13190391838E+03  0.95063941996E+02 -0.20464115687E+03  0.27456846901E+03  0.84107338190E+02 0.  0.
        -11    1    4    4    0    0 -0.31745994887E+02  0.62608717029E+01 -0.29381661368E+01  0.32490606736E+02  0.00000000000E+00 0.  1.
         12    1    4    4    0    0 -0.10015792349E+03  0.88803070293E+02 -0.20170299074E+03  0.24207786228E+03  0.00000000000E+00 0. -1.
        -13    1    3    3    0    0 -0.31305653751E+02  0.14987289559E+02 -0.18261117253E+03  0.18588034629E+03  0.00000000000E+00 0.  1.
         13    1    3    3    0    0  0.50452301417E+02 -0.90348958250E+01 -0.10559859351E+03  0.11738026671E+03  0.00000000000E+00 0. -1.
          1    1    1    2  501    0  0.11275727071E+03 -0.10101633573E+03  0.39898425121E+02  0.15655793340E+03  0.00000000000E+00 0. -1.
<scales pt_clust_5="13000.00000" pt_clust_6="13000.00000" pt_clust_7="13000.00000" pt_clust_8="13000.00000" pt_clust_9="153.43996"></scales>
<clustering>
<clus scale="   84.107">  5  6 -1 -1</clus>
<clus scale="   92.196">  7  8 -1 -1</clus>
<clus scale="   94.351">  2  7  1 -1</clus>
<clus scale="  153.440">  1  9  2 -1</clus>
<clus scale="  153.440">  1  5  2 -1</clus>
</clustering>
</event>
<event>
 9    2  0.1325014E-004  0.2160604E+03  0.7546771E-02  0.1137460E+00
         21   -1    0    0  501  502  0.00000000000E+00  0.00000000000E+00  0.18949971194E+03  0.18949971194E+03  0.00000000000E+00 0.  1.
         -3   -1    0    0    0  501 -0.00000000000E+00 -0.00000000000E+00 -0.97867454019E+03  0.97867454019E+03  0.00000000000E+00 0.  1.
         24    2    1    2    0    0  0.57584696142E+02  0.17780520641E+03 -0.69654797055E+03  0.72555663633E+03  0.79515209781E+02 0.  0.
         23    2    1    2    0    0 -0.60258827337E+02 -0.23859366383E+03 -0.19332166850E+03  0.32496629853E+03  0.87588612155E+02 0.  0.
        -13    1    3    3    0    0  0.50550763800E+02  0.52898034257E+02 -0.18526129789E+03  0.19918667186E+03  0.00000000000E+00 0.  1.
         14    1    3    3    0    0  0.70339323420E+01  0.12490717215E+03 -0.51128667266E+03  0.52636996447E+03  0.00000000000E+00 0. -1.
        -11    1    4    4    0    0 -0.24335414283E+02 -0.20684873900E+03 -0.17981979094E+03  0.27516135344E+03  0.00000000000E+00 0.  1.
         11    1    4    4    0    0 -0.35923413055E+02 -0.31744924821E+02 -0.13501877562E+02  0.49804945086E+02  0.00000000000E+00 0. -1.
         -4    1    1    2    0  502  0.26741311954E+01  0.60788457415E+02  0.10069481080E+03  0.11765131727E+03  0.00000000000E+00 0.  1.
<scales pt_clust_5="13000.00000" pt_clust_6="13000.00000" pt_clust_7="13000.00000" pt_clust_8="13000.00000" pt_clust_9="60.84725"></scales>
<clustering>
<clus scale="   60.847">  1  9  2 -1</clus>
<clus scale="   79.515">  5  6 -1 -1</clus>
<clus scale="   87.589">  7  8 -1 -1</clus>
<clus scale="  212.915">  2  5  1 -1</clus>
<clus scale="   60.847">  1  5  2 -1</clus>
</clustering>
</event>
<event>
 9    2  0.1325014E-004  0.9799502E+02  0.7546771E-02  0.1289786E+00
         21   -1    0    0  501  502  0.00000000000E+00  0.00000000000E+00  0.18802461991E+03  0.18802461991E+03  0.00000000000E+00 0.  1.
          2   -1    0    0  502    0 -0.00000000000E+00 -0.00000000000E+00 -0.62255881059E+02  0.62255881059E+02  0.00000000000E+00 0. -1.
         23    2    1    2    0    0  0.69616560629E+01  0.25885089633E+02  0.34726622317E+02  0.10123167946E+03  0.91232735951E+02 0.  0.
         24    2    1    2    0    0 -0.81209497293E+01 -0.46315041070E+02  0.58658866360E+02  0.11074214103E+03  0.81313752481E+02 0.  0.
        -13    1    4    4    0    0 -0.42857421180E+02 -0.35119682135E+02  0.46310621553E+02  0.72213740328E+02  0.00000000000E+00 0.  1.
         14    1    4    4    0    0  0.34736471451E+02 -0.11195358935E+02  0.12348244808E+02  0.38528400699E+02  0.00000000000E+00 0. -1.
        -13    1    3    3    0    0 -0.22020278756E+02 -0.61488672841E+01 -0.20780567959E+02  0.30895521522E+02  0.00000000000E+00 0. -1.
         13    1    3    3    0    0  0.28981934819E+02  0.32033956917E+02  0.55507190276E+02  0.70336157942E+02  0.00000000000E+00 0.  1.
          1    1    1    2  501    0  0.11592936664E+01  0.20429951437E+02  0.32383250174E+02  0.38306680479E+02  0.00000000000E+00 0. -1.
<scales pt_clust_5="13000.00000" pt_clust_6="13000.00000" pt_clust_7="13000.00000" pt_clust_8="13000.00000" pt_clust_9="20.46282"></scales>
<clustering>
<clus scale="   20.463">  1  9  2 -1</clus>
<clus scale="   81.314">  5  6 -1 -1</clus>
<clus scale="   88.834">  1  5  2 -1</clus>
<clus scale="   91.233">  7  8 -1 -1</clus>
<clus scale="   20.463">  1  5  2 -1</clus>
</clustering>
</event>
<event>
 9    2  0.1325014E-004  0.1093240E+03  0.7546771E-02  0.1266338E+00
         -3   -1    0    0    0  501 -0.00000000000E+00  0.00000000000E+00  0.38668698843E+03  0.38668698843E+03  0.00000000000E+00 0.  1.
         21   -1    0    0  501  502  0.00000000000E+00 -0.00000000000E+00 -0.55377255675E+02  0.55377255675E+02  0.00000000000E+00 0.  1.
         24    2    1    2    0    0 -0.39824415999E+02  0.25846065967E+02  0.87603962751E+02  0.12743774965E+03  0.79447608587E+02 0.  0.
         23    2    1    2    0    0  0.82378650960E+02 -0.21078530051E+02  0.86033897324E+02  0.15124347286E+03  0.90786618124E+02 0.  0.
        -13    1    3    3    0    0 -0.10844094088E+02  0.34786370974E+02  0.18562309267E+01  0.36484675898E+02  0.00000000000E+00 0.  1.
         14    1    3    3    0    0 -0.28980321911E+02 -0.89403050074E+01  0.85747731824E+02  0.90953073750E+02  0.00000000000E+00 0. -1.
        -13    1    4    4    0    0  0.38322573996E+02  0.22907171060E+02  0.76058457429E+02  0.88194371193E+02  0.00000000000E+00 0.  1.
         13    1    4    4    0    0  0.44056076964E+02 -0.43985701111E+02  0.99754398948E+01  0.63049101665E+02  0.00000000000E+00 0. -1.
         -4    1    1    2    0  502 -0.42554234962E+02 -0.47675359157E+01  0.15767187268E+03  0.16338302160E+03  0.00000000000E+00 0.  1.
<scales pt_clust_5="13000.00000" pt_clust_6="13000.00000" pt_clust_7="13000.00000" pt_clust_8="13000.00000" pt_clust_9="42.82049"></scales>
<clustering>
<clus scale="   42.820">  2  9  1 -1</clus>
<clus scale="   79.448">  5  6 -1 -1</clus>
<clus scale="   90.787">  7  8 -1 -1</clus>
<clus scale="  100.107">  1  5  2 -1</clus>
<clus scale="   42.820">  2  5  1 -1</clus>
</clustering>
</event>
<event>
 9    2  0.1325014E-004  0.1279833E+03  0.7546771E-02  0.1252534E+00
         21   -1    0    0  501  502  0.00000000000E+00  0.00000000000E+00  0.27352697017E+02  0.27352697017E+02  0.00000000000E+00 0. -1.
          2   -1    0    0  502    0 -0.00000000000E+00 -0.00000000000E+00 -0.90907132838E+03  0.90907132838E+03  0.00000000000E+00 0. -1.
         24    2    1    2    0    0 -0.12345427666E+02  0.11251981447E+02 -0.14044373723E+03  0.16256117408E+03  0.80141595452E+02 0.  0.
         23    2    1    2    0    0  0.42510145003E+02 -0.92838565732E+02 -0.46554650799E+03  0.48473930708E+03  0.88388534369E+02 0.  0.
        -11    1    3    3    0    0  0.32926274463E+02  0.88815139472E+01 -0.41414706686E+02  0.53648846864E+02  0.00000000000E+00 0.  1.
         12    1    3    3    0    0 -0.45271702129E+02  0.23704674997E+01 -0.99029030543E+02  0.10891232722E+03  0.00000000000E+00 0. -1.
        -13    1    4    4    0    0 -0.25185173259E+02 -0.15687418637E+02 -0.68687213526E+02  0.74821930993E+02  0.00000000000E+00 0.  1.
         13    1    4    4    0    0  0.67695318261E+02 -0.77151147095E+02 -0.39685929447E+03  0.40991737609E+03  0.00000000000E+00 0. -1.
          1    1    1    2  501    0 -0.30164717336E+02  0.81586584285E+02 -0.27572838614E+03  0.28912354424E+03  0.00000000000E+00 0. -1.
<scales pt_clust_5="13000.00000" pt_clust_6="13000.00000" pt_clust_7="13000.00000" pt_clust_8="13000.00000" pt_clust_9="92.55918"></scales>
<clustering>
<clus scale="   80.142">  5  6 -1 -1</clus>
<clus scale="   81.864">  2  5  1 -1</clus>
<clus scale="   88.389">  7  8 -1 -1</clus>
<clus scale="   92.559">  1  9  2 -1</clus>
<clus scale="   92.559">  1  5  2 -1</clus>
</clustering>
</event>
<event>
 9    2  0.1325014E-004  0.1250452E+03  0.7546771E-02  0.1242465E+00
          2   -1    0    0  502    0 -0.00000000000E+00  0.00000000000E+00  0.15714024313E+04  0.15714024313E+04  0.00000000000E+00 0. -1.
         21   -1    0    0  501  502  0.00000000000E+00 -0.00000000000E+00 -0.57095388932E+02  0.57095388932E+02  0.00000000000E+00 0. -1.
         24    2    1    2    0    0 -0.43294565042E+02 -0.69235649063E+02  0.77314258082E+03  0.77999249518E+03  0.63014663402E+02 0.  0.
         23    2    1    2    0    0  0.13363885949E+03  0.10888123089E+03  0.14061986069E+03  0.23991048337E+03  0.89825539834E+02 0.  0.
        -11    1    3    3    0    0 -0.45292630898E+02 -0.66369034114E+02  0.46923770122E+03  0.47606752814E+03  0.00000000000E+00 0.  1.
         12    1    3    3    0    0  0.19980658561E+01 -0.28666149492E+01  0.30390487960E+03  0.30392496704E+03  0.00000000000E+00 0. -1.
        -13    1    4    4    0    0  0.13719147428E+03  0.74182070940E+02  0.13112620135E+03  0.20376103883E+03  0.00000000000E+00 0. -1.
         13    1    4    4    0    0 -0.35526147982E+01  0.34699159947E+02  0.94936593454E+01  0.36149444543E+02  0.00000000000E+00 0.  1.
          1    1    1    2  501    0 -0.90344294445E+02 -0.39645581824E+02  0.60054460088E+03  0.60859484170E+03  0.00000000000E+00 0. -1.
<scales pt_clust_5="13000.00000" pt_clust_6="13000.00000" pt_clust_7="13000.00000" pt_clust_8="13000.00000" pt_clust_9="98.66039"></scales>
<clustering>
<clus scale="   63.015">  5  6 -1 -1</clus>
<clus scale="   89.826">  7  8 -1 -1</clus>
<clus scale="   98.660">  2  9  1 -1</clus>
<clus scale="  107.418">  1  5  2 -1</clus>
<clus scale="   98.660">  2  5  1 -1</clus>
</clustering>
</event>
<event>
 9    2  0.1325014E-004  0.1480007E+03  0.7546771E-02  0.1204997E+00
         21   -1    0    0  501  502  0.00000000000E+00  0.00000000000E+00  0.71280021397E+02  0.71280021397E+02  0.00000000000E+00 0.  1.
          2   -1    0    0  502    0 -0.00000000000E+00 -0.00000000000E+00 -0.67195140120E+03  0.67195140120E+03  0.00000000000E+00 0. -1.
         23    2    1    2    0    0 -0.70438026293E+02 -0.10852766479E+03 -0.26456254036E+03  0.30834144679E+03  0.91330939308E+02 0.  0.
         24    2    1    2    0    0  0.73963226385E+02  0.56050504571E+02 -0.32997107630E+02  0.12724894905E+03  0.80568405736E+02 0.  0.
        -13    1    4    4    0    0  0.53976668296E+02  0.42816207911E+02  0.17731839583E+02  0.71141594832E+02  0.00000000000E+00 0.  1.
         14    1    4    4    0    0  0.19986558089E+02  0.13234296660E+02 -0.50728947212E+02  0.56107354220E+02  0.00000000000E+00 0. -1.
        -13    1    3    3    0    0 -0.52323357288E+01 -0.89648084841E+02 -0.16470088457E+03  0.18759141193E+03  0.00000000000E+00 0. -1.
         13    1    3    3    0    0 -0.65205690564E+02 -0.18879579944E+02 -0.99861655791E+02  0.12075003486E+03  0.00000000000E+00 0.  1.
          1    1    1    2  501    0 -0.35252000923E+01  0.52477160215E+02 -0.30311173182E+03  0.30764102676E+03  0.00000000000E+00 0. -1.
<scales pt_clust_5="13000.00000" pt_clust_6="13000.00000" pt_clust_7="13000.00000" pt_clust_8="13000.00000" pt_clust_9="52.59546"></scales>
<clustering>
<clus scale="   52.595">  1  9  2 -1</clus>
<clus scale="   80.568">  5  6 -1 -1</clus>
<clus scale="   91.331">  7  8 -1 -1</clus>
<clus scale="  141.613">  1  5  2 -1</clus>
<clus scale="   52.595">  1  5  2 -1</clus>
</clustering>
</event>
<event>
 9    2  0.1325014E-004  0.9324882E+02  0.7546771E-02  0.1300007E+00
         21   -1    0    0  501  502  0.00000000000E+00  0.00000000000E+00  0.95357657113E+02  0.95357657113E+02  0.00000000000E+00 0.  1.
          2   -1    0    0  502    0 -0.00000000000E+00 -0.00000000000E+00 -0.35465793633E+03  0.35465793633E+03  0.00000000000E+00 0. -1.
         23    2    1    2    0    0 -0.27991350585E+02  0.24866055978E+01 -0.30947690038E+03  0.32324305618E+03  0.88996756055E+02 0.  0.
         24    2    1    2    0    0  0.25963132017E+02  0.20350406656E+02  0.55462387018E+02  0.10324421136E+03  0.80591981796E+02 0.  0.
        -13    1    4    4    0    0 -0.10603693810E+01  0.48206478601E+02  0.32528464820E+02  0.58164336031E+02  0.00000000000E+00 0.  1.
         14    1    4    4    0    0  0.27023501398E+02 -0.27856071946E+02  0.22933922198E+02  0.45079875326E+02  0.00000000000E+00 0. -1.
        -11    1    3    3    0    0 -0.50367885504E+02  0.67897246586E+01 -0.28616978404E+03  0.29064784457E+03  0.00000000000E+00 0. -1.
         11    1    3    3    0    0  0.22376534918E+02 -0.43031190608E+01 -0.23307116336E+02  0.32595211619E+02  0.00000000000E+00 0.  1.
          1    1    1    2  501    0  0.20282185686E+01 -0.22837012253E+02 -0.52857658596E+01  0.23528325906E+02  0.00000000000E+00 0. -1.
<scales pt_clust_5="13000.00000" pt_clust_6="13000.00000" pt_clust_7="13000.00000" pt_clust_8="13000.00000" pt_clust_9="22.92690"></scales>
<clustering>
<clus scale="   22.927">  1  9  2 -1</clus>
<clus scale="   80.592">  5  6 -1 -1</clus>
<clus scale="   85.264">  1  5  2 -1</clus>
<clus scale="   88.997">  7  8 -1 -1</clus>
<clus scale="   22.927">  1  5  2 -1</clus>
</clustering>
</event>
<event>
 9    2  0.1325014E-004  0.9657808E+02  0.7546771E-02  0.1299614E+00
          4   -1    0    0  502    0 -0.00000000000E+00  0.00000000000E+00  0.54140150482E+03  0.54140150482E+03  0.00000000000E+00 0. -1.
         21   -1    0    0  501  502  0.00000000000E+00 -0.00000000000E+00 -0.31270985345E+02  0.31270985345E+02  0.00000000000E+00 0. -1.
         24    2    1    2    0    0 -0.10294639116E+02  0.24198755425E+02  0.34503918785E+03  0.35320480291E+03  0.70781581571E+02 0.  0.
         23    2    1    2    0    0  0.26311283344E+02 -0.52125695253E+02  0.10336508133E+03  0.14985032709E+03  0.91440739024E+02 0.  0.
        -13    1    3    3    0    0 -0.33539616238E+02  0.95535879056E+01  0.87335640200E+02  0.94040900402E+02  0.00000000000E+00 0.  1.
         14    1    3    3    0    0  0.23244977123E+02  0.14645167519E+02  0.25770354765E+03  0.25916390251E+03  0.00000000000E+00 0. -1.
        -11    1    4    4    0    0  0.20976038135E+02 -0.76196140691E+02  0.57350493037E+02  0.97646940984E+02  0.00000000000E+00 0. -1.
         11    1    4    4    0    0  0.53352452088E+01  0.24070445438E+02  0.46014588289E+02  0.52203386101E+02  0.00000000000E+00 0.  1.
          3    1    1    2  501    0 -0.16016644228E+02  0.27926939828E+02  0.61726250297E+02  0.69617360164E+02  0.00000000000E+00 0. -1.
<scales pt_clust_5="13000.00000" pt_clust_6="13000.00000" pt_clust_7="13000.00000" pt_clust_8="13000.00000" pt_clust_9="32.19389"></scales>
<clustering>
<clus scale="   32.194">  2  9  1 -1</clus>
<clus scale="   70.782">  5  6 -1 -1</clus>
<clus scale="   77.304">  1  5  2 -1</clus>
<clus scale="   91.441">  7  8 -1 -1</clus>
<clus scale="   32.194">  2  5  1 -1</clus>
</clustering>
</event>
<event>
 9    2  0.1325014E-004  0.1360676E+03  0.7546771E-02  0.1221174E+00
         -1   -1    0    0    0  501 -0.00000000000E+00  0.00000000000E+00  0.37740360226E+03  0.37740360226E+03  0.00000000000E+00 0.  1.
         21   -1    0    0  501  502  0.00000000000E+00 -0.00000000000E+00 -0.99557272345E+02  0.99557272345E+02  0.00000000000E+00 0. -1.
         23    2    1    2    0    0 -0.10716863261E+03  0.47160553866E+01  0.12437125182E+03  0.18787451486E+03  0.91220984776E+02 0.  0.
         24    2    1    2    0    0  0.78508528985E+02 -0.69770617643E+02  0.14813441373E+02  0.13326419473E+03  0.80674527217E+02 0.  0.
        -13    1    4    4    0    0  0.22374761240E+02 -0.71315417878E+02  0.18466572577E+02  0.76990473894E+02  0.00000000000E+00 0.  1.
         14    1    4    4    0    0  0.56133767745E+02  0.15448002352E+01 -0.36531312035E+01  0.56273720835E+02  0.00000000000E+00 0. -1.
        -13    1    3    3    0    0 -0.11491683027E+03 -0.18432812551E+02  0.10168541656E+03  0.15454957263E+03  0.00000000000E+00 0. -1.
         13    1    3    3    0    0  0.77481976636E+01  0.23148867938E+02  0.22685835255E+02  0.33324942236E+02  0.00000000000E+00 0.  1.
         -2    1    1    2    0  502  0.28660103622E+02  0.65054562257E+02  0.13866163672E+03  0.15582216501E+03  0.00000000000E+00 0.  1.
<scales pt_clust_5="13000.00000" pt_clust_6="13000.00000" pt_clust_7="13000.00000" pt_clust_8="13000.00000" pt_clust_9="71.08799"></scales>
<clustering>
<clus scale="   71.088">  2  9  1 -1</clus>
<clus scale="   80.675">  5  6 -1 -1</clus>
<clus scale="   91.221">  7  8 -1 -1</clus>
<clus scale="  129.234">  2  5  1 -1</clus>
<clus scale="   71.088">  2  5  1 -1</clus>
</clustering>
</event>
<event>
 9    2  0.1325014E-004  0.9580157E+02  0.7546771E-02  0.1292316E+00
         21   -1    0    0  501  502  0.00000000000E+00  0.00000000000E+00  0.35443523647E+03  0.35443523647E+03  0.00000000000E+00 0.  1.
         -1   -1    0    0    0  501 -0.00000000000E+00 -0.00000000000E+00 -0.83012702608E+02  0.83012702608E+02  0.00000000000E+00 0.  1.
         23    2    1    2    0    0 -0.27879821351E+02 -0.27731400804E+02 -0.12251560476E+02  0.98669374573E+02  0.89661751686E+02 0.  0.
         24    2    1    2    0    0 -0.74510257763E+01  0.34199066351E+02  0.53249850497E+02  0.10557172154E+03  0.84170944430E+02 0.  0.
        -11    1    4    4    0    0 -0.23653830036E+02  0.92867227908E+01  0.67856145010E+02  0.72458286698E+02  0.00000000000E+00 0.  1.
         12    1    4    4    0    0  0.16202804260E+02  0.24912343560E+02 -0.14606294513E+02  0.33113434840E+02  0.00000000000E+00 0. -1.
        -11    1    3    3    0    0 -0.51457481899E+02  0.31287026893E+01 -0.25657499984E+02  0.57584446940E+02  0.00000000000E+00 0.  1.
         11    1    3    3    0    0  0.23577660548E+02 -0.30860103493E+02  0.13405939508E+02  0.41084927633E+02  0.00000000000E+00 0. -1.
         -2    1    1    2    0  502  0.35330847128E+02 -0.64676655467E+01  0.23042424384E+03  0.23320684297E+03  0.00000000000E+00 0.  1.
<scales pt_clust_5="13000.00000" pt_clust_6="13000.00000" pt_clust_7="13000.00000" pt_clust_8="13000.00000" pt_clust_9="35.91795"></scales>
<clustering>
<clus scale="   35.918">  1  9  2 -1</clus>
<clus scale="   84.171">  5  6 -1 -1</clus>
<clus scale="   89.662">  7  8 -1 -1</clus>
<clus scale="   90.683">  1  5  2 -1</clus>
<clus scale="   35.918">  1  5  2 -1</clus>
</clustering>
</event>
<event>
 9    2  0.1325014E-004  0.9096510E+02  0.7546771E-02  0.1308610E+00
          2   -1    0    0  502    0 -0.00000000000E+00  0.00000000000E+00  0.99409650287E+03  0.99409650287E+03  0.00000000000E+00 0. -1.
         21   -1    0    0  501  502  0.00000000000E+00 -0.00000000000E+00 -0.16939266655E+02  0.16939266655E+02  0.00000000000E+00 0.  1.
         24    2    1    2    0    0 -0.19805839675E+01 -0.19335271239E+02  0.49002712663E+03  0.49653557577E+03  0.77738135712E+02 0.  0.
         23    2    1    2    0    0  0.28587651123E+02 -0.33779367847E+02  0.23804370548E+03  0.25842766962E+03  0.90342433097E+02 0.  0.
        -13    1    3    3    0    0 -0.26115061834E+02  0.15510097299E+02  0.10882978823E+03  0.11298885953E+03  0.00000000000E+00 0.  1.
         14    1    3    3    0    0  0.24134477866E+02 -0.34845368538E+02  0.38119733840E+03  0.38354671624E+03  0.00000000000E+00 0. -1.
        -13    1    4    4    0    0  0.53046739068E+02  0.41786810949E+01  0.15531839899E+03  0.16418045854E+03  0.00000000000E+00 0.  1.
         13    1    4    4    0    0 -0.24459087945E+02 -0.37958048942E+02  0.82725306487E+02  0.94247211078E+02  0.00000000000E+00 0. -1.
          1    1    1    2  501    0 -0.26607067156E+02  0.53114639086E+02  0.24908640411E+03  0.25607252414E+03  0.00000000000E+00 0. -1.
<scales pt_clust_5="13000.00000" pt_clust_6="13000.00000" pt_clust_7="13000.00000" pt_clust_8="13000.00000" pt_clust_9="59.40627"></scales>
<clustering>
<clus scale="   59.406">  2  9  1 -1</clus>
<clus scale="   77.738">  5  6 -1 -1</clus>
<clus scale="   78.461">  1  5  2 -1</clus>
<clus scale="   90.342">  7  8 -1 -1</clus>
<clus scale="   59.406">  2  5  1 -1</clus>
</clustering>
</event>
<event>
 9    2  0.1325014E-004  0.2403715E+03  0.7546771E-02  0.1119546E+00
          2   -1    0    0  502    0 -0.00000000000E+00  0.00000000000E+00  0.87890179472E+03  0.87890179472E+03  0.00000000000E+00 0. -1.
         21   -1    0    0  501  502  0.00000000000E+00 -0.00000000000E+00 -0.69498076305E+02  0.69498076305E+02  0.00000000000E+00 0.  1.
         24    2    1    2    0    0  0.35956712933E+02 -0.96858362912E+02  0.81135056905E+02  0.15624439178E+03  0.84587143418E+02 0.  0.
         23    2    1    2    0    0  0.34026394043E+02 -0.39720177764E+02  0.98168526878E+02  0.14363600175E+03  0.90877683266E+02 0.  0.
        -11    1    3    3    0    0  0.40427706355E+02 -0.83874235472E+02  0.22184358998E+02  0.95715372857E+02  0.00000000000E+00 0.  1.
         12    1    3    3    0    0 -0.44709934224E+01 -0.12984127440E+02  0.58950697907E+02  0.60529018919E+02  0.00000000000E+00 0. -1.
        -13    1    4    4    0    0  0.55275886155E+02 -0.55529422563E+02  0.74473993234E+02  0.10809864027E+03  0.00000000000E+00 0. -1.
         13    1    4    4    0    0 -0.21249492112E+02  0.15809244799E+02  0.23694533645E+02  0.35537361477E+02  0.00000000000E+00 0.  1.
          1    1    1    2  501    0 -0.69983106976E+02  0.13657854068E+03  0.63010013463E+03  0.64851947750E+03  0.00000000000E+00 0. -1.
<scales pt_clust_5="13000.00000" pt_clust_6="13000.00000" pt_clust_7="13000.00000" pt_clust_8="13000.00000" pt_clust_9="153.46451"></scales>
<clustering>
<clus scale="   84.587">  5  6 -1 -1</clus>
<clus scale="   90.878">  7  8 -1 -1</clus>
<clus scale="   92.757">  5  7 -1 -1</clus>
<clus scale="  153.465">  2  9  1 -1</clus>
<clus scale="  153.465">  2  5  1 -1</clus>
</clustering>
</event>
<event>
 9    2  0.3324584E-004  0.4716263E+03  0.7546771E-02  0.1064901E+00
         -1   -1    0    0    0  501 -0.00000000000E+00  0.00000000000E+00  0.20950939652E+03  0.20950939652E+03  0.00000000000E+00 0.  1.
         21   -1    0    0  501  502  0.00000000000E+00 -0.00000000000E+00 -0.14020770819E+04  0.14020770819E+04  0.00000000000E+00 0.  1.
         23    2    1    2    0    0 -0.98504858665E+02  0.18605704609E+02 -0.20694242591E+03  0.24667159272E+03  0.89287891625E+02 0.  0.
         24    2    1    2    0    0  0.49666789240E+03 -0.12127567833E+03 -0.66932762526E+03  0.84614796469E+03  0.81117955569E+02 0.  0.
        -13    1    4    4    0    0  0.48486386250E+03 -0.12980665965E+03 -0.63954298126E+03  0.81299320964E+03  0.00000000000E+00 0.  1.
         14    1    4    4    0    0  0.11804029902E+02  0.85309813113E+01 -0.29784644002E+02  0.33154755050E+02  0.00000000000E+00 0. -1.
        -11    1    3    3    0    0 -0.66987418148E+02 -0.26669666718E+02 -0.76911964184E+02  0.10542312625E+03  0.00000000000E+00 0.  1.
         11    1    3    3    0    0 -0.31517440517E+02  0.45275371328E+02 -0.13003046172E+03  0.14124846648E+03  0.00000000000E+00 0. -1.
         -2    1    1    2    0  502 -0.39816303374E+03  0.10266997373E+03 -0.31629763425E+03  0.51876692105E+03  0.00000000000E+00 0.  1.
<scales pt_clust_5="13000.00000" pt_clust_6="13000.00000" pt_clust_7="13000.00000" pt_clust_8="13000.00000" pt_clust_9="464.59816"></scales>
<clustering>
<clus scale="   81.118">  5  6 -1 -1</clus>
<clus scale="   89.288">  7  8 -1 -1</clus>
<clus scale="  134.245">  1  7  2 -1</clus>
<clus scale="  464.598">  2  9  1 -1</clus>
<clus scale="  464.598">  2  5  1 -1</clus>
</clustering>
</event>
<event>
 9    2  0.1325014E-004  0.1545661E+03  0.7546771E-02  0.1196454E+00
          2   -1    0    0  502    0 -0.00000000000E+00  0.00000000000E+00  0.99392665481E+03  0.99392665481E+03  0.00000000000E+00 0. -1.
         21   -1    0    0  501  502  0.00000000000E+00 -0.00000000000E+00 -0.13112178847E+03  0.13112178847E+03  0.00000000000E+00 0. -1.
         23    2    1    2    0    0  0.58689334786E+00  0.12692588974E+03  0.75619228824E+03  0.77227176842E+03  0.92012942404E+02 0.  0.
         24    2    1    2    0    0 -0.14128955756E+03 -0.89510536126E+02  0.33668469577E+02  0.18993321823E+03  0.83463683078E+02 0.  0.
        -13    1    4    4    0    0 -0.46665304979E+02  0.88994234929E+01  0.23586635417E+02  0.53039417395E+02  0.00000000000E+00 0.  1.
         14    1    4    4    0    0 -0.94624252578E+02 -0.98409959619E+02  0.10081834159E+02  0.13689380084E+03  0.00000000000E+00 0. -1.
        -11    1    3    3    0    0  0.27873653852E+02  0.42146637914E+01  0.89612141987E+02  0.93941683833E+02  0.00000000000E+00 0.  1.
         11    1    3    3    0    0 -0.27286760504E+02  0.12271122595E+03  0.66658014625E+03  0.67833008458E+03  0.00000000000E+00 0. -1.
          1    1    1    2  501    0  0.14070266421E+03 -0.37415353612E+02  0.72944108522E+02  0.16284345664E+03  0.00000000000E+00 0. -1.
<scales pt_clust_5="13000.00000" pt_clust_6="13000.00000" pt_clust_7="13000.00000" pt_clust_8="13000.00000" pt_clust_9="145.59241"></scales>
<clustering>
<clus scale="   83.464">  5  6 -1 -1</clus>
<clus scale="   92.013">  7  8 -1 -1</clus>
<clus scale="  145.592">  2  9  1 -1</clus>
<clus scale="  149.635">  2  5  1 -1</clus>
<clus scale="  145.592">  2  5  1 -1</clus>
</clustering>
</event>
<event>
 9    2  0.1325014E-004  0.9513243E+02  0.7546771E-02  0.1299102E+00
          2   -1    0    0  502    0 -0.00000000000E+00  0.00000000000E+00  0.37653052931E+03  0.37653052931E+03  0.00000000000E+00 0. -1.
         21   -1    0    0  501  502  0.00000000000E+00 -0.00000000000E+00 -0.42421452125E+02  0.42421452125E+02  0.00000000000E+00 0. -1.
         24    2    1    2    0    0  0.10121012233E+00  0.11930976699E+01  0.12378263642E+03  0.14729351592E+03  0.79823586914E+02 0.  0.
         23    2    1    2    0    0  0.50815686109E+02  0.18512116459E+02  0.94310571807E+02  0.14343792256E+03  0.93568270597E+02 0.  0.
        -11    1    3    3    0    0 -0.35622197464E+02  0.15821991478E+02  0.79542944865E+02  0.88579661572E+02  0.00000000000E+00 0.  1.
         12    1    3    3    0    0  0.35723407586E+02 -0.14628893808E+02  0.44239691554E+02  0.58713854348E+02  0.00000000000E+00 0. -1.
        -13    1    4    4    0    0  0.18858891311E+02 -0.18643360261E+02  0.90473828688E+02  0.94280148180E+02  0.00000000000E+00 0.  1.
         13    1    4    4    0    0  0.31956794798E+02  0.37155476719E+02  0.38367431187E+01  0.49157774378E+02  0.00000000000E+00 0. -1.
          1    1    1    2  501    0 -0.50916896231E+02 -0.19705214129E+02  0.11601586896E+03  0.12822054295E+03  0.00000000000E+00 0. -1.
<scales pt_clust_5="13000.00000" pt_clust_6="13000.00000" pt_clust_7="13000.00000" pt_clust_8="13000.00000" pt_clust_9="54.59697"></scales>
<clustering>
<clus scale="   54.597">  2  9  1 -1</clus>
<clus scale="   79.824">  5  6 -1 -1</clus>
<clus scale="   81.651">  1  5  2 -1</clus>
<clus scale="   93.568">  7  8 -1 -1</clus>
<clus scale="   54.597">  2  5  1 -1</clus>
</clustering>
</event>
<event>
 9    2  0.1325014E-004  0.9333288E+02  0.7546771E-02  0.1301671E+00
          2   -1    0    0  502    0 -0.00000000000E+00  0.00000000000E+00  0.62239733643E+03  0.62239733643E+03  0.00000000000E+00 0. -1.
         21   -1    0    0  501  502  0.00000000000E+00 -0.00000000000E+00 -0.24116358428E+02  0.24116358428E+02  0.00000000000E+00 0. -1.
         24    2    1    2    0    0 -0.44406922797E+01  0.19857649985E+02  0.40209314458E+03  0.41057934338E+03  0.80513690036E+02 0.  0.
         23    2    1    2    0    0  0.26790209225E+02  0.20459774077E+01  0.11844737494E+03  0.15213191305E+03  0.91610245085E+02 0.  0.
        -13    1    3    3    0    0 -0.17407122846E+02  0.20663865770E+02  0.40099157156E+02  0.48352307897E+02  0.00000000000E+00 0.  1.
         14    1    3    3    0    0  0.12966430566E+02 -0.80621578474E+00  0.36199398743E+03  0.36222703549E+03  0.00000000000E+00 0. -1.
        -11    1    4    4    0    0 -0.19383716082E+02 -0.30872741367E+02  0.63211945643E+02  0.72969888863E+02  0.00000000000E+00 0.  1.
         11    1    4    4    0    0  0.46173925307E+02  0.32918718775E+02  0.55235429293E+02  0.79162024186E+02  0.00000000000E+00 0. -1.
          1    1    1    2  501    0 -0.22349516945E+02 -0.21903627393E+02  0.77740458484E+02  0.83802438425E+02  0.00000000000E+00 0. -1.
<scales pt_clust_5="13000.00000" pt_clust_6="13000.00000" pt_clust_7="13000.00000" pt_clust_8="13000.00000" pt_clust_9="31.29330"></scales>
<clustering>
<clus scale="   31.293">  2  9  1 -1</clus>
<clus scale="   80.514">  5  6 -1 -1</clus>
<clus scale="   82.468">  1  5  2 -1</clus>
<clus scale="   91.610">  7  8 -1 -1</clus>
<clus scale="   31.293">  2  5  1 -1</clus>
</clustering>
</event>
<event>
 9    2  0.1325014E-004  0.1057017E+03  0.7546771E-02  0.1276348E+00
          2   -1    0    0  502    0 -0.00000000000E+00  0.00000000000E+00  0.42322466658E+03  0.42322466658E+03  0.00000000000E+00 0. -1.
         21   -1    0    0  501  502  0.00000000000E+00 -0.00000000000E+00 -0.11922074476E+03  0.11922074476E+03  0.00000000000E+00 0.  1.
         23    2    1    2    0    0  0.31862936410E+02 -0.42683393689E+02  0.14870103541E+03  0.18434963238E+03  0.95056142424E+02 0.  0.
         24    2    1    2    0    0  0.30228854050E+02  0.28809507594E+02 -0.76667000629E+02  0.11755907978E+03  0.78730787556E+02 0.  0.
        -13    1    4    4    0    0  0.43387861054E+02  0.35693642108E+02 -0.83952256397E+02  0.10101744368E+03  0.00000000000E+00 0.  1.
         14    1    4    4    0    0 -0.13159007005E+02 -0.68841345141E+01  0.72852557676E+01  0.16541636103E+02  0.00000000000E+00 0. -1.
        -11    1    3    3    0    0  0.14943471674E+02  0.30376041568E+02  0.50255097242E+02  0.60593613903E+02  0.00000000000E+00 0.  1.
         11    1    3    3    0    0  0.16919464736E+02 -0.73059435258E+02  0.98445938172E+02  0.12375601848E+03  0.00000000000E+00 0. -1.
          1    1    1    2  501    0 -0.62091790460E+02  0.13873886095E+02  0.23196988704E+03  0.24053669918E+03  0.00000000000E+00 0. -1.
<scales pt_clust_5="13000.00000" pt_clust_6="13000.00000" pt_clust_7="13000.00000" pt_clust_8="13000.00000" pt_clust_9="63.62295"></scales>
<clustering>
<clus scale="   63.623">  2  9  1 -1</clus>
<clus scale="   78.731">  5  6 -1 -1</clus>
<clus scale="   91.300">  2  5  1 -1</clus>
<clus scale="   95.056">  7  8 -1 -1</clus>
<clus scale="   63.623">  2  5  1 -1</clus>
</clustering>
</event>
<event>
 9    2  0.1325014E-004  0.1651499E+03  0.7546771E-02  0.1184382E+00
          2   -1    0    0  502    0 -0.00000000000E+00  0.00000000000E+00  0.55896461624E+03  0.55896461624E+03  0.00000000000E+00 0. -1.
         21   -1    0    0  501  502  0.00000000000E+00 -0.00000000000E+00 -0.16094093026E+03  0.16094093026E+03  0.00000000000E+00 0.  1.
         23    2    1    2    0    0  0.98978060300E+02 -0.95741523239E+02  0.38881021061E+03  0.42251740242E+03  0.91566805023E+02 0.  0.
         24    2    1    2    0    0 -0.77353795296E+02  0.11404967123E+03 -0.96977504194E+02  0.18748217854E+03  0.82182685506E+02 0.  0.
        -13    1    4    4    0    0 -0.93617932588E+02  0.81827562829E+02 -0.73928745685E+02  0.14465658222E+03  0.00000000000E+00 0.  1.
         14    1    4    4    0    0  0.16264137292E+02  0.32222108400E+02 -0.23048758510E+02  0.42825596324E+02  0.00000000000E+00 0. -1.
        -13    1    3    3    0    0  0.27535621108E+02  0.16255842263E+02  0.62563778257E+02  0.70261576892E+02  0.00000000000E+00 0.  1.
         13    1    3    3    0    0  0.71442439192E+02 -0.11199736550E+03  0.32624643235E+03  0.35225582553E+03  0.00000000000E+00 0. -1.
          1    1    1    2  501    0 -0.21624265004E+02 -0.18308147990E+02  0.10619097956E+03  0.10990596553E+03  0.00000000000E+00 0. -1.
<scales pt_clust_5="13000.00000" pt_clust_6="13000.00000" pt_clust_7="13000.00000" pt_clust_8="13000.00000" pt_clust_9="28.33369"></scales>
<clustering>
<clus scale="   28.334">  2  9  1 -1</clus>
<clus scale="   82.183">  5  6 -1 -1</clus>
<clus scale="   91.567">  7  8 -1 -1</clus>
<clus scale="  160.137">  2  5  1 -1</clus>
<clus scale="   28.334">  2  5  1 -1</clus>
</clustering>
</event>
<event>
 9    2  0.1325014E-004  0.1070609E+03  0.7546771E-02  0.1268553E+00
         -3   -1    0    0    0  501 -0.00000000000E+00  0.00000000000E+00  0.49928182379E+02  0.49928182379E+02  0.00000000000E+00 0.  1.
         21   -1    0    0  501  502  0.00000000000E+00 -0.00000000000E+00 -0.48542159269E+03  0.48542159269E+03  0.00000000000E+00 0. -1.
         24    2    1    2    0    0  0.44243827888E+02  0.35528065716E+02 -0.56372680250E+02  0.11486815005E+03  0.82444242108E+02 0.  0.
         23    2    1    2    0    0 -0.76565176554E+02 -0.47732600106E+01 -0.16864585532E+03  0.20533004927E+03  0.88509854494E+02 0.  0.
        -11    1    3    3    0    0  0.23592340462E+02  0.38995149832E+02  0.87961396125E+01  0.46417586225E+02  0.00000000000E+00 0.  1.
         12    1    3    3    0    0  0.20651487426E+02 -0.34670841160E+01 -0.65168819862E+02  0.68450563821E+02  0.00000000000E+00 0. -1.
        -13    1    4    4    0    0  0.17048607237E+02 -0.14817432597E+02 -0.26354109663E+02  0.34709514742E+02  0.00000000000E+00 0.  1.
         13    1    4    4    0    0 -0.93613783792E+02  0.10044172587E+02 -0.14229174566E+03  0.17062053452E+03  0.00000000000E+00 0. -1.
         -4    1    1    2    0  502  0.32321348666E+02 -0.30754805705E+02 -0.21047487474E+03  0.21515157575E+03  0.00000000000E+00 0.  1.
<scales pt_clust_5="13000.00000" pt_clust_6="13000.00000" pt_clust_7="13000.00000" pt_clust_8="13000.00000" pt_clust_9="44.61533"></scales>
<clustering>
<clus scale="   44.615">  2  9  1 -1</clus>
<clus scale="   82.444">  5  6 -1 -1</clus>
<clus scale="   88.510">  7  8 -1 -1</clus>
<clus scale="  102.103">  1  5  2 -1</clus>
<clus scale="   44.615">  2  5  1 -1</clus>
</clustering>
</event>
<event>
 9    2  0.1325014E-004  0.9605186E+02  0.7546771E-02  0.1294473E+00
          2   -1    0    0  502    0 -0.00000000000E+00  0.00000000000E+00  0.13870640976E+04  0.13870640976E+04  0.00000000000E+00 0. -1.
         21   -1    0    0  501  502  0.00000000000E+00 -0.00000000000E+00 -0.13952576206E+02  0.13952576206E+02  0.00000000000E+00 0.  1.
         24    2    1    2    0    0  0.20614675238E+02  0.22632081435E+02  0.10632850492E+04  0.10667435327E+04  0.80184117236E+02 0.  0.
         23    2    1    2    0    0 -0.12165964594E+02 -0.42661059298E+02  0.27829667060E+03  0.29597602568E+03  0.90469852610E+02 0.  0.
        -11    1    3    3    0    0 -0.19093925686E+02  0.81935053843E+01  0.83444503615E+02  0.85992422411E+02  0.00000000000E+00 0.  1.
         12    1    3    3    0    0  0.39708600924E+02  0.14438576051E+02  0.97984054561E+03  0.98075111026E+03  0.00000000000E+00 0. -1.
        -11    1    4    4    0    0 -0.29922271282E+02 -0.65047641487E+02  0.18378934569E+03  0.19724366041E+03  0.00000000000E+00 0.  1.
         11    1    4    4    0    0  0.17756306688E+02  0.22386582190E+02  0.94507324910E+02  0.98732365266E+02  0.00000000000E+00 0. -1.
          1    1    1    2  501    0 -0.84487106443E+01  0.20028977863E+02  0.31529801604E+02  0.38297115491E+02  0.00000000000E+00 0. -1.
<scales pt_clust_5="13000.00000" pt_clust_6="13000.00000" pt_clust_7="13000.00000" pt_clust_8="13000.00000" pt_clust_9="21.73800"></scales>
<clustering>
<clus scale="   21.738">  2  9  1 -1</clus>
<clus scale="   80.184">  5  6 -1 -1</clus>
<clus scale="   86.433">  1  5  2 -1</clus>
<clus scale="   90.470">  7  8 -1 -1</clus>
<clus scale="   21.738">  2  5  1 -1</clus>
</clustering>
</event>
<event>
 9    2  0.1325014E-004  0.1084385E+03  0.7546771E-02  0.1268438E+00
         21   -1    0    0  501  502  0.00000000000E+00  0.00000000000E+00  0.40744215863E+03  0.40744215863E+03  0.00000000000E+00 0. -1.
         -1   -1    0    0    0  501 -0.00000000000E+00 -0.00000000000E+00 -0.48645268650E+02  0.48645268650E+02  0.00000000000E+00 0.  1.
         24    2    1    2    0    0 -0.32896404596E+02  0.51694815885E+02  0.36153198875E+02  0.10773828880E+03  0.80907092770E+02 0.  0.
         23    2    1    2    0    0  0.60732351071E+01 -0.38980722408E+02  0.26462842385E+03  0.28318088064E+03  0.92772989323E+02 0.  0.
        -13    1    3    3    0    0 -0.66003897756E+00  0.66009125838E+02  0.20260872365E+02  0.69051743601E+02  0.00000000000E+00 0.  1.
         14    1    3    3    0    0 -0.32236365619E+02 -0.14314309953E+02  0.15892326510E+02  0.38686545202E+02  0.00000000000E+00 0. -1.
        -13    1    4    4    0    0  0.16692282722E+02  0.16295575637E+02  0.16065477667E+02  0.28324506359E+02  0.00000000000E+00 0.  1.
         13    1    4    4    0    0 -0.10619047615E+02 -0.55276298045E+02  0.24856294618E+03  0.25485637428E+03  0.00000000000E+00 0. -1.
         -2    1    1    2    0  502  0.26823169489E+02 -0.12714093478E+02  0.58015267255E+02  0.65168257833E+02  0.00000000000E+00 0.  1.
<scales pt_clust_5="13000.00000" pt_clust_6="13000.00000" pt_clust_7="13000.00000" pt_clust_8="13000.00000" pt_clust_9="29.68384"></scales>
<clustering>
<clus scale="   29.684">  1  9  2 -1</clus>
<clus scale="   80.907">  5  6 -1 -1</clus>
<clus scale="   92.773">  7  8 -1 -1</clus>
<clus scale="   98.479">  2  5  1 -1</clus>
<clus scale="   29.684">  1  5  2 -1</clus>
</clustering>
</event>
<event>
 9    2  0.1325014E-004  0.1026926E+03  0.7546771E-02  0.1280017E+00
         21   -1    0    0  501  502  0.00000000000E+00  0.00000000000E+00  0.20533519618E+03  0.20533519618E+03  0.00000000000E+00 0. -1.
         -1   -1    0    0    0  501 -0.00000000000E+00 -0.00000000000E+00 -0.10597491737E+03  0.10597491737E+03  0.00000000000E+00 0.  1.
         23    2    1    2    0    0 -0.21918454460E+02 -0.37013456691E+02 -0.19188618019E+02  0.10328419247E+03  0.91918478722E+02 0.  0.
         24    2    1    2    0    0  0.66399784474E+02  0.17659588085E+02  0.11917491713E+03  0.15951249149E+03  0.80751356874E+02 0.  0.
        -11    1    4    4    0    0  0.42624983496E+02 -0.13702874517E+02  0.13526671016E+02  0.46772094424E+02  0.00000000000E+00 0.  1.
         12    1    4    4    0    0  0.23774800977E+02  0.31362462602E+02  0.10564824612E+03  0.11274039706E+03  0.00000000000E+00 0. -1.
        -11    1    3    3    0    0 -0.17506201081E+02  0.29692969372E+02 -0.93231671667E+01  0.35707995637E+02  0.00000000000E+00 0. -1.
         11    1    3    3    0    0 -0.44122533796E+01 -0.66706426063E+02 -0.98654508528E+01  0.67576196833E+02  0.00000000000E+00 0.  1.
         -2    1    1    2    0  502 -0.44481330013E+02  0.19353868606E+02 -0.62602030829E+00  0.48513429596E+02  0.00000000000E+00 0.  1.
<scales pt_clust_5="13000.00000" pt_clust_6="13000.00000" pt_clust_7="13000.00000" pt_clust_8="13000.00000" pt_clust_9="48.50941"></scales>
<clustering>
<clus scale="   48.509">  1  9  2 -1</clus>
<clus scale="   80.751">  5  6 -1 -1</clus>
<clus scale="   91.918">  7  8 -1 -1</clus>
<clus scale="   92.831">  1  5  2 -1</clus>
<clus scale="   48.509">  1  5  2 -1</clus>
</clustering>
</event>
<event>
 9    2  0.1325014E-004  0.9485933E+02  0.7546771E-02  0.1297580E+00
         -1   -1    0    0    0  501 -0.00000000000E+00  0.00000000000E+00  0.26524709197E+03  0.26524709197E+03  0.00000000000E+00 0.  1.
         21   -1    0    0  501  502  0.00000000000E+00 -0.00000000000E+00 -0.11037166248E+03  0.11037166248E+03  0.00000000000E+00 0. -1.
         24    2    1    2    0    0 -0.57059613429E+01  0.36811458082E+02  0.17220451842E+03  0.19331404097E+03  0.79550492323E+02 0.  0.
         23    2    1    2    0    0 -0.22079507453E+02  0.27309801510E+02 -0.45412758512E+02  0.10699030115E+03  0.90284417242E+02 0.  0.
        -13    1    3    3    0    0 -0.28818465965E+02 -0.13175923264E+02  0.78031941695E+02  0.84220501418E+02  0.00000000000E+00 0.  1.
         14    1    3    3    0    0  0.23112504622E+02  0.49987381346E+02  0.94172576727E+02  0.10909353955E+03  0.00000000000E+00 0. -1.
        -13    1    4    4    0    0 -0.82691636387E+01  0.56944506999E+02 -0.93212636013E+01  0.58291868213E+02  0.00000000000E+00 0. -1.
         13    1    4    4    0    0 -0.13810343815E+02 -0.29634705489E+02 -0.36091494911E+02  0.48698432938E+02  0.00000000000E+00 0.  1.
         -2    1    1    2    0  502  0.27785468796E+02 -0.64121259592E+02  0.28083669587E+02  0.75314412335E+02  0.00000000000E+00 0.  1.
<scales pt_clust_5="13000.00000" pt_clust_6="13000.00000" pt_clust_7="13000.00000" pt_clust_8="13000.00000" pt_clust_9="69.88253"></scales>
<clustering>
<clus scale="   69.883">  2  9  1 -1</clus>
<clus scale="   79.550">  5  6 -1 -1</clus>
<clus scale="   84.707">  1  5  2 -1</clus>
<clus scale="   90.284">  7  8 -1 -1</clus>
<clus scale="   69.883">  2  5  1 -1</clus>
</clustering>
</event>
<event>
 9    2  0.1325014E-004  0.2404154E+03  0.7546771E-02  0.1120112E+00
          4   -1    0    0  502    0 -0.00000000000E+00  0.00000000000E+00  0.11774229940E+04  0.11774229940E+04  0.00000000000E+00 0. -1.
         21   -1    0    0  501  502  0.00000000000E+00 -0.00000000000E+00 -0.16582759364E+03  0.16582759364E+03  0.00000000000E+00 0. -1.
         24    2    1    2    0    0  0.14416086214E+03 -0.12897493844E+03  0.13794387293E+03  0.25079780683E+03  0.80337655611E+02 0.  0.
         23    2    1    2    0    0 -0.16549346321E+03  0.22791427921E+03  0.10002593487E+03  0.31223445851E+03  0.90289337136E+02 0.  0.
        -11    1    3    3    0    0  0.74371254873E+02 -0.17074064547E+02  0.64065376479E+02  0.99634229535E+02  0.00000000000E+00 0.  1.
         12    1    3    3    0    0  0.69789607270E+02 -0.11190087389E+03  0.73878496456E+02  0.15116357729E+03  0.00000000000E+00 0. -1.
        -11    1    4    4    0    0 -0.15535785546E+03  0.15233201202E+03  0.58070349332E+02  0.22519607149E+03  0.00000000000E+00 0. -1.
         11    1    4    4    0    0 -0.10135607746E+02  0.75582267188E+02  0.41955585543E+02  0.87038387025E+02  0.00000000000E+00 0.  1.
          3    1    1    2  501    0  0.21332601066E+02 -0.98939340771E+02  0.77362559259E+03  0.78021832235E+03  0.00000000000E+00 0. -1.
<scales pt_clust_5="13000.00000" pt_clust_6="13000.00000" pt_clust_7="13000.00000" pt_clust_8="13000.00000" pt_clust_9="101.21306"></scales>
<clustering>
<clus scale="   80.338">  5  6 -1 -1</clus>
<clus scale="   90.289">  7  8 -1 -1</clus>
<clus scale="  101.213">  2  9  1 -1</clus>
<clus scale="  236.858">  1  5  2 -1</clus>
<clus scale="  101.213">  2  5  1 -1</clus>
</clustering>
</event>
<event>
 9    2  0.1325014E-004  0.1084683E+03  0.7546771E-02  0.1271043E+00
         -1   -1    0    0    0  501 -0.00000000000E+00  0.00000000000E+00  0.93092014915E+02  0.93092014915E+02  0.00000000000E+00 0.  1.
         21   -1    0    0  501  502  0.00000000000E+00 -0.00000000000E+00 -0.35860506344E+03  0.35860506344E+03  0.00000000000E+00 0.  1.
         24    2    1    2    0    0  0.91383100315E+01 -0.34461943897E+02  0.45166919614E+02  0.10435748226E+03  0.87059170624E+02 0.  0.
         23    2    1    2    0    0  0.11090068289E+02  0.29704226701E+02 -0.14633828886E+03  0.18168932983E+03  0.10291154984E+03 0.  0.
        -13    1    3    3    0    0 -0.11752368153E+02 -0.46945676429E+02  0.59043864452E+02  0.76342600309E+02  0.00000000000E+00 0.  1.
         14    1    3    3    0    0  0.20890678184E+02  0.12483732531E+02 -0.13876944839E+02  0.28014881955E+02  0.00000000000E+00 0. -1.
        -11    1    4    4    0    0 -0.42793967671E+02  0.14153327021E+02 -0.35155454948E+02  0.57162455750E+02  0.00000000000E+00 0.  1.
         11    1    4    4    0    0  0.53884035960E+02  0.15550899680E+02 -0.11118283391E+03  0.12452687408E+03  0.00000000000E+00 0. -1.
         -2    1    1    2    0  502 -0.20228378321E+02  0.47577171963E+01 -0.16434167928E+03  0.16565026626E+03  0.00000000000E+00 0.  1.
<scales pt_clust_5="13000.00000" pt_clust_6="13000.00000" pt_clust_7="13000.00000" pt_clust_8="13000.00000" pt_clust_9="20.78036"></scales>
<clustering>
<clus scale="   20.780">  2  9  1 -1</clus>
<clus scale="   87.059">  5  6 -1 -1</clus>
<clus scale="   93.562">  1  5  2 -1</clus>
<clus scale="  102.912">  7  8 -1 -1</clus>
<clus scale="   20.780">  2  5  1 -1</clus>
</clustering>
</event>
<event>
 9    2  0.1325014E-004  0.1031280E+03  0.7546771E-02  0.1281548E+00
          2   -1    0    0  502    0 -0.00000000000E+00  0.00000000000E+00  0.59715954118E+03  0.59715954118E+03  0.00000000000E+00 0. -1.
         21   -1    0    0  501  502  0.00000000000E+00 -0.00000000000E+00 -0.10124434581E+03  0.10124434581E+03  0.00000000000E+00 0. -1.
         24    2    1    2    0    0 -0.78172725855E+01  0.42302801579E+02  0.50436569397E+03  0.51199474469E+03  0.76832470724E+02 0.  0.
         23    2    1    2    0    0  0.61948466996E+01 -0.63618439258E+02  0.50662295184E+02  0.12354968745E+03  0.92801805885E+02 0.  0.
        -13    1    3    3    0    0 -0.37462757479E+02  0.36245751927E+02  0.22322530564E+03  0.22923077849E+03  0.00000000000E+00 0.  1.
         14    1    3    3    0    0  0.29645484894E+02  0.60570496520E+01  0.28114038833E+03  0.28276396619E+03  0.00000000000E+00 0. -1.
        -13    1    4    4    0    0 -0.61856606504E+00 -0.87570331301E+02  0.36259124323E+02  0.94782222198E+02  0.00000000000E+00 0.  1.
         13    1    4    4    0    0  0.68134127646E+01  0.23951892043E+02  0.14403170861E+02  0.28767465248E+02  0.00000000000E+00 0. -1.
          1    1    1    2  501    0  0.16224258859E+01  0.21315637679E+02 -0.59112793792E+02  0.62859454860E+02  0.00000000000E+00 0. -1.
<scales pt_clust_5="13000.00000" pt_clust_6="13000.00000" pt_clust_7="13000.00000" pt_clust_8="13000.00000" pt_clust_9="21.37729"></scales>
<clustering>
<clus scale="   21.377">  2  9  1 -1</clus>
<clus scale="   76.832">  5  6 -1 -1</clus>
<clus scale="   89.031">  1  5  2 -1</clus>
<clus scale="   92.802">  7  8 -1 -1</clus>
<clus scale="   21.377">  2  5  1 -1</clus>
</clustering>
</event>
<event>
 9    2  0.1325014E-004  0.1317178E+03  0.7546771E-02  0.1229355E+00
         21   -1    0    0  501  502  0.00000000000E+00  0.00000000000E+00  0.83606404142E+02  0.83606404142E+02  0.00000000000E+00 0. -1.
          4   -1    0    0  502    0 -0.00000000000E+00 -0.00000000000E+00 -0.47443399862E+03  0.47443399862E+03  0.00000000000E+00 0. -1.
         24    2    1    2    0    0 -0.82300162114E+02  0.88036960937E+01 -0.32149126380E+03  0.34193598153E+03  0.81931440919E+02 0.  0.
         23    2    1    2    0    0  0.10468307091E+03 -0.42920068697E+02 -0.85242966282E+02  0.17231010035E+03  0.98100610349E+02 0.  0.
        -11    1    3    3    0    0 -0.63962634825E+02  0.34487101660E+02 -0.28290231390E+03  0.29208611409E+03  0.00000000000E+00 0.  1.
         12    1    3    3    0    0 -0.18337527289E+02 -0.25683405567E+02 -0.38588949901E+02  0.49849867433E+02  0.00000000000E+00 0. -1.
        -11    1    4    4    0    0  0.95871960124E+02  0.96842364687E+01 -0.52711947828E+02  0.10983517933E+03  0.00000000000E+00 0.  1.
         11    1    4    4    0    0  0.88111107825E+01 -0.52604305166E+02 -0.32531018453E+02  0.62474921023E+02  0.00000000000E+00 0. -1.
          3    1    1    2  501    0 -0.22382908792E+02  0.34116372604E+02  0.15906635606E+02  0.43794320887E+02  0.00000000000E+00 0. -1.
<scales pt_clust_5="13000.00000" pt_clust_6="13000.00000" pt_clust_7="13000.00000" pt_clust_8="13000.00000" pt_clust_9="40.80345"></scales>
<clustering>
<clus scale="   40.803">  1  9  2 -1</clus>
<clus scale="   81.931">  5  6 -1 -1</clus>
<clus scale="   98.101">  7  8 -1 -1</clus>
<clus scale="  120.161">  2  5  1 -1</clus>
<clus scale="   40.803">  1  5  2 -1</clus>
</clustering>
</event>
<event>
 9    2  0.1325014E-004  0.1131315E+03  0.7546771E-02  0.1258578E+00
          2   -1    0    0  502    0 -0.00000000000E+00  0.00000000000E+00  0.35381431298E+03  0.35381431298E+03  0.00000000000E+00 0. -1.
         21   -1    0    0  501  502  0.00000000000E+00 -0.00000000000E+00 -0.30473220929E+03  0.30473220929E+03  0.00000000000E+00 0.  1.
         24    2    1    2    0    0  0.59501682919E+02 -0.30795050870E+02  0.30843720450E+03  0.32566116060E+03  0.80205342550E+02 0.  0.
         23    2    1    2    0    0 -0.10548003133E+03 -0.14839520881E+02 -0.14435469678E+03  0.20089439384E+03  0.90410345669E+02 0.  0.
        -13    1    3    3    0    0  0.44413635766E+02  0.13032133124E+02  0.78764029755E+02  0.91357429468E+02  0.00000000000E+00 0.  1.
         14    1    3    3    0    0  0.15088047153E+02 -0.43827183995E+02  0.22967317475E+03  0.23430373113E+03  0.00000000000E+00 0. -1.
        -11    1    4    4    0    0 -0.52222258890E+02  0.14017235467E+02 -0.12677108782E+03  0.13782073836E+03  0.00000000000E+00 0.  1.
         11    1    4    4    0    0 -0.53257772438E+02 -0.28856756347E+02 -0.17583608963E+02  0.63073655484E+02  0.00000000000E+00 0. -1.
          1    1    1    2  501    0  0.45978348409E+02  0.45634571751E+02 -0.11500040402E+03  0.13199096782E+03  0.00000000000E+00 0. -1.
<scales pt_clust_5="13000.00000" pt_clust_6="13000.00000" pt_clust_7="13000.00000" pt_clust_8="13000.00000" pt_clust_9="64.78057"></scales>
<clustering>
<clus scale="   64.781">  2  9  1 -1</clus>
<clus scale="   80.205">  5  6 -1 -1</clus>
<clus scale="   90.410">  7  8 -1 -1</clus>
<clus scale="  105.155">  1  5  2 -1</clus>
<clus scale="   64.781">  2  5  1 -1</clus>
</clustering>
</event>
<event>
 9    2  0.1325014E-004  0.4430404E+03  0.7546771E-02  0.1030100E+00
          2   -1    0    0  502    0 -0.00000000000E+00  0.00000000000E+00  0.20519669078E+04  0.20519669078E+04  0.00000000000E+00 0. -1.
         21   -1    0    0  501  502  0.00000000000E+00 -0.00000000000E+00 -0.10319174203E+03  0.10319174203E+03  0.00000000000E+00 0.  1.
         23    2    1    2    0    0  0.27545040352E+03  0.32834291269E+03  0.10734044292E+04  0.11597327379E+04  0.95398959796E+02 0.  0.
         24    2    1    2    0    0 -0.30088649440E+03 -0.31865105175E+03  0.84253551365E+03  0.95277525252E+03  0.76442231494E+02 0.  0.
        -13    1    4    4    0    0 -0.10766456520E+03 -0.11806526487E+03  0.38916542023E+03  0.42069084809E+03  0.00000000000E+00 0.  1.
         14    1    4    4    0    0 -0.19322192920E+03 -0.20058578688E+03  0.45337009342E+03  0.53208440442E+03  0.00000000000E+00 0. -1.
        -11    1    3    3    0    0  0.10065128297E+03  0.17499051932E+03  0.41552210841E+03  0.46196426831E+03  0.00000000000E+00 0.  1.
         11    1    3    3    0    0  0.17479912054E+03  0.15335239337E+03  0.65788232079E+03  0.69776846956E+03  0.00000000000E+00 0. -1.
          1    1    1    2  501    0  0.25436090887E+02 -0.96918609365E+01  0.32835222961E+02  0.42650659490E+02  0.00000000000E+00 0. -1.
<scales pt_clust_5="13000.00000" pt_clust_6="13000.00000" pt_clust_7="13000.00000" pt_clust_8="13000.00000" pt_clust_9="27.21997"></scales>
<clustering>
<clus scale="   27.220">  2  9  1 -1</clus>
<clus scale="   76.442">  5  6 -1 -1</clus>
<clus scale="   95.399">  7  8 -1 -1</clus>
<clus scale="  439.349">  2  5  1 -1</clus>
<clus scale="   27.220">  2  5  1 -1</clus>
</clustering>
</event>
<event>
 9    2  0.1325014E-004  0.2202151E+03  0.7546771E-02  0.1134318E+00
          2   -1    0    0  502    0 -0.00000000000E+00  0.00000000000E+00  0.32388764769E+03  0.32388764769E+03  0.00000000000E+00 0. -1.
         21   -1    0    0  501  502  0.00000000000E+00 -0.00000000000E+00 -0.28562452154E+03  0.28562452154E+03  0.00000000000E+00 0.  1.
         23    2    1    2    0    0  0.21732876921E+02  0.20674679496E+03  0.12938111672E+03  0.26121897210E+03  0.90990784453E+02 0.  0.
         24    2    1    2    0    0 -0.11700083876E+03 -0.16294909078E+03 -0.10734872708E+03  0.24219107533E+03  0.83013043003E+02 0.  0.
        -11    1    4    4    0    0 -0.30150646494E+02 -0.72765662587E+02 -0.83404927128E+02  0.11471828540E+03  0.00000000000E+00 0.  1.
         12    1    4    4    0    0 -0.86850192262E+02 -0.90183428196E+02 -0.23943799948E+02  0.12747278993E+03  0.00000000000E+00 0. -1.
        -11    1    3    3    0    0  0.51536550610E+02  0.15683981984E+03  0.11542266574E+03  0.20143767498E+03  0.00000000000E+00 0.  1.
         11    1    3    3    0    0 -0.29803673688E+02  0.49906975123E+02  0.13958450976E+02  0.59781297116E+02  0.00000000000E+00 0. -1.
          1    1    1    2  501    0  0.95267961834E+02 -0.43797704178E+02  0.16230736506E+02  0.10610212180E+03  0.00000000000E+00 0. -1.
<scales pt_clust_5="13000.00000" pt_clust_6="13000.00000" pt_clust_7="13000.00000" pt_clust_8="13000.00000" pt_clust_9="104.85339"></scales>
<clustering>
<clus scale="   83.013">  5  6 -1 -1</clus>
<clus scale="   90.991">  7  8 -1 -1</clus>
<clus scale="  104.853">  2  9  1 -1</clus>
<clus scale="  217.040">  2  5  1 -1</clus>
<clus scale="  104.853">  2  5  1 -1</clus>
</clustering>
</event>
<event>
 9    2  0.1325014E-004  0.1461316E+03  0.7546771E-02  0.1207229E+00
         21   -1    0    0  501  502  0.00000000000E+00  0.00000000000E+00  0.12896175007E+03  0.12896175007E+03  0.00000000000E+00 0. -1.
          2   -1    0    0  502    0 -0.00000000000E+00 -0.00000000000E+00 -0.28007090668E+03  0.28007090668E+03  0.00000000000E+00 0. -1.
         24    2    1    2    0    0 -0.37408806149E+02  0.10145679211E+03 -0.34936959745E+02  0.13883626141E+03  0.79762252245E+02 0.  0.
         23    2    1    2    0    0  0.10729280948E+03 -0.81140945169E+02 -0.43742487058E+02  0.16751937540E+03  0.89742609787E+02 0.  0.
        -11    1    3    3    0    0 -0.44490922141E+02  0.49831657262E+02  0.12972038125E+02  0.68050789794E+02  0.00000000000E+00 0.  1.
         12    1    3    3    0    0  0.70821159922E+01  0.51625134850E+02 -0.47908997869E+02  0.70785471617E+02  0.00000000000E+00 0. -1.
        -11    1    4    4    0    0  0.42737997011E+02 -0.84850916935E+02 -0.38950100378E+02  0.10268069348E+03  0.00000000000E+00 0. -1.
         11    1    4    4    0    0  0.64554812473E+02  0.37099717660E+01 -0.47923866802E+01  0.64838681927E+02  0.00000000000E+00 0.  1.
          1    1    1    2  501    0 -0.69884003335E+02 -0.20315846943E+02 -0.72429709811E+02  0.10267701993E+03  0.00000000000E+00 0. -1.
<scales pt_clust_5="13000.00000" pt_clust_6="13000.00000" pt_clust_7="13000.00000" pt_clust_8="13000.00000" pt_clust_9="72.77715"></scales>
<clustering>
<clus scale="   72.777">  1  9  2 -1</clus>
<clus scale="   79.762">  5  6 -1 -1</clus>
<clus scale="   89.743">  7  8 -1 -1</clus>
<clus scale="  140.224">  2  5  1 -1</clus>
<clus scale="   72.777">  1  5  2 -1</clus>
</clustering>
</event>
<event>
 9    2  0.1325014E-004  0.1354802E+03  0.7546771E-02  0.1221925E+00
         21   -1    0    0  501  502  0.00000000000E+00  0.00000000000E+00  0.17962135693E+03  0.17962135693E+03  0.00000000000E+00 0.  1.
         -3   -1    0    0    0  501 -0.00000000000E+00 -0.00000000000E+00 -0.33125834667E+03  0.33125834667E+03  0.00000000000E+00 0.  1.
         24    2    1    2    0    0  0.41198705728E+02 -0.90565160031E+02 -0.15153383713E+03  0.19891408107E+03  0.81883614286E+02 0.  0.
         23    2    1    2    0    0 -0.10770304156E+03  0.56151514026E+02  0.10348118954E+03  0.18414996755E+03  0.91923426127E+02 0.  0.
        -13    1    3    3    0    0  0.41948309224E+02 -0.84182265662E+02 -0.16159589425E+03  0.18697472433E+03  0.00000000000E+00 0.  1.
         14    1    3    3    0    0 -0.74960349598E+00 -0.63828943690E+01  0.10062057122E+02  0.11939356744E+02  0.00000000000E+00 0. -1.
        -11    1    4    4    0    0 -0.93320766115E+02  0.99669336755E+01  0.34696916934E+02  0.10005988807E+03  0.00000000000E+00 0. -1.
         11    1    4    4    0    0 -0.14382275444E+02  0.46184580351E+02  0.68784272609E+02  0.84090079484E+02  0.00000000000E+00 0.  1.
         -4    1    1    2    0  502  0.66504335831E+02  0.34413646004E+02 -0.10358434215E+03  0.12781565497E+03  0.00000000000E+00 0.  1.
<scales pt_clust_5="13000.00000" pt_clust_6="13000.00000" pt_clust_7="13000.00000" pt_clust_8="13000.00000" pt_clust_9="74.88078"></scales>
<clustering>
<clus scale="   74.881">  1  9  2 -1</clus>
<clus scale="   81.884">  5  6 -1 -1</clus>
<clus scale="   91.923">  7  8 -1 -1</clus>
<clus scale="  128.879">  2  5  1 -1</clus>
<clus scale="   74.881">  1  5  2 -1</clus>
</clustering>
</event>
<event>
 9    2  0.1325014E-004  0.1691148E+03  0.7546771E-02  0.1207423E+00
          2   -1    0    0  502    0 -0.00000000000E+00  0.00000000000E+00  0.12221641957E+04  0.12221641957E+04  0.00000000000E+00 0. -1.
         21   -1    0    0  501  502  0.00000000000E+00 -0.00000000000E+00 -0.34578874669E+02  0.34578874669E+02  0.00000000000E+00 0.  1.
         23    2    1    2    0    0  0.29835287204E+01 -0.22725054345E+01  0.24035765105E+03  0.25668875628E+03  0.90018061839E+02 0.  0.
         24    2    1    2    0    0 -0.68282212710E+02 -0.13192602305E+03  0.43830989268E+03  0.46970493186E+03  0.80251011603E+02 0.  0.
        -13    1    4    4    0    0 -0.41511581788E+02 -0.48088275028E+02  0.88158909090E+02  0.10866318084E+03  0.00000000000E+00 0.  1.
         14    1    4    4    0    0 -0.26770630922E+02 -0.83837748021E+02  0.35015098359E+03  0.36104175103E+03  0.00000000000E+00 0. -1.
        -13    1    3    3    0    0  0.41693460734E+02  0.16367439436E+02  0.15161416294E+03  0.15809203695E+03  0.00000000000E+00 0. -1.
         13    1    3    3    0    0 -0.38709932014E+02 -0.18639944871E+02  0.88743488104E+02  0.98596719328E+02  0.00000000000E+00 0.  1.
          1    1    1    2  501    0  0.65298683990E+02  0.13419852848E+03  0.50891777729E+03  0.53034938221E+03  0.00000000000E+00 0. -1.
<scales pt_clust_5="13000.00000" pt_clust_6="13000.00000" pt_clust_7="13000.00000" pt_clust_8="13000.00000" pt_clust_9="148.86108"></scales>
<clustering>
<clus scale="   80.251">  5  6 -1 -1</clus>
<clus scale="   90.018">  7  8 -1 -1</clus>
<clus scale="   90.096">  1  7  2 -1</clus>
<clus scale="  148.861">  2  9  1 -1</clus>
<clus scale="  148.861">  2  5  1 -1</clus>
</clustering>
</event>
<event>
 9    2  0.1325014E-004  0.1502062E+03  0.7546771E-02  0.1203787E+00
         21   -1    0    0  501  502  0.00000000000E+00  0.00000000000E+00  0.93186056722E+02  0.93186056722E+02  0.00000000000E+00 0.  1.
          2   -1    0    0  502    0 -0.00000000000E+00 -0.00000000000E+00 -0.76919754827E+03  0.76919754827E+03  0.00000000000E+00 0. -1.
         24    2    1    2    0    0 -0.71555091064E+02  0.75768014351E+02 -0.24597945701E+03  0.27733670585E+03  0.74490483181E+02 0.  0.
         23    2    1    2    0    0  0.47992167750E+02 -0.18568761837E+03 -0.98702115135E+02  0.23516542465E+03  0.93688471210E+02 0.  0.
        -13    1    3    3    0    0 -0.56001307001E+02  0.10915570690E+02 -0.14979595967E+03  0.16029387263E+03  0.00000000000E+00 0.  1.
         14    1    3    3    0    0 -0.15553784063E+02  0.64852443661E+02 -0.96183497344E+02  0.11704283322E+03  0.00000000000E+00 0. -1.
        -13    1    4    4    0    0 -0.93977041817E+00 -0.15199965742E+03 -0.85166308747E+02  0.17423570005E+03  0.00000000000E+00 0. -1.
         13    1    4    4    0    0  0.48931938169E+02 -0.33687960945E+02 -0.13535806388E+02  0.60929724602E+02  0.00000000000E+00 0.  1.
          1    1    1    2  501    0  0.23562923314E+02  0.10991960402E+03 -0.33132991940E+03  0.34988147449E+03  0.00000000000E+00 0. -1.
<scales pt_clust_5="13000.00000" pt_clust_6="13000.00000" pt_clust_7="13000.00000" pt_clust_8="13000.00000" pt_clust_9="112.41683"></scales>
<clustering>
<clus scale="   74.490">  5  6 -1 -1</clus>
<clus scale="   93.688">  7  8 -1 -1</clus>
<clus scale="  112.417">  1  9  2 -1</clus>
<clus scale="  139.044">  2  5  1 -1</clus>
<clus scale="  112.417">  1  5  2 -1</clus>
</clustering>
</event>
<event>
 9    2  0.1325014E-004  0.9452519E+02  0.7546771E-02  0.1297466E+00
          2   -1    0    0  502    0 -0.00000000000E+00  0.00000000000E+00  0.50535979389E+03  0.50535979389E+03  0.00000000000E+00 0. -1.
         21   -1    0    0  501  502  0.00000000000E+00 -0.00000000000E+00 -0.50556026136E+02  0.50556026136E+02  0.00000000000E+00 0. -1.
         24    2    1    2    0    0  0.10968300404E+02  0.29204756840E+02  0.28138533221E+03  0.29460233507E+03  0.81483797205E+02 0.  0.
         23    2    1    2    0    0 -0.32007707230E+02 -0.22274665440E+01  0.19737555722E+03  0.21954777521E+03  0.90634761996E+02 0.  0.
        -11    1    3    3    0    0 -0.10380756617E+02  0.33641899510E+02  0.44630925247E+02  0.56845905736E+02  0.00000000000E+00 0.  1.
         12    1    3    3    0    0  0.21349057021E+02 -0.44371426700E+01  0.23675440696E+03  0.23775642933E+03  0.00000000000E+00 0. -1.
        -11    1    4    4    0    0  0.42726717466E+01 -0.41852563722E+02  0.77467548587E+02  0.88153921626E+02  0.00000000000E+00 0.  1.
         11    1    4    4    0    0 -0.36280378977E+02  0.39625097178E+02  0.11990800864E+03  0.13139385359E+03  0.00000000000E+00 0. -1.
          1    1    1    2  501    0  0.21039406827E+02 -0.26977290296E+02 -0.23957121682E+02  0.41765709746E+02  0.00000000000E+00 0. -1.
<scales pt_clust_5="13000.00000" pt_clust_6="13000.00000" pt_clust_7="13000.00000" pt_clust_8="13000.00000" pt_clust_9="34.21156"></scales>
<clustering>
<clus scale="   34.212">  2  9  1 -1</clus>
<clus scale="   81.484">  5  6 -1 -1</clus>
<clus scale="   85.790">  1  5  2 -1</clus>
<clus scale="   90.635">  7  8 -1 -1</clus>
<clus scale="   34.212">  2  5  1 -1</clus>
</clustering>
</event>
<event>
 9    2  0.1325014E-004  0.1276641E+03  0.7546771E-02  0.1234504E+00
         21   -1    0    0  501  502  0.00000000000E+00  0.00000000000E+00  0.88002904697E+02  0.88002904697E+02  0.00000000000E+00 0. -1.
          2   -1    0    0  502    0 -0.00000000000E+00 -0.00000000000E+00 -0.80217747449E+03  0.80217747449E+03  0.00000000000E+00 0. -1.
         24    2    1    2    0    0  0.43775875278E+02  0.66800376440E+02 -0.54629371855E+03  0.55790031005E+03  0.80232857823E+02 0.  0.
         23    2    1    2    0    0 -0.60661923947E+02 -0.10106589104E+03 -0.22080540990E+03  0.26700930201E+03  0.92977174473E+02 0.  0.
        -13    1    3    3    0    0  0.14663034618E+02  0.70908707835E+02 -0.25363367807E+03  0.26376711714E+03  0.00000000000E+00 0.  1.
         14    1    3    3    0    0  0.29112840660E+02 -0.41083313948E+01 -0.29266004048E+03  0.29413319291E+03  0.00000000000E+00 0. -1.
        -13    1    4    4    0    0 -0.10792157876E+02 -0.26207765455E+02 -0.14967439332E+03  0.15233430887E+03  0.00000000000E+00 0.  1.
         13    1    4    4    0    0 -0.49869766071E+02 -0.74858125583E+02 -0.71131016576E+02  0.11467499315E+03  0.00000000000E+00 0. -1.
          1    1    1    2  501    0  0.16886048669E+02  0.34265514598E+02  0.52924558664E+02  0.65270767118E+02  0.00000000000E+00 0. -1.
<scales pt_clust_5="13000.00000" pt_clust_6="13000.00000" pt_clust_7="13000.00000" pt_clust_8="13000.00000" pt_clust_9="38.20032"></scales>
<clustering>
<clus scale="   38.200">  1  9  2 -1</clus>
<clus scale="   80.233">  5  6 -1 -1</clus>
<clus scale="   92.977">  7  8 -1 -1</clus>
<clus scale="  118.704">  2  5  1 -1</clus>
<clus scale="   38.200">  1  5  2 -1</clus>
</clustering>
</event>
<event>
 9    2  0.1325014E-004  0.3078767E+03  0.7546771E-02  0.1081769E+00
          2   -1    0    0  502    0 -0.00000000000E+00  0.00000000000E+00  0.11928925098E+04  0.11928925098E+04  0.00000000000E+00 0. -1.
         21   -1    0    0  501  502  0.00000000000E+00 -0.00000000000E+00 -0.13391547360E+03  0.13391547360E+03  0.00000000000E+00 0. -1.
         24    2    1    2    0    0 -0.11382811432E+03  0.19226388525E+03  0.25000006280E+03  0.34444344552E+03  0.78860728984E+02 0.  0.
         23    2    1    2    0    0  0.20246913529E+03 -0.32741264929E+03  0.58530572186E+03  0.70640938250E+03  0.90766921192E+02 0.  0.
        -13    1    3    3    0    0  0.10143348738E+02  0.26801168443E+02  0.18755259631E+02  0.34248356418E+02  0.00000000000E+00 0.  1.
         14    1    3    3    0    0 -0.12397146306E+03  0.16546271681E+03  0.23124480317E+03  0.31019508910E+03  0.00000000000E+00 0. -1.
        -13    1    4    4    0    0  0.57404553084E+02 -0.60170086453E+02  0.72988382159E+02  0.11064820807E+03  0.00000000000E+00 0.  1.
         13    1    4    4    0    0  0.14506458220E+03 -0.26724256284E+03  0.51231733970E+03  0.59576117443E+03  0.00000000000E+00 0. -1.
          1    1    1    2  501    0 -0.88641020969E+02  0.13514876403E+03  0.22367125153E+03  0.27595515538E+03  0.00000000000E+00 0. -1.
<scales pt_clust_5="13000.00000" pt_clust_6="13000.00000" pt_clust_7="13000.00000" pt_clust_8="13000.00000" pt_clust_9="161.62440"></scales>
<clustering>
<clus scale="   78.861">  5  6 -1 -1</clus>
<clus scale="   90.767">  7  8 -1 -1</clus>
<clus scale="  161.624">  2  9  1 -1</clus>
<clus scale="  304.579">  1  5  2 -1</clus>
<clus scale="  161.624">  2  5  1 -1</clus>
</clustering>
</event>
<event>
 9    2  0.1325014E-004  0.1796309E+03  0.7546771E-02  0.1169617E+00
          2   -1    0    0  502    0 -0.00000000000E+00  0.00000000000E+00  0.11941526579E+03  0.11941526579E+03  0.00000000000E+00 0. -1.
         21   -1    0    0  501  502  0.00000000000E+00 -0.00000000000E+00 -0.32009178786E+03  0.32009178786E+03  0.00000000000E+00 0.  1.
         23    2    1    2    0    0 -0.73563325920E+02 -0.14268979705E+03 -0.92933034113E+02  0.20752625427E+03  0.93051901006E+02 0.  0.
         24    2    1    2    0    0  0.94568970297E+02  0.11470028550E+03 -0.98020667311E+02  0.19566023917E+03  0.81089039554E+02 0.  0.
        -13    1    4    4    0    0  0.10341289386E+03  0.11453188098E+03 -0.10298195589E+03  0.18551835924E+03  0.00000000000E+00 0.  1.
         14    1    4    4    0    0 -0.88439235592E+01  0.16840451218E+00  0.49612885824E+01  0.10141879924E+02  0.00000000000E+00 0. -1.
        -11    1    3    3    0    0 -0.49629010802E+02 -0.13906622915E+03 -0.45894786545E+02  0.15462466244E+03  0.00000000000E+00 0.  1.
         11    1    3    3    0    0 -0.23934315119E+02 -0.36235679051E+01 -0.47038247568E+02  0.52901591836E+02  0.00000000000E+00 0. -1.
          1    1    1    2  501    0 -0.21005644377E+02  0.27989511556E+02 -0.97228206463E+01  0.36320560212E+02  0.00000000000E+00 0. -1.
<scales pt_clust_5="13000.00000" pt_clust_6="13000.00000" pt_clust_7="13000.00000" pt_clust_8="13000.00000" pt_clust_9="34.99502"></scales>
<clustering>
<clus scale="   34.995">  2  9  1 -1</clus>
<clus scale="   81.089">  5  6 -1 -1</clus>
<clus scale="   93.052">  7  8 -1 -1</clus>
<clus scale="  173.736">  2  5  1 -1</clus>
<clus scale="   34.995">  2  5  1 -1</clus>
</clustering>
</event>
<event>
 9    2  0.1325014E-004  0.1407902E+03  0.7546771E-02  0.1215331E+00
          2   -1    0    0  502    0 -0.00000000000E+00  0.00000000000E+00  0.10320376661E+03  0.10320376661E+03  0.00000000000E+00 0. -1.
         21   -1    0    0  501  502  0.00000000000E+00 -0.00000000000E+00 -0.47802406774E+03  0.47802406774E+03  0.00000000000E+00 0. -1.
         24    2    1    2    0    0 -0.29414799127E+02  0.61219916476E+02 -0.71754383003E+02  0.12687520144E+03  0.79595958940E+02 0.  0.
         23    2    1    2    0    0  0.92392076999E+02 -0.11586873288E+03 -0.41885808479E+02  0.18018538407E+03  0.93544067297E+02 0.  0.
        -11    1    3    3    0    0 -0.25776139925E+02  0.49942861005E+02 -0.21226011247E+01  0.56242370064E+02  0.00000000000E+00 0.  1.
         12    1    3    3    0    0 -0.36386592027E+01  0.11277055470E+02 -0.69631781878E+02  0.70632831377E+02  0.00000000000E+00 0. -1.
        -13    1    4    4    0    0 -0.19235727043E+02 -0.19877178364E+02 -0.10926632088E+02  0.29740657414E+02  0.00000000000E+00 0.  1.
         13    1    4    4    0    0  0.11162780404E+03 -0.95991554520E+02 -0.30959176392E+02  0.15044472665E+03  0.00000000000E+00 0. -1.
          1    1    1    2  501    0 -0.62977277872E+02  0.54648816409E+02 -0.26118010964E+03  0.27416724884E+03  0.00000000000E+00 0. -1.
<scales pt_clust_5="13000.00000" pt_clust_6="13000.00000" pt_clust_7="13000.00000" pt_clust_8="13000.00000" pt_clust_9="83.38244"></scales>
<clustering>
<clus scale="   79.596">  5  6 -1 -1</clus>
<clus scale="   83.382">  2  9  1 -1</clus>
<clus scale="   93.544">  7  8 -1 -1</clus>
<clus scale="  131.935">  1  5  2 -1</clus>
<clus scale="   83.382">  2  5  1 -1</clus>
</clustering>
</event>
<event>
 9    2  0.1325014E-004  0.1171453E+03  0.7546771E-02  0.1248246E+00
         -3   -1    0    0    0  501 -0.00000000000E+00  0.00000000000E+00  0.26201779470E+03  0.26201779470E+03  0.00000000000E+00 0.  1.
         21   -1    0    0  501  502  0.00000000000E+00 -0.00000000000E+00 -0.15238815068E+03  0.15238815068E+03  0.00000000000E+00 0.  1.
         24    2    1    2    0    0  0.33866197850E+02 -0.61065631388E+02  0.14520156896E+03  0.18327980330E+03  0.87361661942E+02 0.  0.
         23    2    1    2    0    0 -0.66168728859E+02  0.68257566417E+02  0.50161874544E+02  0.13922694833E+03  0.88490301334E+02 0.  0.
        -11    1    3    3    0    0  0.14543914879E+02 -0.46560708666E+02  0.15078791124E+03  0.15848160533E+03  0.00000000000E+00 0.  1.
         12    1    3    3    0    0  0.19322282971E+02 -0.14504922722E+02 -0.55863422870E+01  0.24798197969E+02  0.00000000000E+00 0. -1.
        -13    1    4    4    0    0 -0.51294485083E+02 -0.63586097258E+01  0.81849453430E+01  0.52331151791E+02  0.00000000000E+00 0.  1.
         13    1    4    4    0    0 -0.14874243776E+02  0.74616176143E+02  0.41976929201E+02  0.86895796534E+02  0.00000000000E+00 0. -1.
         -4    1    1    2    0  502  0.32302531009E+02 -0.71919350286E+01 -0.85733799478E+02  0.91899193750E+02  0.00000000000E+00 0.  1.
<scales pt_clust_5="13000.00000" pt_clust_6="13000.00000" pt_clust_7="13000.00000" pt_clust_8="13000.00000" pt_clust_9="33.09347"></scales>
<clustering>
<clus scale="   33.093">  2  9  1 -1</clus>
<clus scale="   87.362">  5  6 -1 -1</clus>
<clus scale="   88.490">  7  8 -1 -1</clus>
<clus scale="  116.295">  1  5  2 -1</clus>
<clus scale="   33.093">  2  5  1 -1</clus>
</clustering>
</event>
<event>
 9    2  0.1325014E-004  0.1135138E+03  0.7546771E-02  0.1258530E+00
         21   -1    0    0  501  502  0.00000000000E+00  0.00000000000E+00  0.18973546400E+03  0.18973546400E+03  0.00000000000E+00 0. -1.
          2   -1    0    0  502    0 -0.00000000000E+00 -0.00000000000E+00 -0.49409843853E+03  0.49409843853E+03  0.00000000000E+00 0. -1.
         24    2    1    2    0    0 -0.46879714289E+02 -0.51331903274E+02 -0.43384958733E+03  0.44663030929E+03  0.80128002864E+02 0.  0.
         23    2    1    2    0    0  0.27347046954E+02  0.34721617983E+02 -0.32190348925E+01  0.10204363023E+03  0.91918923802E+02 0.  0.
        -11    1    3    3    0    0  0.83406671721E+00 -0.28116262654E+02 -0.38203202740E+02  0.47441591379E+02  0.00000000000E+00 0.  1.
         12    1    3    3    0    0 -0.47713781006E+02 -0.23215640619E+02 -0.39564638459E+03  0.39918871791E+03  0.00000000000E+00 0. -1.
        -11    1    4    4    0    0  0.21685249471E+02  0.61656821441E+02  0.17420470726E+02  0.67640863945E+02  0.00000000000E+00 0.  1.
         11    1    4    4    0    0  0.56617974822E+01 -0.26935203458E+02 -0.20639505619E+02  0.34402766288E+02  0.00000000000E+00 0. -1.
          1    1    1    2  501    0  0.19532667335E+02  0.16610285290E+02  0.13270564770E+03  0.13515996301E+03  0.00000000000E+00 0. -1.
<scales pt_clust_5="13000.00000" pt_clust_6="13000.00000" pt_clust_7="13000.00000" pt_clust_8="13000.00000" pt_clust_9="25.64033"></scales>
<clustering>
<clus scale="   25.640">  1  9  2 -1</clus>
<clus scale="   80.128">  5  6 -1 -1</clus>
<clus scale="   91.919">  7  8 -1 -1</clus>
<clus scale="  104.196">  2  5  1 -1</clus>
<clus scale="   25.640">  1  5  2 -1</clus>
</clustering>
</event>
<event>
 9    2  0.1325014E-004  0.1142805E+03  0.7546771E-02  0.1257118E+00
         21   -1    0    0  501  502  0.00000000000E+00  0.00000000000E+00  0.76733527001E+02  0.76733527001E+02  0.00000000000E+00 0.  1.
         -1   -1    0    0    0  501 -0.00000000000E+00 -0.00000000000E+00 -0.49247171664E+03  0.49247171664E+03  0.00000000000E+00 0.  1.
         23    2    1    2    0    0  0.51239581799E+02 -0.59413502054E+02 -0.28284354866E+03  0.30773057322E+03  0.92423880584E+02 0.  0.
         24    2    1    2    0    0  0.15562591021E+02  0.32983194761E+02  0.21576339984E+02  0.91115123009E+02  0.80661898180E+02 0.  0.
        -11    1    4    4    0    0 -0.52650943967E+01 -0.21680245630E+02  0.23740008772E+02  0.32578248665E+02  0.00000000000E+00 0.  1.
         12    1    4    4    0    0  0.20827685418E+02  0.54663440392E+02 -0.21636687880E+01  0.58536874344E+02  0.00000000000E+00 0. -1.
        -13    1    3    3    0    0  0.49818180736E+02  0.44790678638E+01 -0.17845729102E+03  0.18533461063E+03  0.00000000000E+00 0.  1.
         13    1    3    3    0    0  0.14214010633E+01 -0.63892569917E+02 -0.10438625764E+03  0.12239596258E+03  0.00000000000E+00 0. -1.
         -2    1    1    2    0  502 -0.66802172820E+02  0.26430307292E+02 -0.15447098096E+03  0.17035954742E+03  0.00000000000E+00 0.  1.
<scales pt_clust_5="13000.00000" pt_clust_6="13000.00000" pt_clust_7="13000.00000" pt_clust_8="13000.00000" pt_clust_9="71.84077"></scales>
<clustering>
<clus scale="   71.841">  1  9  2 -1</clus>
<clus scale="   80.662">  5  6 -1 -1</clus>
<clus scale="   92.424">  7  8 -1 -1</clus>
<clus scale="  104.996">  1  5  2 -1</clus>
<clus scale="   71.841">  1  5  2 -1</clus>
</clustering>
</event>
<event>
 9    2  0.1325014E-004  0.1127629E+03  0.7546771E-02  0.1259734E+00
          2   -1    0    0  502    0 -0.00000000000E+00  0.00000000000E+00  0.74945799009E+03  0.74945799009E+03  0.00000000000E+00 0. -1.
         21   -1    0    0  501  502  0.00000000000E+00 -0.00000000000E+00 -0.47317067539E+02  0.47317067539E+02  0.00000000000E+00 0. -1.
         24    2    1    2    0    0  0.37324341149E+02  0.27987142453E+02  0.31506522932E+03  0.32841872726E+03  0.80102279011E+02 0.  0.
         23    2    1    2    0    0 -0.10721635097E+03 -0.21889540097E+02  0.36946126989E+03  0.39602140311E+03  0.91415665483E+02 0.  0.
        -13    1    3    3    0    0  0.39818122808E+02  0.25348916842E+02  0.76936042531E+02  0.90261869742E+02  0.00000000000E+00 0.  1.
         14    1    3    3    0    0 -0.24937816586E+01  0.26382256109E+01  0.23812918679E+03  0.23815685752E+03  0.00000000000E+00 0. -1.
        -11    1    4    4    0    0  0.10173684388E+02 -0.20264756111E+02  0.36513906531E+02  0.42981735242E+02  0.00000000000E+00 0.  1.
         11    1    4    4    0    0 -0.11739003536E+03 -0.16247839860E+01  0.33294736336E+03  0.35303966787E+03  0.00000000000E+00 0. -1.
          1    1    1    2  501    0  0.69892009820E+02 -0.60976023559E+01  0.17614423340E+02  0.72334927253E+02  0.00000000000E+00 0. -1.
<scales pt_clust_5="13000.00000" pt_clust_6="13000.00000" pt_clust_7="13000.00000" pt_clust_8="13000.00000" pt_clust_9="70.15749"></scales>
<clustering>
<clus scale="   70.157">  2  9  1 -1</clus>
<clus scale="   80.102">  5  6 -1 -1</clus>
<clus scale="   91.416">  7  8 -1 -1</clus>
<clus scale="  103.803">  1  5  2 -1</clus>
<clus scale="   70.157">  2  5  1 -1</clus>
</clustering>
</event>
<event>
 9    2  0.1325014E-004  0.1266689E+03  0.7546771E-02  0.1250031E+00
          2   -1    0    0  502    0 -0.00000000000E+00  0.00000000000E+00  0.20421184456E+03  0.20421184456E+03  0.00000000000E+00 0. -1.
         21   -1    0    0  501  502  0.00000000000E+00 -0.00000000000E+00 -0.14988290112E+03  0.14988290112E+03  0.00000000000E+00 0. -1.
         24    2    1    2    0    0  0.34764505843E+02  0.14271385596E+02  0.81244868999E+02  0.12032788961E+03  0.80410378473E+02 0.  0.
         23    2    1    2    0    0  0.55383220884E+02  0.18644586210E+02  0.40615488143E+02  0.11641880252E+03  0.92134672917E+02 0.  0.
        -11    1    3    3    0    0  0.12196443931E+02 -0.28802836781E+02  0.59159491744E+02  0.66919370250E+02  0.00000000000E+00 0.  1.
         12    1    3    3    0    0  0.22568061912E+02  0.43074222377E+02  0.22085377255E+02  0.53408519361E+02  0.00000000000E+00 0. -1.
        -11    1    4    4    0    0 -0.35804309187E+01  0.42606771965E+02  0.29148544495E+02  0.51747407172E+02  0.00000000000E+00 0.  1.
         11    1    4    4    0    0  0.58963651802E+02 -0.23962185755E+02  0.11466943648E+02  0.64671395351E+02  0.00000000000E+00 0. -1.
          1    1    1    2  501    0 -0.90147726727E+02 -0.32915971806E+02 -0.67531413709E+02  0.11734805355E+03  0.00000000000E+00 0. -1.
<scales pt_clust_5="13000.00000" pt_clust_6="13000.00000" pt_clust_7="13000.00000" pt_clust_8="13000.00000" pt_clust_9="86.92642"></scales>
<clustering>
<clus scale="   80.410">  5  6 -1 -1</clus>
<clus scale="   88.759">  1  5  2 -1</clus>
<clus scale="   86.926">  2  9  1 -1</clus>
<clus scale="   92.135">  7  8 -1 -1</clus>
<clus scale="   86.926">  2  5  1 -1</clus>
</clustering>
</event>
<event>
 9    2  0.1325014E-004  0.9532252E+02  0.7546771E-02  0.1294323E+00
         21   -1    0    0  501  502  0.00000000000E+00  0.00000000000E+00  0.35992228402E+02  0.35992228402E+02  0.00000000000E+00 0. -1.
          2   -1    0    0  502    0 -0.00000000000E+00 -0.00000000000E+00 -0.17994562903E+04  0.17994562903E+04  0.00000000000E+00 0. -1.
         24    2    1    2    0    0  0.18163173035E+02  0.25591783054E+02 -0.14537955559E+04  0.14565100288E+04  0.83157112838E+02 0.  0.
         23    2    1    2    0    0  0.52342138559E+02 -0.57160115317E+02 -0.26311540344E+03  0.28874564136E+03  0.90207270356E+02 0.  0.
        -11    1    3    3    0    0 -0.12070466777E+02 -0.16086381742E+02 -0.11646838402E+03  0.11819201463E+03  0.00000000000E+00 0.  1.
         12    1    3    3    0    0  0.30233639813E+02  0.41678164796E+02 -0.13373271719E+04  0.13383180142E+04  0.00000000000E+00 0. -1.
        -13    1    4    4    0    0 -0.22612342409E+02 -0.65944207147E+01 -0.94801077904E+02  0.97683411005E+02  0.00000000000E+00 0.  1.
         13    1    4    4    0    0  0.74954480967E+02 -0.50565694603E+02 -0.16831432554E+03  0.19106223036E+03  0.00000000000E+00 0. -1.
          1    1    1    2  501    0 -0.70505311594E+02  0.31568332264E+02 -0.46553102486E+02  0.90192848475E+02  0.00000000000E+00 0. -1.
<scales pt_clust_5="13000.00000" pt_clust_6="13000.00000" pt_clust_7="13000.00000" pt_clust_8="13000.00000" pt_clust_9="77.24997"></scales>
<clustering>
<clus scale="   77.250">  1  9  2 -1</clus>
<clus scale="   83.157">  5  6 -1 -1</clus>
<clus scale="   88.680">  2  5  1 -1</clus>
<clus scale="   90.207">  7  8 -1 -1</clus>
<clus scale="   77.250">  1  5  2 -1</clus>
</clustering>
</event>
<event>
 9    2  0.1325014E-004  0.2673923E+03  0.7546771E-02  0.1103200E+00
         21   -1    0    0  501  502  0.00000000000E+00  0.00000000000E+00  0.36707990819E+03  0.36707990819E+03  0.00000000000E+00 0. -1.
         -1   -1    0    0    0  501 -0.00000000000E+00 -0.00000000000E+00 -0.33339774556E+03  0.33339774556E+03  0.00000000000E+00 0.  1.
         23    2    1    2    0    0 -0.23866665824E+03 -0.86680346613E+02 -0.17784930149E+03  0.32257534388E+03  0.89158410691E+02 0.  0.
         24    2    1    2    0    0  0.23993407531E+03  0.61535137274E+02  0.12692999375E+03  0.28963398777E+03  0.80135447486E+02 0.  0.
        -11    1    4    4    0    0  0.76366411075E+02 -0.17718976456E+02  0.33243879890E+02  0.85152489202E+02  0.00000000000E+00 0.  1.
         12    1    4    4    0    0  0.16356766424E+03  0.79254113730E+02  0.93686113861E+02  0.20448149857E+03  0.00000000000E+00 0. -1.
        -11    1    3    3    0    0 -0.35150366490E+02 -0.33834663801E+02 -0.72518260810E+02  0.87402693836E+02  0.00000000000E+00 0.  1.
         11    1    3    3    0    0 -0.20351629175E+03 -0.52845682812E+02 -0.10533104068E+03  0.23517265005E+03  0.00000000000E+00 0. -1.
         -2    1    1    2    0  502 -0.12674170690E+01  0.25145209339E+02  0.84601470357E+02  0.88268322094E+02  0.00000000000E+00 0.  1.
<scales pt_clust_5="13000.00000" pt_clust_6="13000.00000" pt_clust_7="13000.00000" pt_clust_8="13000.00000" pt_clust_9="25.17713"></scales>
<clustering>
<clus scale="   25.177">  1  9  2 -1</clus>
<clus scale="   80.135">  5  6 -1 -1</clus>
<clus scale="   89.158">  7  8 -1 -1</clus>
<clus scale="  264.520">  1  5  2 -1</clus>
<clus scale="   25.177">  1  5  2 -1</clus>
</clustering>
</event>
<event>
 9    2  0.1325014E-004  0.1175588E+03  0.7546771E-02  0.1251075E+00
         21   -1    0    0  501  502  0.00000000000E+00  0.00000000000E+00  0.15178472581E+03  0.15178472581E+03  0.00000000000E+00 0. -1.
          4   -1    0    0  502    0 -0.00000000000E+00 -0.00000000000E+00 -0.37692170723E+03  0.37692170723E+03  0.00000000000E+00 0. -1.
         23    2    1    2    0    0  0.46762251555E+02  0.73252268594E+02 -0.76729271173E+02  0.14764716377E+03  0.91431399911E+02 0.  0.
         24    2    1    2    0    0 -0.46235247854E+02 -0.70543721028E+01  0.92751543938E+02  0.13097883198E+03  0.79781847646E+02 0.  0.
        -11    1    4    4    0    0 -0.38209405175E+02 -0.24729235082E+02  0.10824045970E+02  0.46783049095E+02  0.00000000000E+00 0.  1.
         12    1    4    4    0    0 -0.80258426792E+01  0.17674862979E+02  0.81927497968E+02  0.84195782883E+02  0.00000000000E+00 0. -1.
        -13    1    3    3    0    0 -0.20169905038E+02  0.66089215944E+00 -0.35106682946E+02  0.40493715996E+02  0.00000000000E+00 0.  1.
         13    1    3    3    0    0  0.66932156594E+02  0.72591376435E+02 -0.41622588227E+02  0.10715344777E+03  0.00000000000E+00 0. -1.
          3    1    1    2  501    0 -0.52700370164E+00 -0.66197896491E+02 -0.24115925419E+03  0.25008043728E+03  0.00000000000E+00 0. -1.
<scales pt_clust_5="13000.00000" pt_clust_6="13000.00000" pt_clust_7="13000.00000" pt_clust_8="13000.00000" pt_clust_9="66.20003"></scales>
<clustering>
<clus scale="   66.200">  1  9  2 -1</clus>
<clus scale="   79.782">  5  6 -1 -1</clus>
<clus scale="   91.431">  7  8 -1 -1</clus>
<clus scale="  108.745">  1  5  2 -1</clus>
<clus scale="   66.200">  1  5  2 -1</clus>
</clustering>
</event>
<event>
 9    2  0.1325014E-004  0.1444275E+03  0.7546771E-02  0.1208999E+00
          2   -1    0    0  502    0 -0.00000000000E+00  0.00000000000E+00  0.56697894760E+03  0.56697894760E+03  0.00000000000E+00 0. -1.
         21   -1    0    0  501  502  0.00000000000E+00 -0.00000000000E+00 -0.60843231988E+02  0.60843231988E+02  0.00000000000E+00 0. -1.
         24    2    1    2    0    0  0.10954968645E+02  0.12364409178E+03  0.40798147606E+03  0.43430060001E+03  0.82220761298E+02 0.  0.
         23    2    1    2    0    0 -0.16073943231E+01 -0.86818686854E+02  0.91759347708E+02  0.15499389817E+03  0.89795670682E+02 0.  0.
        -13    1    3    3    0    0  0.20199958896E+02  0.19315897636E+02  0.25832470169E+02  0.38058622623E+02  0.00000000000E+00 0.  1.
         14    1    3    3    0    0 -0.92449902514E+01  0.10432819414E+03  0.38214900590E+03  0.39624197739E+03  0.00000000000E+00 0. -1.
        -11    1    4    4    0    0  0.25081616313E+02 -0.90294456288E+02  0.86578682821E+02  0.12758544052E+03  0.00000000000E+00 0.  1.
         11    1    4    4    0    0 -0.26689010636E+02  0.34757694347E+01  0.51806648872E+01  0.27408457647E+02  0.00000000000E+00 0. -1.
          1    1    1    2  501    0 -0.93475743217E+01 -0.36825404922E+02  0.63948918398E+01  0.38527681413E+02  0.00000000000E+00 0. -1.
<scales pt_clust_5="13000.00000" pt_clust_6="13000.00000" pt_clust_7="13000.00000" pt_clust_8="13000.00000" pt_clust_9="37.99326"></scales>
<clustering>
<clus scale="   37.993">  2  9  1 -1</clus>
<clus scale="   82.221">  5  6 -1 -1</clus>
<clus scale="   89.796">  7  8 -1 -1</clus>
<clus scale="  139.844">  1  5  2 -1</clus>
<clus scale="   37.993">  2  5  1 -1</clus>
</clustering>
</event>
<event>
 9    2  0.1325014E-004  0.2915008E+03  0.7546771E-02  0.1130226E+00
         21   -1    0    0  501  502  0.00000000000E+00  0.00000000000E+00  0.24293632712E+03  0.24293632712E+03  0.00000000000E+00 0. -1.
          2   -1    0    0  502    0 -0.00000000000E+00 -0.00000000000E+00 -0.10405073297E+04  0.10405073297E+04  0.00000000000E+00 0. -1.
         24    2    1    2    0    0 -0.33013767933E+02  0.58842722606E+02 -0.98899495167E+02  0.14310258168E+03  0.78389182045E+02 0.  0.
         23    2    1    2    0    0  0.71743252049E+02  0.26174884727E+03  0.80268395823E+02  0.29711732046E+03  0.90421974574E+02 0.  0.
        -11    1    3    3    0    0  0.15459904210E+02  0.51982318558E+02 -0.47119763704E+02  0.71843177911E+02  0.00000000000E+00 0.  1.
         12    1    3    3    0    0 -0.48473672143E+02  0.68604040475E+01 -0.51779731463E+02  0.71259403766E+02  0.00000000000E+00 0. -1.
        -11    1    4    4    0    0  0.37327051938E+02  0.22333186518E+03  0.36258182472E+02  0.22931438378E+03  0.00000000000E+00 0. -1.
         11    1    4    4    0    0  0.34416200112E+02  0.38416982087E+02  0.44010213350E+02  0.67802936677E+02  0.00000000000E+00 0.  1.
          1    1    1    2  501    0 -0.38729484117E+02 -0.32059156987E+03 -0.77893990322E+03  0.84322375467E+03  0.00000000000E+00 0. -1.
<scales pt_clust_5="13000.00000" pt_clust_6="13000.00000" pt_clust_7="13000.00000" pt_clust_8="13000.00000" pt_clust_9="277.12207"></scales>
<clustering>
<clus scale="   78.389">  5  6 -1 -1</clus>
<clus scale="   90.422">  7  8 -1 -1</clus>
<clus scale="  103.427">  2  5  1 -1</clus>
<clus scale="  277.122">  1  9  2 -1</clus>
<clus scale="  277.122">  1  5  2 -1</clus>
</clustering>
</event>
<event>
 9    2  0.1325014E-004  0.1032308E+03  0.7546771E-02  0.1284090E+00
         21   -1    0    0  501  502  0.00000000000E+00  0.00000000000E+00  0.14789300240E+03  0.14789300240E+03  0.00000000000E+00 0.  1.
         -1   -1    0    0    0  501 -0.00000000000E+00 -0.00000000000E+00 -0.59082610886E+03  0.59082610886E+03  0.00000000000E+00 0.  1.
         24    2    1    2    0    0 -0.44888435026E+02  0.76739890992E+01 -0.38465162960E+03  0.39548330898E+03  0.79851799121E+02 0.  0.
         23    2    1    2    0    0 -0.25796164100E+02  0.42589867951E+02 -0.16918995877E+03  0.20243999540E+03  0.99384961908E+02 0.  0.
        -13    1    3    3    0    0 -0.10733779436E+02 -0.18320233020E+02 -0.23034383591E+02  0.31327747865E+02  0.00000000000E+00 0.  1.
         14    1    3    3    0    0 -0.34154655591E+02  0.25994222120E+02 -0.36161724601E+03  0.36415556112E+03  0.00000000000E+00 0. -1.
        -11    1    4    4    0    0 -0.31092770173E+02 -0.19669406654E+02 -0.11143767531E+03  0.11735417075E+03  0.00000000000E+00 0.  1.
         11    1    4    4    0    0  0.52966060732E+01  0.62259274605E+02 -0.57752283461E+02  0.85085824643E+02  0.00000000000E+00 0. -1.
         -2    1    1    2    0  502  0.70684599126E+02 -0.50263857050E+02  0.11090848190E+03  0.14079580689E+03  0.00000000000E+00 0.  1.
<scales pt_clust_5="13000.00000" pt_clust_6="13000.00000" pt_clust_7="13000.00000" pt_clust_8="13000.00000" pt_clust_9="86.73389"></scales>
<clustering>
<clus scale="   79.852">  5  6 -1 -1</clus>
<clus scale="   86.734">  1  9  2 -1</clus>
<clus scale="   84.590">  2  5  1 -1</clus>
<clus scale="   99.385">  7  8 -1 -1</clus>
<clus scale="   86.734">  1  5  2 -1</clus>
</clustering>
</event>
<event>
 9    2  0.1325014E-004  0.9789708E+02  0.7546771E-02  0.1288325E+00
          2   -1    0    0  502    0 -0.00000000000E+00  0.00000000000E+00  0.62470503848E+02  0.62470503848E+02  0.00000000000E+00 0. -1.
         21   -1    0    0  501  502  0.00000000000E+00 -0.00000000000E+00 -0.58730066248E+03  0.58730066248E+03  0.00000000000E+00 0.  1.
         23    2    1    2    0    0 -0.19529436078E+02 -0.27986189247E+02 -0.11637437220E+02  0.97247424187E+02  0.90316144204E+02 0.  0.
         24    2    1    2    0    0 -0.38667230730E+02  0.83517695684E+02 -0.30406911820E+03  0.32846285386E+03  0.83423363038E+02 0.  0.
        -13    1    4    4    0    0 -0.31286522115E+02  0.75679695668E+02 -0.12729644653E+03  0.15136263773E+03  0.00000000000E+00 0.  1.
         14    1    4    4    0    0 -0.73807086150E+01  0.78380000167E+01 -0.17677267167E+03  0.17710021613E+03  0.00000000000E+00 0. -1.
        -13    1    3    3    0    0  0.94257456261E+00 -0.58754019496E+02 -0.13322124931E+02  0.60252819572E+02  0.00000000000E+00 0. -1.
         13    1    3    3    0    0 -0.20472010640E+02  0.30767830249E+02  0.16846877115E+01  0.36994604614E+02  0.00000000000E+00 0.  1.
          1    1    1    2  501    0  0.58196666808E+02 -0.55531506437E+02 -0.20912360321E+03  0.22406088828E+03  0.00000000000E+00 0. -1.
<scales pt_clust_5="13000.00000" pt_clust_6="13000.00000" pt_clust_7="13000.00000" pt_clust_8="13000.00000" pt_clust_9="80.44004"></scales>
<clustering>
<clus scale="   80.440">  2  9  1 -1</clus>
<clus scale="   83.423">  5  6 -1 -1</clus>
<clus scale="   90.316">  7  8 -1 -1</clus>
<clus scale="   91.577">  2  5  1 -1</clus>
<clus scale="   80.440">  2  5  1 -1</clus>
</clustering>
</event>
<event>
 9    2  0.1325014E-004  0.9387739E+02  0.7546771E-02  0.1299973E+00
         21   -1    0    0  501  502  0.00000000000E+00  0.00000000000E+00  0.13580263495E+03  0.13580263495E+03  0.00000000000E+00 0. -1.
         -1   -1    0    0    0  501 -0.00000000000E+00 -0.00000000000E+00 -0.16593414039E+03  0.16593414039E+03  0.00000000000E+00 0.  1.
         24    2    1    2    0    0 -0.58820605460E+01  0.24097933846E+02 -0.11384362221E+03  0.14180757574E+03  0.80831362519E+02 0.  0.
         23    2    1    2    0    0 -0.30787418286E+01  0.47744726614E+01  0.90706898380E+02  0.12889955561E+03  0.91406125521E+02 0.  0.
        -13    1    3    3    0    0 -0.54560658308E+01 -0.29934988271E+02 -0.37921149741E+02  0.48619808462E+02  0.00000000000E+00 0.  1.
         14    1    3    3    0    0 -0.42599471520E+00  0.54032922117E+02 -0.75922472471E+02  0.93187767277E+02  0.00000000000E+00 0. -1.
        -11    1    4    4    0    0 -0.24592393822E+02  0.36999085195E+02  0.20981664560E+02  0.49131948739E+02  0.00000000000E+00 0.  1.
         11    1    4    4    0    0  0.21513651993E+02 -0.32224612534E+02  0.69725233820E+02  0.79767606873E+02  0.00000000000E+00 0. -1.
         -2    1    1    2    0  502  0.89608023747E+01 -0.28872406508E+02 -0.69947816055E+01  0.31029643995E+02  0.00000000000E+00 0.  1.
<scales pt_clust_5="13000.00000" pt_clust_6="13000.00000" pt_clust_7="13000.00000" pt_clust_8="13000.00000" pt_clust_9="30.23099"></scales>
<clustering>
<clus scale="   30.231">  1  9  2 -1</clus>
<clus scale="   80.831">  5  6 -1 -1</clus>
<clus scale="   83.616">  2  5  1 -1</clus>
<clus scale="   91.406">  7  8 -1 -1</clus>
<clus scale="   30.231">  1  5  2 -1</clus>
</clustering>
</event>
<event>
 9    2  0.1325014E-004  0.9793619E+02  0.7546771E-02  0.1288229E+00
          2   -1    0    0  502    0 -0.00000000000E+00  0.00000000000E+00  0.82515679430E+03  0.82515679430E+03  0.00000000000E+00 0. -1.
         21   -1    0    0  501  502  0.00000000000E+00 -0.00000000000E+00 -0.12736545919E+03  0.12736545919E+03  0.00000000000E+00 0. -1.
         24    2    1    2    0    0  0.14367646802E+02 -0.32950924653E+02  0.76192724312E+03  0.76743876079E+03  0.84480382633E+02 0.  0.
         23    2    1    2    0    0 -0.34209812526E+01  0.15227037685E+02 -0.10452075030E+03  0.13964230937E+03  0.91278812073E+02 0.  0.
        -11    1    3    3    0    0  0.36837337666E+02  0.69705145175E+01  0.18897649497E+03  0.19265952654E+03  0.00000000000E+00 0.  1.
         12    1    3    3    0    0 -0.22469690864E+02 -0.39921439170E+02  0.57295074815E+03  0.57477923424E+03  0.00000000000E+00 0. -1.
        -13    1    4    4    0    0  0.35144919626E+02  0.34598150662E+02 -0.52061771710E+02  0.71712101338E+02  0.00000000000E+00 0. -1.
         13    1    4    4    0    0 -0.38565900878E+02 -0.19371112977E+02 -0.52458978589E+02  0.67930208031E+02  0.00000000000E+00 0.  1.
          1    1    1    2  501    0 -0.10946665550E+02  0.17723886968E+02  0.40384842287E+02  0.45441183330E+02  0.00000000000E+00 0. -1.
<scales pt_clust_5="13000.00000" pt_clust_6="13000.00000" pt_clust_7="13000.00000" pt_clust_8="13000.00000" pt_clust_9="20.83185"></scales>
<clustering>
<clus scale="   20.832">  2  9  1 -1</clus>
<clus scale="   84.480">  5  6 -1 -1</clus>
<clus scale="   91.279">  7  8 -1 -1</clus>
<clus scale="   91.633">  1  5  2 -1</clus>
<clus scale="   20.832">  2  5  1 -1</clus>
</clustering>
</event>
<event>
 9    2  0.1325014E-004  0.9490290E+02  0.7546771E-02  0.1298905E+00
         21   -1    0    0  501  502  0.00000000000E+00  0.00000000000E+00  0.36330849343E+03  0.36330849343E+03  0.00000000000E+00 0.  1.
          4   -1    0    0  502    0 -0.00000000000E+00 -0.00000000000E+00 -0.60287997712E+02  0.60287997712E+02  0.00000000000E+00 0. -1.
         23    2    1    2    0    0  0.19868588594E+02 -0.97451854385E+01 -0.40916610425E+01  0.93928406079E+02  0.91192512448E+02 0.  0.
         24    2    1    2    0    0 -0.38293247455E+02  0.23431547649E+02  0.19001785150E+03  0.21034557717E+03  0.78250033364E+02 0.  0.
        -13    1    4    4    0    0 -0.54225857040E+02  0.14120966527E+02  0.18162637215E+03  0.19007362870E+03  0.00000000000E+00 0.  1.
         14    1    4    4    0    0  0.15932609585E+02  0.93105811213E+01  0.83914793448E+01  0.20271948466E+02  0.00000000000E+00 0. -1.
        -11    1    3    3    0    0 -0.23706041650E+02  0.14830169990E+02  0.23739724351E+02  0.36680851474E+02  0.00000000000E+00 0.  1.
         11    1    3    3    0    0  0.43574630244E+02 -0.24575355428E+02 -0.27831385393E+02  0.57247554605E+02  0.00000000000E+00 0. -1.
          3    1    1    2  501    0  0.18424658861E+02 -0.13686362210E+02  0.11709430526E+03  0.11932250789E+03  0.00000000000E+00 0. -1.
<scales pt_clust_5="13000.00000" pt_clust_6="13000.00000" pt_clust_7="13000.00000" pt_clust_8="13000.00000" pt_clust_9="22.95179"></scales>
<clustering>
<clus scale="   22.952">  1  9  2 -1</clus>
<clus scale="   78.250">  5  6 -1 -1</clus>
<clus scale="   82.544">  1  5  2 -1</clus>
<clus scale="   91.193">  7  8 -1 -1</clus>
<clus scale="   22.952">  1  5  2 -1</clus>
</clustering>
</event>
<event>
 9    2  0.1325014E-004  0.1123922E+03  0.7546771E-02  0.1257190E+00
         21   -1    0    0  501  502  0.00000000000E+00  0.00000000000E+00  0.13087424469E+03  0.13087424469E+03  0.00000000000E+00 0.  1.
          2   -1    0    0  502    0 -0.00000000000E+00 -0.00000000000E+00 -0.24314001201E+03  0.24314001201E+03  0.00000000000E+00 0. -1.
         23    2    1    2    0    0  0.81148643109E+02 -0.42603037959E+02 -0.45567744879E+02  0.13721639946E+03  0.91388181868E+02 0.  0.
         24    2    1    2    0    0 -0.20416596861E+02  0.90666986383E+01  0.47580716177E+02  0.10310904845E+03  0.88704615821E+02 0.  0.
        -11    1    4    4    0    0 -0.41017706652E+01  0.48329837869E+02  0.20226635453E+02  0.52552017399E+02  0.00000000000E+00 0.  1.
         12    1    4    4    0    0 -0.16314826195E+02 -0.39263139230E+02  0.27354080724E+02  0.50557031047E+02  0.00000000000E+00 0. -1.
        -13    1    3    3    0    0  0.25731660402E+02  0.18694485900E+02  0.14601464138E+02  0.34997212818E+02  0.00000000000E+00 0. -1.
         13    1    3    3    0    0  0.55416982707E+02 -0.61297523859E+02 -0.60169209017E+02  0.10221918664E+03  0.00000000000E+00 0.  1.
          1    1    1    2  501    0 -0.60732046248E+02  0.33536339321E+02 -0.11427873862E+03  0.13368880880E+03  0.00000000000E+00 0. -1.
<scales pt_clust_5="13000.00000" pt_clust_6="13000.00000" pt_clust_7="13000.00000" pt_clust_8="13000.00000" pt_clust_9="69.37631"></scales>
<clustering>
<clus scale="   69.376">  1  9  2 -1</clus>
<clus scale="   88.705">  5  6 -1 -1</clus>
<clus scale="   91.388">  7  8 -1 -1</clus>
<clus scale="  110.221">  1  5  2 -1</clus>
<clus scale="   69.376">  1  5  2 -1</clus>
</clustering>
</event>
<event>
 9    2  0.1325014E-004  0.1111205E+03  0.7546771E-02  0.1262941E+00
         -1   -1    0    0    0  501 -0.00000000000E+00  0.00000000000E+00  0.29335726083E+03  0.29335726083E+03  0.00000000000E+00 0.  1.
         21   -1    0    0  501  502  0.00000000000E+00 -0.00000000000E+00 -0.81601370049E+02  0.81601370049E+02  0.00000000000E+00 0. -1.
         24    2    1    2    0    0  0.14692048815E+00  0.65177221406E+02  0.16044244327E+03  0.19071359089E+03  0.79886196376E+02 0.  0.
         23    2    1    2    0    0 -0.37406079280E+02 -0.55469405074E+02  0.77884823496E+02  0.13746337015E+03  0.91400562007E+02 0.  0.
        -13    1    3    3    0    0  0.16879341537E+02  0.29390459106E+02  0.10244380749E+02  0.35407041590E+02  0.00000000000E+00 0.  1.
         14    1    3    3    0    0 -0.16732421049E+02  0.35786762300E+02  0.15019806252E+03  0.15530654930E+03  0.00000000000E+00 0. -1.
        -13    1    4    4    0    0 -0.44442119446E+02 -0.34883604409E+02  0.94491985263E+02  0.11009406486E+03  0.00000000000E+00 0.  1.
         13    1    4    4    0    0  0.70360401662E+01 -0.20585800665E+02 -0.16607161767E+02  0.27369305293E+02  0.00000000000E+00 0. -1.
         -2    1    1    2    0  502  0.37259158792E+02 -0.97078163322E+01 -0.26571375983E+02  0.46781669844E+02  0.00000000000E+00 0.  1.
<scales pt_clust_5="13000.00000" pt_clust_6="13000.00000" pt_clust_7="13000.00000" pt_clust_8="13000.00000" pt_clust_9="38.50307"></scales>
<clustering>
<clus scale="   38.503">  2  9  1 -1</clus>
<clus scale="   79.886">  5  6 -1 -1</clus>
<clus scale="   91.401">  7  8 -1 -1</clus>
<clus scale="  101.860">  1  5  2 -1</clus>
<clus scale="   38.503">  2  5  1 -1</clus>
</clustering>
</event>
<event>
 9    2  0.1325014E-004  0.1036675E+03  0.7546771E-02  0.1279941E+00
          2   -1    0    0  502    0 -0.00000000000E+00  0.00000000000E+00  0.25819645888E+03  0.25819645888E+03  0.00000000000E+00 0. -1.
         21   -1    0    0  501  502  0.00000000000E+00 -0.00000000000E+00 -0.71510124616E+02  0.71510124616E+02  0.00000000000E+00 0. -1.
         23    2    1    2    0    0 -0.46017408931E+02 -0.31726543095E+02  0.12801850897E+03  0.16850116454E+03  0.94232310541E+02 0.  0.
         24    2    1    2    0    0  0.27781211658E+02 -0.15533393155E+02  0.24689769147E+01  0.85545845709E+02  0.79365696916E+02 0.  0.
        -11    1    4    4    0    0 -0.18263192039E+02  0.16534722770E+02  0.13893203777E+02  0.28283605706E+02  0.00000000000E+00 0.  1.
         12    1    4    4    0    0  0.46044403697E+02 -0.32068115925E+02 -0.11424226862E+02  0.57262240003E+02  0.00000000000E+00 0. -1.
        -11    1    3    3    0    0  0.48829449557E+01 -0.23455130687E+02  0.11195407090E+03  0.11448886539E+03  0.00000000000E+00 0. -1.
         11    1    3    3    0    0 -0.50900353887E+02 -0.82714124081E+01  0.16064438075E+02  0.54012299152E+02  0.00000000000E+00 0.  1.
          1    1    1    2  501    0  0.18236197273E+02  0.47259936249E+02  0.56198848376E+02  0.75659573248E+02  0.00000000000E+00 0. -1.
<scales pt_clust_5="13000.00000" pt_clust_6="13000.00000" pt_clust_7="13000.00000" pt_clust_8="13000.00000" pt_clust_9="50.65632"></scales>
<clustering>
<clus scale="   50.656">  2  9  1 -1</clus>
<clus scale="   79.366">  5  6 -1 -1</clus>
<clus scale="   90.367">  2  5  1 -1</clus>
<clus scale="   94.232">  7  8 -1 -1</clus>
<clus scale="   50.656">  2  5  1 -1</clus>
</clustering>
</event>
<event>
 9    2  0.1325014E-004  0.9202431E+02  0.7546771E-02  0.1299676E+00
          2   -1    0    0  502    0 -0.00000000000E+00  0.00000000000E+00  0.11974381129E+03  0.11974381129E+03  0.00000000000E+00 0. -1.
         21   -1    0    0  501  502  0.00000000000E+00 -0.00000000000E+00 -0.46432114237E+03  0.46432114237E+03  0.00000000000E+00 0.  1.
         23    2    1    2    0    0 -0.14108782388E+02 -0.11204607395E+01  0.91564965032E+02  0.12964747781E+03  0.90686341361E+02 0.  0.
         24    2    1    2    0    0  0.36237453837E+02  0.70429973474E+01 -0.26247313820E+03  0.27924404479E+03  0.87876796721E+02 0.  0.
        -13    1    4    4    0    0  0.31911784933E+02 -0.34880097869E+02 -0.18613085690E+03  0.19204082674E+03  0.00000000000E+00 0.  1.
         14    1    4    4    0    0  0.43256689040E+01  0.41923095217E+02 -0.76342281298E+02  0.87203218047E+02  0.00000000000E+00 0. -1.
        -13    1    3    3    0    0  0.37619152816E+02 -0.40965524708E+01  0.52694398388E+02  0.64874355659E+02  0.00000000000E+00 0.  1.
         13    1    3    3    0    0 -0.51727935203E+02  0.29760917314E+01  0.38870566643E+02  0.64773122154E+02  0.00000000000E+00 0. -1.
          1    1    1    2  501    0 -0.22128671449E+02 -0.59225366079E+01 -0.17366915790E+03  0.17517343105E+03  0.00000000000E+00 0. -1.
<scales pt_clust_5="13000.00000" pt_clust_6="13000.00000" pt_clust_7="13000.00000" pt_clust_8="13000.00000" pt_clust_9="22.90752"></scales>
<clustering>
<clus scale="   22.908">  2  9  1 -1</clus>
<clus scale="   87.877">  5  6 -1 -1</clus>
<clus scale="   89.257">  2  5  1 -1</clus>
<clus scale="   90.686">  7  8 -1 -1</clus>
<clus scale="   22.908">  2  5  1 -1</clus>
</clustering>
</event>
<event>
 9    2  0.1325014E-004  0.2853960E+03  0.7546771E-02  0.1120241E+00
         21   -1    0    0  501  502  0.00000000000E+00  0.00000000000E+00  0.28909320328E+03  0.28909320328E+03  0.00000000000E+00 0.  1.
          2   -1    0    0  502    0 -0.00000000000E+00 -0.00000000000E+00 -0.46968213371E+03  0.46968213371E+03  0.00000000000E+00 0. -1.
         24    2    1    2    0    0  0.99305276569E+02 -0.59218092513E+02  0.38428578066E+02  0.14627196806E+03  0.80934619241E+02 0.  0.
         23    2    1    2    0    0 -0.31411353120E+03  0.11851860112E+03 -0.11028794383E+03  0.36454923041E+03  0.89547426242E+02 0.  0.
        -11    1    3    3    0    0  0.67440551834E+02 -0.61882743443E+02  0.58397961855E+02  0.10857266653E+03  0.00000000000E+00 0.  1.
         12    1    3    3    0    0  0.31864724735E+02  0.26646509299E+01 -0.19969383789E+02  0.37699301531E+02  0.00000000000E+00 0. -1.
        -13    1    4    4    0    0 -0.24936365999E+03  0.69647098535E+02 -0.50529600147E+02  0.26379195164E+03  0.00000000000E+00 0. -1.
         13    1    4    4    0    0 -0.64749871205E+02  0.48871502581E+02 -0.59758343679E+02  0.10075727877E+03  0.00000000000E+00 0.  1.
          1    1    1    2  501    0  0.21480825463E+03 -0.59300508603E+02 -0.10872956467E+03  0.24795413853E+03  0.00000000000E+00 0. -1.
<scales pt_clust_5="13000.00000" pt_clust_6="13000.00000" pt_clust_7="13000.00000" pt_clust_8="13000.00000" pt_clust_9="270.98361"></scales>
<clustering>
<clus scale="   80.935">  5  6 -1 -1</clus>
<clus scale="   89.547">  7  8 -1 -1</clus>
<clus scale="  141.134">  2  5  1 -1</clus>
<clus scale="  270.984">  1  9  2 -1</clus>
<clus scale="  270.984">  1  5  2 -1</clus>
</clustering>
</event>
<event>
 9    2  0.1325014E-004  0.1552069E+03  0.7546771E-02  0.1195711E+00
         21   -1    0    0  501  502  0.00000000000E+00  0.00000000000E+00  0.65373960764E+03  0.65373960764E+03  0.00000000000E+00 0.  1.
         -1   -1    0    0    0  501 -0.00000000000E+00 -0.00000000000E+00 -0.91331103705E+02  0.91331103705E+02  0.00000000000E+00 0.  1.
         23    2    1    2    0    0 -0.94170105478E+02  0.75935751584E+02  0.90753166189E+01  0.15141345300E+03  0.90605878632E+02 0.  0.
         24    2    1    2    0    0  0.12253581458E+03 -0.87644709168E+02  0.37000780718E+03  0.40778120249E+03  0.81750295589E+02 0.  0.
        -11    1    4    4    0    0  0.40965611549E+02 -0.17876851439E+02  0.37390324264E+02  0.58273488788E+02  0.00000000000E+00 0.  1.
         12    1    4    4    0    0  0.81570203027E+02 -0.69767857729E+02  0.33261748292E+03  0.34950771370E+03  0.00000000000E+00 0. -1.
        -11    1    3    3    0    0 -0.61040247827E+02  0.62361960722E+02 -0.35527605779E+02  0.94218558534E+02  0.00000000000E+00 0.  1.
         11    1    3    3    0    0 -0.33129857651E+02  0.13573790862E+02  0.44602922398E+02  0.57194894464E+02  0.00000000000E+00 0. -1.
         -2    1    1    2    0  502 -0.28365709097E+02  0.11708957583E+02  0.18332538013E+03  0.18587605586E+03  0.00000000000E+00 0.  1.
<scales pt_clust_5="13000.00000" pt_clust_6="13000.00000" pt_clust_7="13000.00000" pt_clust_8="13000.00000" pt_clust_9="30.68734"></scales>
<clustering>
<clus scale="   30.687">  1  9  2 -1</clus>
<clus scale="   81.750">  5  6 -1 -1</clus>
<clus scale="   90.606">  7  8 -1 -1</clus>
<clus scale="  150.209">  1  5  2 -1</clus>
<clus scale="   30.687">  1  5  2 -1</clus>
</clustering>
</event>
<event>
 9    2  0.1325014E-004  0.1061214E+03  0.7546771E-02  0.1271478E+00
         21   -1    0    0  501  502  0.00000000000E+00  0.00000000000E+00  0.44715261868E+02  0.44715261868E+02  0.00000000000E+00 0. -1.
          2   -1    0    0  502    0 -0.00000000000E+00 -0.00000000000E+00 -0.62801086295E+03  0.62801086295E+03  0.00000000000E+00 0. -1.
         24    2    1    2    0    0  0.49105363494E+02  0.23323831352E+01 -0.36000997778E+03  0.37250007550E+03  0.82050870875E+02 0.  0.
         23    2    1    2    0    0 -0.84762667389E+02  0.47632379995E+02 -0.11458178768E+03  0.17538837570E+03  0.90435296517E+02 0.  0.
        -11    1    3    3    0    0  0.52554711005E+02  0.28452336492E+02 -0.16063400144E+03  0.17139082682E+03  0.00000000000E+00 0.  1.
         12    1    3    3    0    0 -0.34493475107E+01 -0.26119953357E+02 -0.19937597634E+03  0.20110924868E+03  0.00000000000E+00 0. -1.
        -13    1    4    4    0    0 -0.25744017578E+02  0.47232376597E+01 -0.96811521534E+02  0.10028725800E+03  0.00000000000E+00 0.  1.
         13    1    4    4    0    0 -0.59018649811E+02  0.42909142335E+02 -0.17770266149E+02  0.75101117704E+02  0.00000000000E+00 0. -1.
          1    1    1    2  501    0  0.35657303895E+02 -0.49964763130E+02 -0.10870383562E+03  0.12483767362E+03  0.00000000000E+00 0. -1.
<scales pt_clust_5="13000.00000" pt_clust_6="13000.00000" pt_clust_7="13000.00000" pt_clust_8="13000.00000" pt_clust_9="61.38342"></scales>
<clustering>
<clus scale="   61.383">  1  9  2 -1</clus>
<clus scale="   82.051">  5  6 -1 -1</clus>
<clus scale="   90.435">  7  8 -1 -1</clus>
<clus scale="   99.074">  2  5  1 -1</clus>
<clus scale="   61.383">  1  5  2 -1</clus>
</clustering>
</event>
<event>
 9    2  0.1325014E-004  0.7601596E+02  0.7546771E-02  0.1358501E+00
         21   -1    0    0  501  502  0.00000000000E+00  0.00000000000E+00  0.47579544630E+02  0.47579544630E+02  0.00000000000E+00 0. -1.
          2   -1    0    0  502    0 -0.00000000000E+00 -0.00000000000E+00 -0.33298790105E+03  0.33298790105E+03  0.00000000000E+00 0. -1.
         23    2    1    2    0    0  0.46476521358E+01  0.65205811101E+01 -0.11756265454E+03  0.14010580777E+03  0.75792750186E+02 0.  0.
         24    2    1    2    0    0  0.21896928658E+02 -0.24824445616E+01  0.97741114905E+01  0.60823892936E+02  0.55842409339E+02 0.  0.
        -13    1    4    4    0    0  0.27522420256E+02 -0.17433935618E+02 -0.11207228058E+02  0.34453268185E+02  0.00000000000E+00 0.  1.
         14    1    4    4    0    0 -0.56254915974E+01  0.14951491057E+02  0.20981339549E+02  0.26370624751E+02  0.00000000000E+00 0. -1.
        -11    1    3    3    0    0  0.27517320386E+02 -0.23584516453E+02 -0.41027150164E+02  0.54741751781E+02  0.00000000000E+00 0.  1.
         11    1    3    3    0    0 -0.22869668250E+02  0.30105097563E+02 -0.76535504379E+02  0.85364055993E+02  0.00000000000E+00 0. -1.
          1    1    1    2  501    0 -0.26544580794E+02 -0.40381365485E+01 -0.17761981337E+03  0.17963774497E+03  0.00000000000E+00 0. -1.
<scales pt_clust_5="13000.00000" pt_clust_6="13000.00000" pt_clust_7="13000.00000" pt_clust_8="13000.00000" pt_clust_9="26.84999"></scales>
<clustering>
<clus scale="   26.850">  1  9  2 -1</clus>
<clus scale="   55.842">  5  6 -1 -1</clus>
<clus scale="   56.145">  1  5  2 -1</clus>
<clus scale="   75.793">  7  8 -1 -1</clus>
<clus scale="   26.850">  1  5  2 -1</clus>
</clustering>
</event>
<event>
 9    2  0.1325014E-004  0.1782236E+03  0.7546771E-02  0.1170898E+00
         21   -1    0    0  501  502  0.00000000000E+00  0.00000000000E+00  0.85255908236E+02  0.85255908236E+02  0.00000000000E+00 0.  1.
         -1   -1    0    0    0  501 -0.00000000000E+00 -0.00000000000E+00 -0.69534384577E+03  0.69534384577E+03  0.00000000000E+00 0.  1.
         23    2    1    2    0    0 -0.24233758423E+02  0.14561747427E+03 -0.44208103983E+03  0.47491521145E+03  0.91198072521E+02 0.  0.
         24    2    1    2    0    0 -0.24447608544E+02 -0.17197589977E+03 -0.16081617549E+03  0.24986027749E+03  0.79968245584E+02 0.  0.
        -13    1    4    4    0    0 -0.60629889279E+01 -0.70952496861E+02 -0.11964050738E+03  0.13922955021E+03  0.00000000000E+00 0.  1.
         14    1    4    4    0    0 -0.18384619616E+02 -0.10102340290E+03 -0.41175668109E+02  0.11063072727E+03  0.00000000000E+00 0. -1.
        -11    1    3    3    0    0  0.20899747841E+02  0.15643426464E+01 -0.78293903856E+02  0.81050490491E+02  0.00000000000E+00 0. -1.
         11    1    3    3    0    0 -0.45133506264E+02  0.14405313162E+03 -0.36378713597E+03  0.39386472096E+03  0.00000000000E+00 0.  1.
         -2    1    1    2    0  502  0.48681366967E+02  0.26358425496E+02 -0.71907222137E+01  0.55824265068E+02  0.00000000000E+00 0.  1.
<scales pt_clust_5="13000.00000" pt_clust_6="13000.00000" pt_clust_7="13000.00000" pt_clust_8="13000.00000" pt_clust_9="55.35921"></scales>
<clustering>
<clus scale="   55.359">  1  9  2 -1</clus>
<clus scale="   79.968">  5  6 -1 -1</clus>
<clus scale="   91.198">  7  8 -1 -1</clus>
<clus scale="  172.747">  1  5  2 -1</clus>
<clus scale="   55.359">  1  5  2 -1</clus>
</clustering>
</event>
<event>
 9    2  0.1325014E-004  0.2485780E+03  0.7546771E-02  0.1127003E+00
         21   -1    0    0  501  502  0.00000000000E+00  0.00000000000E+00  0.14387854368E+03  0.14387854368E+03  0.00000000000E+00 0. -1.
          2   -1    0    0  502    0 -0.00000000000E+00 -0.00000000000E+00 -0.97643374049E+03  0.97643374049E+03  0.00000000000E+00 0. -1.
         23    2    1    2    0    0  0.11468843294E+03  0.10490757687E+03 -0.61907862775E+02  0.19087907749E+03  0.91886900135E+02 0.  0.
         24    2    1    2    0    0 -0.30201311558E+03 -0.19248451306E+02 -0.48297245090E+03  0.57561847987E+03  0.80571838636E+02 0.  0.
        -11    1    4    4    0    0 -0.16191702568E+03 -0.14696121286E+02 -0.18477404222E+03  0.24611896689E+03  0.00000000000E+00 0.  1.
         12    1    4    4    0    0 -0.14009608989E+03 -0.45523300204E+01 -0.29819840867E+03  0.32949951297E+03  0.00000000000E+00 0. -1.
        -11    1    3    3    0    0  0.77713295826E+02  0.54435736133E+02 -0.81749127333E+02  0.12524186814E+03  0.00000000000E+00 0.  1.
         11    1    3    3    0    0  0.36975137111E+02  0.50471840736E+02  0.19841264558E+02  0.65637209348E+02  0.00000000000E+00 0. -1.
          1    1    1    2  501    0  0.18732468264E+03 -0.85659125563E+02 -0.28767488314E+03  0.35381472681E+03  0.00000000000E+00 0. -1.
<scales pt_clust_5="13000.00000" pt_clust_6="13000.00000" pt_clust_7="13000.00000" pt_clust_8="13000.00000" pt_clust_9="235.15780"></scales>
<clustering>
<clus scale="   80.572">  5  6 -1 -1</clus>
<clus scale="   91.887">  7  8 -1 -1</clus>
<clus scale="  180.561">  2  7  1 -1</clus>
<clus scale="  235.158">  1  9  2 -1</clus>
<clus scale="  235.158">  1  5  2 -1</clus>
</clustering>
</event>
<event>
 9    2  0.1325014E-004  0.1260801E+03  0.7546771E-02  0.1254683E+00
         21   -1    0    0  501  502  0.00000000000E+00  0.00000000000E+00  0.56314858136E+03  0.56314858136E+03  0.00000000000E+00 0. -1.
          4   -1    0    0  502    0 -0.00000000000E+00 -0.00000000000E+00 -0.56996819167E+03  0.56996819167E+03  0.00000000000E+00 0. -1.
         24    2    1    2    0    0 -0.62253472159E+01  0.14914174250E+02 -0.21308495650E+03  0.22833583669E+03  0.80441706143E+02 0.  0.
         23    2    1    2    0    0 -0.59521217148E+02 -0.66608387637E+02 -0.33384843183E+03  0.35823011928E+03  0.94311135760E+02 0.  0.
        -13    1    3    3    0    0  0.81074607913E+01  0.39509154549E+02 -0.57907664745E+02  0.70569128164E+02  0.00000000000E+00 0.  1.
         14    1    3    3    0    0 -0.14332808007E+02 -0.24594980300E+02 -0.15517729176E+03  0.15776670852E+03  0.00000000000E+00 0. -1.
        -13    1    4    4    0    0 -0.25405580313E+02  0.22587331675E+02 -0.75643440013E+02  0.82931062216E+02  0.00000000000E+00 0. -1.
         13    1    4    4    0    0 -0.34115636835E+02 -0.89195719312E+02 -0.25820499182E+03  0.27529905706E+03  0.00000000000E+00 0.  1.
          3    1    1    2  501    0  0.65746564364E+02  0.51694213387E+02  0.54011377803E+03  0.54655081707E+03  0.00000000000E+00 0. -1.
<scales pt_clust_5="13000.00000" pt_clust_6="13000.00000" pt_clust_7="13000.00000" pt_clust_8="13000.00000" pt_clust_9="83.67551"></scales>
<clustering>
<clus scale="   80.442">  5  6 -1 -1</clus>
<clus scale="   82.049">  2  5  1 -1</clus>
<clus scale="   83.676">  1  9  2 -1</clus>
<clus scale="   94.311">  7  8 -1 -1</clus>
<clus scale="   83.676">  1  5  2 -1</clus>
</clustering>
</event>
<event>
 9    2  0.1325014E-004  0.9489629E+02  0.7546771E-02  0.1298381E+00
          2   -1    0    0  502    0 -0.00000000000E+00  0.00000000000E+00  0.10179652781E+03  0.10179652781E+03  0.00000000000E+00 0. -1.
         21   -1    0    0  501  502  0.00000000000E+00 -0.00000000000E+00 -0.13241524569E+03  0.13241524569E+03  0.00000000000E+00 0. -1.
         23    2    1    2    0    0 -0.20580489629E+02  0.15092699976E+02  0.11733762060E+02  0.95644269848E+02  0.91426467922E+02 0.  0.
         24    2    1    2    0    0  0.32574476956E+02  0.25531136206E+02 -0.30462431573E+02  0.94572901155E+02  0.79392307125E+02 0.  0.
        -13    1    4    4    0    0 -0.12174160032E+02 -0.19508142889E+02  0.23326158486E+01  0.23113176072E+02  0.00000000000E+00 0.  1.
         14    1    4    4    0    0  0.44748636987E+02  0.45039279095E+02 -0.32795047421E+02  0.71459725083E+02  0.00000000000E+00 0. -1.
        -11    1    3    3    0    0  0.27105008977E+02 -0.17436668256E+02 -0.10334595716E+02  0.33845572534E+02  0.00000000000E+00 0. -1.
         11    1    3    3    0    0 -0.47685498606E+02  0.32529368232E+02  0.22068357777E+02  0.61798697315E+02  0.00000000000E+00 0.  1.
          1    1    1    2  501    0 -0.11993987327E+02 -0.40623836182E+02 -0.11890048373E+02  0.43994602492E+02  0.00000000000E+00 0. -1.
<scales pt_clust_5="13000.00000" pt_clust_6="13000.00000" pt_clust_7="13000.00000" pt_clust_8="13000.00000" pt_clust_9="42.35743"></scales>
<clustering>
<clus scale="   42.357">  2  9  1 -1</clus>
<clus scale="   79.392">  5  6 -1 -1</clus>
<clus scale="   83.365">  2  5  1 -1</clus>
<clus scale="   91.426">  7  8 -1 -1</clus>
<clus scale="   42.357">  2  5  1 -1</clus>
</clustering>
</event>
<event>
 9    2  0.1325014E-004  0.9697154E+02  0.7546771E-02  0.1290424E+00
         21   -1    0    0  501  502  0.00000000000E+00  0.00000000000E+00  0.25855761409E+03  0.25855761409E+03  0.00000000000E+00 0.  1.
          2   -1    0    0  502    0 -0.00000000000E+00 -0.00000000000E+00 -0.95561817333E+02  0.95561817333E+02  0.00000000000E+00 0. -1.
         24    2    1    2    0    0 -0.37796408671E+02  0.19017977150E+02 -0.34513113326E+02  0.10175567922E+03  0.85865076134E+02 0.  0.
         23    2    1    2    0    0 -0.14639369681E+02  0.10578601564E+02  0.97700379885E+02  0.13579955948E+03  0.92573960542E+02 0.  0.
        -11    1    3    3    0    0 -0.38190635625E+02  0.17227729631E+02  0.20547961266E+02  0.46664097868E+02  0.00000000000E+00 0.  1.
         12    1    3    3    0    0  0.39422695323E+00  0.17902475196E+01 -0.55061074592E+02  0.55091581356E+02  0.00000000000E+00 0. -1.
        -11    1    4    4    0    0  0.34650333807E+02  0.11927874332E+02  0.70576767548E+02  0.79523581009E+02  0.00000000000E+00 0.  1.
         11    1    4    4    0    0 -0.49289703489E+02 -0.13492727680E+01  0.27123612337E+02  0.56275978474E+02  0.00000000000E+00 0. -1.
          1    1    1    2  501    0  0.52435778353E+02 -0.29596578715E+02  0.99808530196E+02  0.11656419271E+03  0.00000000000E+00 0. -1.
<scales pt_clust_5="13000.00000" pt_clust_6="13000.00000" pt_clust_7="13000.00000" pt_clust_8="13000.00000" pt_clust_9="60.21186"></scales>
<clustering>
<clus scale="   60.212">  1  9  2 -1</clus>
<clus scale="   85.865">  5  6 -1 -1</clus>
<clus scale="   90.589">  2  5  1 -1</clus>
<clus scale="   92.574">  7  8 -1 -1</clus>
<clus scale="   60.212">  1  5  2 -1</clus>
</clustering>
</event>
<event>
 9    2  0.1325014E-004  0.1088699E+03  0.7546771E-02  0.1268518E+00
         -1   -1    0    0    0  501 -0.00000000000E+00  0.00000000000E+00  0.58336683861E+03  0.58336683861E+03  0.00000000000E+00 0.  1.
         21   -1    0    0  501  502  0.00000000000E+00 -0.00000000000E+00 -0.90251759854E+02  0.90251759854E+02  0.00000000000E+00 0.  1.
         24    2    1    2    0    0  0.31748721419E+02 -0.52117655460E+02  0.41485769873E+03  0.42628317241E+03  0.76721584677E+02 0.  0.
         23    2    1    2    0    0  0.52748235407E+02  0.81188490263E+02  0.84893975121E+02  0.15773133272E+03  0.91094670642E+02 0.  0.
        -11    1    3    3    0    0 -0.24634049253E+02 -0.16598878396E+02  0.94121569803E+02  0.98697664860E+02  0.00000000000E+00 0.  1.
         12    1    3    3    0    0  0.56382770672E+02 -0.35518777065E+02  0.32073612893E+03  0.32758550755E+03  0.00000000000E+00 0. -1.
        -11    1    4    4    0    0  0.76252972886E+02  0.73285159048E+02  0.79615927735E+02  0.13237796780E+03  0.00000000000E+00 0.  1.
         11    1    4    4    0    0 -0.23504737479E+02  0.79033312144E+01  0.52780473860E+01  0.25353364914E+02  0.00000000000E+00 0. -1.
         -2    1    1    2    0  502 -0.84496956827E+02 -0.29070834803E+02 -0.66365950968E+01  0.89604093342E+02  0.00000000000E+00 0.  1.
<scales pt_clust_5="13000.00000" pt_clust_6="13000.00000" pt_clust_7="13000.00000" pt_clust_8="13000.00000" pt_clust_9="89.35798"></scales>
<clustering>
<clus scale="   76.722">  5  6 -1 -1</clus>
<clus scale="   89.358">  2  9  1 -1</clus>
<clus scale="   91.095">  7  8 -1 -1</clus>
<clus scale="   97.163">  1  5  2 -1</clus>
<clus scale="   89.358">  2  5  1 -1</clus>
</clustering>
</event>
<event>
 9    2  0.1325014E-004  0.1207332E+03  0.7546771E-02  0.1253919E+00
         21   -1    0    0  501  502  0.00000000000E+00  0.00000000000E+00  0.60007061428E+02  0.60007061428E+02  0.00000000000E+00 0.  1.
         -1   -1    0    0    0  501 -0.00000000000E+00 -0.00000000000E+00 -0.77375338267E+03  0.77375338267E+03  0.00000000000E+00 0.  1.
         24    2    1    2    0    0  0.10097518086E+02 -0.10979966294E+02 -0.60004474525E+03  0.60758640428E+03  0.94260399070E+02 0.  0.
         23    2    1    2    0    0 -0.32963878037E+00 -0.52340543292E+02 -0.70515663190E+02  0.14890877295E+03  0.12025690322E+03 0.  0.
        -11    1    3    3    0    0 -0.13555043349E+02 -0.46752052290E+02 -0.23200277197E+03  0.23705438151E+03  0.00000000000E+00 0.  1.
         12    1    3    3    0    0  0.23652561435E+02  0.35772085996E+02 -0.36804197328E+03  0.37053202276E+03  0.00000000000E+00 0. -1.
        -13    1    4    4    0    0  0.23118547404E+02  0.33607353506E+02 -0.12776224910E+02  0.42745214547E+02  0.00000000000E+00 0. -1.
         13    1    4    4    0    0 -0.23448186184E+02 -0.85947896798E+02 -0.57739438280E+02  0.10616355840E+03  0.00000000000E+00 0.  1.
         -2    1    1    2    0  502 -0.97678793056E+01  0.63320509586E+02 -0.43185912808E+02  0.77265266876E+02  0.00000000000E+00 0.  1.
<scales pt_clust_5="13000.00000" pt_clust_6="13000.00000" pt_clust_7="13000.00000" pt_clust_8="13000.00000" pt_clust_9="64.06948"></scales>
<clustering>
<clus scale="   64.069">  1  9  2 -1</clus>
<clus scale="   94.260">  5  6 -1 -1</clus>
<clus scale="   94.867">  2  5  1 -1</clus>
<clus scale="  120.257">  7  8 -1 -1</clus>
<clus scale="   64.069">  1  5  2 -1</clus>
</clustering>
</event>
<event>
 9    2  0.1325014E-004  0.1355881E+03  0.7546771E-02  0.1222181E+00
          4   -1    0    0  502    0 -0.00000000000E+00  0.00000000000E+00  0.67413518165E+02  0.67413518165E+02  0.00000000000E+00 0. -1.
         21   -1    0    0  501  502  0.00000000000E+00 -0.00000000000E+00 -0.82073216173E+03  0.82073216173E+03  0.00000000000E+00 0.  1.
         23    2    1    2    0    0 -0.54317361076E+02 -0.40744943126E+02 -0.12499741809E+03  0.16888249100E+03  0.91029748615E+02 0.  0.
         24    2    1    2    0    0  0.15207188390E+03  0.22196614733E+01 -0.14462433927E+03  0.22428559165E+03  0.79101468637E+02 0.  0.
        -11    1    4    4    0    0  0.10507471907E+03 -0.34914673055E+02 -0.83266011183E+02  0.13853865742E+03  0.00000000000E+00 0.  1.
         12    1    4    4    0    0  0.46997164829E+02  0.37134334529E+02 -0.61358328091E+02  0.85746934225E+02  0.00000000000E+00 0. -1.
        -13    1    3    3    0    0 -0.36088051821E+02 -0.49998844209E+02 -0.24540004313E+02  0.66365983141E+02  0.00000000000E+00 0. -1.
         13    1    3    3    0    0 -0.18229309255E+02  0.92539010832E+01 -0.10045741378E+03  0.10251650786E+03  0.00000000000E+00 0.  1.
          3    1    1    2  501    0 -0.97754522819E+02  0.38525281653E+02 -0.48369688620E+03  0.49497759725E+03  0.00000000000E+00 0. -1.
<scales pt_clust_5="13000.00000" pt_clust_6="13000.00000" pt_clust_7="13000.00000" pt_clust_8="13000.00000" pt_clust_9="105.07209"></scales>
<clustering>
<clus scale="   79.101">  5  6 -1 -1</clus>
<clus scale="   91.030">  7  8 -1 -1</clus>
<clus scale="  105.072">  2  9  1 -1</clus>
<clus scale="  127.886">  2  5  1 -1</clus>
<clus scale="  105.072">  2  5  1 -1</clus>
</clustering>
</event>
<event>
 9    2  0.1325014E-004  0.9121794E+02  0.7546771E-02  0.1305375E+00
         21   -1    0    0  501  502  0.00000000000E+00  0.00000000000E+00  0.46978862721E+03  0.46978862721E+03  0.00000000000E+00 0. -1.
          2   -1    0    0  502    0 -0.00000000000E+00 -0.00000000000E+00 -0.51315628382E+02  0.51315628382E+02  0.00000000000E+00 0. -1.
         24    2    1    2    0    0  0.23169860397E+02  0.22067930860E+01  0.38269355025E+02  0.92679541152E+02  0.81137176729E+02 0.  0.
         23    2    1    2    0    0  0.45667233761E+02 -0.50674927927E+02  0.23090686357E+03  0.25702683168E+03  0.89952031657E+02 0.  0.
        -13    1    3    3    0    0 -0.78234059751E+01  0.22211186407E+02 -0.14973749642E+02  0.27906193954E+02  0.00000000000E+00 0.  1.
         14    1    3    3    0    0  0.30993266373E+02 -0.20004393321E+02  0.53243104668E+02  0.64773347198E+02  0.00000000000E+00 0. -1.
        -13    1    4    4    0    0  0.55887065208E+02 -0.22995239485E+02  0.21535383052E+03  0.22367256742E+03  0.00000000000E+00 0. -1.
         13    1    4    4    0    0 -0.10219831447E+02 -0.27679688442E+02  0.15553033046E+02  0.33354264255E+02  0.00000000000E+00 0.  1.
          1    1    1    2  501    0 -0.68837094159E+02  0.48468134841E+02  0.14929678023E+03  0.17139788276E+03  0.00000000000E+00 0. -1.
<scales pt_clust_5="13000.00000" pt_clust_6="13000.00000" pt_clust_7="13000.00000" pt_clust_8="13000.00000" pt_clust_9="84.18851"></scales>
<clustering>
<clus scale="   81.137">  5  6 -1 -1</clus>
<clus scale="   84.189">  1  9  2 -1</clus>
<clus scale="   82.538">  2  5  1 -1</clus>
<clus scale="   89.952">  7  8 -1 -1</clus>
<clus scale="   84.189">  1  5  2 -1</clus>
</clustering>
</event>
<event>
 9    2  0.1325014E-004  0.1080503E+03  0.7546771E-02  0.1268895E+00
         21   -1    0    0  501  502  0.00000000000E+00  0.00000000000E+00  0.53717962429E+02  0.53717962429E+02  0.00000000000E+00 0. -1.
         -1   -1    0    0    0  501 -0.00000000000E+00 -0.00000000000E+00 -0.49471941423E+03  0.49471941423E+03  0.00000000000E+00 0.  1.
         23    2    1    2    0    0  0.60083009284E+02  0.13369518384E+02 -0.41330618309E+03  0.42788988213E+03  0.92081693185E+02 0.  0.
         24    2    1    2    0    0 -0.35031604279E+02 -0.35046773091E+01 -0.30855967924E+02  0.93438861183E+02  0.80865530118E+02 0.  0.
        -13    1    4    4    0    0 -0.30570586810E+02  0.35415746069E+02 -0.27141618282E+02  0.54087921854E+02  0.00000000000E+00 0.  1.
         14    1    4    4    0    0 -0.44610174691E+01 -0.38920423378E+02 -0.37143496419E+01  0.39350939329E+02  0.00000000000E+00 0. -1.
        -11    1    3    3    0    0  0.81998705337E+02 -0.47595587924E+01 -0.29598055376E+03  0.30716596374E+03  0.00000000000E+00 0. -1.
         11    1    3    3    0    0 -0.21915696053E+02  0.18129077176E+02 -0.11732562933E+03  0.12072391839E+03  0.00000000000E+00 0.  1.
         -2    1    1    2    0  502 -0.25051405005E+02 -0.98648410747E+01  0.31606992195E+01  0.27108633342E+02  0.00000000000E+00 0.  1.
<scales pt_clust_5="13000.00000" pt_clust_6="13000.00000" pt_clust_7="13000.00000" pt_clust_8="13000.00000" pt_clust_9="26.92374"></scales>
<clustering>
<clus scale="   26.924">  1  9  2 -1</clus>
<clus scale="   80.866">  5  6 -1 -1</clus>
<clus scale="   92.082">  7  8 -1 -1</clus>
<clus scale="   98.666">  1  5  2 -1</clus>
<clus scale="   26.924">  1  5  2 -1</clus>
</clustering>
</event>
<event>
 9    2  0.1325014E-004  0.1340000E+03  0.7546771E-02  0.1241272E+00
         -1   -1    0    0    0  501 -0.00000000000E+00  0.00000000000E+00  0.11365014280E+03  0.11365014280E+03  0.00000000000E+00 0.  1.
         21   -1    0    0  501  502  0.00000000000E+00 -0.00000000000E+00 -0.34172312031E+03  0.34172312031E+03  0.00000000000E+00 0. -1.
         24    2    1    2    0    0  0.85721014746E+01  0.36673311117E+02 -0.65501189993E+02  0.11084681863E+03  0.81106094944E+02 0.  0.
         23    2    1    2    0    0 -0.56267289036E+02  0.72567054578E+02 -0.18213035033E+03  0.22373395385E+03  0.91942549287E+02 0.  0.
        -13    1    3    3    0    0 -0.34326612715E+02  0.66480099484E+01 -0.38232233404E+02  0.51809420455E+02  0.00000000000E+00 0.  1.
         14    1    3    3    0    0  0.42898714190E+02  0.30025301168E+02 -0.27268956588E+02  0.59037398171E+02  0.00000000000E+00 0. -1.
        -11    1    4    4    0    0 -0.31537312036E+02 -0.12637778531E+02 -0.21429997990E+02  0.40169146251E+02  0.00000000000E+00 0.  1.
         11    1    4    4    0    0 -0.24729976999E+02  0.85204833109E+02 -0.16070035234E+03  0.18356480760E+03  0.00000000000E+00 0. -1.
         -2    1    1    2    0  502  0.47695187561E+02 -0.10924036569E+03  0.19558562814E+02  0.12079249063E+03  0.00000000000E+00 0.  1.
<scales pt_clust_5="13000.00000" pt_clust_6="13000.00000" pt_clust_7="13000.00000" pt_clust_8="13000.00000" pt_clust_9="97.48114"></scales>
<clustering>
<clus scale="   81.106">  5  6 -1 -1</clus>
<clus scale="   89.424">  1  5  2 -1</clus>
<clus scale="   91.943">  7  8 -1 -1</clus>
<clus scale="   97.481">  2  9  1 -1</clus>
<clus scale="   97.481">  2  5  1 -1</clus>
</clustering>
</event>
<event>
 9    2  0.1325014E-004  0.1134194E+03  0.7546771E-02  0.1259447E+00
         21   -1    0    0  501  502  0.00000000000E+00  0.00000000000E+00  0.31958005423E+03  0.31958005423E+03  0.00000000000E+00 0.  1.
         -1   -1    0    0    0  501 -0.00000000000E+00 -0.00000000000E+00 -0.11011824336E+03  0.11011824336E+03  0.00000000000E+00 0.  1.
         23    2    1    2    0    0 -0.33919449824E+02 -0.61387070233E+02 -0.57871561327E+02  0.12993441679E+03  0.92816666536E+02 0.  0.
         24    2    1    2    0    0 -0.67084695950E+01  0.45460690611E+02  0.19149476344E+03  0.21226661237E+03  0.79216111663E+02 0.  0.
        -13    1    4    4    0    0 -0.91229721219E+01  0.68120239158E+02  0.14716674827E+03  0.16242428205E+03  0.00000000000E+00 0.  1.
         14    1    4    4    0    0  0.24145025269E+01 -0.22659548546E+02  0.44328015165E+02  0.49842330315E+02  0.00000000000E+00 0. -1.
        -11    1    3    3    0    0 -0.12799600631E+02 -0.28580376176E+02 -0.79413949364E+02  0.85365350302E+02  0.00000000000E+00 0.  1.
         11    1    3    3    0    0 -0.21119849193E+02 -0.32806694057E+02  0.21542388037E+02  0.44569066484E+02  0.00000000000E+00 0. -1.
         -2    1    1    2    0  502  0.40627919419E+02  0.15926379621E+02  0.75838608761E+02  0.87497268432E+02  0.00000000000E+00 0.  1.
<scales pt_clust_5="13000.00000" pt_clust_6="13000.00000" pt_clust_7="13000.00000" pt_clust_8="13000.00000" pt_clust_9="43.63803"></scales>
<clustering>
<clus scale="   43.638">  1  9  2 -1</clus>
<clus scale="   79.216">  5  6 -1 -1</clus>
<clus scale="   92.817">  7  8 -1 -1</clus>
<clus scale="  102.588">  1  5  2 -1</clus>
<clus scale="   43.638">  1  5  2 -1</clus>
</clustering>
</event>
<event>
 9    2  0.1325014E-004  0.1189497E+03  0.7546771E-02  0.1252791E+00
         21   -1    0    0  501  502  0.00000000000E+00  0.00000000000E+00  0.47612651311E+02  0.47612651311E+02  0.00000000000E+00 0.  1.
          2   -1    0    0  502    0 -0.00000000000E+00 -0.00000000000E+00 -0.67226064666E+03  0.67226064666E+03  0.00000000000E+00 0. -1.
         24    2    1    2    0    0 -0.72078323972E+02  0.27002968458E+01 -0.20006501743E+03  0.22719206117E+03  0.79922744372E+02 0.  0.
         23    2    1    2    0    0  0.21999487977E+02 -0.81536247967E+02 -0.13617862043E+03  0.18953099284E+03  0.10121878965E+03 0.  0.
        -11    1    3    3    0    0 -0.83215545042E+01  0.35011564934E+02 -0.60678605587E+02  0.70547509697E+02  0.00000000000E+00 0.  1.
         12    1    3    3    0    0 -0.63756769468E+02 -0.32311268088E+02 -0.13938641184E+03  0.15664455147E+03  0.00000000000E+00 0. -1.
        -13    1    4    4    0    0  0.31535488766E+02 -0.49221826780E+02 -0.10472587236E+02  0.59388133214E+02  0.00000000000E+00 0.  1.
         13    1    4    4    0    0 -0.95360007891E+01 -0.32314421187E+02 -0.12570603320E+03  0.13014285962E+03  0.00000000000E+00 0. -1.
          1    1    1    2  501    0  0.50078835995E+02  0.78835951121E+02 -0.28840435749E+03  0.30315024397E+03  0.00000000000E+00 0. -1.
<scales pt_clust_5="13000.00000" pt_clust_6="13000.00000" pt_clust_7="13000.00000" pt_clust_8="13000.00000" pt_clust_9="93.39703"></scales>
<clustering>
<clus scale="   79.923">  5  6 -1 -1</clus>
<clus scale="   93.397">  1  9  2 -1</clus>
<clus scale="  101.219">  7  8 -1 -1</clus>
<clus scale="  101.447">  2  5  1 -1</clus>
<clus scale="   93.397">  1  5  2 -1</clus>
</clustering>
</event>
<event>
 9    2  0.1325014E-004  0.9188528E+02  0.7546771E-02  0.1304461E+00
         -1   -1    0    0    0  501 -0.00000000000E+00  0.00000000000E+00  0.25195506227E+03  0.25195506227E+03  0.00000000000E+00 0.  1.
         21   -1    0    0  501  502  0.00000000000E+00 -0.00000000000E+00 -0.53292483734E+02  0.53292483734E+02  0.00000000000E+00 0.  1.
         23    2    1    2    0    0 -0.14835720037E+02 -0.41230641128E+01  0.15949905015E+03  0.18402020909E+03  0.90478683177E+02 0.  0.
         24    2    1    2    0    0  0.18992155442E+01  0.29819798416E+02  0.30964924483E+02  0.91312584560E+02  0.80537780908E+02 0.  0.
        -13    1    4    4    0    0 -0.13699092365E+02  0.21749718329E+02  0.55486202593E+02  0.61150912153E+02  0.00000000000E+00 0.  1.
         14    1    4    4    0    0  0.15598307909E+02  0.80700800872E+01 -0.24521278110E+02  0.30161672407E+02  0.00000000000E+00 0. -1.
        -11    1    3    3    0    0 -0.17354341066E+02 -0.43229856512E+02  0.53116995868E+02  0.70649903736E+02  0.00000000000E+00 0. -1.
         11    1    3    3    0    0  0.25186210289E+01  0.39106792399E+02  0.10638205428E+03  0.11337030536E+03  0.00000000000E+00 0.  1.
         -2    1    1    2    0  502  0.12936504493E+02 -0.25696734303E+02  0.81986039054E+01  0.29914752353E+02  0.00000000000E+00 0.  1.
<scales pt_clust_5="13000.00000" pt_clust_6="13000.00000" pt_clust_7="13000.00000" pt_clust_8="13000.00000" pt_clust_9="28.76935"></scales>
<clustering>
<clus scale="   28.769">  2  9  1 -1</clus>
<clus scale="   80.538">  5  6 -1 -1</clus>
<clus scale="   82.115">  2  5  1 -1</clus>
<clus scale="   90.479">  7  8 -1 -1</clus>
<clus scale="   28.769">  2  5  1 -1</clus>
</clustering>
</event>
<event>
 9    2  0.1325014E-004  0.1164652E+03  0.7546771E-02  0.1253634E+00
         21   -1    0    0  501  502  0.00000000000E+00  0.00000000000E+00  0.27339809258E+03  0.27339809258E+03  0.00000000000E+00 0.  1.
          2   -1    0    0  502    0 -0.00000000000E+00 -0.00000000000E+00 -0.22323927909E+03  0.22323927909E+03  0.00000000000E+00 0. -1.
         23    2    1    2    0    0 -0.75580797035E+02  0.88841272688E+01 -0.13336399113E+03  0.17911282980E+03  0.92217498723E+02 0.  0.
         24    2    1    2    0    0  0.58229962270E+02 -0.29276613999E+02 -0.26530223944E+02  0.10577190366E+03  0.78968311294E+02 0.  0.
        -13    1    4    4    0    0  0.37506533571E+02 -0.54981315135E+02 -0.58507870099E+01  0.66812549593E+02  0.00000000000E+00 0.  1.
         14    1    4    4    0    0  0.20723428699E+02  0.25704701136E+02 -0.20679436934E+02  0.38959354069E+02  0.00000000000E+00 0. -1.
        -13    1    3    3    0    0 -0.42051877679E+02 -0.21972886616E+01 -0.13727112519E+03  0.14358464509E+03  0.00000000000E+00 0. -1.
         13    1    3    3    0    0 -0.33528919356E+02  0.11081415930E+02  0.39071340620E+01  0.35528184710E+02  0.00000000000E+00 0.  1.
          1    1    1    2  501    0  0.17350834765E+02  0.20392486730E+02  0.21005302857E+03  0.21175263822E+03  0.00000000000E+00 0. -1.
<scales pt_clust_5="13000.00000" pt_clust_6="13000.00000" pt_clust_7="13000.00000" pt_clust_8="13000.00000" pt_clust_9="26.77508"></scales>
<clustering>
<clus scale="   26.775">  1  9  2 -1</clus>
<clus scale="   78.968">  5  6 -1 -1</clus>
<clus scale="   92.217">  7  8 -1 -1</clus>
<clus scale="  106.283">  1  5  2 -1</clus>
<clus scale="   26.775">  1  5  2 -1</clus>
</clustering>
</event>
<event>
 9    2  0.1325014E-004  0.1064210E+03  0.7546771E-02  0.1271674E+00
         21   -1    0    0  501  502  0.00000000000E+00  0.00000000000E+00  0.45272349114E+03  0.45272349114E+03  0.00000000000E+00 0.  1.
         -1   -1    0    0    0  501 -0.00000000000E+00 -0.00000000000E+00 -0.13676909663E+03  0.13676909663E+03  0.00000000000E+00 0.  1.
         23    2    1    2    0    0  0.43977819463E+02  0.20914308070E+02 -0.81121864932E+02  0.13131848022E+03  0.91062228123E+02 0.  0.
         24    2    1    2    0    0 -0.10415812411E+03  0.19138595894E+00  0.13609883766E+03  0.18951757205E+03  0.80901576359E+02 0.  0.
        -13    1    4    4    0    0 -0.11737242412E+03 -0.52983877182E+01  0.12337464769E+03  0.17036919483E+03  0.00000000000E+00 0.  1.
         14    1    4    4    0    0  0.13214300007E+02  0.54897736772E+01  0.12724189969E+02  0.19148377218E+02  0.00000000000E+00 0. -1.
        -11    1    3    3    0    0 -0.23587905883E+02  0.11677410870E+02 -0.13272791688E+01  0.26353612629E+02  0.00000000000E+00 0. -1.
         11    1    3    3    0    0  0.67565725346E+02  0.92368971993E+01 -0.79794585763E+02  0.10496486759E+03  0.00000000000E+00 0.  1.
         -2    1    1    2    0  502  0.60180304645E+02 -0.21105694028E+02  0.26097742178E+03  0.26865653550E+03  0.00000000000E+00 0.  1.
<scales pt_clust_5="13000.00000" pt_clust_6="13000.00000" pt_clust_7="13000.00000" pt_clust_8="13000.00000" pt_clust_9="63.77397"></scales>
<clustering>
<clus scale="   63.774">  1  9  2 -1</clus>
<clus scale="   80.902">  5  6 -1 -1</clus>
<clus scale="   91.062">  7  8 -1 -1</clus>
<clus scale="   97.868">  1  5  2 -1</clus>
<clus scale="   63.774">  1  5  2 -1</clus>
</clustering>
</event>
<event>
 9    2  0.1325014E-004  0.1370792E+03  0.7546771E-02  0.1220963E+00
          2   -1    0    0  502    0 -0.00000000000E+00  0.00000000000E+00  0.41653983376E+03  0.41653983376E+03  0.00000000000E+00 0. -1.
         21   -1    0    0  501  502  0.00000000000E+00 -0.00000000000E+00 -0.93241832899E+02  0.93241832899E+02  0.00000000000E+00 0.  1.
         23    2    1    2    0    0 -0.38114743855E+02  0.97427807762E+02  0.30170077091E+03  0.33317857337E+03  0.95077311489E+02 0.  0.
         24    2    1    2    0    0  0.21151666284E+02 -0.83260052422E+02  0.60444715818E+02  0.13190859196E+03  0.79791501087E+02 0.  0.
        -11    1    4    4    0    0  0.16333296582E+02 -0.87047499155E+02  0.19733164351E+02  0.90738313086E+02  0.00000000000E+00 0.  1.
         12    1    4    4    0    0  0.48183697021E+01  0.37874467335E+01  0.40711551468E+02  0.41170278870E+02  0.00000000000E+00 0. -1.
        -13    1    3    3    0    0 -0.62206910071E+02  0.29317740569E+02  0.15889573238E+03  0.17313891342E+03  0.00000000000E+00 0. -1.
         13    1    3    3    0    0  0.24092166216E+02  0.68110067193E+02  0.14280503853E+03  0.16003965994E+03  0.00000000000E+00 0.  1.
          1    1    1    2  501    0  0.16963077571E+02 -0.14167755341E+02 -0.38847485863E+02  0.44694501339E+02  0.00000000000E+00 0. -1.
<scales pt_clust_5="13000.00000" pt_clust_6="13000.00000" pt_clust_7="13000.00000" pt_clust_8="13000.00000" pt_clust_9="22.10139"></scales>
<clustering>
<clus scale="   22.101">  2  9  1 -1</clus>
<clus scale="   79.792">  5  6 -1 -1</clus>
<clus scale="   95.077">  7  8 -1 -1</clus>
<clus scale="  126.956">  2  5  1 -1</clus>
<clus scale="   22.101">  2  5  1 -1</clus>
</clustering>
</event>
<event>
 9    2  0.1325014E-004  0.2721804E+03  0.7546771E-02  0.1119810E+00
         -1   -1    0    0    0  501 -0.00000000000E+00  0.00000000000E+00  0.78664071034E+02  0.78664071034E+02  0.00000000000E+00 0.  1.
         21   -1    0    0  501  502  0.00000000000E+00 -0.00000000000E+00 -0.16731692162E+04  0.16731692162E+04  0.00000000000E+00 0. -1.
         23    2    1    2    0    0 -0.58391968403E+02 -0.12343589363E+03 -0.26086342772E+03  0.30838433810E+03  0.91679497464E+02 0.  0.
         24    2    1    2    0    0  0.27338341414E+03 -0.29398189402E+02 -0.63313125205E+03  0.69492073270E+03  0.80354823962E+02 0.  0.
        -11    1    4    4    0    0  0.13477094526E+03  0.14394985670E+02 -0.23784777118E+03  0.27375533887E+03  0.00000000000E+00 0.  1.
         12    1    4    4    0    0  0.13861246888E+03 -0.43793175073E+02 -0.39528348087E+03  0.42116539383E+03  0.00000000000E+00 0. -1.
        -11    1    3    3    0    0 -0.62433794330E+02 -0.73381286455E+02 -0.23018985261E+03  0.24953989685E+03  0.00000000000E+00 0. -1.
         11    1    3    3    0    0  0.40418259271E+01 -0.50054607172E+02 -0.30673575110E+02  0.58844441250E+02  0.00000000000E+00 0.  1.
         -2    1    1    2    0  502 -0.21499144574E+03  0.15283408303E+03 -0.70051046538E+03  0.74852821642E+03  0.00000000000E+00 0.  1.
<scales pt_clust_5="13000.00000" pt_clust_6="13000.00000" pt_clust_7="13000.00000" pt_clust_8="13000.00000" pt_clust_9="260.04859"></scales>
<clustering>
<clus scale="   80.355">  5  6 -1 -1</clus>
<clus scale="   91.679">  7  8 -1 -1</clus>
<clus scale="  164.472">  1  7  2 -1</clus>
<clus scale="  260.049">  2  9  1 -1</clus>
<clus scale="  260.049">  2  5  1 -1</clus>
</clustering>
</event>
<event>
 9    2  0.1325014E-004  0.9201740E+02  0.7546771E-02  0.1305780E+00
         21   -1    0    0  501  502  0.00000000000E+00  0.00000000000E+00  0.61051665407E+02  0.61051665407E+02  0.00000000000E+00 0.  1.
          2   -1    0    0  502    0 -0.00000000000E+00 -0.00000000000E+00 -0.37975341488E+03  0.37975341488E+03  0.00000000000E+00 0. -1.
         23    2    1    2    0    0  0.11953713877E+02 -0.17943901762E+02 -0.19787087014E+03  0.21867650567E+03  0.90563005665E+02 0.  0.
         24    2    1    2    0    0  0.44639984898E+02  0.90960930982E+01 -0.22885052266E+01  0.90472109081E+02  0.78131287613E+02 0.  0.
        -11    1    4    4    0    0  0.14705517975E+02  0.42729147273E+02 -0.43651946943E+01  0.45399198345E+02  0.00000000000E+00 0.  1.
         12    1    4    4    0    0  0.29934466923E+02 -0.33633054175E+02  0.20766894677E+01  0.45072910736E+02  0.00000000000E+00 0. -1.
        -13    1    3    3    0    0 -0.33039016308E+02 -0.21800611973E+02 -0.48356986165E+02  0.62491930615E+02  0.00000000000E+00 0.  1.
         13    1    3    3    0    0  0.44992730185E+02  0.38567102109E+01 -0.14951388398E+03  0.15618457506E+03  0.00000000000E+00 0. -1.
          1    1    1    2  501    0 -0.56593698775E+02  0.88478086641E+01 -0.11854237410E+03  0.13165646553E+03  0.00000000000E+00 0. -1.
<scales pt_clust_5="13000.00000" pt_clust_6="13000.00000" pt_clust_7="13000.00000" pt_clust_8="13000.00000" pt_clust_9="57.28118"></scales>
<clustering>
<clus scale="   57.281">  1  9  2 -1</clus>
<clus scale="   78.131">  5  6 -1 -1</clus>
<clus scale="   79.813">  1  5  2 -1</clus>
<clus scale="   90.563">  7  8 -1 -1</clus>
<clus scale="   57.281">  1  5  2 -1</clus>
</clustering>
</event>
<event>
 9    2  0.1325014E-004  0.1155241E+03  0.7546771E-02  0.1254518E+00
         21   -1    0    0  501  502  0.00000000000E+00  0.00000000000E+00  0.86132245687E+03  0.86132245687E+03  0.00000000000E+00 0.  1.
         -3   -1    0    0    0  501 -0.00000000000E+00 -0.00000000000E+00 -0.16616970409E+03  0.16616970409E+03  0.00000000000E+00 0.  1.
         23    2    1    2    0    0 -0.48114531443E+02 -0.32144185201E+02 -0.10283826551E+03  0.15079809417E+03  0.93894086996E+02 0.  0.
         24    2    1    2    0    0  0.13326812984E+03  0.56710874844E+02  0.15578017304E+03  0.22839673737E+03  0.83193086081E+02 0.  0.
        -11    1    4    4    0    0  0.12474257949E+03  0.23419985393E+02  0.94866038965E+02  0.15845747758E+03  0.00000000000E+00 0.  1.
         12    1    4    4    0    0  0.85255503527E+01  0.33290889452E+02  0.60914134075E+02  0.69939259786E+02  0.00000000000E+00 0. -1.
        -13    1    3    3    0    0  0.26692578130E+02 -0.20246025852E+02 -0.22356353095E+02  0.40276566559E+02  0.00000000000E+00 0.  1.
         13    1    3    3    0    0 -0.74807109574E+02 -0.11898159349E+02 -0.80481912420E+02  0.11052152761E+03  0.00000000000E+00 0. -1.
         -4    1    1    2    0  502 -0.85153598398E+02 -0.24566689643E+02  0.64221084526E+03  0.64829732942E+03  0.00000000000E+00 0.  1.
<scales pt_clust_5="13000.00000" pt_clust_6="13000.00000" pt_clust_7="13000.00000" pt_clust_8="13000.00000" pt_clust_9="88.62651"></scales>
<clustering>
<clus scale="   83.193">  5  6 -1 -1</clus>
<clus scale="   88.627">  1  9  2 -1</clus>
<clus scale="   93.894">  7  8 -1 -1</clus>
<clus scale="  107.008">  1  5  2 -1</clus>
<clus scale="   88.627">  1  5  2 -1</clus>
</clustering>
</event>
<event>
 9    2  0.1325014E-004  0.1124394E+03  0.7546771E-02  0.1259427E+00
          2   -1    0    0  502    0 -0.00000000000E+00  0.00000000000E+00  0.24119791546E+03  0.24119791546E+03  0.00000000000E+00 0. -1.
         21   -1    0    0  501  502  0.00000000000E+00 -0.00000000000E+00 -0.90705171648E+02  0.90705171648E+02  0.00000000000E+00 0. -1.
         24    2    1    2    0    0  0.34581941164E+02 -0.27789408543E+02  0.27446252666E+02  0.95889402736E+02  0.80456938108E+02 0.  0.
         23    2    1    2    0    0 -0.96346935757E+02  0.29845097746E+02  0.59671976192E+02  0.14749549663E+03  0.89558444017E+02 0.  0.
        -13    1    3    3    0    0 -0.55228582229E+01 -0.45976644916E+02  0.53338148853E+01  0.46613339527E+02  0.00000000000E+00 0.  1.
         14    1    3    3    0    0  0.40104799387E+02  0.18187236373E+02  0.22112437780E+02  0.49276063208E+02  0.00000000000E+00 0. -1.
        -11    1    4    4    0    0 -0.10588414519E+03  0.30889835746E+01  0.52365731974E+02  0.11816583223E+03  0.00000000000E+00 0. -1.
         11    1    4    4    0    0  0.95372094310E+01  0.26756114171E+02  0.73062442182E+01  0.29329664401E+02  0.00000000000E+00 0.  1.
          1    1    1    2  501    0  0.61764994593E+02 -0.20556892033E+01  0.63374514957E+02  0.88518187743E+02  0.00000000000E+00 0. -1.
<scales pt_clust_5="13000.00000" pt_clust_6="13000.00000" pt_clust_7="13000.00000" pt_clust_8="13000.00000" pt_clust_9="61.79923"></scales>
<clustering>
<clus scale="   61.799">  2  9  1 -1</clus>
<clus scale="   80.457">  5  6 -1 -1</clus>
<clus scale="   89.558">  7  8 -1 -1</clus>
<clus scale="  105.334">  1  5  2 -1</clus>
<clus scale="   61.799">  2  5  1 -1</clus>
</clustering>
</event>
<event>
 9    2  0.1325014E-004  0.1841821E+03  0.7546771E-02  0.1189018E+00
          2   -1    0    0  502    0 -0.00000000000E+00  0.00000000000E+00  0.15089574121E+03  0.15089574121E+03  0.00000000000E+00 0. -1.
         21   -1    0    0  501  502  0.00000000000E+00 -0.00000000000E+00 -0.42144572961E+03  0.42144572961E+03  0.00000000000E+00 0. -1.
         24    2    1    2    0    0  0.58561294383E+02  0.28569481159E+02 -0.12840041551E+03  0.16532871435E+03  0.81248240800E+02 0.  0.
         23    2    1    2    0    0  0.11636454834E+03 -0.96070987119E+02 -0.13149984986E+03  0.21921254251E+03  0.89395668825E+02 0.  0.
        -11    1    3    3    0    0  0.15179744979E+02 -0.17550474966E+02 -0.11935146221E+01  0.23235066307E+02  0.00000000000E+00 0.  1.
         12    1    3    3    0    0  0.43381549404E+02  0.46119956125E+02 -0.12720690089E+03  0.14209364805E+03  0.00000000000E+00 0. -1.
        -11    1    4    4    0    0  0.55479882749E+02  0.67554845304E+01 -0.41521572770E+02  0.69625390242E+02  0.00000000000E+00 0.  1.
         11    1    4    4    0    0  0.60884665594E+02 -0.10282647165E+03 -0.89978277093E+02  0.14958715227E+03  0.00000000000E+00 0. -1.
          1    1    1    2  501    0 -0.17492584273E+03  0.67501505960E+02 -0.10649723030E+02  0.18780021395E+03  0.00000000000E+00 0. -1.
<scales pt_clust_5="13000.00000" pt_clust_6="13000.00000" pt_clust_7="13000.00000" pt_clust_8="13000.00000" pt_clust_9="161.03255"></scales>
<clustering>
<clus scale="   81.248">  5  6 -1 -1</clus>
<clus scale="   89.396">  7  8 -1 -1</clus>
<clus scale="  104.149">  1  5  2 -1</clus>
<clus scale="  161.033">  2  9  1 -1</clus>
<clus scale="  161.033">  2  5  1 -1</clus>
</clustering>
</event>
<event>
 9    2  0.1325014E-004  0.1311792E+03  0.7546771E-02  0.1227376E+00
         21   -1    0    0  501  502  0.00000000000E+00  0.00000000000E+00  0.14986666456E+03  0.14986666456E+03  0.00000000000E+00 0. -1.
          2   -1    0    0  502    0 -0.00000000000E+00 -0.00000000000E+00 -0.24915263683E+03  0.24915263683E+03  0.00000000000E+00 0. -1.
         23    2    1    2    0    0 -0.59471842368E+02 -0.88139942488E+02 -0.14452222320E+03  0.20008916639E+03  0.88563265583E+02 0.  0.
         24    2    1    2    0    0  0.24738888441E-01  0.72127041075E+02  0.73141150299E+02  0.13133535316E+03  0.81835422989E+02 0.  0.
        -11    1    4    4    0    0  0.12649936441E+02  0.45957376674E+02 -0.50373218104E+01  0.47931993217E+02  0.00000000000E+00 0.  1.
         12    1    4    4    0    0 -0.12625197553E+02  0.26169664401E+02  0.78178472109E+02  0.83403359941E+02  0.00000000000E+00 0. -1.
        -11    1    3    3    0    0 -0.23246319867E+02 -0.85991776494E+02 -0.13638598983E+03  0.16289909525E+03  0.00000000000E+00 0. -1.
         11    1    3    3    0    0 -0.36225522501E+02 -0.21481659941E+01 -0.81362333686E+01  0.37190071135E+02  0.00000000000E+00 0.  1.
          1    1    1    2  501    0  0.59447103480E+02  0.16012901413E+02 -0.27904899367E+02  0.67594781843E+02  0.00000000000E+00 0. -1.
<scales pt_clust_5="13000.00000" pt_clust_6="13000.00000" pt_clust_7="13000.00000" pt_clust_8="13000.00000" pt_clust_9="61.56602"></scales>
<clustering>
<clus scale="   61.566">  1  9  2 -1</clus>
<clus scale="   81.835">  5  6 -1 -1</clus>
<clus scale="   88.563">  7  8 -1 -1</clus>
<clus scale="  126.734">  1  5  2 -1</clus>
<clus scale="   61.566">  1  5  2 -1</clus>
</clustering>
</event>
<event>
 9    2  0.1325014E-004  0.1500620E+03  0.7546771E-02  0.1201565E+00
         21   -1    0    0  501  502  0.00000000000E+00  0.00000000000E+00  0.40165928780E+02  0.40165928780E+02  0.00000000000E+00 0. -1.
          2   -1    0    0  502    0 -0.00000000000E+00 -0.00000000000E+00 -0.79712086826E+03  0.79712086826E+03  0.00000000000E+00 0. -1.
         24    2    1    2    0    0  0.75640334836E+02  0.10795071313E+03 -0.50883112671E+03  0.53186061485E+03  0.81189786328E+02 0.  0.
         23    2    1    2    0    0 -0.35368089570E+02 -0.98464762641E+02 -0.18484812316E+03  0.22982426494E+03  0.87773303908E+02 0.  0.
        -11    1    3    3    0    0  0.37987666406E+02  0.45927208405E+02 -0.98229389099E+02  0.11489727653E+03  0.00000000000E+00 0.  1.
         12    1    3    3    0    0  0.37652668430E+02  0.62023504728E+02 -0.41060173761E+03  0.41696333833E+03  0.00000000000E+00 0. -1.
        -11    1    4    4    0    0 -0.33705129651E+02 -0.14867804698E+02 -0.13627540938E+02  0.39278457879E+02  0.00000000000E+00 0.  1.
         11    1    4    4    0    0 -0.16629599190E+01 -0.83596957943E+02 -0.17122058222E+03  0.19054580707E+03  0.00000000000E+00 0. -1.
          1    1    1    2  501    0 -0.40272245266E+02 -0.94859504913E+01 -0.63275689612E+02  0.75601917247E+02  0.00000000000E+00 0. -1.
<scales pt_clust_5="13000.00000" pt_clust_6="13000.00000" pt_clust_7="13000.00000" pt_clust_8="13000.00000" pt_clust_9="41.37435"></scales>
<clustering>
<clus scale="   41.374">  1  9  2 -1</clus>
<clus scale="   81.190">  5  6 -1 -1</clus>
<clus scale="   87.773">  7  8 -1 -1</clus>
<clus scale="  146.309">  2  5  1 -1</clus>
<clus scale="   41.374">  1  5  2 -1</clus>
</clustering>
</event>
<event>
 9    2  0.1325014E-004  0.1455397E+03  0.7546771E-02  0.1225817E+00
         -1   -1    0    0    0  501 -0.00000000000E+00  0.00000000000E+00  0.21757199664E+03  0.21757199664E+03  0.00000000000E+00 0.  1.
         21   -1    0    0  501  502  0.00000000000E+00 -0.00000000000E+00 -0.21216735670E+03  0.21216735670E+03  0.00000000000E+00 0.  1.
         23    2    1    2    0    0 -0.19012299243E+02 -0.21364074494E+02 -0.82300931365E+02  0.12633874352E+03  0.91488488938E+02 0.  0.
         24    2    1    2    0    0  0.46098866484E+02 -0.89315838568E+02  0.12216867307E+03  0.18435679157E+03  0.94656312036E+02 0.  0.
        -11    1    4    4    0    0  0.18848389388E+02 -0.79841211643E+02  0.13066341615E+03  0.15428159054E+03  0.00000000000E+00 0.  1.
         12    1    4    4    0    0  0.27250477096E+02 -0.94746269241E+01 -0.84947430759E+01  0.30075201034E+02  0.00000000000E+00 0. -1.
        -13    1    3    3    0    0 -0.12695268118E+02 -0.57569632490E+02 -0.54090491844E+02  0.80007585425E+02  0.00000000000E+00 0.  1.
         13    1    3    3    0    0 -0.63170311250E+01  0.36205557996E+02 -0.28210439521E+02  0.46331158091E+02  0.00000000000E+00 0. -1.
         -2    1    1    2    0  502 -0.27086567241E+02  0.11067991306E+03 -0.34463101761E+02  0.11904381825E+03  0.00000000000E+00 0.  1.
<scales pt_clust_5="13000.00000" pt_clust_6="13000.00000" pt_clust_7="13000.00000" pt_clust_8="13000.00000" pt_clust_9="110.55310"></scales>
<clustering>
<clus scale="   91.488">  7  8 -1 -1</clus>
<clus scale="   94.656">  5  6 -1 -1</clus>
<clus scale="   95.854">  1  7  2 -1</clus>
<clus scale="  110.553">  2  9  1 -1</clus>
<clus scale="  110.553">  2  5  1 -1</clus>
</clustering>
</event>
<event>
 9    2  0.1325014E-004  0.9261554E+02  0.7546771E-02  0.1304154E+00
         -1   -1    0    0    0  501 -0.00000000000E+00  0.00000000000E+00  0.29260982275E+03  0.29260982275E+03  0.00000000000E+00 0.  1.
         21   -1    0    0  501  502  0.00000000000E+00 -0.00000000000E+00 -0.83791895650E+02  0.83791895650E+02  0.00000000000E+00 0. -1.
         24    2    1    2    0    0 -0.66050746020E+01  0.26689871295E+01  0.14538711037E+03  0.16622406100E+03  0.80263790650E+02 0.  0.
         23    2    1    2    0    0 -0.23416843920E+02  0.63184644389E+02  0.50318114984E+00  0.11427195530E+03  0.92288562191E+02 0.  0.
        -11    1    3    3    0    0  0.10803232177E+02 -0.31911584500E+02  0.32218698802E+02  0.46616559325E+02  0.00000000000E+00 0.  1.
         12    1    3    3    0    0 -0.17408306779E+02  0.34580571630E+02  0.11316841157E+03  0.11960750168E+03  0.00000000000E+00 0. -1.
        -13    1    4    4    0    0  0.19356837211E+02 -0.15418620377E+02 -0.10715705826E+01  0.24770330330E+02  0.00000000000E+00 0.  1.
         13    1    4    4    0    0 -0.42773681131E+02  0.78603264766E+02  0.15747517324E+01  0.89501624971E+02  0.00000000000E+00 0. -1.
         -2    1    1    2    0  502  0.30021918522E+02 -0.65853631519E+02  0.62927635576E+02  0.95905702099E+02  0.00000000000E+00 0.  1.
<scales pt_clust_5="13000.00000" pt_clust_6="13000.00000" pt_clust_7="13000.00000" pt_clust_8="13000.00000" pt_clust_9="72.37418"></scales>
<clustering>
<clus scale="   72.374">  2  9  1 -1</clus>
<clus scale="   80.264">  5  6 -1 -1</clus>
<clus scale="   80.640">  1  5  2 -1</clus>
<clus scale="   92.289">  7  8 -1 -1</clus>
<clus scale="   72.374">  2  5  1 -1</clus>
</clustering>
</event>
<event>
 9    2  0.1325014E-004  0.9016098E+02  0.7546771E-02  0.1308247E+00
          2   -1    0    0  502    0 -0.00000000000E+00  0.00000000000E+00  0.25371489008E+03  0.25371489008E+03  0.00000000000E+00 0. -1.
         21   -1    0    0  501  502  0.00000000000E+00 -0.00000000000E+00 -0.81659839065E+02  0.81659839065E+02  0.00000000000E+00 0. -1.
         24    2    1    2    0    0  0.86664305393E+01 -0.77420093659E+01  0.17932071459E+03  0.19700909025E+03  0.80756530582E+02 0.  0.
         23    2    1    2    0    0  0.32008447074E+02  0.51967569378E+01  0.54621809247E+01  0.95669948206E+02  0.89840729084E+02 0.  0.
        -13    1    3    3    0    0  0.25264011330E+02 -0.38291325612E+02  0.86902909829E+02  0.98268060031E+02  0.00000000000E+00 0.  1.
         14    1    3    3    0    0 -0.16597580791E+02  0.30549316246E+02  0.92417804759E+02  0.98741030214E+02  0.00000000000E+00 0. -1.
        -11    1    4    4    0    0 -0.25484845713E+02  0.80778433244E+01 -0.19332215906E+02  0.32991869993E+02  0.00000000000E+00 0.  1.
         11    1    4    4    0    0  0.57493292787E+02 -0.28810863867E+01  0.24794396831E+02  0.62678078213E+02  0.00000000000E+00 0. -1.
          1    1    1    2  501    0 -0.40674877613E+02  0.25452524281E+01 -0.12727844493E+02  0.42695690699E+02  0.00000000000E+00 0. -1.
<scales pt_clust_5="13000.00000" pt_clust_6="13000.00000" pt_clust_7="13000.00000" pt_clust_8="13000.00000" pt_clust_9="40.75444"></scales>
<clustering>
<clus scale="   40.754">  2  9  1 -1</clus>
<clus scale="   80.757">  5  6 -1 -1</clus>
<clus scale="   81.113">  1  5  2 -1</clus>
<clus scale="   89.841">  7  8 -1 -1</clus>
<clus scale="   40.754">  2  5  1 -1</clus>
</clustering>
</event>
<event>
 9    2  0.1325014E-004  0.1038869E+03  0.7546771E-02  0.1274686E+00
         21   -1    0    0  501  502  0.00000000000E+00  0.00000000000E+00  0.33051614935E+03  0.33051614935E+03  0.00000000000E+00 0. -1.
         -3   -1    0    0    0  501 -0.00000000000E+00 -0.00000000000E+00 -0.68293392129E+02  0.68293392129E+02  0.00000000000E+00 0.  1.
         23    2    1    2    0    0  0.91221393340E+01 -0.54878155734E+02 -0.20720571763E+01  0.10563010329E+03  0.89769704789E+02 0.  0.
         24    2    1    2    0    0  0.13197296558E+02  0.42696445268E+02  0.16465160836E+03  0.19034306429E+03  0.84398903485E+02 0.  0.
        -13    1    4    4    0    0  0.74316514093E+01 -0.19939140834E+02  0.10246535678E+02  0.23617583984E+02  0.00000000000E+00 0.  1.
         14    1    4    4    0    0  0.57656451488E+01  0.62635586101E+02  0.15440507269E+03  0.16672548030E+03  0.00000000000E+00 0. -1.
        -11    1    3    3    0    0 -0.38978528819E+02 -0.38368141386E+02  0.71240798595E+00  0.54698697493E+02  0.00000000000E+00 0. -1.
         11    1    3    3    0    0  0.48100668153E+02 -0.16510014348E+02 -0.27844651623E+01  0.50931405800E+02  0.00000000000E+00 0.  1.
         -4    1    1    2    0  502 -0.22319435892E+02  0.12181710466E+02  0.99643206031E+02  0.10283637390E+03  0.00000000000E+00 0.  1.
<scales pt_clust_5="13000.00000" pt_clust_6="13000.00000" pt_clust_7="13000.00000" pt_clust_8="13000.00000" pt_clust_9="25.42737"></scales>
<clustering>
<clus scale="   25.427">  1  9  2 -1</clus>
<clus scale="   84.399">  5  6 -1 -1</clus>
<clus scale="   89.770">  7  8 -1 -1</clus>
<clus scale="   99.283">  1  5  2 -1</clus>
<clus scale="   25.427">  1  5  2 -1</clus>
</clustering>
</event>
<event>
 9    2  0.1325014E-004  0.1106450E+03  0.7546771E-02  0.1263995E+00
         21   -1    0    0  501  502  0.00000000000E+00  0.00000000000E+00  0.32655169490E+02  0.32655169490E+02  0.00000000000E+00 0.  1.
          2   -1    0    0  502    0 -0.00000000000E+00 -0.00000000000E+00 -0.59923550077E+03  0.59923550077E+03  0.00000000000E+00 0. -1.
         23    2    1    2    0    0  0.46652859555E+02  0.44874329282E+02 -0.34472916457E+03  0.36224618750E+03  0.90520211663E+02 0.  0.
         24    2    1    2    0    0 -0.60992585022E+02 -0.22060265697E+02 -0.92737436517E+02  0.13774882495E+03  0.78535061560E+02 0.  0.
        -13    1    4    4    0    0 -0.78372889711E+02 -0.24958796883E+02 -0.64763148054E+02  0.10468771050E+03  0.00000000000E+00 0.  1.
         14    1    4    4    0    0  0.17380304688E+02  0.28985311858E+01 -0.27974288462E+02  0.33061114456E+02  0.00000000000E+00 0. -1.
        -13    1    3    3    0    0  0.24614248249E+02 -0.26435266102E+02 -0.96486914419E+02  0.10302625474E+03  0.00000000000E+00 0.  1.
         13    1    3    3    0    0  0.22038611306E+02  0.71309595383E+02 -0.24824225015E+03  0.25921993276E+03  0.00000000000E+00 0. -1.
          1    1    1    2  501    0  0.14339725467E+02 -0.22814063585E+02 -0.12911373019E+03  0.13189565780E+03  0.00000000000E+00 0. -1.
<scales pt_clust_5="13000.00000" pt_clust_6="13000.00000" pt_clust_7="13000.00000" pt_clust_8="13000.00000" pt_clust_9="26.94643"></scales>
<clustering>
<clus scale="   26.946">  1  9  2 -1</clus>
<clus scale="   78.535">  5  6 -1 -1</clus>
<clus scale="   90.520">  7  8 -1 -1</clus>
<clus scale="  101.075">  1  5  2 -1</clus>
<clus scale="   26.946">  1  5  2 -1</clus>
</clustering>
</event>
<event>
 9    2  0.1325014E-004  0.1355845E+03  0.7546771E-02  0.1234004E+00
          2   -1    0    0  502    0 -0.00000000000E+00  0.00000000000E+00  0.63812370818E+03  0.63812370818E+03  0.00000000000E+00 0. -1.
         21   -1    0    0  501  502  0.00000000000E+00 -0.00000000000E+00 -0.53142097467E+02  0.53142097467E+02  0.00000000000E+00 0. -1.
         23    2    1    2    0    0  0.17945729117E+02  0.34838765693E+02  0.85676731223E+02  0.13176907238E+03  0.92123815458E+02 0.  0.
         24    2    1    2    0    0  0.39020563608E+01  0.78882053707E+02  0.35870269016E+03  0.37734644878E+03  0.86516576645E+02 0.  0.
        -13    1    4    4    0    0 -0.33260902786E+02  0.71062934000E+02  0.22155654869E+03  0.23503942757E+03  0.00000000000E+00 0.  1.
         14    1    4    4    0    0  0.37162959147E+02  0.78191197078E+01  0.13714614147E+03  0.14230702121E+03  0.00000000000E+00 0. -1.
        -11    1    3    3    0    0  0.37881504653E+02 -0.81716346827E+01  0.62254850417E+01  0.39249721938E+02  0.00000000000E+00 0.  1.
         11    1    3    3    0    0 -0.19935775536E+02  0.43010400376E+02  0.79451246181E+02  0.92519350443E+02  0.00000000000E+00 0. -1.
          1    1    1    2  501    0 -0.21847785478E+02 -0.11372081940E+03  0.14060218933E+03  0.18215028449E+03  0.00000000000E+00 0. -1.
<scales pt_clust_5="13000.00000" pt_clust_6="13000.00000" pt_clust_7="13000.00000" pt_clust_8="13000.00000" pt_clust_9="104.39364"></scales>
<clustering>
<clus scale="   86.517">  5  6 -1 -1</clus>
<clus scale="   92.124">  7  8 -1 -1</clus>
<clus scale="  100.113">  1  7  2 -1</clus>
<clus scale="  104.394">  2  9  1 -1</clus>
<clus scale="  104.394">  2  5  1 -1</clus>
</clustering>
</event>
<event>
 9    2  0.1325014E-004  0.1199492E+03  0.7546771E-02  0.1259724E+00
          2   -1    0    0  502    0 -0.00000000000E+00  0.00000000000E+00  0.13136390303E+04  0.13136390303E+04  0.00000000000E+00 0. -1.
         21   -1    0    0  501  502  0.00000000000E+00 -0.00000000000E+00 -0.63290745480E+02  0.63290745480E+02  0.00000000000E+00 0. -1.
         24    2    1    2    0    0  0.23925962517E+02  0.15850665405E+02  0.11379124713E+04  0.11411780522E+04  0.81356371664E+02 0.  0.
         23    2    1    2    0    0 -0.37883628139E+02  0.78479881417E+01  0.14705207311E+03  0.19153941718E+03  0.11647435739E+03 0.  0.
        -13    1    3    3    0    0  0.27386647368E+02  0.24438464508E+02  0.20762525275E+03  0.21084475943E+03  0.00000000000E+00 0.  1.
         14    1    3    3    0    0 -0.34606848503E+01 -0.85877991021E+01  0.93028721855E+03  0.93033329276E+03  0.00000000000E+00 0. -1.
        -11    1    4    4    0    0  0.19683614458E+02 -0.40448563304E+02  0.36818402005E+02  0.58130247529E+02  0.00000000000E+00 0.  1.
         11    1    4    4    0    0 -0.57567242598E+02  0.48296551446E+02  0.11023367110E+03  0.13340916965E+03  0.00000000000E+00 0. -1.
          1    1    1    2  501    0  0.13957665622E+02 -0.23698653547E+02 -0.34616259587E+02  0.44212306402E+02  0.00000000000E+00 0. -1.
<scales pt_clust_5="13000.00000" pt_clust_6="13000.00000" pt_clust_7="13000.00000" pt_clust_8="13000.00000" pt_clust_9="27.50350"></scales>
<clustering>
<clus scale="   27.504">  2  9  1 -1</clus>
<clus scale="   81.356">  5  6 -1 -1</clus>
<clus scale="   86.258">  1  5  2 -1</clus>
<clus scale="  116.474">  7  8 -1 -1</clus>
<clus scale="   27.504">  2  5  1 -1</clus>
</clustering>
</event>
<event>
 9    2  0.1325014E-004  0.1349880E+03  0.7546771E-02  0.1231900E+00
         21   -1    0    0  501  502  0.00000000000E+00  0.00000000000E+00  0.11152233780E+03  0.11152233780E+03  0.00000000000E+00 0. -1.
          2   -1    0    0  502    0 -0.00000000000E+00 -0.00000000000E+00 -0.32072442169E+03  0.32072442169E+03  0.00000000000E+00 0. -1.
         24    2    1    2    0    0 -0.14553502095E+02  0.55026754716E+01 -0.14425454516E+03  0.17896985098E+03  0.10477952998E+03 0.  0.
         23    2    1    2    0    0 -0.90319199615E+02 -0.28044718990E+02 -0.66865438972E+01  0.13120819503E+03  0.90701799826E+02 0.  0.
        -11    1    3    3    0    0 -0.42780066823E+02 -0.26242607201E+02 -0.11995644564E+03  0.13003213988E+03  0.00000000000E+00 0.  1.
         12    1    3    3    0    0  0.28226564728E+02  0.31745282672E+02 -0.24298099514E+02  0.48937711106E+02  0.00000000000E+00 0. -1.
        -13    1    4    4    0    0  0.57634622061E+01 -0.29241908974E+02  0.13980722403E+02  0.32920621743E+02  0.00000000000E+00 0.  1.
         13    1    4    4    0    0 -0.96082661821E+02  0.11971899835E+01 -0.20667266300E+02  0.98287573288E+02  0.00000000000E+00 0. -1.
          1    1    1    2  501    0  0.10487270171E+03  0.22542043519E+02 -0.58260994832E+02  0.12206871347E+03  0.00000000000E+00 0. -1.
<scales pt_clust_5="13000.00000" pt_clust_6="13000.00000" pt_clust_7="13000.00000" pt_clust_8="13000.00000" pt_clust_9="99.97483"></scales>
<clustering>
<clus scale="   90.702">  7  8 -1 -1</clus>
<clus scale="  104.780">  5  6 -1 -1</clus>
<clus scale="  105.928">  2  5  1 -1</clus>
<clus scale="   99.975">  1  9  2 -1</clus>
<clus scale="   99.975">  1  5  2 -1</clus>
</clustering>
</event>
<event>
 9    2  0.1325014E-004  0.1054207E+03  0.7546771E-02  0.1272181E+00
          2   -1    0    0  502    0 -0.00000000000E+00  0.00000000000E+00  0.97558929623E+03  0.97558929623E+03  0.00000000000E+00 0. -1.
         21   -1    0    0  501  502  0.00000000000E+00 -0.00000000000E+00 -0.20890016094E+02  0.20890016094E+02  0.00000000000E+00 0.  1.
         24    2    1    2    0    0 -0.66247991529E+02  0.10442722807E+02  0.47653984291E+03  0.48857664953E+03  0.84374603702E+02 0.  0.
         23    2    1    2    0    0  0.20478030119E+02 -0.12242070321E+02  0.15378049060E+03  0.18030561147E+03  0.91062924590E+02 0.  0.
        -11    1    3    3    0    0  0.45058696866E+01 -0.24488935833E+02  0.66399079252E+02  0.70914374885E+02  0.00000000000E+00 0.  1.
         12    1    3    3    0    0 -0.70753861215E+02  0.34931658641E+02  0.41014076366E+03  0.41766227465E+03  0.00000000000E+00 0. -1.
        -13    1    4    4    0    0 -0.34208102017E+02 -0.15589288033E+02  0.46070617433E+02  0.59461936864E+02  0.00000000000E+00 0.  1.
         13    1    4    4    0    0  0.54686132136E+02  0.33472177120E+01  0.10770987317E+03  0.12084367461E+03  0.00000000000E+00 0. -1.
          1    1    1    2  501    0  0.45769961410E+02  0.17993475132E+01  0.32437894662E+03  0.32759705131E+03  0.00000000000E+00 0. -1.
<scales pt_clust_5="13000.00000" pt_clust_6="13000.00000" pt_clust_7="13000.00000" pt_clust_8="13000.00000" pt_clust_9="45.80534"></scales>
<clustering>
<clus scale="   45.805">  2  9  1 -1</clus>
<clus scale="   84.375">  5  6 -1 -1</clus>
<clus scale="   91.063">  7  8 -1 -1</clus>
<clus scale="   99.700">  1  5  2 -1</clus>
<clus scale="   45.805">  2  5  1 -1</clus>
</clustering>
</event>
<event>
 9    2  0.1325014E-004  0.2600071E+03  0.7546771E-02  0.1133664E+00
         21   -1    0    0  501  502  0.00000000000E+00  0.00000000000E+00  0.69852523188E+02  0.69852523188E+02  0.00000000000E+00 0.  1.
          2   -1    0    0  502    0 -0.00000000000E+00 -0.00000000000E+00 -0.22352561147E+04  0.22352561147E+04  0.00000000000E+00 0. -1.
         24    2    1    2    0    0  0.22904441133E+02  0.10642301747E+03 -0.13256124666E+03  0.18847980927E+03  0.78113265925E+02 0.  0.
         23    2    1    2    0    0  0.21631172409E+03 -0.12520111325E+03 -0.51584989759E+03  0.58077627202E+03  0.93455232909E+02 0.  0.
        -11    1    3    3    0    0  0.30693798305E+02  0.40720807806E+02 -0.10515304141E+03  0.11686511696E+03  0.00000000000E+00 0.  1.
         12    1    3    3    0    0 -0.77893571720E+01  0.65702209662E+02 -0.27408205250E+02  0.71614692310E+02  0.00000000000E+00 0. -1.
        -11    1    4    4    0    0  0.17745326263E+03 -0.12641522487E+03 -0.36578481963E+03  0.42575697736E+03  0.00000000000E+00 0.  1.
         11    1    4    4    0    0  0.38858461461E+02  0.12141116208E+01 -0.15006507796E+03  0.15501929466E+03  0.00000000000E+00 0. -1.
          1    1    1    2  501    0 -0.23921616522E+03  0.18778095781E+02 -0.15169924473E+04  0.15358525566E+04  0.00000000000E+00 0. -1.
<scales pt_clust_5="13000.00000" pt_clust_6="13000.00000" pt_clust_7="13000.00000" pt_clust_8="13000.00000" pt_clust_9="242.63116"></scales>
<clustering>
<clus scale="   78.113">  5  6 -1 -1</clus>
<clus scale="   93.455">  7  8 -1 -1</clus>
<clus scale="  133.986">  2  5  1 -1</clus>
<clus scale="  242.631">  1  9  2 -1</clus>
<clus scale="  242.631">  1  5  2 -1</clus>
</clustering>
</event>
<event>
 9    2  0.1325014E-004  0.1542241E+03  0.7546771E-02  0.1195767E+00
          2   -1    0    0  502    0 -0.00000000000E+00  0.00000000000E+00  0.24380112799E+03  0.24380112799E+03  0.00000000000E+00 0. -1.
         21   -1    0    0  501  502  0.00000000000E+00 -0.00000000000E+00 -0.20181887306E+03  0.20181887306E+03  0.00000000000E+00 0.  1.
         23    2    1    2    0    0 -0.17955094133E+01 -0.13304862004E+03  0.15175127647E+03  0.22011015746E+03  0.87834346132E+02 0.  0.
         24    2    1    2    0    0  0.15444364337E+02  0.11007977242E+03 -0.32789788594E+02  0.14402572546E+03  0.85511137704E+02 0.  0.
        -11    1    4    4    0    0 -0.29658055832E+02  0.48083752686E+02 -0.36516390513E+02  0.67268821339E+02  0.00000000000E+00 0.  1.
         12    1    4    4    0    0  0.45102420169E+02  0.61996019734E+02  0.37266019195E+01  0.76756904118E+02  0.00000000000E+00 0. -1.
        -13    1    3    3    0    0  0.54564851776E+01 -0.11071283203E+03  0.61316413852E+02  0.12667599225E+03  0.00000000000E+00 0.  1.
         13    1    3    3    0    0 -0.72519945909E+01 -0.22335788009E+02  0.90434862617E+02  0.93434165208E+02  0.00000000000E+00 0. -1.
          1    1    1    2  501    0 -0.13648854923E+02  0.22968847615E+02 -0.76979232950E+02  0.81484118128E+02  0.00000000000E+00 0. -1.
<scales pt_clust_5="13000.00000" pt_clust_6="13000.00000" pt_clust_7="13000.00000" pt_clust_8="13000.00000" pt_clust_9="26.71814"></scales>
<clustering>
<clus scale="   26.718">  2  9  1 -1</clus>
<clus scale="   85.511">  5  6 -1 -1</clus>
<clus scale="   87.834">  7  8 -1 -1</clus>
<clus scale="  152.913">  2  5  1 -1</clus>
<clus scale="   26.718">  2  5  1 -1</clus>
</clustering>
</event>
<event>
 9    2  0.1325014E-004  0.1222753E+03  0.7546771E-02  0.1243604E+00
         21   -1    0    0  501  502  0.00000000000E+00  0.00000000000E+00  0.65177741610E+02  0.65177741610E+02  0.00000000000E+00 0.  1.
          2   -1    0    0  502    0 -0.00000000000E+00 -0.00000000000E+00 -0.80905749151E+03  0.80905749151E+03  0.00000000000E+00 0. -1.
         24    2    1    2    0    0  0.72950719768E+02 -0.35524145655E+02 -0.39716209187E+03  0.41354200262E+03  0.81825963322E+02 0.  0.
         23    2    1    2    0    0 -0.25058266709E+02  0.55605846422E+02 -0.29338936279E+01  0.11300912325E+03  0.95092204305E+02 0.  0.
        -11    1    3    3    0    0  0.27419345556E+02 -0.57618994256E+02 -0.24557196218E+03  0.25372693515E+03  0.00000000000E+00 0.  1.
         12    1    3    3    0    0  0.45531374213E+02  0.22094848601E+02 -0.15159012968E+03  0.15981506747E+03  0.00000000000E+00 0. -1.
        -11    1    4    4    0    0 -0.20446961787E+02  0.26381894874E+02  0.45393976574E+02  0.56344438347E+02  0.00000000000E+00 0.  1.
         11    1    4    4    0    0 -0.46113049213E+01  0.29223951548E+02 -0.48327870202E+02  0.56664684905E+02  0.00000000000E+00 0. -1.
          1    1    1    2  501    0 -0.47892453060E+02 -0.20081700767E+02 -0.34378376440E+03  0.34768410725E+03  0.00000000000E+00 0. -1.
<scales pt_clust_5="13000.00000" pt_clust_6="13000.00000" pt_clust_7="13000.00000" pt_clust_8="13000.00000" pt_clust_9="51.93231"></scales>
<clustering>
<clus scale="   51.932">  1  9  2 -1</clus>
<clus scale="   81.826">  5  6 -1 -1</clus>
<clus scale="   95.092">  7  8 -1 -1</clus>
<clus scale="  112.268">  2  5  1 -1</clus>
<clus scale="   51.932">  1  5  2 -1</clus>
</clustering>
</event>
<event>
 9    2  0.1325014E-004  0.1404118E+03  0.7546771E-02  0.1228676E+00
         21   -1    0    0  501  502  0.00000000000E+00  0.00000000000E+00  0.22440850350E+03  0.22440850350E+03  0.00000000000E+00 0.  1.
          2   -1    0    0  502    0 -0.00000000000E+00 -0.00000000000E+00 -0.14769608728E+03  0.14769608728E+03  0.00000000000E+00 0. -1.
         23    2    1    2    0    0 -0.12648326879E+02 -0.34856846053E+02 -0.16156909019E+02  0.13395027559E+03  0.12769749697E+03 0.  0.
         24    2    1    2    0    0  0.35062568691E+02  0.65745210167E+02 -0.25627659364E+02  0.11366325273E+03  0.81919116894E+02 0.  0.
        -11    1    4    4    0    0 -0.13992451988E+02  0.26000454079E+02  0.20090515498E+02  0.35713318775E+02  0.00000000000E+00 0.  1.
         12    1    4    4    0    0  0.49055020679E+02  0.39744756088E+02 -0.45718174862E+02  0.77949933951E+02  0.00000000000E+00 0. -1.
        -13    1    3    3    0    0 -0.90504729039E+01  0.28070850832E+02  0.39887102257E+02  0.49607102845E+02  0.00000000000E+00 0.  1.
         13    1    3    3    0    0 -0.35978539756E+01 -0.62927696885E+02 -0.56044011276E+02  0.84343172743E+02  0.00000000000E+00 0. -1.
          1    1    1    2  501    0 -0.22414241811E+02 -0.30888364113E+02  0.11849698460E+03  0.12449106246E+03  0.00000000000E+00 0. -1.
<scales pt_clust_5="13000.00000" pt_clust_6="13000.00000" pt_clust_7="13000.00000" pt_clust_8="13000.00000" pt_clust_9="38.16398"></scales>
<clustering>
<clus scale="   38.164">  1  9  2 -1</clus>
<clus scale="   81.919">  5  6 -1 -1</clus>
<clus scale="  100.596">  1  5  2 -1</clus>
<clus scale="  127.697">  7  8 -1 -1</clus>
<clus scale="   38.164">  1  5  2 -1</clus>
</clustering>
</event>
<event>
 9    2  0.1325014E-004  0.1389405E+03  0.7546771E-02  0.1222754E+00
          2   -1    0    0  502    0 -0.00000000000E+00  0.00000000000E+00  0.40985101795E+03  0.40985101795E+03  0.00000000000E+00 0. -1.
         21   -1    0    0  501  502  0.00000000000E+00 -0.00000000000E+00 -0.47923276580E+02  0.47923276580E+02  0.00000000000E+00 0.  1.
         23    2    1    2    0    0  0.88357108264E+02 -0.33508917647E+02  0.19767482925E+03  0.24418717158E+03  0.10780635649E+03 0.  0.
         24    2    1    2    0    0 -0.68959848328E+02  0.45494916042E+02  0.13707267103E+03  0.17810919522E+03  0.78158302257E+02 0.  0.
        -13    1    4    4    0    0 -0.65659160532E+02  0.22784890508E+02  0.44019042764E+02  0.82267567869E+02  0.00000000000E+00 0.  1.
         14    1    4    4    0    0 -0.33006877951E+01  0.22710025535E+02  0.93053628270E+02  0.95841627354E+02  0.00000000000E+00 0. -1.
        -11    1    3    3    0    0  0.28351895434E+02  0.26505236415E+02  0.12975450462E+02  0.40923341100E+02  0.00000000000E+00 0.  1.
         11    1    3    3    0    0  0.60005212830E+02 -0.60014154062E+02  0.18469937879E+03  0.20326383048E+03  0.00000000000E+00 0. -1.
          1    1    1    2  501    0 -0.19397259937E+02 -0.11985998395E+02  0.27180241081E+02  0.35477927727E+02  0.00000000000E+00 0. -1.
<scales pt_clust_5="13000.00000" pt_clust_6="13000.00000" pt_clust_7="13000.00000" pt_clust_8="13000.00000" pt_clust_9="22.80171"></scales>
<clustering>
<clus scale="   22.802">  2  9  1 -1</clus>
<clus scale="   78.158">  5  6 -1 -1</clus>
<clus scale="  107.806">  7  8 -1 -1</clus>
<clus scale="  117.435">  2  5  1 -1</clus>
<clus scale="   22.802">  2  5  1 -1</clus>
</clustering>
</event>
<event>
 9    2  0.1325014E-004  0.9639229E+02  0.7546771E-02  0.1292105E+00
         21   -1    0    0  501  502  0.00000000000E+00  0.00000000000E+00  0.30085045667E+02  0.30085045667E+02  0.00000000000E+00 0. -1.
          2   -1    0    0  502    0 -0.00000000000E+00 -0.00000000000E+00 -0.73121924825E+03  0.73121924825E+03  0.00000000000E+00 0. -1.
         24    2    1    2    0    0  0.46525646123E+02  0.51093150057E+01 -0.50422318858E+03  0.51264789385E+03  0.79850474744E+02 0.  0.
         23    2    1    2    0    0 -0.10439429015E+02  0.33209810937E+02 -0.94422649737E+02  0.13344166452E+03  0.87630861149E+02 0.  0.
        -11    1    3    3    0    0 -0.16513275192E+02  0.21663894081E+02 -0.13603811828E+03  0.13873853895E+03  0.00000000000E+00 0.  1.
         12    1    3    3    0    0  0.63038921315E+02 -0.16554579075E+02 -0.36818507030E+03  0.37390935490E+03  0.00000000000E+00 0. -1.
        -11    1    4    4    0    0 -0.27385059931E+02 -0.22851473669E+02 -0.33464141029E+02  0.48907873508E+02  0.00000000000E+00 0.  1.
         11    1    4    4    0    0  0.16945630916E+02  0.56061284606E+02 -0.60958508708E+02  0.84533791011E+02  0.00000000000E+00 0. -1.
          1    1    1    2  501    0 -0.36086217107E+02 -0.38319125943E+02 -0.10248836427E+03  0.11521473555E+03  0.00000000000E+00 0. -1.
<scales pt_clust_5="13000.00000" pt_clust_6="13000.00000" pt_clust_7="13000.00000" pt_clust_8="13000.00000" pt_clust_9="52.63621"></scales>
<clustering>
<clus scale="   52.636">  1  9  2 -1</clus>
<clus scale="   79.850">  5  6 -1 -1</clus>
<clus scale="   87.631">  7  8 -1 -1</clus>
<clus scale="   89.378">  2  5  1 -1</clus>
<clus scale="   52.636">  1  5  2 -1</clus>
</clustering>
</event>
<event>
 9    2  0.1325014E-004  0.1558301E+03  0.7546771E-02  0.1194953E+00
         21   -1    0    0  501  502  0.00000000000E+00  0.00000000000E+00  0.55346170957E+02  0.55346170957E+02  0.00000000000E+00 0. -1.
          2   -1    0    0  502    0 -0.00000000000E+00 -0.00000000000E+00 -0.17373826598E+04  0.17373826598E+04  0.00000000000E+00 0. -1.
         24    2    1    2    0    0  0.85448607103E+01 -0.12349149142E+03 -0.14247862998E+04  0.14324657764E+04  0.81357466120E+02 0.  0.
         23    2    1    2    0    0 -0.28788206771E+02  0.14726167199E+03 -0.27375699920E+03  0.32494607080E+03  0.90179229479E+02 0.  0.
        -11    1    3    3    0    0  0.81362639386E+01 -0.65293535164E+02 -0.35168011580E+03  0.35778254342E+03  0.00000000000E+00 0.  1.
         12    1    3    3    0    0  0.40859677170E+00 -0.58197956255E+02 -0.10731061840E+04  0.10746832330E+04  0.00000000000E+00 0. -1.
        -11    1    4    4    0    0 -0.18586556436E+02  0.26622574545E+02 -0.88025261226E+01  0.33640838600E+02  0.00000000000E+00 0.  1.
         11    1    4    4    0    0 -0.10201650335E+02  0.12063909745E+03 -0.26495447308E+03  0.29130523220E+03  0.00000000000E+00 0. -1.
          1    1    1    2  501    0  0.20243346061E+02 -0.23770180572E+02  0.16506810193E+02  0.35316983548E+02  0.00000000000E+00 0. -1.
<scales pt_clust_5="13000.00000" pt_clust_6="13000.00000" pt_clust_7="13000.00000" pt_clust_8="13000.00000" pt_clust_9="31.22202"></scales>
<clustering>
<clus scale="   31.222">  1  9  2 -1</clus>
<clus scale="   81.357">  5  6 -1 -1</clus>
<clus scale="   90.179">  7  8 -1 -1</clus>
<clus scale="  150.897">  2  5  1 -1</clus>
<clus scale="   31.222">  1  5  2 -1</clus>
</clustering>
</event>
<event>
 9    2  0.1325014E-004  0.9580385E+02  0.7546771E-02  0.1296744E+00
         21   -1    0    0  501  502  0.00000000000E+00  0.00000000000E+00  0.26568981354E+03  0.26568981354E+03  0.00000000000E+00 0. -1.
          4   -1    0    0  502    0 -0.00000000000E+00 -0.00000000000E+00 -0.19159275721E+03  0.19159275721E+03  0.00000000000E+00 0. -1.
         23    2    1    2    0    0 -0.21854340730E+02  0.12448004214E+02 -0.11870045456E+03  0.15321854060E+03  0.93560452405E+02 0.  0.
         24    2    1    2    0    0  0.14729468447E+02  0.54202903776E+02 -0.15094940095E+01  0.98520070149E+02  0.80925976247E+02 0.  0.
        -11    1    4    4    0    0 -0.30487246237E+02  0.48828339795E+01  0.50605090474E+01  0.31287745247E+02  0.00000000000E+00 0.  1.
         12    1    4    4    0    0  0.45216714685E+02  0.49320069796E+02 -0.65700030568E+01  0.67232324902E+02  0.00000000000E+00 0. -1.
        -11    1    3    3    0    0  0.29502584652E+02 -0.44808290444E+01 -0.94224985339E+01  0.31293191092E+02  0.00000000000E+00 0.  1.
         11    1    3    3    0    0 -0.51356925383E+02  0.16928833258E+02 -0.10927795602E+03  0.12192534951E+03  0.00000000000E+00 0. -1.
          3    1    1    2  501    0  0.71248722830E+01 -0.66650907990E+02  0.19430700490E+03  0.20554396000E+03  0.00000000000E+00 0. -1.
<scales pt_clust_5="13000.00000" pt_clust_6="13000.00000" pt_clust_7="13000.00000" pt_clust_8="13000.00000" pt_clust_9="67.03064"></scales>
<clustering>
<clus scale="   67.031">  1  9  2 -1</clus>
<clus scale="   80.926">  5  6 -1 -1</clus>
<clus scale="   83.509">  1  5  2 -1</clus>
<clus scale="   93.560">  7  8 -1 -1</clus>
<clus scale="   67.031">  1  5  2 -1</clus>
</clustering>
</event>
<event>
 9    2  0.1325014E-004  0.2116390E+03  0.7546771E-02  0.1141197E+00
          2   -1    0    0  502    0 -0.00000000000E+00  0.00000000000E+00  0.27987046255E+03  0.27987046255E+03  0.00000000000E+00 0. -1.
         21   -1    0    0  501  502  0.00000000000E+00 -0.00000000000E+00 -0.30500022728E+03  0.30500022728E+03  0.00000000000E+00 0.  1.
         23    2    1    2    0    0 -0.13262853884E+03  0.13839561237E+03  0.10422375886E+03  0.23650286205E+03  0.91254243786E+02 0.  0.
         24    2    1    2    0    0  0.18766284992E+03 -0.75335195760E+02 -0.14748701689E+03  0.26272779556E+03  0.79879518314E+02 0.  0.
        -11    1    4    4    0    0  0.12062656614E+03 -0.72436044012E+02 -0.13396663381E+03  0.19428023035E+03  0.00000000000E+00 0.  1.
         12    1    4    4    0    0  0.67036283786E+02 -0.28991517480E+01 -0.13520383085E+02  0.68447565212E+02  0.00000000000E+00 0. -1.
        -13    1    3    3    0    0 -0.12732178076E+03  0.88613817750E+02  0.10341083628E+03  0.18643241567E+03  0.00000000000E+00 0. -1.
         13    1    3    3    0    0 -0.53067580748E+01  0.49781794623E+02  0.81292257163E+00  0.50070446375E+02  0.00000000000E+00 0.  1.
          1    1    1    2  501    0 -0.55034311085E+02 -0.63060416613E+02  0.18133493300E+02  0.85640032224E+02  0.00000000000E+00 0. -1.
<scales pt_clust_5="13000.00000" pt_clust_6="13000.00000" pt_clust_7="13000.00000" pt_clust_8="13000.00000" pt_clust_9="83.69826"></scales>
<clustering>
<clus scale="   79.880">  5  6 -1 -1</clus>
<clus scale="   83.698">  2  9  1 -1</clus>
<clus scale="   91.254">  7  8 -1 -1</clus>
<clus scale="  206.989">  2  5  1 -1</clus>
<clus scale="   83.698">  2  5  1 -1</clus>
</clustering>
</event>
<event>
 9    2  0.1325014E-004  0.9751402E+02  0.7546771E-02  0.1291519E+00
         21   -1    0    0  501  502  0.00000000000E+00  0.00000000000E+00  0.11468043776E+03  0.11468043776E+03  0.00000000000E+00 0. -1.
          2   -1    0    0  502    0 -0.00000000000E+00 -0.00000000000E+00 -0.40776214744E+03  0.40776214744E+03  0.00000000000E+00 0. -1.
         24    2    1    2    0    0 -0.29374099523E+02  0.23753020397E+02 -0.30915270212E+03  0.32115227540E+03  0.78334839418E+02 0.  0.
         23    2    1    2    0    0  0.57368827491E+02  0.95483784679E+01 -0.53322594691E+02  0.11938696496E+03  0.89596843691E+02 0.  0.
        -13    1    3    3    0    0  0.11382227094E+02  0.35974911394E+02 -0.20832027775E+03  0.21170991348E+03  0.00000000000E+00 0.  1.
         14    1    3    3    0    0 -0.40756326617E+02 -0.12221890998E+02 -0.10083242437E+03  0.10944236193E+03  0.00000000000E+00 0. -1.
        -11    1    4    4    0    0  0.33849104834E+02  0.32655650687E+02  0.99174681593E+01  0.48067760448E+02  0.00000000000E+00 0. -1.
         11    1    4    4    0    0  0.23519722657E+02 -0.23107272219E+02 -0.63240062850E+02  0.71319204514E+02  0.00000000000E+00 0.  1.
          1    1    1    2  501    0 -0.27994727968E+02 -0.33301398865E+02  0.69393587131E+02  0.81903344836E+02  0.00000000000E+00 0. -1.
<scales pt_clust_5="13000.00000" pt_clust_6="13000.00000" pt_clust_7="13000.00000" pt_clust_8="13000.00000" pt_clust_9="43.50503"></scales>
<clustering>
<clus scale="   43.505">  1  9  2 -1</clus>
<clus scale="   78.335">  5  6 -1 -1</clus>
<clus scale="   87.280">  2  5  1 -1</clus>
<clus scale="   89.597">  7  8 -1 -1</clus>
<clus scale="   43.505">  1  5  2 -1</clus>
</clustering>
</event>
<event>
 9    2  0.1325014E-004  0.1157975E+03  0.7546771E-02  0.1254371E+00
         21   -1    0    0  501  502  0.00000000000E+00  0.00000000000E+00  0.84860498797E+03  0.84860498797E+03  0.00000000000E+00 0.  1.
          2   -1    0    0  502    0 -0.00000000000E+00 -0.00000000000E+00 -0.18613746148E+02  0.18613746148E+02  0.00000000000E+00 0. -1.
         23    2    1    2    0    0  0.12073935917E+02 -0.64178033555E+02  0.37893475350E+03  0.39559000918E+03  0.92926358132E+02 0.  0.
         24    2    1    2    0    0 -0.38280181643E+02  0.64584339852E+02  0.38527407130E+03  0.40081729373E+03  0.81128809164E+02 0.  0.
        -13    1    4    4    0    0  0.23649525030E+02  0.13991189511E+02  0.14512903944E+03  0.14770745244E+03  0.00000000000E+00 0.  1.
         14    1    4    4    0    0 -0.61929706673E+02  0.50593150342E+02  0.24014503186E+03  0.25310984129E+03  0.00000000000E+00 0. -1.
        -11    1    3    3    0    0 -0.25719248804E+02 -0.62098048440E+02  0.16219567555E+03  0.17557073944E+03  0.00000000000E+00 0.  1.
         11    1    3    3    0    0  0.37793184721E+02 -0.20799851157E+01  0.21673907795E+03  0.22001926974E+03  0.00000000000E+00 0. -1.
          1    1    1    2  501    0  0.26206245726E+02 -0.40630629698E+00  0.65782417023E+02  0.70811431204E+02  0.00000000000E+00 0. -1.
<scales pt_clust_5="13000.00000" pt_clust_6="13000.00000" pt_clust_7="13000.00000" pt_clust_8="13000.00000" pt_clust_9="26.20941"></scales>
<clustering>
<clus scale="   26.209">  1  9  2 -1</clus>
<clus scale="   81.129">  5  6 -1 -1</clus>
<clus scale="   92.926">  7  8 -1 -1</clus>
<clus scale="  106.563">  1  5  2 -1</clus>
<clus scale="   26.209">  1  5  2 -1</clus>
</clustering>
</event>
<event>
 9    2  0.1325014E-004  0.9480861E+02  0.7546771E-02  0.1295731E+00
         21   -1    0    0  501  502  0.00000000000E+00  0.00000000000E+00  0.11087957861E+03  0.11087957861E+03  0.00000000000E+00 0.  1.
         -3   -1    0    0    0  501 -0.00000000000E+00 -0.00000000000E+00 -0.22333787926E+03  0.22333787926E+03  0.00000000000E+00 0.  1.
         24    2    1    2    0    0 -0.36584728882E+01  0.24259205417E+02 -0.12188274127E+03  0.14907066309E+03  0.82248200609E+02 0.  0.
         23    2    1    2    0    0  0.18188574609E+02 -0.68138562938E+02  0.49117430605E+02  0.12422015589E+03  0.89690786225E+02 0.  0.
        -11    1    3    3    0    0 -0.37874727067E+02  0.14143825418E+02 -0.29531442602E+02  0.50066444351E+02  0.00000000000E+00 0.  1.
         12    1    3    3    0    0  0.34216254179E+02  0.10115379999E+02 -0.92351298665E+02  0.99004218737E+02  0.00000000000E+00 0. -1.
        -11    1    4    4    0    0 -0.31121969397E+02 -0.49794635394E+02  0.12271550247E+02  0.59988945971E+02  0.00000000000E+00 0. -1.
         11    1    4    4    0    0  0.49310544006E+02 -0.18343927544E+02  0.36845880358E+02  0.64231209916E+02  0.00000000000E+00 0.  1.
         -4    1    1    2    0  502 -0.14530101720E+02  0.43879357521E+02 -0.39692989994E+02  0.60926638896E+02  0.00000000000E+00 0.  1.
<scales pt_clust_5="13000.00000" pt_clust_6="13000.00000" pt_clust_7="13000.00000" pt_clust_8="13000.00000" pt_clust_9="46.22255"></scales>
<clustering>
<clus scale="   46.223">  1  9  2 -1</clus>
<clus scale="   82.248">  5  6 -1 -1</clus>
<clus scale="   87.801">  2  5  1 -1</clus>
<clus scale="   89.691">  7  8 -1 -1</clus>
<clus scale="   46.223">  1  5  2 -1</clus>
</clustering>
</event>
<event>
 9    2  0.1325014E-004  0.2274632E+03  0.7546771E-02  0.1141640E+00
         21   -1    0    0  501  502  0.00000000000E+00  0.00000000000E+00  0.14119259425E+03  0.14119259425E+03  0.00000000000E+00 0. -1.
          2   -1    0    0  502    0 -0.00000000000E+00 -0.00000000000E+00 -0.10223762765E+04  0.10223762765E+04  0.00000000000E+00 0. -1.
         24    2    1    2    0    0  0.13344255340E+03  0.55277846771E+02 -0.59494283913E+03  0.61738829688E+03  0.79679181052E+02 0.  0.
         23    2    1    2    0    0  0.76058459531E+02  0.13507705311E+03 -0.13721707761E+03  0.22628411401E+03  0.91352472995E+02 0.  0.
        -11    1    3    3    0    0  0.34730027782E+02 -0.98350283973E+01 -0.64395277767E+02  0.73821774647E+02  0.00000000000E+00 0.  1.
         12    1    3    3    0    0  0.98712525619E+02  0.65112875168E+02 -0.53054756136E+03  0.54356652224E+03  0.00000000000E+00 0. -1.
        -13    1    4    4    0    0  0.77284948210E+02  0.69351394997E+02 -0.45326660079E+02  0.11330086196E+03  0.00000000000E+00 0. -1.
         13    1    4    4    0    0 -0.12264886784E+01  0.65725658115E+02 -0.91890417532E+02  0.11298325205E+03  0.00000000000E+00 0.  1.
          1    1    1    2  501    0 -0.20950101293E+03 -0.19035489988E+03 -0.14902376547E+03  0.31989645982E+03  0.00000000000E+00 0. -1.
<scales pt_clust_5="13000.00000" pt_clust_6="13000.00000" pt_clust_7="13000.00000" pt_clust_8="13000.00000" pt_clust_9="208.31289"></scales>
<clustering>
<clus scale="   79.679">  5  6 -1 -1</clus>
<clus scale="   91.352">  7  8 -1 -1</clus>
<clus scale="  164.959">  2  5  1 -1</clus>
<clus scale="  208.313">  1  9  2 -1</clus>
<clus scale="  208.313">  1  5  2 -1</clus>
</clustering>
</event>
<event>
 9    2  0.1325014E-004  0.1152068E+03  0.7546771E-02  0.1261411E+00
         -3   -1    0    0    0  501 -0.00000000000E+00  0.00000000000E+00  0.22736076021E+03  0.22736076021E+03  0.00000000000E+00 0.  1.
         21   -1    0    0  501  502  0.00000000000E+00 -0.00000000000E+00 -0.10506467644E+03  0.10506467644E+03  0.00000000000E+00 0.  1.
         24    2    1    2    0    0  0.40899633524E+02  0.74898274483E+02  0.10664181710E+03  0.15190453271E+03  0.66482917811E+02 0.  0.
         23    2    1    2    0    0 -0.35840898414E+02 -0.87703888633E+00 -0.12192063265E+02  0.10127349255E+03  0.93927284060E+02 0.  0.
        -13    1    3    3    0    0  0.50539218948E+02  0.50882059855E+02  0.10338203251E+03  0.12582146602E+03  0.00000000000E+00 0.  1.
         14    1    3    3    0    0 -0.96395854241E+01  0.24016214628E+02  0.32597845932E+01  0.26083066687E+02  0.00000000000E+00 0. -1.
        -13    1    4    4    0    0 -0.66044768247E+02 -0.14151992038E+02 -0.80344638961E+01  0.68020165403E+02  0.00000000000E+00 0.  1.
         13    1    4    4    0    0  0.30203869833E+02  0.13274953151E+02 -0.41575993690E+01  0.33253327150E+02  0.00000000000E+00 0. -1.
         -4    1    1    2    0  502 -0.50587351105E+01 -0.74021235596E+02  0.27846329933E+02  0.79247411383E+02  0.00000000000E+00 0.  1.
<scales pt_clust_5="13000.00000" pt_clust_6="13000.00000" pt_clust_7="13000.00000" pt_clust_8="13000.00000" pt_clust_9="74.19390"></scales>
<clustering>
<clus scale="   66.483">  5  6 -1 -1</clus>
<clus scale="   74.194">  2  9  1 -1</clus>
<clus scale="   93.927">  7  8 -1 -1</clus>
<clus scale="   94.182">  1  5  2 -1</clus>
<clus scale="   74.194">  2  5  1 -1</clus>
</clustering>
</event>
<event>
 9    2  0.1325014E-004  0.9347039E+02  0.7546771E-02  0.1301351E+00
          2   -1    0    0  502    0 -0.00000000000E+00  0.00000000000E+00  0.33728297932E+03  0.33728297932E+03  0.00000000000E+00 0. -1.
         21   -1    0    0  501  502  0.00000000000E+00 -0.00000000000E+00 -0.99236295580E+02  0.99236295580E+02  0.00000000000E+00 0.  1.
         23    2    1    2    0    0 -0.76941302191E+01 -0.22541193994E+02  0.12769877022E+03  0.15909269125E+03  0.91848807427E+02 0.  0.
         24    2    1    2    0    0  0.17520239584E+02 -0.25708750265E+02 -0.56577563660E+02  0.10339002290E+03  0.80750092821E+02 0.  0.
        -13    1    4    4    0    0  0.27390820228E+02 -0.31979265118E+02 -0.72376916734E+02  0.83733795484E+02  0.00000000000E+00 0.  1.
         14    1    4    4    0    0 -0.98705806437E+01  0.62705148525E+01  0.15799353073E+02  0.19656227418E+02  0.00000000000E+00 0. -1.
        -13    1    3    3    0    0 -0.17842040298E+02 -0.55439439999E+02  0.62941707561E+02  0.85752716925E+02  0.00000000000E+00 0.  1.
         13    1    3    3    0    0  0.10147910079E+02  0.32898246005E+02  0.64757062659E+02  0.73339974321E+02  0.00000000000E+00 0. -1.
          1    1    1    2  501    0 -0.98261093647E+01  0.48249944259E+02  0.16692547718E+03  0.17403656075E+03  0.00000000000E+00 0. -1.
<scales pt_clust_5="13000.00000" pt_clust_6="13000.00000" pt_clust_7="13000.00000" pt_clust_8="13000.00000" pt_clust_9="49.24035"></scales>
<clustering>
<clus scale="   49.240">  2  9  1 -1</clus>
<clus scale="   80.750">  5  6 -1 -1</clus>
<clus scale="   82.590">  2  5  1 -1</clus>
<clus scale="   91.849">  7  8 -1 -1</clus>
<clus scale="   49.240">  2  5  1 -1</clus>
</clustering>
</event>
<event>
 9    2  0.1325014E-004  0.2173357E+03  0.7546771E-02  0.1136609E+00
          2   -1    0    0  502    0 -0.00000000000E+00  0.00000000000E+00  0.13342880074E+04  0.13342880074E+04  0.00000000000E+00 0. -1.
         21   -1    0    0  501  502  0.00000000000E+00 -0.00000000000E+00 -0.57386303132E+02  0.57386303132E+02  0.00000000000E+00 0. -1.
         24    2    1    2    0    0 -0.17518421746E+03  0.53507927262E+02  0.64236505432E+03  0.67288638136E+03  0.81182577444E+02 0.  0.
         23    2    1    2    0    0  0.21116439804E+03 -0.51743771957E+02  0.64034503014E+03  0.68229926086E+03  0.90679119974E+02 0.  0.
        -13    1    3    3    0    0 -0.67628833254E+02  0.13740515679E+02  0.12323464980E+03  0.14124177771E+03  0.00000000000E+00 0.  1.
         14    1    3    3    0    0 -0.10755538420E+03  0.39767411583E+02  0.51913040452E+03  0.53164460365E+03  0.00000000000E+00 0. -1.
        -11    1    4    4    0    0  0.10566905327E+03 -0.69771935650E+02  0.30334898272E+03  0.32871671259E+03  0.00000000000E+00 0.  1.
         11    1    4    4    0    0  0.10549534478E+03  0.18028163693E+02  0.33699604743E+03  0.35358254826E+03  0.00000000000E+00 0. -1.
          1    1    1    2  501    0 -0.35980180586E+02 -0.17641553047E+01 -0.58083801488E+01  0.36488668363E+02  0.00000000000E+00 0. -1.
<scales pt_clust_5="13000.00000" pt_clust_6="13000.00000" pt_clust_7="13000.00000" pt_clust_8="13000.00000" pt_clust_9="36.02340"></scales>
<clustering>
<clus scale="   36.023">  2  9  1 -1</clus>
<clus scale="   81.183">  5  6 -1 -1</clus>
<clus scale="   90.679">  7  8 -1 -1</clus>
<clus scale="  213.548">  1  5  2 -1</clus>
<clus scale="   36.023">  2  5  1 -1</clus>
</clustering>
</event>
<event>
 9    2  0.1325014E-004  0.1203805E+03  0.7546771E-02  0.1244830E+00
         21   -1    0    0  501  502  0.00000000000E+00  0.00000000000E+00  0.33560751134E+02  0.33560751134E+02  0.00000000000E+00 0.  1.
          2   -1    0    0  502    0 -0.00000000000E+00 -0.00000000000E+00 -0.94377228352E+03  0.94377228352E+03  0.00000000000E+00 0. -1.
         24    2    1    2    0    0 -0.75047699505E+02 -0.16081659563E+02 -0.67149548262E+03  0.68075947741E+03  0.81464752655E+02 0.  0.
         23    2    1    2    0    0  0.96129645238E+02  0.72309456989E+01 -0.24009830867E+03  0.27366735260E+03  0.89181986876E+02 0.  0.
        -13    1    3    3    0    0 -0.65153737403E+02  0.99325009519E+00 -0.23638437323E+03  0.24520107657E+03  0.00000000000E+00 0.  1.
         14    1    3    3    0    0 -0.98939621016E+01 -0.17074909658E+02 -0.43511110938E+03  0.43555840083E+03  0.00000000000E+00 0. -1.
        -11    1    4    4    0    0  0.34923423181E+02  0.37760990462E+02 -0.50387314460E+02  0.72002912065E+02  0.00000000000E+00 0.  1.
         11    1    4    4    0    0  0.61206222057E+02 -0.30530044763E+02 -0.18971099421E+03  0.20166444054E+03  0.00000000000E+00 0. -1.
          1    1    1    2  501    0 -0.21081945733E+02  0.88507138643E+01  0.13822589023E+01  0.22906204650E+02  0.00000000000E+00 0. -1.
<scales pt_clust_5="13000.00000" pt_clust_6="13000.00000" pt_clust_7="13000.00000" pt_clust_8="13000.00000" pt_clust_9="22.86446"></scales>
<clustering>
<clus scale="   22.864">  1  9  2 -1</clus>
<clus scale="   81.465">  5  6 -1 -1</clus>
<clus scale="   89.182">  7  8 -1 -1</clus>
<clus scale="  114.780">  2  5  1 -1</clus>
<clus scale="   22.864">  1  5  2 -1</clus>
</clustering>
</event>
<event>
 9    2  0.1325014E-004  0.1768881E+03  0.7546771E-02  0.1193722E+00
          2   -1    0    0  502    0 -0.00000000000E+00  0.00000000000E+00  0.61538021042E+03  0.61538021042E+03  0.00000000000E+00 0. -1.
         21   -1    0    0  501  502  0.00000000000E+00 -0.00000000000E+00 -0.19853450441E+03  0.19853450441E+03  0.00000000000E+00 0. -1.
         24    2    1    2    0    0 -0.11147729272E+02 -0.71167502053E+02  0.19685398958E+03  0.22357450594E+03  0.77749477659E+02 0.  0.
         23    2    1    2    0    0  0.10094978989E+03 -0.10704760053E+03 -0.11016669050E+03  0.20455580467E+03  0.89757053603E+02 0.  0.
        -13    1    3    3    0    0  0.27042016606E+02 -0.24905678576E+01  0.57541387111E+02  0.63627704823E+02  0.00000000000E+00 0.  1.
         14    1    3    3    0    0 -0.38189745879E+02 -0.68676934195E+02  0.13931260247E+03  0.15994680112E+03  0.00000000000E+00 0. -1.
        -11    1    4    4    0    0  0.62905138718E+02 -0.90280904874E+02 -0.11897464642E+03  0.16205759702E+03  0.00000000000E+00 0. -1.
         11    1    4    4    0    0  0.38044651174E+02 -0.16766695652E+02  0.88079559189E+01  0.42498207651E+02  0.00000000000E+00 0.  1.
          1    1    1    2  501    0 -0.89802060619E+02  0.17821510258E+03  0.33015840692E+03  0.38578440422E+03  0.00000000000E+00 0. -1.
<scales pt_clust_5="13000.00000" pt_clust_6="13000.00000" pt_clust_7="13000.00000" pt_clust_8="13000.00000" pt_clust_9="152.42409"></scales>
<clustering>
<clus scale="   77.749">  5  6 -1 -1</clus>
<clus scale="   89.757">  7  8 -1 -1</clus>
<clus scale="  105.991">  1  5  2 -1</clus>
<clus scale="  152.424">  2  9  1 -1</clus>
<clus scale="  152.424">  2  5  1 -1</clus>
</clustering>
</event>
<event>
 9    2  0.1325014E-004  0.1078045E+03  0.7546771E-02  0.1276011E+00
         21   -1    0    0  501  502  0.00000000000E+00  0.00000000000E+00  0.50347685418E+02  0.50347685418E+02  0.00000000000E+00 0.  1.
          4   -1    0    0  502    0 -0.00000000000E+00 -0.00000000000E+00 -0.30578457480E+03  0.30578457480E+03  0.00000000000E+00 0. -1.
         23    2    1    2    0    0 -0.21744545314E+02  0.34586569117E+02 -0.21441556602E+03  0.24100704573E+03  0.10218270461E+03 0.  0.
         24    2    1    2    0    0  0.25365113327E+01 -0.23622277311E+02 -0.41954215885E+02  0.92988490422E+02  0.79512623183E+02 0.  0.
        -11    1    4    4    0    0  0.11226367708E+01 -0.50810524818E+02 -0.11440088194E+02  0.52094580942E+02  0.00000000000E+00 0.  1.
         12    1    4    4    0    0  0.14138745619E+01  0.27188247508E+02 -0.30514127691E+02  0.40893909480E+02  0.00000000000E+00 0. -1.
        -11    1    3    3    0    0 -0.37298138695E+01 -0.36287728697E+02 -0.81800365696E+02  0.89565677541E+02  0.00000000000E+00 0.  1.
         11    1    3    3    0    0 -0.18014731444E+02  0.70874297814E+02 -0.13261520033E+03  0.15144136819E+03  0.00000000000E+00 0. -1.
          3    1    1    2  501    0  0.19208033981E+02 -0.10964291806E+02  0.93289252337E+00  0.22136724073E+02  0.00000000000E+00 0. -1.
<scales pt_clust_5="13000.00000" pt_clust_6="13000.00000" pt_clust_7="13000.00000" pt_clust_8="13000.00000" pt_clust_9="22.11706"></scales>
<clustering>
<clus scale="   22.117">  1  9  2 -1</clus>
<clus scale="   79.513">  5  6 -1 -1</clus>
<clus scale="   86.618">  1  5  2 -1</clus>
<clus scale="  102.183">  7  8 -1 -1</clus>
<clus scale="   22.117">  1  5  2 -1</clus>
</clustering>
</event>
<event>
 9    2  0.1325014E-004  0.9632904E+02  0.7546771E-02  0.1294449E+00
         -1   -1    0    0    0  501 -0.00000000000E+00  0.00000000000E+00  0.30490368725E+03  0.30490368725E+03  0.00000000000E+00 0.  1.
         21   -1    0    0  501  502  0.00000000000E+00 -0.00000000000E+00 -0.71624555252E+02  0.71624555252E+02  0.00000000000E+00 0.  1.
         24    2    1    2    0    0  0.26151112673E+02  0.14943184601E+02  0.19516405548E+03  0.21285112469E+03  0.79431815222E+02 0.  0.
         23    2    1    2    0    0 -0.24359113219E+02 -0.47003477409E+02 -0.10295562587E+02  0.10558526283E+03  0.90771999165E+02 0.  0.
        -11    1    3    3    0    0  0.32267611113E+02  0.43995300571E+02  0.13896678633E+03  0.14929351259E+03  0.00000000000E+00 0.  1.
         12    1    3    3    0    0 -0.61164984397E+01 -0.29052115969E+02  0.56197269159E+02  0.63557612104E+02  0.00000000000E+00 0. -1.
        -13    1    4    4    0    0 -0.45797480987E+02 -0.59243216588E+02 -0.22305379795E+02  0.78132566476E+02  0.00000000000E+00 0.  1.
         13    1    4    4    0    0  0.21438367768E+02  0.12239739178E+02  0.12009817208E+02  0.27452696353E+02  0.00000000000E+00 0. -1.
         -2    1    1    2    0  502 -0.17919994541E+01  0.32060292808E+02  0.48410639102E+02  0.58091854982E+02  0.00000000000E+00 0.  1.
<scales pt_clust_5="13000.00000" pt_clust_6="13000.00000" pt_clust_7="13000.00000" pt_clust_8="13000.00000" pt_clust_9="32.11035"></scales>
<clustering>
<clus scale="   32.110">  2  9  1 -1</clus>
<clus scale="   79.432">  5  6 -1 -1</clus>
<clus scale="   85.727">  1  5  2 -1</clus>
<clus scale="   90.772">  7  8 -1 -1</clus>
<clus scale="   32.110">  2  5  1 -1</clus>
</clustering>
</event>
<event>
 9    2  0.1325014E-004  0.9876531E+02  0.7546771E-02  0.1288874E+00
         21   -1    0    0  501  502  0.00000000000E+00  0.00000000000E+00  0.56606527022E+02  0.56606527022E+02  0.00000000000E+00 0.  1.
          2   -1    0    0  502    0 -0.00000000000E+00 -0.00000000000E+00 -0.35058416399E+03  0.35058416399E+03  0.00000000000E+00 0. -1.
         23    2    1    2    0    0 -0.19751747705E+02  0.33057646494E+02 -0.26605334657E+03  0.28382316406E+03  0.91039912703E+02 0.  0.
         24    2    1    2    0    0  0.41949207742E+02 -0.16264708682E+02 -0.14691759763E+02  0.92548217105E+02  0.79530169784E+02 0.  0.
        -13    1    4    4    0    0  0.29222343976E+02  0.10097396105E+02  0.27377143538E+02  0.41296619521E+02  0.00000000000E+00 0.  1.
         14    1    4    4    0    0  0.12726863766E+02 -0.26362104787E+02 -0.42068903300E+02  0.51251597585E+02  0.00000000000E+00 0. -1.
        -11    1    3    3    0    0 -0.41012599439E+02  0.28467810737E+02 -0.25419247681E+03  0.25904876921E+03  0.00000000000E+00 0. -1.
         11    1    3    3    0    0  0.21260851734E+02  0.45898357578E+01 -0.11860869761E+02  0.24774394851E+02  0.00000000000E+00 0.  1.
          1    1    1    2  501    0 -0.22197460037E+02 -0.16792937813E+02 -0.13232530631E+02  0.30819309846E+02  0.00000000000E+00 0. -1.
<scales pt_clust_5="13000.00000" pt_clust_6="13000.00000" pt_clust_7="13000.00000" pt_clust_8="13000.00000" pt_clust_9="27.83397"></scales>
<clustering>
<clus scale="   27.834">  1  9  2 -1</clus>
<clus scale="   79.530">  5  6 -1 -1</clus>
<clus scale="   88.269">  1  5  2 -1</clus>
<clus scale="   91.040">  7  8 -1 -1</clus>
<clus scale="   27.834">  1  5  2 -1</clus>
</clustering>
</event>
<event>
 9    2  0.1325014E-004  0.1214618E+03  0.7546771E-02  0.1249393E+00
         21   -1    0    0  501  502  0.00000000000E+00  0.00000000000E+00  0.24044904686E+03  0.24044904686E+03  0.00000000000E+00 0. -1.
          4   -1    0    0  502    0 -0.00000000000E+00 -0.00000000000E+00 -0.12913902881E+03  0.12913902881E+03  0.00000000000E+00 0. -1.
         24    2    1    2    0    0  0.15858669129E+02 -0.56842314126E+02 -0.40276330786E+02  0.10962892118E+03  0.83149091852E+02 0.  0.
         23    2    1    2    0    0  0.44484705554E+02 -0.25733957495E+02  0.48189541717E+02  0.11452510337E+03  0.90291980678E+02 0.  0.
        -11    1    3    3    0    0 -0.19884927602E+02 -0.32514438327E+02  0.13673144056E+02  0.40491405432E+02  0.00000000000E+00 0.  1.
         12    1    3    3    0    0  0.35743596731E+02 -0.24327875800E+02 -0.53949474842E+02  0.69137515749E+02  0.00000000000E+00 0. -1.
        -11    1    4    4    0    0  0.97820251004E+01  0.23661135564E+02 -0.12875321068E+02  0.28658528292E+02  0.00000000000E+00 0.  1.
         11    1    4    4    0    0  0.34702680453E+02 -0.49395093059E+02  0.61064862785E+02  0.85866575079E+02  0.00000000000E+00 0. -1.
          3    1    1    2  501    0 -0.60343374682E+02  0.82576271621E+02  0.10339680712E+03  0.14543405112E+03  0.00000000000E+00 0. -1.
<scales pt_clust_5="13000.00000" pt_clust_6="13000.00000" pt_clust_7="13000.00000" pt_clust_8="13000.00000" pt_clust_9="81.24242"></scales>
<clustering>
<clus scale="   83.149">  5  6 -1 -1</clus>
<clus scale="   90.292">  7  8 -1 -1</clus>
<clus scale="  101.962">  2  5  1 -1</clus>
<clus scale="   81.242">  1  9  2 -1</clus>
<clus scale="   81.242">  1  5  2 -1</clus>
</clustering>
</event>
<event>
 9    2  0.1325014E-004  0.1006765E+03  0.7546771E-02  0.1281944E+00
         -1   -1    0    0    0  501 -0.00000000000E+00  0.00000000000E+00  0.92945044156E+03  0.92945044156E+03  0.00000000000E+00 0.  1.
         21   -1    0    0  501  502  0.00000000000E+00 -0.00000000000E+00 -0.21034241046E+02  0.21034241046E+02  0.00000000000E+00 0.  1.
         23    2    1    2    0    0  0.38856211236E+02  0.13005474923E+02  0.42453788057E+03  0.43591828254E+03  0.90074355308E+02 0.  0.
         24    2    1    2    0    0 -0.33377466536E+02 -0.54820103764E+02  0.18675024272E+03  0.21446046194E+03  0.83656066890E+02 0.  0.
        -13    1    4    4    0    0  0.17425410596E+02 -0.44104221820E+02  0.53717300183E+02  0.71654557815E+02  0.00000000000E+00 0.  1.
         14    1    4    4    0    0 -0.50802877131E+02 -0.10715881944E+02  0.13303294254E+03  0.14280590412E+03  0.00000000000E+00 0. -1.
        -11    1    3    3    0    0  0.52106097455E+02  0.41988129076E+02  0.29927734282E+03  0.30666753383E+03  0.00000000000E+00 0.  1.
         11    1    3    3    0    0 -0.13249886220E+02 -0.28982654153E+02  0.12526053774E+03  0.12925074871E+03  0.00000000000E+00 0. -1.
         -2    1    1    2    0  502 -0.54787447001E+01  0.41814628841E+02  0.29712807722E+03  0.30010593813E+03  0.00000000000E+00 0.  1.
<scales pt_clust_5="13000.00000" pt_clust_6="13000.00000" pt_clust_7="13000.00000" pt_clust_8="13000.00000" pt_clust_9="42.17205"></scales>
<clustering>
<clus scale="   42.172">  2  9  1 -1</clus>
<clus scale="   83.656">  5  6 -1 -1</clus>
<clus scale="   90.074">  7  8 -1 -1</clus>
<clus scale="   94.977">  2  5  1 -1</clus>
<clus scale="   42.172">  2  5  1 -1</clus>
</clustering>
</event>
<event>
 9    2  0.1325014E-004  0.1046423E+03  0.7546771E-02  0.1272389E+00
         -1   -1    0    0    0  501 -0.00000000000E+00  0.00000000000E+00  0.30938340310E+03  0.30938340310E+03  0.00000000000E+00 0.  1.
         21   -1    0    0  501  502  0.00000000000E+00 -0.00000000000E+00 -0.16802940913E+03  0.16802940913E+03  0.00000000000E+00 0.  1.
         23    2    1    2    0    0 -0.11886917597E+02 -0.40158071979E+02  0.19767033363E+03  0.22201499158E+03  0.91995250608E+02 0.  0.
         24    2    1    2    0    0  0.81944280249E+02  0.53255337156E+02  0.38004456682E+02  0.13717775027E+03  0.88444335263E+02 0.  0.
        -13    1    4    4    0    0  0.46691480562E+02 -0.19228211757E+02  0.77598545844E+01  0.51088490168E+02  0.00000000000E+00 0.  1.
         14    1    4    4    0    0  0.35252799686E+02  0.72483548913E+02  0.30244602097E+02  0.86089260101E+02  0.00000000000E+00 0. -1.
        -11    1    3    3    0    0  0.21589183055E+02 -0.53019059409E+02  0.16032740261E+03  0.17024097484E+03  0.00000000000E+00 0.  1.
         11    1    3    3    0    0 -0.33476100653E+02  0.12860987430E+02  0.37342931014E+02  0.51774016739E+02  0.00000000000E+00 0. -1.
         -2    1    1    2    0  502 -0.70057362652E+02 -0.13097265177E+02 -0.94320796341E+02  0.11822007037E+03  0.00000000000E+00 0.  1.
<scales pt_clust_5="13000.00000" pt_clust_6="13000.00000" pt_clust_7="13000.00000" pt_clust_8="13000.00000" pt_clust_9="71.27112"></scales>
<clustering>
<clus scale="   71.271">  2  9  1 -1</clus>
<clus scale="   88.444">  5  6 -1 -1</clus>
<clus scale="   91.995">  7  8 -1 -1</clus>
<clus scale="  101.535">  2  5  1 -1</clus>
<clus scale="   71.271">  2  5  1 -1</clus>
</clustering>
</event>
<event>
 9    2  0.1325014E-004  0.1657328E+03  0.7546771E-02  0.1207936E+00
         21   -1    0    0  501  502  0.00000000000E+00  0.00000000000E+00  0.69665042676E+03  0.69665042676E+03  0.00000000000E+00 0. -1.
          2   -1    0    0  502    0 -0.00000000000E+00 -0.00000000000E+00 -0.11224938395E+03  0.11224938395E+03  0.00000000000E+00 0. -1.
         24    2    1    2    0    0 -0.37770785659E+02 -0.31526191281E+02  0.39250858164E+02  0.10249135934E+03  0.80890765153E+02 0.  0.
         23    2    1    2    0    0 -0.98819463890E+02  0.69481221238E+02  0.85062034591E+01  0.15135508176E+03  0.90791402290E+02 0.  0.
        -11    1    3    3    0    0 -0.23618052428E+02 -0.31054515984E+02 -0.18393121364E+02  0.43133540047E+02  0.00000000000E+00 0.  1.
         12    1    3    3    0    0 -0.14152733230E+02 -0.47167529768E+00  0.57643979528E+02  0.59357819294E+02  0.00000000000E+00 0. -1.
        -11    1    4    4    0    0 -0.32203056312E+02 -0.23541960530E+01  0.37210704764E+02  0.49266780126E+02  0.00000000000E+00 0.  1.
         11    1    4    4    0    0 -0.66616407578E+02  0.71835417291E+02 -0.28704501305E+02  0.10208830164E+03  0.00000000000E+00 0. -1.
          1    1    1    2  501    0  0.13659024955E+03 -0.37955029957E+02  0.53664398119E+03  0.55505336961E+03  0.00000000000E+00 0. -1.
<scales pt_clust_5="13000.00000" pt_clust_6="13000.00000" pt_clust_7="13000.00000" pt_clust_8="13000.00000" pt_clust_9="138.65169"></scales>
<clustering>
<clus scale="   80.891">  5  6 -1 -1</clus>
<clus scale="   90.791">  7  8 -1 -1</clus>
<clus scale="   94.678">  2  5  1 -1</clus>
<clus scale="  138.652">  1  9  2 -1</clus>
<clus scale="  138.652">  1  5  2 -1</clus>
</clustering>
</event>
<event>
 9    2  0.1325014E-004  0.1949073E+03  0.7546771E-02  0.1154904E+00
         21   -1    0    0  501  502  0.00000000000E+00  0.00000000000E+00  0.30174490879E+02  0.30174490879E+02  0.00000000000E+00 0. -1.
          2   -1    0    0  502    0 -0.00000000000E+00 -0.00000000000E+00 -0.18109535936E+04  0.18109535936E+04  0.00000000000E+00 0. -1.
         24    2    1    2    0    0  0.16185018584E+03  0.23351423064E+02 -0.98493059777E+03  0.10016381835E+04  0.80311871012E+02 0.  0.
         23    2    1    2    0    0 -0.19865442487E+03 -0.14594963269E+01 -0.58019788194E+03  0.61962858179E+03  0.88567976799E+02 0.  0.
        -13    1    3    3    0    0  0.92395213637E+02 -0.23100599142E+02 -0.42753244090E+03  0.43801198751E+03  0.00000000000E+00 0.  1.
         14    1    3    3    0    0  0.69454972199E+02  0.46452022206E+02 -0.55739815687E+03  0.56362619600E+03  0.00000000000E+00 0. -1.
        -13    1    4    4    0    0 -0.11822869340E+03 -0.22849046562E+02 -0.44380592120E+03  0.45985193113E+03  0.00000000000E+00 0. -1.
         13    1    4    4    0    0 -0.80425731471E+02  0.21389550235E+02 -0.13639196074E+03  0.15977665066E+03  0.00000000000E+00 0.  1.
          1    1    1    2  501    0  0.36804239031E+02 -0.21891926738E+02 -0.21565062300E+03  0.21986131917E+03  0.00000000000E+00 0. -1.
<scales pt_clust_5="13000.00000" pt_clust_6="13000.00000" pt_clust_7="13000.00000" pt_clust_8="13000.00000" pt_clust_9="42.82301"></scales>
<clustering>
<clus scale="   42.823">  1  9  2 -1</clus>
<clus scale="   80.312">  5  6 -1 -1</clus>
<clus scale="   88.568">  7  8 -1 -1</clus>
<clus scale="  191.297">  2  5  1 -1</clus>
<clus scale="   42.823">  1  5  2 -1</clus>
</clustering>
</event>
<event>
 9    2  0.1325014E-004  0.9515947E+02  0.7546771E-02  0.1293229E+00
          2   -1    0    0  502    0 -0.00000000000E+00  0.00000000000E+00  0.34187310165E+03  0.34187310165E+03  0.00000000000E+00 0. -1.
         21   -1    0    0  501  502  0.00000000000E+00 -0.00000000000E+00 -0.82560214012E+02  0.82560214012E+02  0.00000000000E+00 0.  1.
         23    2    1    2    0    0  0.36723953352E+02  0.28635796393E+02  0.22677865813E+03  0.24880209448E+03  0.91133225818E+02 0.  0.
         24    2    1    2    0    0  0.23167269278E+02 -0.14712539650E+01  0.55970206103E+02  0.10581635233E+03  0.86749925047E+02 0.  0.
        -11    1    4    4    0    0  0.49618874897E+02 -0.10055632065E+02  0.92791898705E+01  0.51470883487E+02  0.00000000000E+00 0.  1.
         12    1    4    4    0    0 -0.26451605619E+02  0.85843781001E+01  0.46691016233E+02  0.54345468845E+02  0.00000000000E+00 0. -1.
        -13    1    3    3    0    0  0.47020538116E+02 -0.48937114532E+01  0.50928560860E+02  0.69488112133E+02  0.00000000000E+00 0. -1.
         13    1    3    3    0    0 -0.10296584764E+02  0.33529507846E+02  0.17585009727E+03  0.17931398235E+03  0.00000000000E+00 0.  1.
          1    1    1    2  501    0 -0.59891222630E+02 -0.27164542428E+02 -0.23435976598E+02  0.69814868850E+02  0.00000000000E+00 0. -1.
<scales pt_clust_5="13000.00000" pt_clust_6="13000.00000" pt_clust_7="13000.00000" pt_clust_8="13000.00000" pt_clust_9="65.76375"></scales>
<clustering>
<clus scale="   65.764">  2  9  1 -1</clus>
<clus scale="   86.750">  5  6 -1 -1</clus>
<clus scale="   90.970">  2  5  1 -1</clus>
<clus scale="   91.133">  7  8 -1 -1</clus>
<clus scale="   65.764">  2  5  1 -1</clus>
</clustering>
</event>
<event>
 9    2  0.1325014E-004  0.1539963E+03  0.7546771E-02  0.1197339E+00
          2   -1    0    0  502    0 -0.00000000000E+00  0.00000000000E+00  0.24240460221E+03  0.24240460221E+03  0.00000000000E+00 0. -1.
         21   -1    0    0  501  502  0.00000000000E+00 -0.00000000000E+00 -0.12351225800E+03  0.12351225800E+03  0.00000000000E+00 0.  1.
         24    2    1    2    0    0  0.64034758129E+02 -0.11970656016E+03  0.11041185142E+03  0.19298731139E+03  0.81383134801E+02 0.  0.
         23    2    1    2    0    0 -0.38732781084E+02  0.98340615287E+02  0.59416012284E+01  0.13971600319E+03  0.91181982749E+02 0.  0.
        -11    1    3    3    0    0  0.53640267550E+02 -0.12896813897E+03  0.11191647337E+03  0.17898423446E+03  0.00000000000E+00 0.  1.
         12    1    3    3    0    0  0.10394490579E+02  0.92615788069E+01 -0.15046219552E+01  0.14003076934E+02  0.00000000000E+00 0. -1.
        -11    1    4    4    0    0  0.20937444366E+02  0.60720724300E+02  0.21023660326E+02  0.67582373661E+02  0.00000000000E+00 0. -1.
         11    1    4    4    0    0 -0.59670225450E+02  0.37619890987E+02 -0.15082059098E+02  0.72133629534E+02  0.00000000000E+00 0.  1.
          1    1    1    2  501    0 -0.25301977045E+02  0.21365944874E+02  0.25388915684E+01  0.33213545628E+02  0.00000000000E+00 0. -1.
<scales pt_clust_5="13000.00000" pt_clust_6="13000.00000" pt_clust_7="13000.00000" pt_clust_8="13000.00000" pt_clust_9="33.11637"></scales>
<clustering>
<clus scale="   33.116">  2  9  1 -1</clus>
<clus scale="   81.383">  5  6 -1 -1</clus>
<clus scale="   91.182">  7  8 -1 -1</clus>
<clus scale="  148.405">  1  5  2 -1</clus>
<clus scale="   33.116">  2  5  1 -1</clus>
</clustering>
</event>
<event>
 9    2  0.1325014E-004  0.1449900E+03  0.7546771E-02  0.1208157E+00
         21   -1    0    0  501  502  0.00000000000E+00  0.00000000000E+00  0.41952915303E+03  0.41952915303E+03  0.00000000000E+00 0.  1.
          4   -1    0    0  502    0 -0.00000000000E+00 -0.00000000000E+00 -0.65174252454E+02  0.65174252454E+02  0.00000000000E+00 0. -1.
         24    2    1    2    0    0 -0.41942409951E+02 -0.11248123323E+03  0.81407923454E+02  0.16580526038E+03  0.80330198470E+02 0.  0.
         23    2    1    2    0    0  0.53956874473E+02  0.93802344860E+02  0.20823925848E+03  0.25048515598E+03  0.87572829073E+02 0.  0.
        -11    1    3    3    0    0  0.20448664838E+02 -0.58103331428E+02  0.31925626652E+02  0.69378603718E+02  0.00000000000E+00 0.  1.
         12    1    3    3    0    0 -0.62391074789E+02 -0.54377901805E+02  0.49482296802E+02  0.96426656661E+02  0.00000000000E+00 0. -1.
        -11    1    4    4    0    0  0.39426126913E+01  0.68522221915E+02  0.57069638636E+02  0.89262437481E+02  0.00000000000E+00 0. -1.
         11    1    4    4    0    0  0.50014261781E+02  0.25280122945E+02  0.15116961984E+03  0.16122271850E+03  0.00000000000E+00 0.  1.
          3    1    1    2  501    0 -0.12014464522E+02  0.18678888373E+02  0.64707718644E+02  0.68412989122E+02  0.00000000000E+00 0. -1.
<scales pt_clust_5="13000.00000" pt_clust_6="13000.00000" pt_clust_7="13000.00000" pt_clust_8="13000.00000" pt_clust_9="22.20919"></scales>
<clustering>
<clus scale="   22.209">  1  9  2 -1</clus>
<clus scale="   80.330">  5  6 -1 -1</clus>
<clus scale="   87.573">  7  8 -1 -1</clus>
<clus scale="  140.734">  2  5  1 -1</clus>
<clus scale="   22.209">  1  5  2 -1</clus>
</clustering>
</event>
<event>
 9    2  0.4263378E-004  0.9612903E+02  0.7546771E-02  0.1294824E+00
         21   -1    0    0  501  502  0.00000000000E+00  0.00000000000E+00  0.10576147161E+04  0.10576147161E+04  0.00000000000E+00 0.  1.
         -3   -1    0    0    0  501 -0.00000000000E+00 -0.00000000000E+00 -0.36986497581E+02  0.36986497581E+02  0.00000000000E+00 0.  1.
         23    2    1    2    0    0 -0.33066986953E+02 -0.22762858720E+01  0.37770764062E+02  0.10410822877E+03  0.91177220713E+02 0.  0.
         24    2    1    2    0    0 -0.83919478232E+00 -0.30677239359E+01  0.82845729876E+03  0.83232346926E+03  0.80067137048E+02 0.  0.
        -13    1    4    4    0    0 -0.28189634937E+02 -0.19001279461E+02  0.18562473584E+03  0.18871207352E+03  0.00000000000E+00 0.  1.
         14    1    4    4    0    0  0.27350440154E+02  0.15933555525E+02  0.64283256292E+03  0.64361139573E+03  0.00000000000E+00 0. -1.
        -11    1    3    3    0    0 -0.57693713041E+02 -0.20825856055E+01 -0.15038009822E+01  0.57750871030E+02  0.00000000000E+00 0.  1.
         11    1    3    3    0    0  0.24626726088E+02 -0.19370026656E+00  0.39274565044E+02  0.46357357744E+02  0.00000000000E+00 0. -1.
         -4    1    1    2    0  502  0.33906181736E+02  0.53440098080E+01  0.15440015568E+03  0.15816951563E+03  0.00000000000E+00 0.  1.
<scales pt_clust_5="13000.00000" pt_clust_6="13000.00000" pt_clust_7="13000.00000" pt_clust_8="13000.00000" pt_clust_9="34.32474"></scales>
<clustering>
<clus scale="   34.325">  1  9  2 -1</clus>
<clus scale="   80.067">  5  6 -1 -1</clus>
<clus scale="   85.664">  1  5  2 -1</clus>
<clus scale="   91.177">  7  8 -1 -1</clus>
<clus scale="   34.325">  1  5  2 -1</clus>
</clustering>
</event>
<event>
 9    2  0.1325014E-004  0.1076702E+03  0.7546771E-02  0.1270328E+00
         21   -1    0    0  501  502  0.00000000000E+00  0.00000000000E+00  0.12917307973E+03  0.12917307973E+03  0.00000000000E+00 0. -1.
          2   -1    0    0  502    0 -0.00000000000E+00 -0.00000000000E+00 -0.21171544777E+03  0.21171544777E+03  0.00000000000E+00 0. -1.
         24    2    1    2    0    0  0.42788682134E+02  0.67189963648E+01 -0.96250656900E+02  0.13307641289E+03  0.81050147956E+02 0.  0.
         23    2    1    2    0    0 -0.77936780884E+02 -0.65904785987E+02  0.68449903715E+01  0.13863515743E+03  0.93569601643E+02 0.  0.
        -13    1    3    3    0    0  0.58097342449E+02  0.22653138965E+02 -0.43920483524E+02  0.76272372309E+02  0.00000000000E+00 0.  1.
         14    1    3    3    0    0 -0.15308660315E+02 -0.15934142600E+02 -0.52330173376E+02  0.56804040583E+02  0.00000000000E+00 0. -1.
        -11    1    4    4    0    0 -0.12277513089E+02  0.23832884506E+02  0.58352917117E+01  0.27437097895E+02  0.00000000000E+00 0.  1.
         11    1    4    4    0    0 -0.65659267795E+02 -0.89737670493E+02  0.10096986598E+01  0.11119805953E+03  0.00000000000E+00 0. -1.
          1    1    1    2  501    0  0.35148098750E+02  0.59185789622E+02  0.68632984890E+01  0.69176957183E+02  0.00000000000E+00 0. -1.
<scales pt_clust_5="13000.00000" pt_clust_6="13000.00000" pt_clust_7="13000.00000" pt_clust_8="13000.00000" pt_clust_9="68.83565"></scales>
<clustering>
<clus scale="   68.836">  1  9  2 -1</clus>
<clus scale="   81.050">  5  6 -1 -1</clus>
<clus scale="   93.570">  7  8 -1 -1</clus>
<clus scale="   96.988">  2  5  1 -1</clus>
<clus scale="   68.836">  1  5  2 -1</clus>
</clustering>
</event>
<event>
 9    2  0.1325014E-004  0.2354686E+03  0.7546771E-02  0.1160400E+00
         -1   -1    0    0    0  501 -0.00000000000E+00  0.00000000000E+00  0.33769484590E+03  0.33769484590E+03  0.00000000000E+00 0.  1.
         21   -1    0    0  501  502  0.00000000000E+00 -0.00000000000E+00 -0.33513564445E+03  0.33513564445E+03  0.00000000000E+00 0.  1.
         24    2    1    2    0    0 -0.54078613592E+02  0.16140745384E+01  0.33612277341E+02  0.10115703823E+03  0.78586636967E+02 0.  0.
         23    2    1    2    0    0  0.22096689343E+03  0.12654871718E+03  0.13709139243E+03  0.30232245184E+03  0.88112820827E+02 0.  0.
        -11    1    3    3    0    0 -0.50588197387E+02  0.19876408174E+02 -0.86022083635E+01  0.55029404008E+02  0.00000000000E+00 0.  1.
         12    1    3    3    0    0 -0.34904162042E+01 -0.18262333635E+02  0.42214485705E+02  0.46127634217E+02  0.00000000000E+00 0. -1.
        -13    1    4    4    0    0  0.13146467875E+03  0.12080622404E+03  0.10463865182E+03  0.20694528982E+03  0.00000000000E+00 0.  1.
         13    1    4    4    0    0  0.89502214682E+02  0.57424931387E+01  0.32452740607E+02  0.95377162012E+02  0.00000000000E+00 0. -1.
         -2    1    1    2    0  502 -0.16688827984E+03 -0.12816279172E+03 -0.16814446833E+03  0.26935100029E+03  0.00000000000E+00 0.  1.
<scales pt_clust_5="13000.00000" pt_clust_6="13000.00000" pt_clust_7="13000.00000" pt_clust_8="13000.00000" pt_clust_9="218.36117"></scales>
<clustering>
<clus scale="   78.587">  5  6 -1 -1</clus>
<clus scale="   88.113">  7  8 -1 -1</clus>
<clus scale="   95.409">  1  5  2 -1</clus>
<clus scale="  218.361">  2  9  1 -1</clus>
<clus scale="  218.361">  2  5  1 -1</clus>
</clustering>
</event>
<event>
 9    2  0.1325014E-004  0.1737720E+03  0.7546771E-02  0.1175748E+00
          2   -1    0    0  502    0 -0.00000000000E+00  0.00000000000E+00  0.12903484116E+04  0.12903484116E+04  0.00000000000E+00 0. -1.
         21   -1    0    0  501  502  0.00000000000E+00 -0.00000000000E+00 -0.98445742002E+02  0.98445742002E+02  0.00000000000E+00 0. -1.
         24    2    1    2    0    0  0.14561604407E+03 -0.11297693772E+02  0.10600662083E+04  0.10727510070E+04  0.75648442643E+02 0.  0.
         23    2    1    2    0    0 -0.16600599964E+03  0.64844966494E+01  0.18163415915E+03  0.26201789458E+03  0.89790693838E+02 0.  0.
        -11    1    3    3    0    0  0.73954334624E+02 -0.41072178833E+02  0.46320288963E+03  0.47086418896E+03  0.00000000000E+00 0.  1.
         12    1    3    3    0    0  0.71661709445E+02  0.29774485062E+02  0.59686331866E+03  0.60188681803E+03  0.00000000000E+00 0. -1.
        -11    1    4    4    0    0 -0.25339043038E+02 -0.29996792228E+02  0.18076763787E+02  0.43227815525E+02  0.00000000000E+00 0.  1.
         11    1    4    4    0    0 -0.14066695660E+03  0.36481288877E+02  0.16355739536E+03  0.21879007906E+03  0.00000000000E+00 0. -1.
          1    1    1    2  501    0  0.20389955569E+02  0.48131971225E+01 -0.49797697799E+02  0.54025252065E+02  0.00000000000E+00 0. -1.
<scales pt_clust_5="13000.00000" pt_clust_6="13000.00000" pt_clust_7="13000.00000" pt_clust_8="13000.00000" pt_clust_9="20.95035"></scales>
<clustering>
<clus scale="   20.950">  2  9  1 -1</clus>
<clus scale="   75.648">  5  6 -1 -1</clus>
<clus scale="   89.791">  7  8 -1 -1</clus>
<clus scale="  166.904">  1  5  2 -1</clus>
<clus scale="   20.950">  2  5  1 -1</clus>
</clustering>
</event>
<event>
 9    2  0.1325014E-004  0.1040100E+03  0.7546771E-02  0.1275053E+00
         21   -1    0    0  501  502  0.00000000000E+00  0.00000000000E+00  0.29287578133E+03  0.29287578133E+03  0.00000000000E+00 0. -1.
          2   -1    0    0  502    0 -0.00000000000E+00 -0.00000000000E+00 -0.34061144418E+03  0.34061144418E+03  0.00000000000E+00 0. -1.
         23    2    1    2    0    0 -0.15884790413E+02  0.34449941079E+02 -0.17281734944E+03  0.19887949549E+03  0.90819009298E+02 0.  0.
         24    2    1    2    0    0 -0.41977623966E+02 -0.83421621688E+02 -0.12259655599E+03  0.17558881885E+03  0.84144101913E+02 0.  0.
        -13    1    4    4    0    0  0.20924963534E+02 -0.20389498191E+02 -0.60014165110E+02  0.66747926929E+02  0.00000000000E+00 0.  1.
         14    1    4    4    0    0 -0.62902587500E+02 -0.63032123497E+02 -0.62582390880E+02  0.10884089192E+03  0.00000000000E+00 0. -1.
        -11    1    3    3    0    0 -0.21663622281E+02  0.56123335822E+02 -0.64245910136E+02  0.88015216431E+02  0.00000000000E+00 0. -1.
         11    1    3    3    0    0  0.57788318686E+01 -0.21673394743E+02 -0.10857143931E+03  0.11086427906E+03  0.00000000000E+00 0.  1.
          1    1    1    2  501    0  0.57862414378E+02  0.48971680609E+02  0.24767824258E+03  0.25901891117E+03  0.00000000000E+00 0. -1.
<scales pt_clust_5="13000.00000" pt_clust_6="13000.00000" pt_clust_7="13000.00000" pt_clust_8="13000.00000" pt_clust_9="75.80425"></scales>
<clustering>
<clus scale="   75.804">  1  9  2 -1</clus>
<clus scale="   84.144">  5  6 -1 -1</clus>
<clus scale="   90.819">  7  8 -1 -1</clus>
<clus scale="   98.236">  1  5  2 -1</clus>
<clus scale="   75.804">  1  5  2 -1</clus>
</clustering>
</event>
<event>
 9    2  0.1325014E-004  0.2017557E+03  0.7546771E-02  0.1157993E+00
         21   -1    0    0  501  502  0.00000000000E+00  0.00000000000E+00  0.10532153510E+03  0.10532153510E+03  0.00000000000E+00 0. -1.
          2   -1    0    0  502    0 -0.00000000000E+00 -0.00000000000E+00 -0.17819232370E+04  0.17819232370E+04  0.00000000000E+00 0. -1.
         24    2    1    2    0    0 -0.11579564707E+03  0.63774645940E+02 -0.10702848724E+04  0.10822416618E+04  0.90892623843E+02 0.  0.
         23    2    1    2    0    0 -0.11643618423E+02 -0.19597301755E+03 -0.58035862526E+03  0.61955499298E+03  0.92148022000E+02 0.  0.
        -13    1    3    3    0    0 -0.91480577997E+02  0.67917908342E+02 -0.56599896737E+03  0.57735289857E+03  0.00000000000E+00 0.  1.
         14    1    3    3    0    0 -0.24315069069E+02 -0.41432624016E+01 -0.50428590505E+03  0.50488876324E+03  0.00000000000E+00 0. -1.
        -13    1    4    4    0    0  0.19100788671E+02 -0.34076108409E+02 -0.21817216954E+03  0.22164186620E+03  0.00000000000E+00 0.  1.
         13    1    4    4    0    0 -0.30744407095E+02 -0.16189690914E+03 -0.36218645572E+03  0.39791312678E+03  0.00000000000E+00 0. -1.
          1    1    1    2  501    0  0.12743926549E+03  0.13219837161E+03 -0.25958204196E+02  0.18544811730E+03  0.00000000000E+00 0. -1.
<scales pt_clust_5="13000.00000" pt_clust_6="13000.00000" pt_clust_7="13000.00000" pt_clust_8="13000.00000" pt_clust_9="179.48290"></scales>
<clustering>
<clus scale="   90.893">  5  6 -1 -1</clus>
<clus scale="   92.148">  7  8 -1 -1</clus>
<clus scale="  160.429">  2  5  1 -1</clus>
<clus scale="  179.483">  1  9  2 -1</clus>
<clus scale="  179.483">  1  5  2 -1</clus>
</clustering>
</event>
<event>
 9    2  0.1325014E-004  0.2088199E+03  0.7546771E-02  0.1143393E+00
         21   -1    0    0  501  502  0.00000000000E+00  0.00000000000E+00  0.95219268710E+02  0.95219268710E+02  0.00000000000E+00 0. -1.
          2   -1    0    0  502    0 -0.00000000000E+00 -0.00000000000E+00 -0.86735076442E+03  0.86735076442E+03  0.00000000000E+00 0. -1.
         23    2    1    2    0    0  0.18277179635E+03 -0.10509688414E+03 -0.52004903557E+03  0.56856365650E+03  0.91448059004E+02 0.  0.
         24    2    1    2    0    0 -0.12230811274E+03  0.43068147732E+02 -0.30155133414E+02  0.15577296268E+03  0.80881048704E+02 0.  0.
        -11    1    4    4    0    0 -0.13429626415E+01  0.29166025315E+02  0.36032811605E+01  0.29418433276E+02  0.00000000000E+00 0.  1.
         12    1    4    4    0    0 -0.12096515010E+03  0.13902122417E+02 -0.33758414574E+02  0.12635452940E+03  0.00000000000E+00 0. -1.
        -11    1    3    3    0    0  0.74641444382E+01 -0.42886860873E+02 -0.88338462557E+02  0.98481877798E+02  0.00000000000E+00 0.  1.
         11    1    3    3    0    0  0.17530765191E+03 -0.62210023267E+02 -0.43171057301E+03  0.47008177870E+03  0.00000000000E+00 0. -1.
          1    1    1    2  501    0 -0.60463683613E+02  0.62028736408E+02 -0.22192732672E+03  0.23823341395E+03  0.00000000000E+00 0. -1.
<scales pt_clust_5="13000.00000" pt_clust_6="13000.00000" pt_clust_7="13000.00000" pt_clust_8="13000.00000" pt_clust_9="86.62233"></scales>
<clustering>
<clus scale="   80.881">  5  6 -1 -1</clus>
<clus scale="   86.622">  1  9  2 -1</clus>
<clus scale="   91.448">  7  8 -1 -1</clus>
<clus scale="  204.413">  1  5  2 -1</clus>
<clus scale="   86.622">  1  5  2 -1</clus>
</clustering>
</event>
<event>
 9    2  0.1325014E-004  0.1024317E+03  0.7546771E-02  0.1277225E+00
          2   -1    0    0  502    0 -0.00000000000E+00  0.00000000000E+00  0.14083760115E+04  0.14083760115E+04  0.00000000000E+00 0. -1.
         21   -1    0    0  501  502  0.00000000000E+00 -0.00000000000E+00 -0.16702658786E+02  0.16702658786E+02  0.00000000000E+00 0. -1.
         24    2    1    2    0    0  0.33551899126E+02 -0.39627949087E+02  0.10905158336E+04  0.10952136835E+04  0.87017957425E+02 0.  0.
         23    2    1    2    0    0 -0.27421008877E+02  0.12574603052E+02  0.27655919590E+03  0.29279007814E+03  0.91274359236E+02 0.  0.
        -13    1    3    3    0    0  0.37345204028E+02  0.79096284726E+01  0.21234784235E+03  0.21575178478E+03  0.00000000000E+00 0.  1.
         14    1    3    3    0    0 -0.37933049026E+01 -0.47537577560E+02  0.87816799122E+03  0.87946189869E+03  0.00000000000E+00 0. -1.
        -11    1    4    4    0    0  0.20675551920E+01 -0.33626870314E+02  0.54549646296E+02  0.64114780688E+02  0.00000000000E+00 0. -1.
         11    1    4    4    0    0 -0.29488564069E+02  0.46201473367E+02  0.22200954960E+03  0.22867529746E+03  0.00000000000E+00 0.  1.
          1    1    1    2  501    0 -0.61308902482E+01  0.27053346035E+02  0.24598323271E+02  0.37074908694E+02  0.00000000000E+00 0. -1.
<scales pt_clust_5="13000.00000" pt_clust_6="13000.00000" pt_clust_7="13000.00000" pt_clust_8="13000.00000" pt_clust_9="27.73935"></scales>
<clustering>
<clus scale="   27.739">  2  9  1 -1</clus>
<clus scale="   87.018">  5  6 -1 -1</clus>
<clus scale="   91.274">  7  8 -1 -1</clus>
<clus scale="   98.658">  1  5  2 -1</clus>
<clus scale="   27.739">  2  5  1 -1</clus>
</clustering>
</event>
<event>
 9    2  0.1325014E-004  0.3013660E+03  0.7546771E-02  0.1132275E+00
         21   -1    0    0  501  502  0.00000000000E+00  0.00000000000E+00  0.19478492237E+03  0.19478492237E+03  0.00000000000E+00 0.  1.
         -1   -1    0    0    0  501 -0.00000000000E+00 -0.00000000000E+00 -0.59725260949E+03  0.59725260949E+03  0.00000000000E+00 0.  1.
         24    2    1    2    0    0  0.23110772252E+02 -0.30019907307E+02 -0.75189402114E+02  0.11652022326E+03  0.80549448233E+02 0.  0.
         23    2    1    2    0    0 -0.74959444959E+02 -0.26501794295E+03 -0.18792916267E+03  0.34513299323E+03  0.89140251068E+02 0.  0.
        -13    1    3    3    0    0  0.30781620142E+02  0.23947523804E+01  0.34986375104E+01  0.31072229433E+02  0.00000000000E+00 0.  1.
         14    1    3    3    0    0 -0.76708478893E+01 -0.32414659687E+02 -0.78688039624E+02  0.85447993832E+02  0.00000000000E+00 0. -1.
        -13    1    4    4    0    0 -0.20222981844E+02 -0.19783932007E+02  0.44977413286E+01  0.28646162700E+02  0.00000000000E+00 0. -1.
         13    1    4    4    0    0 -0.54736463115E+02 -0.24523401094E+03 -0.19242690399E+03  0.31648683053E+03  0.00000000000E+00 0.  1.
         -2    1    1    2    0  502  0.51848672707E+02  0.29503785025E+03 -0.13934912234E+03  0.33038431537E+03  0.00000000000E+00 0.  1.
<scales pt_clust_5="13000.00000" pt_clust_6="13000.00000" pt_clust_7="13000.00000" pt_clust_8="13000.00000" pt_clust_9="287.88101"></scales>
<clustering>
<clus scale="   80.549">  5  6 -1 -1</clus>
<clus scale="   89.014">  2  5  1 -1</clus>
<clus scale="   89.140">  7  8 -1 -1</clus>
<clus scale="  287.881">  1  9  2 -1</clus>
<clus scale="  287.881">  1  5  2 -1</clus>
</clustering>
</event>
<event>
 9    2  0.1325014E-004  0.1211071E+03  0.7546771E-02  0.1243573E+00
         21   -1    0    0  501  502  0.00000000000E+00  0.00000000000E+00  0.18516458924E+03  0.18516458924E+03  0.00000000000E+00 0. -1.
          2   -1    0    0  502    0 -0.00000000000E+00 -0.00000000000E+00 -0.23710476598E+03  0.23710476598E+03  0.00000000000E+00 0. -1.
         24    2    1    2    0    0 -0.84405747953E+02 -0.26432740838E+02 -0.16256244071E+03  0.20326714099E+03  0.84071180547E+02 0.  0.
         23    2    1    2    0    0  0.11408214337E+02  0.52689105122E+02  0.88808063088E+02  0.13841750141E+03  0.91467171566E+02 0.  0.
        -11    1    3    3    0    0 -0.44098173077E+01  0.19787710338E+02 -0.68434370474E+02  0.71374106168E+02  0.00000000000E+00 0.  1.
         12    1    3    3    0    0 -0.79995930646E+02 -0.46220451176E+02 -0.94128070240E+02  0.13189303482E+03  0.00000000000E+00 0. -1.
        -13    1    4    4    0    0 -0.17075018801E+02  0.23316827914E+02  0.92906650920E+02  0.97297875188E+02  0.00000000000E+00 0. -1.
         13    1    4    4    0    0  0.28483233138E+02  0.29372277209E+02 -0.40985878316E+01  0.41119626222E+02  0.00000000000E+00 0.  1.
          1    1    1    2  501    0  0.72997533616E+02 -0.26256364285E+02  0.21814200884E+02  0.80584712817E+02  0.00000000000E+00 0. -1.
<scales pt_clust_5="13000.00000" pt_clust_6="13000.00000" pt_clust_7="13000.00000" pt_clust_8="13000.00000" pt_clust_9="77.57601"></scales>
<clustering>
<clus scale="   77.576">  1  9  2 -1</clus>
<clus scale="   84.071">  5  6 -1 -1</clus>
<clus scale="   91.467">  7  8 -1 -1</clus>
<clus scale="  115.623">  2  5  1 -1</clus>
<clus scale="   77.576">  1  5  2 -1</clus>
</clustering>
</event>
<event>
 9    2  0.1325014E-004  0.1390516E+03  0.7546771E-02  0.1236181E+00
          2   -1    0    0  502    0 -0.00000000000E+00  0.00000000000E+00  0.82187502307E+02  0.82187502307E+02  0.00000000000E+00 0. -1.
         21   -1    0    0  501  502  0.00000000000E+00 -0.00000000000E+00 -0.36660728835E+03  0.36660728835E+03  0.00000000000E+00 0. -1.
         24    2    1    2    0    0 -0.32037682875E+02 -0.19912720607E+02 -0.27963637847E+02  0.93063431301E+02  0.80348662951E+02 0.  0.
         23    2    1    2    0    0  0.10048241184E+03 -0.53411624998E+02 -0.15594946219E+03  0.21373581537E+03  0.91723755026E+02 0.  0.
        -11    1    3    3    0    0 -0.30130461959E+02 -0.36615779602E+02  0.12675795886E+02  0.49083967394E+02  0.00000000000E+00 0.  1.
         12    1    3    3    0    0 -0.19072209165E+01  0.16703058995E+02 -0.40639433734E+02  0.43979463908E+02  0.00000000000E+00 0. -1.
        -11    1    4    4    0    0  0.82670454215E+02 -0.43443658311E+02 -0.16639148481E+03  0.19080849474E+03  0.00000000000E+00 0. -1.
         11    1    4    4    0    0  0.17811957630E+02 -0.99679666869E+01  0.10442022620E+02  0.22927320622E+02  0.00000000000E+00 0.  1.
          1    1    1    2  501    0 -0.68444728969E+02  0.73324345605E+02 -0.10050668600E+03  0.14199554399E+03  0.00000000000E+00 0. -1.
<scales pt_clust_5="13000.00000" pt_clust_6="13000.00000" pt_clust_7="13000.00000" pt_clust_8="13000.00000" pt_clust_9="104.50884"></scales>
<clustering>
<clus scale="   80.349">  5  6 -1 -1</clus>
<clus scale="   88.763">  1  5  2 -1</clus>
<clus scale="   91.724">  7  8 -1 -1</clus>
<clus scale="  104.509">  2  9  1 -1</clus>
<clus scale="  104.509">  2  5  1 -1</clus>
</clustering>
</event>
<event>
 9    2  0.1325014E-004  0.1255589E+03  0.7546771E-02  0.1255378E+00
         -1   -1    0    0    0  501 -0.00000000000E+00  0.00000000000E+00  0.16308705527E+03  0.16308705527E+03  0.00000000000E+00 0.  1.
         21   -1    0    0  501  502  0.00000000000E+00 -0.00000000000E+00 -0.28182384989E+03  0.28182384989E+03  0.00000000000E+00 0.  1.
         23    2    1    2    0    0 -0.44404621539E+01  0.23287637205E+02 -0.13189193341E+03  0.15527220856E+03  0.78434334971E+02 0.  0.
         24    2    1    2    0    0 -0.89608720924E+02  0.41705036556E+01  0.10166010111E+03  0.15760715986E+03  0.80362458366E+02 0.  0.
        -11    1    4    4    0    0 -0.97485699259E+02  0.22684984939E+02  0.80901699302E+02  0.12869792171E+03  0.00000000000E+00 0.  1.
         12    1    4    4    0    0  0.78769783350E+01 -0.18514481283E+02  0.20758401812E+02  0.28909238154E+02  0.00000000000E+00 0. -1.
        -11    1    3    3    0    0  0.15433979565E+02  0.36530649110E+02 -0.27688079080E+02  0.48366577021E+02  0.00000000000E+00 0.  1.
         11    1    3    3    0    0 -0.19874441719E+02 -0.13243011904E+02 -0.10420385433E+03  0.10690563154E+03  0.00000000000E+00 0. -1.
         -2    1    1    2    0  502  0.94049183078E+02 -0.27458140861E+02 -0.88504962324E+02  0.13203153674E+03  0.00000000000E+00 0.  1.
<scales pt_clust_5="13000.00000" pt_clust_6="13000.00000" pt_clust_7="13000.00000" pt_clust_8="13000.00000" pt_clust_9="96.47232"></scales>
<clustering>
<clus scale="   78.434">  7  8 -1 -1</clus>
<clus scale="   80.362">  5  6 -1 -1</clus>
<clus scale="   81.939">  1  7  2 -1</clus>
<clus scale="   96.472">  2  9  1 -1</clus>
<clus scale="   96.472">  2  5  1 -1</clus>
</clustering>
</event>
<event>
 9    2  0.1325014E-004  0.1236427E+03  0.7546771E-02  0.1254804E+00
         21   -1    0    0  501  502  0.00000000000E+00  0.00000000000E+00  0.47836076067E+02  0.47836076067E+02  0.00000000000E+00 0.  1.
          4   -1    0    0  502    0 -0.00000000000E+00 -0.00000000000E+00 -0.50673854300E+03  0.50673854300E+03  0.00000000000E+00 0. -1.
         24    2    1    2    0    0 -0.19599330356E+02  0.24697407300E+02 -0.10420144475E+03  0.13561078766E+03  0.80859439538E+02 0.  0.
         23    2    1    2    0    0 -0.54010637654E+02  0.27625702056E+02 -0.28321726755E+03  0.30378543787E+03  0.91614645270E+02 0.  0.
        -13    1    3    3    0    0 -0.17468294097E+02  0.10442366018E+02  0.84536139283E+01  0.22037420338E+02  0.00000000000E+00 0.  1.
         14    1    3    3    0    0 -0.21310362590E+01  0.14255041282E+02 -0.11265505868E+03  0.11357336732E+03  0.00000000000E+00 0. -1.
        -13    1    4    4    0    0  0.25730589866E+02  0.86487392256E+00 -0.69026373025E+02  0.73671238857E+02  0.00000000000E+00 0. -1.
         13    1    4    4    0    0 -0.79741227520E+02  0.26760828134E+02 -0.21419089453E+03  0.23011419901E+03  0.00000000000E+00 0.  1.
          3    1    1    2  501    0  0.73609968010E+02 -0.52323109356E+02 -0.71483754628E+02  0.11517839354E+03  0.00000000000E+00 0. -1.
<scales pt_clust_5="13000.00000" pt_clust_6="13000.00000" pt_clust_7="13000.00000" pt_clust_8="13000.00000" pt_clust_9="83.03180"></scales>
<clustering>
<clus scale="   80.859">  5  6 -1 -1</clus>
<clus scale="   86.789">  2  5  1 -1</clus>
<clus scale="   83.032">  1  9  2 -1</clus>
<clus scale="   91.615">  7  8 -1 -1</clus>
<clus scale="   83.032">  1  5  2 -1</clus>
</clustering>
</event>
<event>
 9    2  0.1325014E-004  0.1921686E+03  0.7546771E-02  0.1176576E+00
          2   -1    0    0  502    0 -0.00000000000E+00  0.00000000000E+00  0.68966086811E+03  0.68966086811E+03  0.00000000000E+00 0. -1.
         21   -1    0    0  501  502  0.00000000000E+00 -0.00000000000E+00 -0.10674150460E+03  0.10674150460E+03  0.00000000000E+00 0. -1.
         23    2    1    2    0    0 -0.75555328499E+02  0.20494062753E+02  0.22035315466E+03  0.25144825172E+03  0.92423461574E+02 0.  0.
         24    2    1    2    0    0  0.32079239831E+02  0.16702481387E+03  0.84751936949E+02  0.20696851619E+03  0.82016521517E+02 0.  0.
        -11    1    4    4    0    0 -0.16005947104E+02  0.46383380208E+02 -0.46698511482E+01  0.49289104394E+02  0.00000000000E+00 0.  1.
         12    1    4    4    0    0  0.48085186935E+02  0.12064143367E+03  0.89421788098E+02  0.15767941180E+03  0.00000000000E+00 0. -1.
        -11    1    3    3    0    0 -0.65324544919E+02 -0.17527885581E+02  0.75616022233E+02  0.10145100177E+03  0.00000000000E+00 0. -1.
         11    1    3    3    0    0 -0.10230783579E+02  0.38021948334E+02  0.14473713243E+03  0.14999724995E+03  0.00000000000E+00 0.  1.
          1    1    1    2  501    0  0.43476088667E+02 -0.18751887663E+03  0.27781427190E+03  0.33798560479E+03  0.00000000000E+00 0. -1.
<scales pt_clust_5="13000.00000" pt_clust_6="13000.00000" pt_clust_7="13000.00000" pt_clust_8="13000.00000" pt_clust_9="173.78745"></scales>
<clustering>
<clus scale="   82.017">  5  6 -1 -1</clus>
<clus scale="   92.423">  7  8 -1 -1</clus>
<clus scale="  121.123">  1  7  2 -1</clus>
<clus scale="  173.787">  2  9  1 -1</clus>
<clus scale="  173.787">  2  5  1 -1</clus>
</clustering>
</event>
<event>
 9    2  0.1325014E-004  0.9152773E+02  0.7546771E-02  0.1301303E+00
         21   -1    0    0  501  502  0.00000000000E+00  0.00000000000E+00  0.69764225472E+02  0.69764225472E+02  0.00000000000E+00 0. -1.
          2   -1    0    0  502    0 -0.00000000000E+00 -0.00000000000E+00 -0.32417996255E+03  0.32417996255E+03  0.00000000000E+00 0. -1.
         24    2    1    2    0    0  0.27104498066E+02  0.19016671223E+02 -0.19085240534E+03  0.21048351473E+03  0.82355216899E+02 0.  0.
         23    2    1    2    0    0 -0.41413610053E+02  0.35353563883E+02 -0.45502589864E+01  0.10195352080E+03  0.86074699937E+02 0.  0.
        -13    1    3    3    0    0  0.27424846756E+02 -0.28929759409E+02 -0.71523824958E+02  0.81882298061E+02  0.00000000000E+00 0.  1.
         14    1    3    3    0    0 -0.32034869032E+00  0.47946430632E+02 -0.11932858038E+03  0.12860121667E+03  0.00000000000E+00 0. -1.
        -11    1    4    4    0    0 -0.63503687463E+02  0.39181094843E+02  0.99130122673E+01  0.75273795751E+02  0.00000000000E+00 0. -1.
         11    1    4    4    0    0  0.22090077410E+02 -0.38275309601E+01 -0.14463271254E+02  0.26679725047E+02  0.00000000000E+00 0.  1.
          1    1    1    2  501    0  0.14309111987E+02 -0.54370235106E+02 -0.59013072747E+02  0.81507152486E+02  0.00000000000E+00 0. -1.
<scales pt_clust_5="13000.00000" pt_clust_6="13000.00000" pt_clust_7="13000.00000" pt_clust_8="13000.00000" pt_clust_9="56.22167"></scales>
<clustering>
<clus scale="   56.222">  1  9  2 -1</clus>
<clus scale="   82.355">  5  6 -1 -1</clus>
<clus scale="   86.075">  7  8 -1 -1</clus>
<clus scale="   88.039">  2  5  1 -1</clus>
<clus scale="   56.222">  1  5  2 -1</clus>
</clustering>
</event>
<event>
 9    2  0.1325014E-004  0.3578111E+03  0.7546771E-02  0.1059720E+00
         21   -1    0    0  501  502  0.00000000000E+00  0.00000000000E+00  0.65042069114E+03  0.65042069114E+03  0.00000000000E+00 0.  1.
          2   -1    0    0  502    0 -0.00000000000E+00 -0.00000000000E+00 -0.37196288933E+03  0.37196288933E+03  0.00000000000E+00 0. -1.
         24    2    1    2    0    0 -0.19511300019E+03 -0.25520765712E+03 -0.36202383462E+02  0.33303216864E+03  0.79998635510E+02 0.  0.
         23    2    1    2    0    0  0.36727563258E+03  0.21833667666E+03  0.23558271785E+03  0.49634186014E+03  0.91069921034E+02 0.  0.
        -13    1    3    3    0    0 -0.60791408443E+02 -0.66575239783E+02 -0.46087374758E+02  0.10125168643E+03  0.00000000000E+00 0.  1.
         14    1    3    3    0    0 -0.13432159175E+03 -0.18863241734E+03  0.98849912959E+01  0.23178048221E+03  0.00000000000E+00 0. -1.
        -13    1    4    4    0    0  0.13707133152E+03  0.46919505676E+02  0.44586380298E+02  0.15158474608E+03  0.00000000000E+00 0. -1.
         13    1    4    4    0    0  0.23020430106E+03  0.17141717098E+03  0.19099633755E+03  0.34475711405E+03  0.00000000000E+00 0.  1.
          1    1    1    2  501    0 -0.17216263239E+03  0.36870980465E+02  0.79077467428E+02  0.19300955170E+03  0.00000000000E+00 0. -1.
<scales pt_clust_5="13000.00000" pt_clust_6="13000.00000" pt_clust_7="13000.00000" pt_clust_8="13000.00000" pt_clust_9="176.06658"></scales>
<clustering>
<clus scale="   79.999">  5  6 -1 -1</clus>
<clus scale="   91.070">  7  8 -1 -1</clus>
<clus scale="  176.067">  1  9  2 -1</clus>
<clus scale="  355.155">  2  5  1 -1</clus>
<clus scale="  176.067">  1  5  2 -1</clus>
</clustering>
</event>
<event>
 9    2  0.1325014E-004  0.9540059E+02  0.7546771E-02  0.1296256E+00
         -1   -1    0    0    0  501 -0.00000000000E+00  0.00000000000E+00  0.12598013548E+03  0.12598013548E+03  0.00000000000E+00 0.  1.
         21   -1    0    0  501  502  0.00000000000E+00 -0.00000000000E+00 -0.17803877238E+03  0.17803877238E+03  0.00000000000E+00 0.  1.
         23    2    1    2    0    0  0.18025150351E+02  0.27016384667E+02  0.82340292041E+02  0.12546044912E+03  0.88913494555E+02 0.  0.
         24    2    1    2    0    0 -0.42464994324E+02 -0.25712262069E+02 -0.98479789365E+02  0.13509363047E+03  0.78023226771E+02 0.  0.
        -13    1    4    4    0    0 -0.63414555854E+02 -0.29060731676E+02 -0.64333199573E+02  0.94893058687E+02  0.00000000000E+00 0.  1.
         14    1    4    4    0    0  0.20949561530E+02  0.33484696071E+01 -0.34146589792E+02  0.40200571780E+02  0.00000000000E+00 0. -1.
        -11    1    3    3    0    0  0.38588489413E+02 -0.17501327867E+02  0.22114385375E+02  0.47795544069E+02  0.00000000000E+00 0.  1.
         11    1    3    3    0    0 -0.20563339063E+02  0.44517712534E+02  0.60225906666E+02  0.77664905050E+02  0.00000000000E+00 0. -1.
         -2    1    1    2    0  502  0.24439843973E+02 -0.13041225988E+01 -0.35919139574E+02  0.43464828274E+02  0.00000000000E+00 0.  1.
<scales pt_clust_5="13000.00000" pt_clust_6="13000.00000" pt_clust_7="13000.00000" pt_clust_8="13000.00000" pt_clust_9="24.47461"></scales>
<clustering>
<clus scale="   24.475">  2  9  1 -1</clus>
<clus scale="   78.023">  5  6 -1 -1</clus>
<clus scale="   85.342">  2  5  1 -1</clus>
<clus scale="   88.913">  7  8 -1 -1</clus>
<clus scale="   24.475">  2  5  1 -1</clus>
</clustering>
</event>
<event>
 9    2  0.1325014E-004  0.1045445E+03  0.7546771E-02  0.1274680E+00
          2   -1    0    0  502    0 -0.00000000000E+00  0.00000000000E+00  0.13392177087E+03  0.13392177087E+03  0.00000000000E+00 0. -1.
         21   -1    0    0  501  502  0.00000000000E+00 -0.00000000000E+00 -0.20936448007E+03  0.20936448007E+03  0.00000000000E+00 0. -1.
         23    2    1    2    0    0  0.48777747497E+02  0.39901601683E+02  0.53123140139E+02  0.12053789713E+03  0.87954022980E+02 0.  0.
         24    2    1    2    0    0 -0.50006449592E+02  0.22286407027E+02 -0.12837066401E+03  0.16054790178E+03  0.79367956055E+02 0.  0.
        -13    1    4    4    0    0 -0.68690641262E+02  0.84444070902E+01 -0.11353353740E+03  0.13296456793E+03  0.00000000000E+00 0.  1.
         14    1    4    4    0    0  0.18684191670E+02  0.13841999937E+02 -0.14837126608E+02  0.27583333856E+02  0.00000000000E+00 0. -1.
        -11    1    3    3    0    0  0.38216016346E+02 -0.20033606007E+02  0.59913247714E+01  0.43562658866E+02  0.00000000000E+00 0.  1.
         11    1    3    3    0    0  0.10561731151E+02  0.59935207690E+02  0.47131815368E+02  0.76975238263E+02  0.00000000000E+00 0. -1.
          1    1    1    2  501    0  0.12287020955E+01 -0.62188008711E+02 -0.19518532502E+00  0.62200452037E+02  0.00000000000E+00 0. -1.
<scales pt_clust_5="13000.00000" pt_clust_6="13000.00000" pt_clust_7="13000.00000" pt_clust_8="13000.00000" pt_clust_9="62.20018"></scales>
<clustering>
<clus scale="   62.200">  2  9  1 -1</clus>
<clus scale="   79.368">  5  6 -1 -1</clus>
<clus scale="   87.954">  7  8 -1 -1</clus>
<clus scale="   97.432">  2  5  1 -1</clus>
<clus scale="   62.200">  2  5  1 -1</clus>
</clustering>
</event>
<event>
 9    2  0.1325014E-004  0.2059778E+03  0.7546771E-02  0.1175379E+00
         21   -1    0    0  501  502  0.00000000000E+00  0.00000000000E+00  0.34923538732E+03  0.34923538732E+03  0.00000000000E+00 0. -1.
          2   -1    0    0  502    0 -0.00000000000E+00 -0.00000000000E+00 -0.35414190601E+03  0.35414190601E+03  0.00000000000E+00 0. -1.
         23    2    1    2    0    0 -0.38596572258E+01  0.40851626130E+02  0.19947349661E+03  0.22361339925E+03  0.92355423032E+02 0.  0.
         24    2    1    2    0    0  0.14614469238E+02  0.15919613783E+03 -0.21376453299E+03  0.27920756030E+03  0.81881580078E+02 0.  0.
        -13    1    4    4    0    0 -0.21850806660E+02  0.69550136712E+01 -0.31072688924E+02  0.38617896937E+02  0.00000000000E+00 0.  1.
         14    1    4    4    0    0  0.36465275898E+02  0.15224112416E+03 -0.18269184406E+03  0.24058966336E+03  0.00000000000E+00 0. -1.
        -11    1    3    3    0    0 -0.22534659014E+02 -0.13032772031E+02  0.13521510610E+03  0.13769818053E+03  0.00000000000E+00 0. -1.
         11    1    3    3    0    0  0.18675001789E+02  0.53884398161E+02  0.64258390512E+02  0.85915218723E+02  0.00000000000E+00 0.  1.
          1    1    1    2  501    0 -0.10754812013E+02 -0.20004776396E+03  0.93845176804E+01  0.20055633378E+03  0.00000000000E+00 0. -1.
<scales pt_clust_5="13000.00000" pt_clust_6="13000.00000" pt_clust_7="13000.00000" pt_clust_8="13000.00000" pt_clust_9="189.00331"></scales>
<clustering>
<clus scale="   81.882">  5  6 -1 -1</clus>
<clus scale="   92.355">  7  8 -1 -1</clus>
<clus scale="  101.061">  2  7  1 -1</clus>
<clus scale="  189.003">  1  9  2 -1</clus>
<clus scale="  189.003">  1  5  2 -1</clus>
</clustering>
</event>
<event>
 9    2  0.1325014E-004  0.1055626E+03  0.7546771E-02  0.1269619E+00
         21   -1    0    0  501  502  0.00000000000E+00  0.00000000000E+00  0.39762532864E+03  0.39762532864E+03  0.00000000000E+00 0.  1.
          2   -1    0    0  502    0 -0.00000000000E+00 -0.00000000000E+00 -0.10169411780E+03  0.10169411780E+03  0.00000000000E+00 0. -1.
         23    2    1    2    0    0  0.24012246953E+02 -0.45626893315E+02 -0.57096137477E+02  0.11911052927E+03  0.90933755398E+02 0.  0.
         24    2    1    2    0    0 -0.44557775051E+02  0.57858017161E+02  0.26694782663E+03  0.29087021801E+03  0.89506402651E+02 0.  0.
        -11    1    4    4    0    0 -0.46934090697E+02  0.16767394926E+02  0.23070927358E+03  0.23603119141E+03  0.00000000000E+00 0.  1.
         12    1    4    4    0    0  0.23763156460E+01  0.41090622235E+02  0.36238553058E+02  0.54839026609E+02  0.00000000000E+00 0. -1.
        -11    1    3    3    0    0 -0.21287038118E+02  0.11064333445E+02  0.39098701148E+01  0.24307294188E+02  0.00000000000E+00 0.  1.
         11    1    3    3    0    0  0.45299285071E+02 -0.56691226760E+02 -0.61006007591E+02  0.94803235081E+02  0.00000000000E+00 0. -1.
          1    1    1    2  501    0  0.20545528098E+02 -0.12231123846E+02  0.86079521675E+02  0.89338699157E+02  0.00000000000E+00 0. -1.
<scales pt_clust_5="13000.00000" pt_clust_6="13000.00000" pt_clust_7="13000.00000" pt_clust_8="13000.00000" pt_clust_9="23.91065"></scales>
<clustering>
<clus scale="   23.911">  1  9  2 -1</clus>
<clus scale="   89.506">  5  6 -1 -1</clus>
<clus scale="   90.934">  7  8 -1 -1</clus>
<clus scale="  104.336">  1  5  2 -1</clus>
<clus scale="   23.911">  1  5  2 -1</clus>
</clustering>
</event>
<event>
 9    2  0.1325014E-004  0.9596276E+02  0.7546771E-02  0.1298131E+00
         21   -1    0    0  501  502  0.00000000000E+00  0.00000000000E+00  0.35365895216E+03  0.35365895216E+03  0.00000000000E+00 0. -1.
          2   -1    0    0  502    0 -0.00000000000E+00 -0.00000000000E+00 -0.11278390291E+03  0.11278390291E+03  0.00000000000E+00 0. -1.
         23    2    1    2    0    0  0.16270641559E+02  0.36955245823E+01 -0.60118432616E+02  0.11331145050E+03  0.94587886093E+02 0.  0.
         24    2    1    2    0    0  0.24402494320E+02 -0.60000907254E+02  0.11200480969E+03  0.15178265659E+03  0.79355572250E+02 0.  0.
        -13    1    4    4    0    0 -0.29050871188E+02 -0.16070777878E+02  0.38466812095E+02  0.50812583590E+02  0.00000000000E+00 0.  1.
         14    1    4    4    0    0  0.53453365507E+02 -0.43930129376E+02  0.73537997599E+02  0.10097007300E+03  0.00000000000E+00 0. -1.
        -13    1    3    3    0    0 -0.35082629070E+02 -0.12304501890E+02 -0.43047259944E+02  0.56879330322E+02  0.00000000000E+00 0.  1.
         13    1    3    3    0    0  0.51353270629E+02  0.16000026472E+02 -0.17071172672E+02  0.56432120178E+02  0.00000000000E+00 0. -1.
          1    1    1    2  501    0 -0.40673135879E+02  0.56305382672E+02  0.18898867218E+03  0.20134874798E+03  0.00000000000E+00 0. -1.
<scales pt_clust_5="13000.00000" pt_clust_6="13000.00000" pt_clust_7="13000.00000" pt_clust_8="13000.00000" pt_clust_9="69.45934"></scales>
<clustering>
<clus scale="   69.459">  1  9  2 -1</clus>
<clus scale="   79.356">  5  6 -1 -1</clus>
<clus scale="   80.989">  1  5  2 -1</clus>
<clus scale="   94.588">  7  8 -1 -1</clus>
<clus scale="   69.459">  1  5  2 -1</clus>
</clustering>
</event>
<event>
 9    2  0.1325014E-004  0.1065711E+03  0.7546771E-02  0.1272596E+00
         21   -1    0    0  501  502  0.00000000000E+00  0.00000000000E+00  0.29312890640E+03  0.29312890640E+03  0.00000000000E+00 0.  1.
          2   -1    0    0  502    0 -0.00000000000E+00 -0.00000000000E+00 -0.22354845655E+03  0.22354845655E+03  0.00000000000E+00 0. -1.
         24    2    1    2    0    0  0.53715128703E+02 -0.38700900333E+01 -0.19021299726E+03  0.21397353189E+03  0.81874265630E+02 0.  0.
         23    2    1    2    0    0 -0.29975634228E+01 -0.71779135725E+01  0.11526147179E+03  0.14913358101E+03  0.94313892273E+02 0.  0.
        -11    1    3    3    0    0  0.32660345181E+02 -0.42256685162E+02 -0.90713662063E+02  0.10526772570E+03  0.00000000000E+00 0.  1.
         12    1    3    3    0    0  0.21054783523E+02  0.38386595129E+02 -0.99499335200E+02  0.10870580619E+03  0.00000000000E+00 0. -1.
        -13    1    4    4    0    0  0.44012873875E+02 -0.54964426764E+01  0.75384644832E+02  0.87465356715E+02  0.00000000000E+00 0.  1.
         13    1    4    4    0    0 -0.47010437298E+02 -0.16814708961E+01  0.39876826953E+02  0.61668224291E+02  0.00000000000E+00 0. -1.
          1    1    1    2  501    0 -0.50717565281E+02  0.11048003606E+02  0.14453197533E+03  0.15357025006E+03  0.00000000000E+00 0. -1.
<scales pt_clust_5="13000.00000" pt_clust_6="13000.00000" pt_clust_7="13000.00000" pt_clust_8="13000.00000" pt_clust_9="51.90693"></scales>
<clustering>
<clus scale="   51.907">  1  9  2 -1</clus>
<clus scale="   81.874">  5  6 -1 -1</clus>
<clus scale="   94.314">  7  8 -1 -1</clus>
<clus scale="   95.738">  2  5  1 -1</clus>
<clus scale="   51.907">  1  5  2 -1</clus>
</clustering>
</event>
<event>
 9    2  0.1325014E-004  0.2142871E+03  0.7546771E-02  0.1138985E+00
         21   -1    0    0  501  502  0.00000000000E+00  0.00000000000E+00  0.17730678277E+03  0.17730678277E+03  0.00000000000E+00 0.  1.
         -3   -1    0    0    0  501 -0.00000000000E+00 -0.00000000000E+00 -0.53363627863E+03  0.53363627863E+03  0.00000000000E+00 0.  1.
         23    2    1    2    0    0  0.19258731012E+03  0.11427824821E+03 -0.37854095708E+03  0.44901728595E+03  0.90409495436E+02 0.  0.
         24    2    1    2    0    0 -0.12588660788E+03 -0.28276032190E+02  0.14406810647E+02  0.15280988564E+03  0.80599831975E+02 0.  0.
        -11    1    4    4    0    0 -0.39902683001E+02 -0.75634613554E+01 -0.33119744537E+02  0.52405605965E+02  0.00000000000E+00 0.  1.
         12    1    4    4    0    0 -0.85983924882E+02 -0.20712570835E+02  0.47526555183E+02  0.10040427967E+03  0.00000000000E+00 0. -1.
        -13    1    3    3    0    0  0.92656595622E+01  0.31303272891E+02 -0.21233187688E+02  0.38943492399E+02  0.00000000000E+00 0. -1.
         13    1    3    3    0    0  0.18332165055E+03  0.82974975317E+02 -0.35730776939E+03  0.41007379355E+03  0.00000000000E+00 0.  1.
         -4    1    1    2    0  502 -0.66700702233E+02 -0.86002216018E+02  0.78046505743E+01  0.10911588981E+03  0.00000000000E+00 0.  1.
<scales pt_clust_5="13000.00000" pt_clust_6="13000.00000" pt_clust_7="13000.00000" pt_clust_8="13000.00000" pt_clust_9="108.83641"></scales>
<clustering>
<clus scale="   80.600">  5  6 -1 -1</clus>
<clus scale="   90.409">  7  8 -1 -1</clus>
<clus scale="  108.836">  1  9  2 -1</clus>
<clus scale="  210.336">  1  5  2 -1</clus>
<clus scale="  108.836">  1  5  2 -1</clus>
</clustering>
</event>
<event>
 9    2  0.1325014E-004  0.1335807E+03  0.7546771E-02  0.1224731E+00
          2   -1    0    0  502    0 -0.00000000000E+00  0.00000000000E+00  0.68546787473E+03  0.68546787473E+03  0.00000000000E+00 0. -1.
         21   -1    0    0  501  502  0.00000000000E+00 -0.00000000000E+00 -0.93751436051E+02  0.93751436051E+02  0.00000000000E+00 0. -1.
         24    2    1    2    0    0 -0.66108019844E+02  0.86195067744E+02  0.50357369130E+03  0.52138202354E+03  0.80329894209E+02 0.  0.
         23    2    1    2    0    0 -0.42551545627E+02 -0.66633494395E+02  0.63774918604E+01  0.12045055816E+03  0.90647713415E+02 0.  0.
        -13    1    3    3    0    0  0.12567662534E+02  0.40755506739E+02  0.20036277693E+03  0.20485165328E+03  0.00000000000E+00 0.  1.
         14    1    3    3    0    0 -0.78675682378E+02  0.45439561005E+02  0.30321091437E+03  0.31653037026E+03  0.00000000000E+00 0. -1.
        -13    1    4    4    0    0 -0.51739014387E+02 -0.84661659130E+02 -0.51363993892E-01  0.99219578585E+02  0.00000000000E+00 0. -1.
         13    1    4    4    0    0  0.91874687600E+01  0.18028164736E+02  0.64288558543E+01  0.21230979571E+02  0.00000000000E+00 0.  1.
          1    1    1    2  501    0  0.10865956547E+03 -0.19561573349E+02  0.81765255518E+02  0.13738672909E+03  0.00000000000E+00 0. -1.
<scales pt_clust_5="13000.00000" pt_clust_6="13000.00000" pt_clust_7="13000.00000" pt_clust_8="13000.00000" pt_clust_9="110.40632"></scales>
<clustering>
<clus scale="   80.330">  5  6 -1 -1</clus>
<clus scale="   90.648">  7  8 -1 -1</clus>
<clus scale="  110.406">  2  9  1 -1</clus>
<clus scale="  126.806">  1  5  2 -1</clus>
<clus scale="  110.406">  2  5  1 -1</clus>
</clustering>
</event>
<event>
 9    2  0.1325014E-004  0.1568758E+03  0.7546771E-02  0.1194158E+00
         -1   -1    0    0    0  501 -0.00000000000E+00  0.00000000000E+00  0.10278676851E+04  0.10278676851E+04  0.00000000000E+00 0.  1.
         21   -1    0    0  501  502  0.00000000000E+00 -0.00000000000E+00 -0.56924937555E+02  0.56924937555E+02  0.00000000000E+00 0.  1.
         24    2    1    2    0    0 -0.61158162532E+02  0.13260266284E+03  0.37030281314E+03  0.40609088203E+03  0.80385595812E+02 0.  0.
         23    2    1    2    0    0 -0.70419928212E+02 -0.11787432372E+03  0.21593490390E+03  0.27185081161E+03  0.91769595027E+02 0.  0.
        -13    1    3    3    0    0 -0.46822110652E+02  0.73317313166E+02  0.11848357476E+03  0.14699012192E+03  0.00000000000E+00 0.  1.
         14    1    3    3    0    0 -0.14336051880E+02  0.59285349676E+02  0.25181923838E+03  0.25910076011E+03  0.00000000000E+00 0. -1.
        -13    1    4    4    0    0 -0.31499190140E+02  0.77508371902E+01  0.56731323931E+02  0.65350727399E+02  0.00000000000E+00 0.  1.
         13    1    4    4    0    0 -0.38920738072E+02 -0.12562516091E+03  0.15920357996E+03  0.20650008421E+03  0.00000000000E+00 0. -1.
         -2    1    1    2    0  502  0.13157809074E+03 -0.14728339119E+02  0.38470503051E+03  0.40685092901E+03  0.00000000000E+00 0.  1.
<scales pt_clust_5="13000.00000" pt_clust_6="13000.00000" pt_clust_7="13000.00000" pt_clust_8="13000.00000" pt_clust_9="132.39991"></scales>
<clustering>
<clus scale="   80.386">  5  6 -1 -1</clus>
<clus scale="   91.770">  7  8 -1 -1</clus>
<clus scale="  132.400">  2  9  1 -1</clus>
<clus scale="  150.500">  1  5  2 -1</clus>
<clus scale="  132.400">  2  5  1 -1</clus>
</clustering>
</event>
<event>
 9    2  0.1325014E-004  0.9596209E+02  0.7546771E-02  0.1292115E+00
         -3   -1    0    0    0  501 -0.00000000000E+00  0.00000000000E+00  0.41979503594E+03  0.41979503594E+03  0.00000000000E+00 0.  1.
         21   -1    0    0  501  502  0.00000000000E+00 -0.00000000000E+00 -0.11339046489E+03  0.11339046489E+03  0.00000000000E+00 0.  1.
         24    2    1    2    0    0 -0.15971325660E+02 -0.37651898897E+02  0.23275184757E+03  0.24960694341E+03  0.80358290911E+02 0.  0.
         23    2    1    2    0    0  0.51084958575E+02  0.17581251580E+02  0.15916382986E+03  0.18898496663E+03  0.86391084477E+02 0.  0.
        -13    1    3    3    0    0  0.54103682548E+01 -0.49581760494E+02  0.21113224723E+03  0.21694342322E+03  0.00000000000E+00 0.  1.
         14    1    3    3    0    0 -0.21381693915E+02  0.11929861597E+02  0.21619600340E+02  0.32663520190E+02  0.00000000000E+00 0. -1.
        -11    1    4    4    0    0  0.42862269314E+02 -0.28778883732E+02  0.10642612742E+03  0.11828744176E+03  0.00000000000E+00 0.  1.
         11    1    4    4    0    0  0.82226892612E+01  0.46360135312E+02  0.52737702443E+02  0.70697524877E+02  0.00000000000E+00 0. -1.
         -4    1    1    2    0  502 -0.35113632916E+02  0.20070647317E+02 -0.85511106389E+02  0.94593590777E+02  0.00000000000E+00 0.  1.
<scales pt_clust_5="13000.00000" pt_clust_6="13000.00000" pt_clust_7="13000.00000" pt_clust_8="13000.00000" pt_clust_9="40.44500"></scales>
<clustering>
<clus scale="   40.445">  2  9  1 -1</clus>
<clus scale="   80.358">  5  6 -1 -1</clus>
<clus scale="   86.391">  7  8 -1 -1</clus>
<clus scale="   90.569">  1  5  2 -1</clus>
<clus scale="   40.445">  2  5  1 -1</clus>
</clustering>
</event>
<event>
 9    2  0.1325014E-004  0.2111881E+03  0.7546771E-02  0.1181226E+00
         21   -1    0    0  501  502  0.00000000000E+00  0.00000000000E+00  0.22463860410E+03  0.22463860410E+03  0.00000000000E+00 0.  1.
          4   -1    0    0  502    0 -0.00000000000E+00 -0.00000000000E+00 -0.27246764231E+03  0.27246764231E+03  0.00000000000E+00 0. -1.
         24    2    1    2    0    0  0.12290039396E+02  0.62697013847E+01  0.26214306931E+02  0.86263225441E+02  0.81017281809E+02 0.  0.
         23    2    1    2    0    0 -0.61411978366E+02 -0.18603852848E+03 -0.17706992763E+02  0.21615460149E+03  0.89596367049E+02 0.  0.
        -11    1    3    3    0    0  0.29419282006E+02 -0.17800036807E+02 -0.13350332870E+02  0.36885862493E+02  0.00000000000E+00 0.  1.
         12    1    3    3    0    0 -0.17129242611E+02  0.24069738192E+02  0.39564639802E+02  0.49377362948E+02  0.00000000000E+00 0. -1.
        -13    1    4    4    0    0 -0.23485572407E+02 -0.17403570086E+03 -0.15936523038E+02  0.17633482370E+03  0.00000000000E+00 0.  1.
         13    1    4    4    0    0 -0.37926405960E+02 -0.12002827618E+02 -0.17704697247E+01  0.39819777786E+02  0.00000000000E+00 0. -1.
          3    1    1    2  501    0  0.49121938971E+02  0.17976882709E+03 -0.56336352373E+02  0.19468841948E+03  0.00000000000E+00 0. -1.
<scales pt_clust_5="13000.00000" pt_clust_6="13000.00000" pt_clust_7="13000.00000" pt_clust_8="13000.00000" pt_clust_9="191.24048"></scales>
<clustering>
<clus scale="   81.017">  5  6 -1 -1</clus>
<clus scale="   82.184">  2  5  1 -1</clus>
<clus scale="   89.596">  7  8 -1 -1</clus>
<clus scale="  191.240">  1  9  2 -1</clus>
<clus scale="  191.240">  1  5  2 -1</clus>
</clustering>
</event>
<event>
 9    2  0.1325014E-004  0.1090602E+03  0.7546771E-02  0.1267871E+00
         21   -1    0    0  501  502  0.00000000000E+00  0.00000000000E+00  0.43533512939E+02  0.43533512939E+02  0.00000000000E+00 0. -1.
          2   -1    0    0  502    0 -0.00000000000E+00 -0.00000000000E+00 -0.56402265359E+03  0.56402265359E+03  0.00000000000E+00 0. -1.
         24    2    1    2    0    0 -0.15788992052E+02  0.48657351114E+02 -0.32277754278E+03  0.33712097997E+03  0.82754957120E+02 0.  0.
         23    2    1    2    0    0 -0.34855985267E+02 -0.61196493243E+02 -0.17929924349E+03  0.21510744842E+03  0.95723796197E+02 0.  0.
        -11    1    3    3    0    0 -0.53957535078E+01  0.55584580936E+02 -0.10449961338E+03  0.11848598648E+03  0.00000000000E+00 0.  1.
         12    1    3    3    0    0 -0.10393238545E+02 -0.69272298220E+01 -0.21827792940E+03  0.21863499350E+03  0.00000000000E+00 0. -1.
        -13    1    4    4    0    0  0.18048658622E+02 -0.61468197724E+02 -0.11686349646E+03  0.13327104042E+03  0.00000000000E+00 0.  1.
         13    1    4    4    0    0 -0.52904643889E+02  0.27170448124E+00 -0.62435747026E+02  0.81836408005E+02  0.00000000000E+00 0. -1.
          1    1    1    2  501    0  0.50644977319E+02  0.12539142128E+02 -0.18412354389E+02  0.55327738135E+02  0.00000000000E+00 0. -1.
<scales pt_clust_5="13000.00000" pt_clust_6="13000.00000" pt_clust_7="13000.00000" pt_clust_8="13000.00000" pt_clust_9="52.17417"></scales>
<clustering>
<clus scale="   52.174">  1  9  2 -1</clus>
<clus scale="   82.755">  5  6 -1 -1</clus>
<clus scale="   95.724">  7  8 -1 -1</clus>
<clus scale="   97.875">  2  5  1 -1</clus>
<clus scale="   52.174">  1  5  2 -1</clus>
</clustering>
</event>
<event>
 9    2  0.1325014E-004  0.1204162E+03  0.7546771E-02  0.1245964E+00
         21   -1    0    0  501  502  0.00000000000E+00  0.00000000000E+00  0.23027852205E+03  0.23027852205E+03  0.00000000000E+00 0. -1.
         -3   -1    0    0    0  501 -0.00000000000E+00 -0.00000000000E+00 -0.15008416246E+03  0.15008416246E+03  0.00000000000E+00 0.  1.
         24    2    1    2    0    0  0.50075520043E+02 -0.66392422275E+02  0.95723392210E+01  0.11566725403E+03  0.79823383381E+02 0.  0.
         23    2    1    2    0    0 -0.49741742228E+02  0.45867950701E+02  0.14693137899E+03  0.18567338575E+03  0.91146399950E+02 0.  0.
        -13    1    3    3    0    0  0.39386230399E+02 -0.75086165518E+02  0.30926956665E+02  0.90253443401E+02  0.00000000000E+00 0.  1.
         14    1    3    3    0    0  0.10689289644E+02  0.86937432430E+01 -0.21354617444E+02  0.25413810632E+02  0.00000000000E+00 0. -1.
        -11    1    4    4    0    0  0.25680455234E+02  0.20286633891E+02  0.55393575295E+02  0.64338802286E+02  0.00000000000E+00 0.  1.
         11    1    4    4    0    0 -0.75422197462E+02  0.25581316809E+02  0.91537803694E+02  0.12133458347E+03  0.00000000000E+00 0. -1.
         -4    1    1    2    0  502 -0.33377781489E+00  0.20524471574E+02 -0.76309358620E+02  0.79022044734E+02  0.00000000000E+00 0.  1.
<scales pt_clust_5="13000.00000" pt_clust_6="13000.00000" pt_clust_7="13000.00000" pt_clust_8="13000.00000" pt_clust_9="20.52720"></scales>
<clustering>
<clus scale="   20.527">  1  9  2 -1</clus>
<clus scale="   79.823">  5  6 -1 -1</clus>
<clus scale="   91.146">  7  8 -1 -1</clus>
<clus scale="  112.090">  2  5  1 -1</clus>
<clus scale="   20.527">  1  5  2 -1</clus>
</clustering>
</event>
<event>
 9    2  0.1325014E-004  0.1027038E+03  0.7546771E-02  0.1279671E+00
         21   -1    0    0  501  502  0.00000000000E+00  0.00000000000E+00  0.15645818182E+03  0.15645818182E+03  0.00000000000E+00 0. -1.
         -3   -1    0    0    0  501 -0.00000000000E+00 -0.00000000000E+00 -0.12057180474E+03  0.12057180474E+03  0.00000000000E+00 0.  1.
         23    2    1    2    0    0  0.43332384800E+02 -0.66703482749E+01 -0.65309352556E+02  0.12126066875E+03  0.92285693017E+02 0.  0.
         24    2    1    2    0    0 -0.51032635813E+02 -0.12523903419E+02  0.77715664903E+02  0.12447991700E+03  0.81818989787E+02 0.  0.
        -13    1    4    4    0    0 -0.68461950261E+02 -0.10176937586E+02  0.33500018750E+02  0.76895123047E+02  0.00000000000E+00 0.  1.
         14    1    4    4    0    0  0.17429314447E+02 -0.23469658329E+01  0.44215646152E+02  0.47584793951E+02  0.00000000000E+00 0. -1.
        -13    1    3    3    0    0  0.49778118338E+02  0.13462912524E+02 -0.80239022606E+02  0.95380353468E+02  0.00000000000E+00 0.  1.
         13    1    3    3    0    0 -0.64457335379E+01 -0.20133260799E+02  0.14929670050E+02  0.25880315281E+02  0.00000000000E+00 0. -1.
         -4    1    1    2    0  502  0.77002510134E+01  0.19194251694E+02  0.23480064735E+02  0.31289400820E+02  0.00000000000E+00 0.  1.
<scales pt_clust_5="13000.00000" pt_clust_6="13000.00000" pt_clust_7="13000.00000" pt_clust_8="13000.00000" pt_clust_9="20.68123"></scales>
<clustering>
<clus scale="   20.681">  1  9  2 -1</clus>
<clus scale="   81.819">  5  6 -1 -1</clus>
<clus scale="   92.286">  7  8 -1 -1</clus>
<clus scale="   93.412">  1  5  2 -1</clus>
<clus scale="   20.681">  1  5  2 -1</clus>
</clustering>
</event>
<event>
 9    2  0.1325014E-004  0.1968904E+03  0.7546771E-02  0.1185008E+00
         21   -1    0    0  501  502  0.00000000000E+00  0.00000000000E+00  0.13953218034E+03  0.13953218034E+03  0.00000000000E+00 0. -1.
          2   -1    0    0  502    0 -0.00000000000E+00 -0.00000000000E+00 -0.41190267720E+03  0.41190267720E+03  0.00000000000E+00 0. -1.
         24    2    1    2    0    0 -0.15231528446E+02 -0.37770902719E+02 -0.29982375990E+02  0.97899448803E+02  0.83825525080E+02 0.  0.
         23    2    1    2    0    0  0.55542996817E+02 -0.14302095298E+03 -0.18943262384E+03  0.26088288673E+03  0.92925476189E+02 0.  0.
        -13    1    3    3    0    0 -0.20200051911E+02 -0.34126445305E+02  0.22137068561E+02  0.45417025121E+02  0.00000000000E+00 0.  1.
         14    1    3    3    0    0  0.49685234649E+01 -0.36444574142E+01 -0.52119444551E+02  0.52482423682E+02  0.00000000000E+00 0. -1.
        -13    1    4    4    0    0  0.41754690180E+02 -0.12607752407E+03 -0.93321160560E+02  0.16232016275E+03  0.00000000000E+00 0. -1.
         13    1    4    4    0    0  0.13788306637E+02 -0.16943428911E+02 -0.96111463285E+02  0.98562723978E+02  0.00000000000E+00 0.  1.
          1    1    1    2  501    0 -0.40311468371E+02  0.18079185570E+03 -0.52955497020E+02  0.19265252200E+03  0.00000000000E+00 0. -1.
<scales pt_clust_5="13000.00000" pt_clust_6="13000.00000" pt_clust_7="13000.00000" pt_clust_8="13000.00000" pt_clust_9="173.58195"></scales>
<clustering>
<clus scale="   83.826">  5  6 -1 -1</clus>
<clus scale="   92.925">  7  8 -1 -1</clus>
<clus scale="   93.195">  2  5  1 -1</clus>
<clus scale="  173.582">  1  9  2 -1</clus>
<clus scale="  173.582">  1  5  2 -1</clus>
</clustering>
</event>
<event>
 9    2  0.1325014E-004  0.1707737E+03  0.7546771E-02  0.1179297E+00
         21   -1    0    0  501  502  0.00000000000E+00  0.00000000000E+00  0.30153829985E+03  0.30153829985E+03  0.00000000000E+00 0.  1.
         -1   -1    0    0    0  501 -0.00000000000E+00 -0.00000000000E+00 -0.12591864081E+03  0.12591864081E+03  0.00000000000E+00 0.  1.
         24    2    1    2    0    0 -0.66078862271E+02 -0.13593966397E+03  0.70961987801E+01  0.17111008148E+03  0.79889271299E+02 0.  0.
         23    2    1    2    0    0  0.64227954580E+02  0.10230307193E+03  0.15858018329E+03  0.22122258068E+03  0.95919794586E+02 0.  0.
        -11    1    3    3    0    0 -0.39446617617E+02 -0.13335032041E+03 -0.98940017121E+01  0.13941389767E+03  0.00000000000E+00 0.  1.
         12    1    3    3    0    0 -0.26632244653E+02 -0.25893435613E+01  0.16990200492E+02  0.31696183810E+02  0.00000000000E+00 0. -1.
        -13    1    4    4    0    0  0.82428212485E+02  0.85186115497E+02  0.91818964873E+02  0.14993934373E+03  0.00000000000E+00 0. -1.
         13    1    4    4    0    0 -0.18200257906E+02  0.17116956432E+02  0.66761218422E+02  0.71283236953E+02  0.00000000000E+00 0.  1.
         -2    1    1    2    0  502  0.18509076909E+01  0.33636592037E+02  0.99432769615E+01  0.35124278497E+02  0.00000000000E+00 0.  1.
<scales pt_clust_5="13000.00000" pt_clust_6="13000.00000" pt_clust_7="13000.00000" pt_clust_8="13000.00000" pt_clust_9="33.68749"></scales>
<clustering>
<clus scale="   33.687">  1  9  2 -1</clus>
<clus scale="   79.889">  5  6 -1 -1</clus>
<clus scale="   95.920">  7  8 -1 -1</clus>
<clus scale="  162.312">  2  5  1 -1</clus>
<clus scale="   33.687">  1  5  2 -1</clus>
</clustering>
</event>
<event>
 9    2  0.1469496E-004  0.9373314E+02  0.7546771E-02  0.1302980E+00
         21   -1    0    0  501  502  0.00000000000E+00  0.00000000000E+00  0.46565276449E+02  0.46565276449E+02  0.00000000000E+00 0. -1.
         -1   -1    0    0    0  501 -0.00000000000E+00 -0.00000000000E+00 -0.49463263367E+03  0.49463263367E+03  0.00000000000E+00 0.  1.
         23    2    1    2    0    0 -0.55430228137E+01  0.41033981117E+01 -0.36715379824E+03  0.37896046488E+03  0.93603201890E+02 0.  0.
         24    2    1    2    0    0  0.82193207481E+00  0.30301991695E+02 -0.12935141943E+02  0.85902101335E+02  0.79328222240E+02 0.  0.
        -11    1    4    4    0    0  0.34432278141E+02  0.57203202921E+01 -0.24548830312E+02  0.42672577985E+02  0.00000000000E+00 0.  1.
         12    1    4    4    0    0 -0.33610346066E+02  0.24581671403E+02  0.11613688369E+02  0.43229523351E+02  0.00000000000E+00 0. -1.
        -11    1    3    3    0    0 -0.43122699439E+02 -0.18931875970E+02 -0.14434745444E+03  0.15183599948E+03  0.00000000000E+00 0.  1.
         11    1    3    3    0    0  0.37579676625E+02  0.23035274081E+02 -0.22280634380E+03  0.22712446540E+03  0.00000000000E+00 0. -1.
         -2    1    1    2    0  502  0.47210907389E+01 -0.34405389807E+02 -0.67978417038E+02  0.76335343901E+02  0.00000000000E+00 0.  1.
<scales pt_clust_5="13000.00000" pt_clust_6="13000.00000" pt_clust_7="13000.00000" pt_clust_8="13000.00000" pt_clust_9="34.72781"></scales>
<clustering>
<clus scale="   34.728">  1  9  2 -1</clus>
<clus scale="   79.328">  5  6 -1 -1</clus>
<clus scale="   79.481">  1  5  2 -1</clus>
<clus scale="   93.603">  7  8 -1 -1</clus>
<clus scale="   34.728">  1  5  2 -1</clus>
</clustering>
</event>
<event>
 9    2  0.1325014E-004  0.1095130E+03  0.7546771E-02  0.1267632E+00
         -1   -1    0    0    0  501 -0.00000000000E+00  0.00000000000E+00  0.21905386981E+03  0.21905386981E+03  0.00000000000E+00 0.  1.
         21   -1    0    0  501  502  0.00000000000E+00 -0.00000000000E+00 -0.89107224422E+02  0.89107224422E+02  0.00000000000E+00 0. -1.
         24    2    1    2    0    0  0.51738417576E+01  0.79876749731E+02  0.86337330794E+02  0.14049617864E+03  0.76667970734E+02 0.  0.
         23    2    1    2    0    0  0.27314968026E+02 -0.27661316371E+02  0.19682859863E+02  0.10167666302E+03  0.91866603992E+02 0.  0.
        -11    1    3    3    0    0 -0.12037989815E+02  0.87892621534E+02  0.82457934471E+02  0.12111703875E+03  0.00000000000E+00 0.  1.
         12    1    3    3    0    0  0.17211831572E+02 -0.80158718023E+01  0.38793963232E+01  0.19379139884E+02  0.00000000000E+00 0. -1.
        -11    1    4    4    0    0 -0.31343246748E+00 -0.52104804084E+02  0.33877658021E+02  0.62150660186E+02  0.00000000000E+00 0.  1.
         11    1    4    4    0    0  0.27628400493E+02  0.24443487713E+02 -0.14194798158E+02  0.39526002835E+02  0.00000000000E+00 0. -1.
         -2    1    1    2    0  502 -0.32488809783E+02 -0.52215433360E+02  0.23926454733E+02  0.65988252577E+02  0.00000000000E+00 0.  1.
<scales pt_clust_5="13000.00000" pt_clust_6="13000.00000" pt_clust_7="13000.00000" pt_clust_8="13000.00000" pt_clust_9="61.49776"></scales>
<clustering>
<clus scale="   61.498">  2  9  1 -1</clus>
<clus scale="   76.668">  5  6 -1 -1</clus>
<clus scale="   91.867">  7  8 -1 -1</clus>
<clus scale="   97.116">  1  5  2 -1</clus>
<clus scale="   61.498">  2  5  1 -1</clus>
</clustering>
</event>
<event>
 9    2  0.1325014E-004  0.1102013E+03  0.7546771E-02  0.1264592E+00
          2   -1    0    0  502    0 -0.00000000000E+00  0.00000000000E+00  0.10471512260E+04  0.10471512260E+04  0.00000000000E+00 0. -1.
         21   -1    0    0  501  502  0.00000000000E+00 -0.00000000000E+00 -0.14365990033E+02  0.14365990033E+02  0.00000000000E+00 0. -1.
         23    2    1    2    0    0 -0.36814595472E+02 -0.28305534002E+02  0.43759333062E+03  0.44971684977E+03  0.92740521215E+02 0.  0.
         24    2    1    2    0    0  0.67593619894E+02  0.29025782911E+02  0.49050606571E+03  0.50268120148E+03  0.81736138213E+02 0.  0.
        -11    1    4    4    0    0  0.23393306729E+02  0.29601117453E+02  0.67147561132E+02  0.77021217338E+02  0.00000000000E+00 0.  1.
         12    1    4    4    0    0  0.44200313165E+02 -0.57533454271E+00  0.42335850458E+03  0.42565998414E+03  0.00000000000E+00 0. -1.
        -11    1    3    3    0    0 -0.60698389710E+02  0.69445020908E+01  0.26426807808E+03  0.27123815682E+03  0.00000000000E+00 0.  1.
         11    1    3    3    0    0  0.23883794238E+02 -0.35250036093E+02  0.17332525254E+03  0.17847869296E+03  0.00000000000E+00 0. -1.
          1    1    1    2  501    0 -0.30779024422E+02 -0.72024890854E+00  0.10468583964E+03  0.10911916479E+03  0.00000000000E+00 0. -1.
<scales pt_clust_5="13000.00000" pt_clust_6="13000.00000" pt_clust_7="13000.00000" pt_clust_8="13000.00000" pt_clust_9="30.78745"></scales>
<clustering>
<clus scale="   30.787">  2  9  1 -1</clus>
<clus scale="   81.736">  5  6 -1 -1</clus>
<clus scale="   92.741">  7  8 -1 -1</clus>
<clus scale="  101.115">  2  5  1 -1</clus>
<clus scale="   30.787">  2  5  1 -1</clus>
</clustering>
</event>
<event>
 9    2  0.1325014E-004  0.1079743E+03  0.7546771E-02  0.1269506E+00
          2   -1    0    0  502    0 -0.00000000000E+00  0.00000000000E+00  0.15333774611E+03  0.15333774611E+03  0.00000000000E+00 0. -1.
         21   -1    0    0  501  502  0.00000000000E+00 -0.00000000000E+00 -0.13934648971E+03  0.13934648971E+03  0.00000000000E+00 0.  1.
         23    2    1    2    0    0 -0.62883540780E+02 -0.24506710250E+01  0.68202157162E+02  0.13500474465E+03  0.98053053737E+02 0.  0.
         24    2    1    2    0    0  0.10656878870E+02 -0.22486602239E+02 -0.30742702354E+02  0.95227524435E+02  0.86625350300E+02 0.  0.
        -13    1    4    4    0    0  0.96407025858E+01 -0.55587905709E+02 -0.24591071073E+02  0.61544123879E+02  0.00000000000E+00 0.  1.
         14    1    4    4    0    0  0.10161762839E+01  0.33101303470E+02 -0.61516312806E+01  0.33683400557E+02  0.00000000000E+00 0. -1.
        -13    1    3    3    0    0 -0.26757246085E+02 -0.50014617008E+02  0.35395118655E+02  0.66859752894E+02  0.00000000000E+00 0.  1.
         13    1    3    3    0    0 -0.36126294695E+02  0.47563945983E+02  0.32807038507E+02  0.68144991756E+02  0.00000000000E+00 0. -1.
          1    1    1    2  501    0  0.52226661910E+02  0.24937273264E+02 -0.23468198413E+02  0.62451966733E+02  0.00000000000E+00 0. -1.
<scales pt_clust_5="13000.00000" pt_clust_6="13000.00000" pt_clust_7="13000.00000" pt_clust_8="13000.00000" pt_clust_9="57.87479"></scales>
<clustering>
<clus scale="   57.875">  2  9  1 -1</clus>
<clus scale="   86.625">  5  6 -1 -1</clus>
<clus scale="   97.714">  2  5  1 -1</clus>
<clus scale="   98.053">  7  8 -1 -1</clus>
<clus scale="   57.875">  2  5  1 -1</clus>
</clustering>
</event>
<event>
 9    2  0.1325014E-004  0.1467531E+03  0.7546771E-02  0.1207301E+00
         21   -1    0    0  501  502  0.00000000000E+00  0.00000000000E+00  0.70445121683E+02  0.70445121683E+02  0.00000000000E+00 0.  1.
          4   -1    0    0  502    0 -0.00000000000E+00 -0.00000000000E+00 -0.51889393624E+03  0.51889393624E+03  0.00000000000E+00 0. -1.
         23    2    1    2    0    0 -0.10178727396E+03  0.72005489473E+02 -0.27588828003E+03  0.31669600606E+03  0.92933188575E+02 0.  0.
         24    2    1    2    0    0  0.58985167050E+02 -0.87889419143E+02 -0.18318906695E+03  0.22576784222E+03  0.78797743621E+02 0.  0.
        -11    1    4    4    0    0  0.55628399459E+02 -0.66417758314E+02 -0.72511532295E+02  0.11297681072E+03  0.00000000000E+00 0.  1.
         12    1    4    4    0    0  0.33567675908E+01 -0.21471660829E+02 -0.11067753466E+03  0.11279103149E+03  0.00000000000E+00 0. -1.
        -13    1    3    3    0    0 -0.70107314947E+02  0.20124443684E+02 -0.66642293827E+02  0.98798907733E+02  0.00000000000E+00 0.  1.
         13    1    3    3    0    0 -0.31679959015E+02  0.51881045789E+02 -0.20924598620E+03  0.21789709832E+03  0.00000000000E+00 0. -1.
          3    1    1    2  501    0  0.42802106912E+02  0.15883929670E+02  0.10628532428E+02  0.46875209647E+02  0.00000000000E+00 0. -1.
<scales pt_clust_5="13000.00000" pt_clust_6="13000.00000" pt_clust_7="13000.00000" pt_clust_8="13000.00000" pt_clust_9="45.65435"></scales>
<clustering>
<clus scale="   45.654">  1  9  2 -1</clus>
<clus scale="   78.798">  5  6 -1 -1</clus>
<clus scale="   92.933">  7  8 -1 -1</clus>
<clus scale="  138.235">  1  5  2 -1</clus>
<clus scale="   45.654">  1  5  2 -1</clus>
</clustering>
</event>
<event>
 9    2  0.1325014E-004  0.1439027E+03  0.7546771E-02  0.1210184E+00
         21   -1    0    0  501  502  0.00000000000E+00  0.00000000000E+00  0.16280387944E+03  0.16280387944E+03  0.00000000000E+00 0. -1.
          2   -1    0    0  502    0 -0.00000000000E+00 -0.00000000000E+00 -0.28852724194E+03  0.28852724194E+03  0.00000000000E+00 0. -1.
         24    2    1    2    0    0  0.74289459983E+02  0.51760070870E+02 -0.77073430779E+02  0.14472662960E+03  0.82507301385E+02 0.  0.
         23    2    1    2    0    0 -0.73174939376E+02 -0.15765864587E+03 -0.29632314199E+02  0.19900607116E+03  0.92274167254E+02 0.  0.
        -11    1    3    3    0    0  0.21477489821E+02  0.59922320090E+02 -0.20429018762E+02  0.66852911840E+02  0.00000000000E+00 0.  1.
         12    1    3    3    0    0  0.52811970162E+02 -0.81622492200E+01 -0.56644412017E+02  0.77873717758E+02  0.00000000000E+00 0. -1.
        -13    1    4    4    0    0 -0.85690277908E+02 -0.11701627266E+03  0.35283774816E+01  0.14507956866E+03  0.00000000000E+00 0. -1.
         13    1    4    4    0    0  0.12515338532E+02 -0.40642373209E+02 -0.33160691681E+02  0.53926502495E+02  0.00000000000E+00 0.  1.
          1    1    1    2  501    0 -0.11145206066E+01  0.10589857500E+03 -0.19017617523E+02  0.10759842062E+03  0.00000000000E+00 0. -1.
<scales pt_clust_5="13000.00000" pt_clust_6="13000.00000" pt_clust_7="13000.00000" pt_clust_8="13000.00000" pt_clust_9="105.90444"></scales>
<clustering>
<clus scale="   82.507">  5  6 -1 -1</clus>
<clus scale="   92.274">  7  8 -1 -1</clus>
<clus scale="  105.904">  1  9  2 -1</clus>
<clus scale="  137.844">  2  5  1 -1</clus>
<clus scale="  105.904">  1  5  2 -1</clus>
</clustering>
</event>
<event>
 9    2  0.1325014E-004  0.2374735E+03  0.7546771E-02  0.1122118E+00
          2   -1    0    0  502    0 -0.00000000000E+00  0.00000000000E+00  0.11907945087E+03  0.11907945087E+03  0.00000000000E+00 0. -1.
         21   -1    0    0  501  502  0.00000000000E+00 -0.00000000000E+00 -0.61523465213E+03  0.61523465213E+03  0.00000000000E+00 0.  1.
         24    2    1    2    0    0  0.20218404725E+03  0.74377941743E+02 -0.10776635210E+03  0.25388596363E+03  0.80212397435E+02 0.  0.
         23    2    1    2    0    0 -0.22240796216E+03 -0.52796388512E+02 -0.30371028373E+03  0.39073293539E+03  0.90440754517E+02 0.  0.
        -13    1    3    3    0    0  0.43846461507E+02  0.53961832592E+02 -0.41937972436E+02  0.81198430375E+02  0.00000000000E+00 0.  1.
         14    1    3    3    0    0  0.15833758574E+03  0.20416109151E+02 -0.65828379666E+02  0.17268753325E+03  0.00000000000E+00 0. -1.
        -13    1    4    4    0    0 -0.14586951385E+03  0.10847769720E+02 -0.18283620467E+03  0.23414667821E+03  0.00000000000E+00 0.  1.
         13    1    4    4    0    0 -0.76538448312E+02 -0.63644158232E+02 -0.12087407907E+03  0.15658625718E+03  0.00000000000E+00 0. -1.
          1    1    1    2  501    0  0.20223914915E+02 -0.21581553231E+02 -0.84678565428E+02  0.89695203982E+02  0.00000000000E+00 0. -1.
<scales pt_clust_5="13000.00000" pt_clust_6="13000.00000" pt_clust_7="13000.00000" pt_clust_8="13000.00000" pt_clust_9="29.57651"></scales>
<clustering>
<clus scale="   29.577">  2  9  1 -1</clus>
<clus scale="   80.212">  5  6 -1 -1</clus>
<clus scale="   90.441">  7  8 -1 -1</clus>
<clus scale="  233.769">  1  5  2 -1</clus>
<clus scale="   29.577">  2  5  1 -1</clus>
</clustering>
</event>
<event>
 9    2  0.1325014E-004  0.1069762E+03  0.7546771E-02  0.1269935E+00
         -3   -1    0    0    0  501 -0.00000000000E+00  0.00000000000E+00  0.27293042411E+03  0.27293042411E+03  0.00000000000E+00 0.  1.
         21   -1    0    0  501  502  0.00000000000E+00 -0.00000000000E+00 -0.22769947181E+03  0.22769947181E+03  0.00000000000E+00 0. -1.
         23    2    1    2    0    0  0.59405105346E+02  0.18345115650E+01  0.20381864899E+03  0.23038438313E+03  0.89457198369E+02 0.  0.
         24    2    1    2    0    0 -0.47450118131E+02  0.61751467315E+02 -0.17093331397E+03  0.20437812560E+03  0.80544788605E+02 0.  0.
        -13    1    4    4    0    0 -0.16904168116E+02 -0.17295274759E+02 -0.60664700306E+02  0.65307605161E+02  0.00000000000E+00 0.  1.
         14    1    4    4    0    0 -0.30545950015E+02  0.79046742074E+02 -0.11026861367E+03  0.13907052044E+03  0.00000000000E+00 0. -1.
        -13    1    3    3    0    0  0.17618095325E+02  0.44296002225E+02  0.84481057066E+02  0.97003000463E+02  0.00000000000E+00 0.  1.
         13    1    3    3    0    0  0.41787010021E+02 -0.42461490660E+02  0.11933759193E+03  0.13338138267E+03  0.00000000000E+00 0. -1.
         -4    1    1    2    0  502 -0.11954987215E+02 -0.63585978880E+02  0.12345617282E+02  0.65867387193E+02  0.00000000000E+00 0.  1.
<scales pt_clust_5="13000.00000" pt_clust_6="13000.00000" pt_clust_7="13000.00000" pt_clust_8="13000.00000" pt_clust_9="64.70010"></scales>
<clustering>
<clus scale="   64.700">  2  9  1 -1</clus>
<clus scale="   80.545">  5  6 -1 -1</clus>
<clus scale="   89.457">  7  8 -1 -1</clus>
<clus scale="   99.643">  2  5  1 -1</clus>
<clus scale="   64.700">  2  5  1 -1</clus>
</clustering>
</event>
<event>
 9    2  0.1325014E-004  0.1855027E+03  0.7546771E-02  0.1165378E+00
         21   -1    0    0  501  502  0.00000000000E+00  0.00000000000E+00  0.19604637048E+03  0.19604637048E+03  0.00000000000E+00 0. -1.
          2   -1    0    0  502    0 -0.00000000000E+00 -0.00000000000E+00 -0.22529581069E+03  0.22529581069E+03  0.00000000000E+00 0. -1.
         23    2    1    2    0    0 -0.54023597230E+02  0.15064151334E+03 -0.95529018109E+02  0.21279442865E+03  0.10268525192E+03 0.  0.
         24    2    1    2    0    0  0.68723233991E+02 -0.12630551415E+03  0.72030866598E+02  0.17954089990E+03  0.79815557373E+02 0.  0.
        -11    1    4    4    0    0  0.50640328809E+02 -0.10469170257E+03  0.16756226971E+02  0.11749709202E+03  0.00000000000E+00 0.  1.
         12    1    4    4    0    0  0.18082905182E+02 -0.21613811573E+02  0.55274639628E+02  0.62043807882E+02  0.00000000000E+00 0. -1.
        -13    1    3    3    0    0  0.75524548354E+01  0.68765373610E+02 -0.85317918129E+02  0.10984017178E+03  0.00000000000E+00 0. -1.
         13    1    3    3    0    0 -0.61576052065E+02  0.81876139734E+02 -0.10211099981E+02  0.10295425687E+03  0.00000000000E+00 0.  1.
          1    1    1    2  501    0 -0.14699636761E+02 -0.24335999197E+02 -0.57512886958E+01  0.29006852630E+02  0.00000000000E+00 0. -1.
<scales pt_clust_5="13000.00000" pt_clust_6="13000.00000" pt_clust_7="13000.00000" pt_clust_8="13000.00000" pt_clust_9="28.43099"></scales>
<clustering>
<clus scale="   28.431">  1  9  2 -1</clus>
<clus scale="   79.816">  5  6 -1 -1</clus>
<clus scale="  102.685">  7  8 -1 -1</clus>
<clus scale="  173.889">  1  5  2 -1</clus>
<clus scale="   28.431">  1  5  2 -1</clus>
</clustering>
</event>
<event>
 9    2  0.1325014E-004  0.2442024E+03  0.7546771E-02  0.1117632E+00
         21   -1    0    0  501  502  0.00000000000E+00  0.00000000000E+00  0.45375215187E+03  0.45375215187E+03  0.00000000000E+00 0. -1.
          2   -1    0    0  502    0 -0.00000000000E+00 -0.00000000000E+00 -0.22582613307E+03  0.22582613307E+03  0.00000000000E+00 0. -1.
         23    2    1    2    0    0 -0.33230394589E+02  0.17566868835E+03  0.13840054141E+03  0.24380329832E+03  0.91222756044E+02 0.  0.
         24    2    1    2    0    0  0.13480971434E+03 -0.24883577916E+03  0.98257174358E+02  0.31028385580E+03  0.80800339043E+02 0.  0.
        -11    1    4    4    0    0  0.31654071096E+02 -0.11516771295E+03  0.71858542050E+02  0.13938878143E+03  0.00000000000E+00 0.  1.
         12    1    4    4    0    0  0.10315564325E+03 -0.13366806621E+03  0.26398632309E+02  0.17089507438E+03  0.00000000000E+00 0. -1.
        -11    1    3    3    0    0 -0.68391000094E+01  0.90786150275E+02  0.15855643957E+02  0.92413742571E+02  0.00000000000E+00 0.  1.
         11    1    3    3    0    0 -0.26391294580E+02  0.84882538075E+02  0.12254489745E+03  0.15138955575E+03  0.00000000000E+00 0. -1.
          1    1    1    2  501    0 -0.10157931976E+03  0.73167090807E+02 -0.87316969672E+01  0.12549113081E+03  0.00000000000E+00 0. -1.
<scales pt_clust_5="13000.00000" pt_clust_6="13000.00000" pt_clust_7="13000.00000" pt_clust_8="13000.00000" pt_clust_9="125.18705"></scales>
<clustering>
<clus scale="   80.800">  5  6 -1 -1</clus>
<clus scale="   91.223">  7  8 -1 -1</clus>
<clus scale="  125.187">  1  9  2 -1</clus>
<clus scale="  240.503">  1  5  2 -1</clus>
<clus scale="  125.187">  1  5  2 -1</clus>
</clustering>
</event>
<event>
 9    2  0.1325014E-004  0.2226934E+03  0.7546771E-02  0.1167392E+00
          2   -1    0    0  502    0 -0.00000000000E+00  0.00000000000E+00  0.65515761310E+03  0.65515761310E+03  0.00000000000E+00 0. -1.
         21   -1    0    0  501  502  0.00000000000E+00 -0.00000000000E+00 -0.13284902661E+03  0.13284902661E+03  0.00000000000E+00 0.  1.
         24    2    1    2    0    0  0.51612244609E+02 -0.62256258316E+01  0.10556263675E+03  0.14265665640E+03  0.80652768871E+02 0.  0.
         23    2    1    2    0    0  0.12522062089E+03 -0.15484403942E+03  0.69798539859E+02  0.22394067562E+03  0.74971391807E+02 0.  0.
        -11    1    3    3    0    0 -0.21560739326E+02  0.27569357582E+01  0.30427533484E+02  0.37393862718E+02  0.00000000000E+00 0.  1.
         12    1    3    3    0    0  0.73172983935E+02 -0.89825615898E+01  0.75135103268E+02  0.10526279368E+03  0.00000000000E+00 0. -1.
        -13    1    4    4    0    0  0.89625543468E+02 -0.10624346186E+03  0.10473431886E+02  0.13939190796E+03  0.00000000000E+00 0.  1.
         13    1    4    4    0    0  0.35595077420E+02 -0.48600577557E+02  0.59325107973E+02  0.84548767652E+02  0.00000000000E+00 0. -1.
          1    1    1    2  501    0 -0.17683286550E+03  0.16106966525E+03  0.34694740988E+03  0.42140930769E+03  0.00000000000E+00 0. -1.
<scales pt_clust_5="13000.00000" pt_clust_6="13000.00000" pt_clust_7="13000.00000" pt_clust_8="13000.00000" pt_clust_9="209.69430"></scales>
<clustering>
<clus scale="   74.971">  7  8 -1 -1</clus>
<clus scale="   80.653">  5  6 -1 -1</clus>
<clus scale="   95.955">  1  5  2 -1</clus>
<clus scale="  209.694">  2  9  1 -1</clus>
<clus scale="  209.694">  2  5  1 -1</clus>
</clustering>
</event>
<event>
 9    2  0.1325014E-004  0.1396191E+03  0.7546771E-02  0.1216393E+00
         21   -1    0    0  501  502  0.00000000000E+00  0.00000000000E+00  0.19730364251E+03  0.19730364251E+03  0.00000000000E+00 0.  1.
         -3   -1    0    0    0  501 -0.00000000000E+00 -0.00000000000E+00 -0.16927289677E+03  0.16927289677E+03  0.00000000000E+00 0.  1.
         23    2    1    2    0    0  0.97341763594E+02 -0.15606602963E+02 -0.49627766047E+02  0.14326963439E+03  0.91347074287E+02 0.  0.
         24    2    1    2    0    0 -0.11205384507E+03  0.31809863838E+02 -0.15446114275E+01  0.14113558548E+03  0.79680211057E+02 0.  0.
        -11    1    4    4    0    0 -0.72790280463E+02  0.29932867905E+02 -0.38113429606E+02  0.87447327159E+02  0.00000000000E+00 0.  1.
         12    1    4    4    0    0 -0.39263564603E+02  0.18769959332E+01  0.36568818179E+02  0.53688258326E+02  0.00000000000E+00 0. -1.
        -11    1    3    3    0    0  0.93911244402E+02 -0.37565874193E+02 -0.15186639995E+02  0.10227976713E+03  0.00000000000E+00 0. -1.
         11    1    3    3    0    0  0.34305191921E+01  0.21959271229E+02 -0.34441126052E+02  0.40989867267E+02  0.00000000000E+00 0.  1.
         -4    1    1    2    0  502  0.14712081472E+02 -0.16203260875E+02  0.79203123217E+02  0.82171319397E+02  0.00000000000E+00 0.  1.
<scales pt_clust_5="13000.00000" pt_clust_6="13000.00000" pt_clust_7="13000.00000" pt_clust_8="13000.00000" pt_clust_9="21.88586"></scales>
<clustering>
<clus scale="   21.886">  1  9  2 -1</clus>
<clus scale="   79.680">  5  6 -1 -1</clus>
<clus scale="   91.347">  7  8 -1 -1</clus>
<clus scale="  132.281">  1  5  2 -1</clus>
<clus scale="   21.886">  1  5  2 -1</clus>
</clustering>
</event>
<event>
 9    2  0.1325014E-004  0.2906098E+03  0.7546771E-02  0.1090421E+00
          2   -1    0    0  502    0 -0.00000000000E+00  0.00000000000E+00  0.10068813610E+04  0.10068813610E+04  0.00000000000E+00 0. -1.
         21   -1    0    0  501  502  0.00000000000E+00 -0.00000000000E+00 -0.15399369382E+03  0.15399369382E+03  0.00000000000E+00 0. -1.
         24    2    1    2    0    0  0.22721694708E+02  0.28082360245E+03  0.74569838463E+03  0.80126789750E+03  0.81154122642E+02 0.  0.
         23    2    1    2    0    0 -0.50587309473E+02 -0.25472625460E+03  0.14043098230E+03  0.30898527805E+03  0.91140005500E+02 0.  0.
        -13    1    3    3    0    0  0.47751038431E+02  0.11746616211E+03  0.28926179669E+03  0.31583357633E+03  0.00000000000E+00 0.  1.
         14    1    3    3    0    0 -0.25029343723E+02  0.16335744034E+03  0.45643658794E+03  0.48543432118E+03  0.00000000000E+00 0. -1.
        -13    1    4    4    0    0  0.21347006972E+02 -0.12115374605E+03  0.72150692003E+02  0.14261713517E+03  0.00000000000E+00 0. -1.
         13    1    4    4    0    0 -0.71934316445E+02 -0.13357250855E+03  0.68280290301E+02  0.16636814288E+03  0.00000000000E+00 0.  1.
          1    1    1    2  501    0  0.27865614765E+02 -0.26097347852E+02 -0.33241699794E+02  0.50621879225E+02  0.00000000000E+00 0. -1.
<scales pt_clust_5="13000.00000" pt_clust_6="13000.00000" pt_clust_7="13000.00000" pt_clust_8="13000.00000" pt_clust_9="38.17806"></scales>
<clustering>
<clus scale="   38.178">  2  9  1 -1</clus>
<clus scale="   81.154">  5  6 -1 -1</clus>
<clus scale="   91.140">  7  8 -1 -1</clus>
<clus scale="  287.634">  1  5  2 -1</clus>
<clus scale="   38.178">  2  5  1 -1</clus>
</clustering>
</event>
<event>
 9    2  0.1325014E-004  0.2868310E+03  0.7546771E-02  0.1092015E+00
         21   -1    0    0  501  502  0.00000000000E+00  0.00000000000E+00  0.35792332803E+03  0.35792332803E+03  0.00000000000E+00 0. -1.
          2   -1    0    0  502    0 -0.00000000000E+00 -0.00000000000E+00 -0.18132066670E+03  0.18132066670E+03  0.00000000000E+00 0. -1.
         24    2    1    2    0    0  0.95201207523E+02 -0.41341891131E+02  0.31824771539E+02  0.13541044251E+03  0.80936703547E+02 0.  0.
         23    2    1    2    0    0  0.74405339719E+02 -0.87013503381E+02  0.12159472425E+03  0.18987339861E+03  0.90327881545E+02 0.  0.
        -13    1    3    3    0    0  0.10091856775E+02 -0.30153385216E+02 -0.17613935892E+02  0.36350006201E+02  0.00000000000E+00 0.  1.
         14    1    3    3    0    0  0.85109350748E+02 -0.11188505915E+02  0.49438707431E+02  0.99060436309E+02  0.00000000000E+00 0. -1.
        -13    1    4    4    0    0  0.27887377223E+02 -0.91904235837E+02  0.98986404875E+02  0.13792172680E+03  0.00000000000E+00 0. -1.
         13    1    4    4    0    0  0.46517962497E+02  0.48907324564E+01  0.22608319374E+02  0.51951671809E+02  0.00000000000E+00 0.  1.
          1    1    1    2  501    0 -0.16960654724E+03  0.12835539451E+03  0.23183165542E+02  0.21396015361E+03  0.00000000000E+00 0. -1.
<scales pt_clust_5="13000.00000" pt_clust_6="13000.00000" pt_clust_7="13000.00000" pt_clust_8="13000.00000" pt_clust_9="212.70057"></scales>
<clustering>
<clus scale="   80.937">  5  6 -1 -1</clus>
<clus scale="   90.328">  7  8 -1 -1</clus>
<clus scale="  122.819">  5  7 -1 -1</clus>
<clus scale="  212.701">  1  9  2 -1</clus>
<clus scale="  212.701">  1  5  2 -1</clus>
</clustering>
</event>
<event>
 9    2  0.1325014E-004  0.1944349E+03  0.7546771E-02  0.1155635E+00
         -3   -1    0    0    0  501 -0.00000000000E+00  0.00000000000E+00  0.40052123593E+03  0.40052123593E+03  0.00000000000E+00 0.  1.
         21   -1    0    0  501  502  0.00000000000E+00 -0.00000000000E+00 -0.14975035369E+03  0.14975035369E+03  0.00000000000E+00 0.  1.
         24    2    1    2    0    0  0.98621421377E+02 -0.93305534351E+02  0.58474134135E+02  0.16870958101E+03  0.81311689601E+02 0.  0.
         23    2    1    2    0    0 -0.19085257718E+03  0.10494608422E+03  0.13720524866E+03  0.27350109147E+03  0.92407683457E+02 0.  0.
        -13    1    3    3    0    0  0.87148360545E+02 -0.10673608060E+03  0.61311150477E+02  0.15081937813E+03  0.00000000000E+00 0.  1.
         14    1    3    3    0    0  0.11473060832E+02  0.13430546244E+02 -0.28370163417E+01  0.17890202878E+02  0.00000000000E+00 0. -1.
        -11    1    4    4    0    0 -0.21590842630E+02  0.46944255213E+02  0.58440407678E+02  0.78007748542E+02  0.00000000000E+00 0. -1.
         11    1    4    4    0    0 -0.16926173455E+03  0.58001829011E+02  0.78764840981E+02  0.19549334292E+03  0.00000000000E+00 0.  1.
         -4    1    1    2    0  502  0.92231155807E+02 -0.11640549873E+02  0.55091499446E+02  0.10806091714E+03  0.00000000000E+00 0.  1.
<scales pt_clust_5="13000.00000" pt_clust_6="13000.00000" pt_clust_7="13000.00000" pt_clust_8="13000.00000" pt_clust_9="92.96288"></scales>
<clustering>
<clus scale="   81.312">  5  6 -1 -1</clus>
<clus scale="   92.408">  7  8 -1 -1</clus>
<clus scale="   92.963">  2  9  1 -1</clus>
<clus scale="  189.413">  1  5  2 -1</clus>
<clus scale="   92.963">  2  5  1 -1</clus>
</clustering>
</event>
<event>
 9    2  0.1325014E-004  0.1741345E+03  0.7546771E-02  0.1197020E+00
         21   -1    0    0  501  502  0.00000000000E+00  0.00000000000E+00  0.75275183716E+02  0.75275183716E+02  0.00000000000E+00 0.  1.
         -1   -1    0    0    0  501 -0.00000000000E+00 -0.00000000000E+00 -0.73647405356E+03  0.73647405356E+03  0.00000000000E+00 0.  1.
         24    2    1    2    0    0  0.34741506428E+02  0.60268451234E+02 -0.21677630277E+03  0.24015682528E+03  0.76446561728E+02 0.  0.
         23    2    1    2    0    0  0.73655420038E+02 -0.14145341801E+03 -0.11838598062E+03  0.21854744574E+03  0.91178699619E+02 0.  0.
        -11    1    3    3    0    0  0.96244041729E+01  0.43067364903E+02 -0.36329014362E+02  0.57159639255E+02  0.00000000000E+00 0.  1.
         12    1    3    3    0    0  0.25117102255E+02  0.17201086331E+02 -0.18044728841E+03  0.18299718602E+03  0.00000000000E+00 0. -1.
        -13    1    4    4    0    0  0.28918719180E+02 -0.34935689166E+01 -0.50759246945E+02  0.58523486681E+02  0.00000000000E+00 0. -1.
         13    1    4    4    0    0  0.44736700858E+02 -0.13795984909E+03 -0.67626733671E+02  0.16002395906E+03  0.00000000000E+00 0.  1.
         -2    1    1    2    0  502 -0.10839692647E+03  0.81184966773E+02 -0.32603658646E+03  0.35304496627E+03  0.00000000000E+00 0.  1.
<scales pt_clust_5="13000.00000" pt_clust_6="13000.00000" pt_clust_7="13000.00000" pt_clust_8="13000.00000" pt_clust_9="148.35531"></scales>
<clustering>
<clus scale="   76.447">  5  6 -1 -1</clus>
<clus scale="   91.179">  7  8 -1 -1</clus>
<clus scale="  103.360">  2  5  1 -1</clus>
<clus scale="  148.355">  1  9  2 -1</clus>
<clus scale="  148.355">  1  5  2 -1</clus>
</clustering>
</event>
<event>
 9    2  0.1325014E-004  0.1376506E+03  0.7546771E-02  0.1239814E+00
         21   -1    0    0  501  502  0.00000000000E+00  0.00000000000E+00  0.64001175856E+02  0.64001175856E+02  0.00000000000E+00 0. -1.
          2   -1    0    0  502    0 -0.00000000000E+00 -0.00000000000E+00 -0.81826940020E+03  0.81826940020E+03  0.00000000000E+00 0. -1.
         24    2    1    2    0    0  0.16593871187E+02 -0.26755538128E+02 -0.37967594619E+03  0.38906826168E+03  0.78924474994E+02 0.  0.
         23    2    1    2    0    0 -0.10644104837E+03 -0.11912902584E+00 -0.40122804468E+02  0.14583422169E+03  0.91258258856E+02 0.  0.
        -13    1    3    3    0    0  0.22313436835E+02  0.20712723680E+02 -0.79907564762E+02  0.85510965916E+02  0.00000000000E+00 0.  1.
         14    1    3    3    0    0 -0.57195656476E+01 -0.47468261808E+02 -0.29976838142E+03  0.30355729576E+03  0.00000000000E+00 0. -1.
        -11    1    4    4    0    0 -0.58822564846E+02  0.96864578333E+01 -0.67485363212E+02  0.90045520978E+02  0.00000000000E+00 0. -1.
         11    1    4    4    0    0 -0.47618483522E+02 -0.98055868591E+01  0.27362558744E+02  0.55788700716E+02  0.00000000000E+00 0.  1.
          1    1    1    2  501    0  0.89847177181E+02  0.26874667153E+02 -0.33446947370E+03  0.34736809269E+03  0.00000000000E+00 0. -1.
<scales pt_clust_5="13000.00000" pt_clust_6="13000.00000" pt_clust_7="13000.00000" pt_clust_8="13000.00000" pt_clust_9="103.05157"></scales>
<clustering>
<clus scale="   78.924">  5  6 -1 -1</clus>
<clus scale="   84.972">  2  5  1 -1</clus>
<clus scale="   91.258">  7  8 -1 -1</clus>
<clus scale="  103.052">  1  9  2 -1</clus>
<clus scale="  103.052">  1  5  2 -1</clus>
</clustering>
</event>
<event>
 9    2  0.1325014E-004  0.8969369E+02  0.7546771E-02  0.1309569E+00
         21   -1    0    0  501  502  0.00000000000E+00  0.00000000000E+00  0.31329249537E+02  0.31329249537E+02  0.00000000000E+00 0. -1.
          2   -1    0    0  502    0 -0.00000000000E+00 -0.00000000000E+00 -0.67660045082E+03  0.67660045082E+03  0.00000000000E+00 0. -1.
         24    2    1    2    0    0  0.50877359640E+01  0.80979410005E+01 -0.50183012964E+03  0.50825242004E+03  0.79972381216E+02 0.  0.
         23    2    1    2    0    0  0.34049065591E+02 -0.11942647939E+02 -0.80753165903E+02  0.12567562808E+03  0.89282271379E+02 0.  0.
        -13    1    3    3    0    0 -0.14612395532E+02  0.39880963981E+02 -0.23383727087E+03  0.23766338094E+03  0.00000000000E+00 0.  1.
         14    1    3    3    0    0  0.19700131496E+02 -0.31783022980E+02 -0.26799285877E+03  0.27058903910E+03  0.00000000000E+00 0. -1.
        -11    1    4    4    0    0  0.25302489302E+02  0.29609692250E+02 -0.55899551148E+01  0.39347140152E+02  0.00000000000E+00 0. -1.
         11    1    4    4    0    0  0.87465762889E+01 -0.41552340189E+02 -0.75163210788E+02  0.86328487928E+02  0.00000000000E+00 0.  1.
          1    1    1    2  501    0 -0.39136801555E+02  0.38447069388E+01 -0.62687905735E+02  0.74001652231E+02  0.00000000000E+00 0. -1.
<scales pt_clust_5="13000.00000" pt_clust_6="13000.00000" pt_clust_7="13000.00000" pt_clust_8="13000.00000" pt_clust_9="39.32520"></scales>
<clustering>
<clus scale="   39.325">  1  9  2 -1</clus>
<clus scale="   79.972">  5  6 -1 -1</clus>
<clus scale="   80.431">  2  5  1 -1</clus>
<clus scale="   89.282">  7  8 -1 -1</clus>
<clus scale="   39.325">  1  5  2 -1</clus>
</clustering>
</event>
<event>
 9    2  0.1594136E-004  0.9608681E+02  0.7546771E-02  0.1296787E+00
         -3   -1    0    0    0  501 -0.00000000000E+00  0.00000000000E+00  0.40244708369E+03  0.40244708369E+03  0.00000000000E+00 0.  1.
         21   -1    0    0  501  502  0.00000000000E+00 -0.00000000000E+00 -0.10767856804E+03  0.10767856804E+03  0.00000000000E+00 0. -1.
         24    2    1    2    0    0  0.10957849624E+02  0.71729144023E+01  0.15150680896E+02  0.80724640649E+02  0.78201018580E+02 0.  0.
         23    2    1    2    0    0 -0.48300842735E+02 -0.31855656029E+02 -0.32861204930E+02  0.11373205931E+03  0.92235396110E+02 0.  0.
        -11    1    3    3    0    0 -0.35554257912E+01 -0.32386909959E+02  0.20122202897E+02  0.38294334290E+02  0.00000000000E+00 0.  1.
         12    1    3    3    0    0  0.14513275415E+02  0.39559824361E+02 -0.49715220008E+01  0.42430306360E+02  0.00000000000E+00 0. -1.
        -13    1    4    4    0    0  0.23305975600E+02  0.53252319304E+01 -0.21686865195E+02  0.32277650406E+02  0.00000000000E+00 0.  1.
         13    1    4    4    0    0 -0.71606818335E+02 -0.37180887959E+02 -0.11174339735E+02  0.81454408905E+02  0.00000000000E+00 0. -1.
         -4    1    1    2    0  502  0.37342993111E+02  0.24682741626E+02  0.31247903968E+03  0.31566895177E+03  0.00000000000E+00 0.  1.
<scales pt_clust_5="13000.00000" pt_clust_6="13000.00000" pt_clust_7="13000.00000" pt_clust_8="13000.00000" pt_clust_9="44.76314"></scales>
<clustering>
<clus scale="   44.763">  2  9  1 -1</clus>
<clus scale="   78.201">  5  6 -1 -1</clus>
<clus scale="   82.709">  1  5  2 -1</clus>
<clus scale="   92.235">  7  8 -1 -1</clus>
<clus scale="   44.763">  2  5  1 -1</clus>
</clustering>
</event>
<event>
 9    2  0.1325014E-004  0.2562359E+03  0.7546771E-02  0.1150188E+00
         21   -1    0    0  501  502  0.00000000000E+00  0.00000000000E+00  0.61795676664E+03  0.61795676664E+03  0.00000000000E+00 0.  1.
         -1   -1    0    0    0  501 -0.00000000000E+00 -0.00000000000E+00 -0.72065034407E+03  0.72065034407E+03  0.00000000000E+00 0.  1.
         23    2    1    2    0    0 -0.91003078600E+01 -0.19407882871E+02  0.42584929034E+03  0.43612159105E+03  0.91623919250E+02 0.  0.
         24    2    1    2    0    0 -0.84181845412E+02 -0.20822090870E+03 -0.60050750931E+03  0.64617450447E+03  0.80558621921E+02 0.  0.
        -11    1    4    4    0    0 -0.93796839638E+02 -0.15056453170E+03 -0.40570303413E+03  0.44278942765E+03  0.00000000000E+00 0.  1.
         12    1    4    4    0    0  0.96149942260E+01 -0.57656376999E+02 -0.19480447518E+03  0.20338507682E+03  0.00000000000E+00 0. -1.
        -11    1    3    3    0    0 -0.17639458487E+02  0.34885980337E+02  0.17040735797E+03  0.17483377755E+03  0.00000000000E+00 0. -1.
         11    1    3    3    0    0  0.85391506275E+01 -0.54293863209E+02  0.25544193236E+03  0.26128781350E+03  0.00000000000E+00 0.  1.
         -2    1    1    2    0  502  0.93282153272E+02  0.22762879157E+03  0.71964641550E+02  0.25631101519E+03  0.00000000000E+00 0.  1.
<scales pt_clust_5="13000.00000" pt_clust_6="13000.00000" pt_clust_7="13000.00000" pt_clust_8="13000.00000" pt_clust_9="243.24295"></scales>
<clustering>
<clus scale="   80.559">  5  6 -1 -1</clus>
<clus scale="   91.624">  7  8 -1 -1</clus>
<clus scale="   94.098">  2  7  1 -1</clus>
<clus scale="  243.243">  1  9  2 -1</clus>
<clus scale="  243.243">  1  5  2 -1</clus>
</clustering>
</event>
<event>
 9    2  0.1325014E-004  0.9652110E+02  0.7546771E-02  0.1292915E+00
         -1   -1    0    0    0  501 -0.00000000000E+00  0.00000000000E+00  0.50604219911E+03  0.50604219911E+03  0.00000000000E+00 0.  1.
         21   -1    0    0  501  502  0.00000000000E+00 -0.00000000000E+00 -0.22409656046E+02  0.22409656046E+02  0.00000000000E+00 0. -1.
         24    2    1    2    0    0 -0.27325939518E+02 -0.17309359205E+02  0.20287240020E+03  0.22032493691E+03  0.79621267104E+02 0.  0.
         23    2    1    2    0    0  0.45472056346E+02  0.33211006492E+01  0.19361130653E+03  0.21801658250E+03  0.89258918949E+02 0.  0.
        -11    1    3    3    0    0 -0.54333620205E+02 -0.21008124983E+02  0.12759836063E+03  0.14026697842E+03  0.00000000000E+00 0.  1.
         12    1    3    3    0    0  0.27007680687E+02  0.36987657780E+01  0.75274039574E+02  0.80057958493E+02  0.00000000000E+00 0. -1.
        -11    1    4    4    0    0  0.34788526475E+02  0.45119787125E+02  0.10502939751E+03  0.11948728429E+03  0.00000000000E+00 0. -1.
         11    1    4    4    0    0  0.10683529871E+02 -0.41798686476E+02  0.88581909016E+02  0.98529298214E+02  0.00000000000E+00 0.  1.
         -2    1    1    2    0  502 -0.18146116828E+02  0.13988258556E+02  0.87148836337E+02  0.90110335746E+02  0.00000000000E+00 0.  1.
<scales pt_clust_5="13000.00000" pt_clust_6="13000.00000" pt_clust_7="13000.00000" pt_clust_8="13000.00000" pt_clust_9="22.91186"></scales>
<clustering>
<clus scale="   22.912">  2  9  1 -1</clus>
<clus scale="   79.621">  5  6 -1 -1</clus>
<clus scale="   87.685">  1  5  2 -1</clus>
<clus scale="   89.259">  7  8 -1 -1</clus>
<clus scale="   22.912">  2  5  1 -1</clus>
</clustering>
</event>
<event>
 9    2  0.1325014E-004  0.2021278E+03  0.7546771E-02  0.1149195E+00
          2   -1    0    0  502    0 -0.00000000000E+00  0.00000000000E+00  0.45753819815E+03  0.45753819815E+03  0.00000000000E+00 0. -1.
         21   -1    0    0  501  502  0.00000000000E+00 -0.00000000000E+00 -0.17836809609E+03  0.17836809609E+03  0.00000000000E+00 0. -1.
         24    2    1    2    0    0 -0.20698371185E+03  0.97791064598E+02  0.28225729039E+03  0.37146768373E+03  0.76900668336E+02 0.  0.
         23    2    1    2    0    0  0.96287803138E+02 -0.35103902545E+02 -0.75672484510E+01  0.13714628776E+03  0.90819689437E+02 0.  0.
        -13    1    3    3    0    0 -0.29486390798E+02  0.49321164354E+02  0.64543443104E+02  0.86416899640E+02  0.00000000000E+00 0.  1.
         14    1    3    3    0    0 -0.17749732105E+03  0.48469900243E+02  0.21771384729E+03  0.28505078409E+03  0.00000000000E+00 0. -1.
        -13    1    4    4    0    0  0.51380774307E+02 -0.10113869878E+01  0.38601217304E+02  0.64273329223E+02  0.00000000000E+00 0.  1.
         13    1    4    4    0    0  0.44907028831E+02 -0.34092515557E+02 -0.46168465755E+02  0.72872958535E+02  0.00000000000E+00 0. -1.
          1    1    1    2  501    0  0.11069590871E+03 -0.62687162053E+02  0.44800601188E+01  0.12729232275E+03  0.00000000000E+00 0. -1.
<scales pt_clust_5="13000.00000" pt_clust_6="13000.00000" pt_clust_7="13000.00000" pt_clust_8="13000.00000" pt_clust_9="127.21346"></scales>
<clustering>
<clus scale="   76.901">  5  6 -1 -1</clus>
<clus scale="   90.820">  7  8 -1 -1</clus>
<clus scale="  127.213">  2  9  1 -1</clus>
<clus scale="  196.268">  1  5  2 -1</clus>
<clus scale="  127.213">  2  5  1 -1</clus>
</clustering>
</event>
<event>
 9    2  0.1325014E-004  0.1031801E+03  0.7546771E-02  0.1278134E+00
          2   -1    0    0  502    0 -0.00000000000E+00  0.00000000000E+00  0.59411525895E+03  0.59411525895E+03  0.00000000000E+00 0. -1.
         21   -1    0    0  501  502  0.00000000000E+00 -0.00000000000E+00 -0.30962771222E+02  0.30962771222E+02  0.00000000000E+00 0.  1.
         24    2    1    2    0    0  0.35603602246E+02  0.29310496234E+02  0.35320814848E+03  0.36539989656E+03  0.81451621047E+02 0.  0.
         23    2    1    2    0    0 -0.65698161739E+02 -0.32648541597E+01  0.14327897935E+03  0.18203582432E+03  0.91001470774E+02 0.  0.
        -13    1    3    3    0    0  0.23515326834E+02 -0.27007303230E+02  0.14689016178E+03  0.15119221095E+03  0.00000000000E+00 0.  1.
         14    1    3    3    0    0  0.12088275412E+02  0.56317799465E+02  0.20631798670E+03  0.21420768561E+03  0.00000000000E+00 0. -1.
        -11    1    4    4    0    0 -0.79225047584E+02  0.20145348618E+02  0.12515307562E+03  0.14948490082E+03  0.00000000000E+00 0.  1.
         11    1    4    4    0    0  0.13526885845E+02 -0.23410202777E+02  0.18125903735E+02  0.32550923504E+02  0.00000000000E+00 0. -1.
          1    1    1    2  501    0  0.30094559493E+02 -0.26045642075E+02  0.66665359899E+02  0.77642309294E+02  0.00000000000E+00 0. -1.
<scales pt_clust_5="13000.00000" pt_clust_6="13000.00000" pt_clust_7="13000.00000" pt_clust_8="13000.00000" pt_clust_9="39.80023"></scales>
<clustering>
<clus scale="   39.800">  2  9  1 -1</clus>
<clus scale="   81.452">  5  6 -1 -1</clus>
<clus scale="   91.001">  7  8 -1 -1</clus>
<clus scale="   94.864">  1  5  2 -1</clus>
<clus scale="   39.800">  2  5  1 -1</clus>
</clustering>
</event>
<event>
 9    2  0.1325014E-004  0.1378732E+03  0.7546771E-02  0.1234692E+00
          2   -1    0    0  502    0 -0.00000000000E+00  0.00000000000E+00  0.70346436232E+03  0.70346436232E+03  0.00000000000E+00 0. -1.
         21   -1    0    0  501  502  0.00000000000E+00 -0.00000000000E+00 -0.63104952147E+02  0.63104952147E+02  0.00000000000E+00 0. -1.
         24    2    1    2    0    0  0.42743231274E+02 -0.20505780137E+02  0.26740606927E+03  0.28340590367E+03  0.81027338038E+02 0.  0.
         23    2    1    2    0    0 -0.26885593352E+02 -0.97286035775E+02  0.60252607653E+02  0.14863669266E+03  0.90967476548E+02 0.  0.
        -13    1    3    3    0    0 -0.20791706871E+02 -0.61676725934E+01  0.28695144793E+02  0.35968689085E+02  0.00000000000E+00 0.  1.
         14    1    3    3    0    0  0.63534938145E+02 -0.14338107544E+02  0.23871092448E+03  0.24743721458E+03  0.00000000000E+00 0. -1.
        -13    1    4    4    0    0 -0.18846855868E+01 -0.34494704728E+02 -0.22926317852E+02  0.41461460952E+02  0.00000000000E+00 0. -1.
         13    1    4    4    0    0 -0.25000907765E+02 -0.62791331047E+02  0.83178925505E+02  0.10717523171E+03  0.00000000000E+00 0.  1.
          1    1    1    2  501    0 -0.15857637922E+02  0.11779181591E+03  0.31270073325E+03  0.33452671814E+03  0.00000000000E+00 0. -1.
<scales pt_clust_5="13000.00000" pt_clust_6="13000.00000" pt_clust_7="13000.00000" pt_clust_8="13000.00000" pt_clust_9="103.60473"></scales>
<clustering>
<clus scale="   81.027">  5  6 -1 -1</clus>
<clus scale="   90.967">  7  8 -1 -1</clus>
<clus scale="   93.877">  1  5  2 -1</clus>
<clus scale="  103.605">  2  9  1 -1</clus>
<clus scale="  103.605">  2  5  1 -1</clus>
</clustering>
</event>
<event>
 9    2  0.1325014E-004  0.1293219E+03  0.7546771E-02  0.1230315E+00
          2   -1    0    0  502    0 -0.00000000000E+00  0.00000000000E+00  0.87879950320E+02  0.87879950320E+02  0.00000000000E+00 0. -1.
         21   -1    0    0  501  502  0.00000000000E+00 -0.00000000000E+00 -0.76604683626E+03  0.76604683626E+03  0.00000000000E+00 0.  1.
         23    2    1    2    0    0 -0.84598449270E+02 -0.50489871962E+02  0.12702647715E+02  0.13281947337E+03  0.88167627034E+02 0.  0.
         24    2    1    2    0    0  0.60890201927E+02  0.72010941514E+00 -0.63351559067E+03  0.64155490890E+03  0.80886106733E+02 0.  0.
        -11    1    4    4    0    0  0.66883611579E+02  0.48122517652E+01 -0.27828132423E+03  0.28624652082E+03  0.00000000000E+00 0.  1.
         12    1    4    4    0    0 -0.59934096513E+01 -0.40921423500E+01 -0.35523426644E+03  0.35530838808E+03  0.00000000000E+00 0. -1.
        -11    1    3    3    0    0 -0.47238080472E+02  0.18281530248E+02 -0.93491176832E+01  0.51507830437E+02  0.00000000000E+00 0.  1.
         11    1    3    3    0    0 -0.37360368798E+02 -0.68771402210E+02  0.22051765398E+02  0.81311642929E+02  0.00000000000E+00 0. -1.
          1    1    1    2  501    0  0.23708247343E+02  0.49769762547E+02 -0.57353942980E+02  0.79552404309E+02  0.00000000000E+00 0. -1.
<scales pt_clust_5="13000.00000" pt_clust_6="13000.00000" pt_clust_7="13000.00000" pt_clust_8="13000.00000" pt_clust_9="55.12815"></scales>
<clustering>
<clus scale="   55.128">  2  9  1 -1</clus>
<clus scale="   80.886">  5  6 -1 -1</clus>
<clus scale="   88.168">  7  8 -1 -1</clus>
<clus scale="  124.472">  2  5  1 -1</clus>
<clus scale="   55.128">  2  5  1 -1</clus>
</clustering>
</event>
<event>
 9    2  0.1325014E-004  0.1297245E+03  0.7546771E-02  0.1231250E+00
         21   -1    0    0  501  502  0.00000000000E+00  0.00000000000E+00  0.51460871241E+02  0.51460871241E+02  0.00000000000E+00 0. -1.
          2   -1    0    0  502    0 -0.00000000000E+00 -0.00000000000E+00 -0.65155428054E+03  0.65155428054E+03  0.00000000000E+00 0. -1.
         23    2    1    2    0    0  0.14685528982E+02 -0.10678306017E+03 -0.31314632867E+03  0.34383820467E+03  0.92443502363E+02 0.  0.
         24    2    1    2    0    0 -0.75086758870E+02  0.51769163276E+02 -0.22887479233E+03  0.25894108481E+03  0.79679026194E+02 0.  0.
        -13    1    4    4    0    0  0.16171171118E+02  0.16108478388E+02 -0.50783009233E+02  0.55676780421E+02  0.00000000000E+00 0.  1.
         14    1    4    4    0    0 -0.91257929989E+02  0.35660684888E+02 -0.17809178310E+03  0.20326430439E+03  0.00000000000E+00 0. -1.
        -11    1    3    3    0    0  0.31703708998E+02 -0.74549207374E+02 -0.28894124686E+03  0.30008291124E+03  0.00000000000E+00 0. -1.
         11    1    3    3    0    0 -0.17018180016E+02 -0.32233852795E+02 -0.24205081809E+02  0.43755293422E+02  0.00000000000E+00 0.  1.
          1    1    1    2  501    0  0.60401229888E+02  0.55013896893E+02 -0.58072288304E+02  0.10023586231E+03  0.00000000000E+00 0. -1.
<scales pt_clust_5="13000.00000" pt_clust_6="13000.00000" pt_clust_7="13000.00000" pt_clust_8="13000.00000" pt_clust_9="81.69968"></scales>
<clustering>
<clus scale="   79.679">  5  6 -1 -1</clus>
<clus scale="   81.700">  1  9  2 -1</clus>
<clus scale="   92.444">  7  8 -1 -1</clus>
<clus scale="  120.960">  1  5  2 -1</clus>
<clus scale="   81.700">  1  5  2 -1</clus>
</clustering>
</event>
<event>
 9    2  0.1325014E-004  0.1043169E+03  0.7546771E-02  0.1275950E+00
          2   -1    0    0  502    0 -0.00000000000E+00  0.00000000000E+00  0.18615628786E+03  0.18615628786E+03  0.00000000000E+00 0. -1.
         21   -1    0    0  501  502  0.00000000000E+00 -0.00000000000E+00 -0.83576822461E+02  0.83576822461E+02  0.00000000000E+00 0. -1.
         23    2    1    2    0    0  0.41598325464E+02 -0.37898825843E+01  0.70384316794E+02  0.12223457567E+03  0.90788521017E+02 0.  0.
         24    2    1    2    0    0 -0.68179596230E+02 -0.19644053014E+02  0.16551685377E+02  0.10876313437E+03  0.80753420654E+02 0.  0.
        -13    1    4    4    0    0 -0.63206572745E+02  0.19866485737E+02  0.18820117959E+02  0.68876301684E+02  0.00000000000E+00 0.  1.
         14    1    4    4    0    0 -0.49730234852E+01 -0.39510538751E+02 -0.22684325828E+01  0.39886832681E+02  0.00000000000E+00 0. -1.
        -13    1    3    3    0    0  0.23475542875E+02 -0.23969912745E+02  0.85029993845E+02  0.91409833626E+02  0.00000000000E+00 0. -1.
         13    1    3    3    0    0  0.18122782589E+02  0.20180030161E+02 -0.14645677051E+02  0.30824742048E+02  0.00000000000E+00 0.  1.
          1    1    1    2  501    0  0.26581270766E+02  0.23433935598E+02  0.15643463228E+02  0.38735400281E+02  0.00000000000E+00 0. -1.
<scales pt_clust_5="13000.00000" pt_clust_6="13000.00000" pt_clust_7="13000.00000" pt_clust_8="13000.00000" pt_clust_9="35.43606"></scales>
<clustering>
<clus scale="   35.436">  2  9  1 -1</clus>
<clus scale="   80.753">  5  6 -1 -1</clus>
<clus scale="   90.789">  7  8 -1 -1</clus>
<clus scale="   95.711">  2  5  1 -1</clus>
<clus scale="   35.436">  2  5  1 -1</clus>
</clustering>
</event>
<event>
 9    2  0.1325014E-004  0.9719569E+02  0.7546771E-02  0.1291056E+00
          2   -1    0    0  502    0 -0.00000000000E+00  0.00000000000E+00  0.84269871383E+03  0.84269871383E+03  0.00000000000E+00 0. -1.
         21   -1    0    0  501  502  0.00000000000E+00 -0.00000000000E+00 -0.31539528842E+02  0.31539528842E+02  0.00000000000E+00 0.  1.
         24    2    1    2    0    0 -0.32555705399E+02  0.10822952525E+02  0.42031377344E+03  0.42955612282E+03  0.81717710775E+02 0.  0.
         23    2    1    2    0    0 -0.81368109236E+01 -0.83025426247E+02  0.17996389228E+03  0.21809859604E+03  0.90667336856E+02 0.  0.
        -11    1    3    3    0    0 -0.60197825030E+01  0.43980478930E+02  0.17194517497E+03  0.17758283561E+03  0.00000000000E+00 0.  1.
         12    1    3    3    0    0 -0.26535922896E+02 -0.33157526405E+02  0.24836859848E+03  0.25197328722E+03  0.00000000000E+00 0. -1.
        -13    1    4    4    0    0  0.26929678363E+02 -0.28789282817E+02  0.13169672135E+03  0.13747020330E+03  0.00000000000E+00 0. -1.
         13    1    4    4    0    0 -0.35066489287E+02 -0.54236143431E+02  0.48267170934E+02  0.80628392735E+02  0.00000000000E+00 0.  1.
          1    1    1    2  501    0  0.40692516323E+02  0.72202473722E+02  0.21088151926E+03  0.22658352381E+03  0.00000000000E+00 0. -1.
<scales pt_clust_5="13000.00000" pt_clust_6="13000.00000" pt_clust_7="13000.00000" pt_clust_8="13000.00000" pt_clust_9="82.87994"></scales>
<clustering>
<clus scale="   81.718">  5  6 -1 -1</clus>
<clus scale="   82.880">  2  9  1 -1</clus>
<clus scale="   88.906">  1  5  2 -1</clus>
<clus scale="   90.667">  7  8 -1 -1</clus>
<clus scale="   82.880">  2  5  1 -1</clus>
</clustering>
</event>
<event>
 9    2  0.1325014E-004  0.1199173E+03  0.7546771E-02  0.1248062E+00
         21   -1    0    0  501  502  0.00000000000E+00  0.00000000000E+00  0.68428096980E+02  0.68428096980E+02  0.00000000000E+00 0.  1.
         -3   -1    0    0    0  501 -0.00000000000E+00 -0.00000000000E+00 -0.60474856412E+03  0.60474856412E+03  0.00000000000E+00 0.  1.
         23    2    1    2    0    0  0.69251617698E+02  0.47311081972E+01 -0.22342545482E+03  0.25188511700E+03  0.93322067948E+02 0.  0.
         24    2    1    2    0    0 -0.93667338745E+02  0.60264948077E+02 -0.43454475771E+02  0.14304917223E+03  0.78545145604E+02 0.  0.
        -13    1    4    4    0    0 -0.97921419848E+02  0.67863992669E+02 -0.23718449599E+02  0.12147712055E+03  0.00000000000E+00 0.  1.
         14    1    4    4    0    0  0.42540811037E+01 -0.75990445915E+01 -0.19736026171E+02  0.21572051682E+02  0.00000000000E+00 0. -1.
        -11    1    3    3    0    0  0.52959476834E+02  0.37196693279E+02 -0.19589068644E+03  0.20630429276E+03  0.00000000000E+00 0.  1.
         11    1    3    3    0    0  0.16292140865E+02 -0.32465585081E+02 -0.27534768380E+02  0.45580824240E+02  0.00000000000E+00 0. -1.
         -4    1    1    2    0  502  0.24415721046E+02 -0.64996056275E+02 -0.26944053654E+03  0.27824237186E+03  0.00000000000E+00 0.  1.
<scales pt_clust_5="13000.00000" pt_clust_6="13000.00000" pt_clust_7="13000.00000" pt_clust_8="13000.00000" pt_clust_9="69.43068"></scales>
<clustering>
<clus scale="   69.431">  1  9  2 -1</clus>
<clus scale="   78.545">  5  6 -1 -1</clus>
<clus scale="   93.322">  7  8 -1 -1</clus>
<clus scale="  108.814">  1  5  2 -1</clus>
<clus scale="   69.431">  1  5  2 -1</clus>
</clustering>
</event>
<event>
 9    2  0.1325014E-004  0.2293179E+03  0.7546771E-02  0.1127970E+00
         -3   -1    0    0    0  501 -0.00000000000E+00  0.00000000000E+00  0.79647717024E+03  0.79647717024E+03  0.00000000000E+00 0.  1.
         21   -1    0    0  501  502  0.00000000000E+00 -0.00000000000E+00 -0.19510630873E+03  0.19510630873E+03  0.00000000000E+00 0.  1.
         24    2    1    2    0    0 -0.64287833474E+02  0.22250639433E+03  0.47478936474E+03  0.53428615956E+03  0.79967108101E+02 0.  0.
         23    2    1    2    0    0  0.18069958021E+03 -0.10476732395E+03  0.17161076196E+03  0.28571113641E+03  0.92477399342E+02 0.  0.
        -13    1    3    3    0    0 -0.74479676065E+02  0.14513963590E+03  0.27428556671E+03  0.31913211710E+03  0.00000000000E+00 0.  1.
         14    1    3    3    0    0  0.10191842591E+02  0.77366758433E+02  0.20050379803E+03  0.21515404247E+03  0.00000000000E+00 0. -1.
        -11    1    4    4    0    0  0.14866576730E+03 -0.47698017061E+02  0.15072778852E+03  0.21701492444E+03  0.00000000000E+00 0.  1.
         11    1    4    4    0    0  0.32033812917E+02 -0.57069306890E+02  0.20882973440E+02  0.68696211967E+02  0.00000000000E+00 0. -1.
         -4    1    1    2    0  502 -0.11641174674E+03 -0.11773907038E+03 -0.45029265189E+02  0.17158618300E+03  0.00000000000E+00 0.  1.
<scales pt_clust_5="13000.00000" pt_clust_6="13000.00000" pt_clust_7="13000.00000" pt_clust_8="13000.00000" pt_clust_9="165.57229"></scales>
<clustering>
<clus scale="   79.967">  5  6 -1 -1</clus>
<clus scale="   92.477">  7  8 -1 -1</clus>
<clus scale="  165.572">  2  9  1 -1</clus>
<clus scale="  224.565">  1  5  2 -1</clus>
<clus scale="  165.572">  2  5  1 -1</clus>
</clustering>
</event>
<event>
 9    2  0.1325014E-004  0.1056004E+03  0.7546771E-02  0.1273729E+00
         -3   -1    0    0    0  501 -0.00000000000E+00  0.00000000000E+00  0.67260594993E+03  0.67260594993E+03  0.00000000000E+00 0.  1.
         21   -1    0    0  501  502  0.00000000000E+00 -0.00000000000E+00 -0.18005446214E+03  0.18005446214E+03  0.00000000000E+00 0. -1.
         24    2    1    2    0    0  0.43882581361E+02 -0.23115811157E+02  0.60901002154E+03  0.61652060967E+03  0.82124503885E+02 0.  0.
         23    2    1    2    0    0 -0.93628180996E+02 -0.25659601636E+02 -0.89519010481E+02  0.16144439766E+03  0.92876201830E+02 0.  0.
        -13    1    3    3    0    0  0.27646580778E+02 -0.30357284051E+02  0.11361542634E+03  0.12080713235E+03  0.00000000000E+00 0.  1.
         14    1    3    3    0    0  0.16236000582E+02  0.72414728941E+01  0.49539459520E+03  0.49571347732E+03  0.00000000000E+00 0. -1.
        -13    1    4    4    0    0  0.39294625316E+01 -0.26025737001E+02 -0.49369273284E+02  0.55947339586E+02  0.00000000000E+00 0. -1.
         13    1    4    4    0    0 -0.97557643527E+02  0.36613536549E+00 -0.40149737197E+02  0.10549705808E+03  0.00000000000E+00 0.  1.
         -4    1    1    2    0  502  0.49745599635E+02  0.48775412792E+02 -0.26939523268E+02  0.74695404745E+02  0.00000000000E+00 0.  1.
<scales pt_clust_5="13000.00000" pt_clust_6="13000.00000" pt_clust_7="13000.00000" pt_clust_8="13000.00000" pt_clust_9="69.66825"></scales>
<clustering>
<clus scale="   69.668">  2  9  1 -1</clus>
<clus scale="   82.125">  5  6 -1 -1</clus>
<clus scale="   92.876">  7  8 -1 -1</clus>
<clus scale="   96.280">  1  5  2 -1</clus>
<clus scale="   69.668">  2  5  1 -1</clus>
</clustering>
</event>
<event>
 9    2  0.1325014E-004  0.1633260E+03  0.7546771E-02  0.1186904E+00
         21   -1    0    0  501  502  0.00000000000E+00  0.00000000000E+00  0.49202682406E+03  0.49202682406E+03  0.00000000000E+00 0.  1.
          2   -1    0    0  502    0 -0.00000000000E+00 -0.00000000000E+00 -0.72369099004E+02  0.72369099004E+02  0.00000000000E+00 0. -1.
         24    2    1    2    0    0 -0.19413115607E+00 -0.14423370821E+03  0.14346681732E+03  0.21834545523E+03  0.79300755856E+02 0.  0.
         23    2    1    2    0    0  0.44091476979E+02  0.12018029697E+03  0.19617564109E+03  0.25166833786E+03  0.92003847745E+02 0.  0.
        -13    1    3    3    0    0  0.21749390239E+02 -0.16197621593E+02  0.54571039563E+02  0.60937650759E+02  0.00000000000E+00 0.  1.
         14    1    3    3    0    0 -0.21943521395E+02 -0.12803608661E+03  0.88895777758E+02  0.15740780448E+03  0.00000000000E+00 0. -1.
        -13    1    4    4    0    0  0.43445084653E+02  0.21826920135E+02  0.11241964493E+03  0.12248292285E+03  0.00000000000E+00 0.  1.
         13    1    4    4    0    0  0.64639232645E+00  0.98353376834E+02  0.83755996158E+02  0.12918541501E+03  0.00000000000E+00 0. -1.
          1    1    1    2  501    0 -0.43897345823E+02  0.24053411238E+02  0.80015266646E+02  0.94382129976E+02  0.00000000000E+00 0. -1.
<scales pt_clust_5="13000.00000" pt_clust_6="13000.00000" pt_clust_7="13000.00000" pt_clust_8="13000.00000" pt_clust_9="50.05540"></scales>
<clustering>
<clus scale="   50.055">  1  9  2 -1</clus>
<clus scale="   79.301">  5  6 -1 -1</clus>
<clus scale="   92.004">  7  8 -1 -1</clus>
<clus scale="  156.523">  2  5  1 -1</clus>
<clus scale="   50.055">  1  5  2 -1</clus>
</clustering>
</event>
<event>
 9    2  0.1325014E-004  0.1380694E+03  0.7546771E-02  0.1217036E+00
          4   -1    0    0  502    0 -0.00000000000E+00  0.00000000000E+00  0.11561558780E+03  0.11561558780E+03  0.00000000000E+00 0. -1.
         21   -1    0    0  501  502  0.00000000000E+00 -0.00000000000E+00 -0.36669982810E+03  0.36669982810E+03  0.00000000000E+00 0. -1.
         24    2    1    2    0    0  0.51657469529E+02  0.93518972183E+02  0.30292632118E+02  0.13721835595E+03  0.80603606205E+02 0.  0.
         23    2    1    2    0    0 -0.89147301333E+02 -0.78001912855E+02 -0.15829569715E+03  0.21550060041E+03  0.85740546416E+02 0.  0.
        -11    1    3    3    0    0  0.25443698856E+02  0.56393032930E+02 -0.24048894145E+02  0.66376993635E+02  0.00000000000E+00 0.  1.
         12    1    3    3    0    0  0.26213770674E+02  0.37125939254E+02  0.54341526263E+02  0.70841362317E+02  0.00000000000E+00 0. -1.
        -13    1    4    4    0    0 -0.80157982502E+02 -0.13869107322E+02 -0.92464615313E+02  0.12315583373E+03  0.00000000000E+00 0. -1.
         13    1    4    4    0    0 -0.89893188312E+01 -0.64132805534E+02 -0.65831081833E+02  0.92344766684E+02  0.00000000000E+00 0.  1.
          3    1    1    2  501    0  0.37489831804E+02 -0.15517059328E+02 -0.12308117527E+03  0.12959645954E+03  0.00000000000E+00 0. -1.
<scales pt_clust_5="13000.00000" pt_clust_6="13000.00000" pt_clust_7="13000.00000" pt_clust_8="13000.00000" pt_clust_9="40.57421"></scales>
<clustering>
<clus scale="   40.574">  2  9  1 -1</clus>
<clus scale="   80.604">  5  6 -1 -1</clus>
<clus scale="   85.741">  7  8 -1 -1</clus>
<clus scale="  134.939">  1  5  2 -1</clus>
<clus scale="   40.574">  2  5  1 -1</clus>
</clustering>
</event>
<event>
 9    2  0.1325014E-004  0.1024157E+03  0.7546771E-02  0.1275472E+00
          2   -1    0    0  502    0 -0.00000000000E+00  0.00000000000E+00  0.20775123050E+03  0.20775123050E+03  0.00000000000E+00 0. -1.
         21   -1    0    0  501  502  0.00000000000E+00 -0.00000000000E+00 -0.30392170321E+03  0.30392170321E+03  0.00000000000E+00 0. -1.
         23    2    1    2    0    0 -0.39292945877E+02 -0.34088563778E+02  0.17380746457E+03  0.20162385836E+03  0.87961240022E+02 0.  0.
         24    2    1    2    0    0  0.63733167152E+02 -0.13692264513E+01 -0.18263136856E+03  0.21266323258E+03  0.88360864260E+02 0.  0.
        -11    1    4    4    0    0  0.43913381119E+02 -0.23355673547E+02 -0.31981641319E+02  0.59132883488E+02  0.00000000000E+00 0.  1.
         12    1    4    4    0    0  0.19819786032E+02  0.21986447096E+02 -0.15064972724E+03  0.15353034909E+03  0.00000000000E+00 0. -1.
        -13    1    3    3    0    0  0.27820080394E+02 -0.14635869555E+02  0.66736655797E+02  0.73769551834E+02  0.00000000000E+00 0.  1.
         13    1    3    3    0    0 -0.67113026271E+02 -0.19452694223E+02  0.10707080877E+03  0.12785430653E+03  0.00000000000E+00 0. -1.
          1    1    1    2  501    0 -0.24440221274E+02  0.35457790229E+02 -0.87346568722E+02  0.97385842766E+02  0.00000000000E+00 0. -1.
<scales pt_clust_5="13000.00000" pt_clust_6="13000.00000" pt_clust_7="13000.00000" pt_clust_8="13000.00000" pt_clust_9="43.06483"></scales>
<clustering>
<clus scale="   43.065">  2  9  1 -1</clus>
<clus scale="   87.961">  7  8 -1 -1</clus>
<clus scale="   88.361">  5  6 -1 -1</clus>
<clus scale="  102.071">  1  7  2 -1</clus>
<clus scale="   43.065">  2  5  1 -1</clus>
</clustering>
</event>
<event>
 9    2  0.1325014E-004  0.1139774E+03  0.7546771E-02  0.1257037E+00
         21   -1    0    0  501  502  0.00000000000E+00  0.00000000000E+00  0.11320610378E+03  0.11320610378E+03  0.00000000000E+00 0. -1.
          2   -1    0    0  502    0 -0.00000000000E+00 -0.00000000000E+00 -0.61974832715E+03  0.61974832715E+03  0.00000000000E+00 0. -1.
         24    2    1    2    0    0  0.41576448083E+02  0.53302061385E+02 -0.33630627249E+03  0.35261926108E+03  0.81662253126E+02 0.  0.
         23    2    1    2    0    0  0.31590864473E+02 -0.10436237940E+03  0.43263652489E+02  0.14894223059E+03  0.91774481601E+02 0.  0.
        -13    1    3    3    0    0 -0.17845409973E+02  0.22853698699E+02 -0.43369431314E+02  0.52169510002E+02  0.00000000000E+00 0.  1.
         14    1    3    3    0    0  0.59421858056E+02  0.30448362686E+02 -0.29293684118E+03  0.30044975108E+03  0.00000000000E+00 0. -1.
        -11    1    4    4    0    0  0.62741749169E+01 -0.11397216297E+03  0.42660818948E+02  0.12185632801E+03  0.00000000000E+00 0. -1.
         11    1    4    4    0    0  0.25316689556E+02  0.96097835655E+01  0.60283354062E+00  0.27085902579E+02  0.00000000000E+00 0.  1.
          1    1    1    2  501    0 -0.73167312556E+02  0.51060318015E+02 -0.21349960336E+03  0.23139293926E+03  0.00000000000E+00 0. -1.
<scales pt_clust_5="13000.00000" pt_clust_6="13000.00000" pt_clust_7="13000.00000" pt_clust_8="13000.00000" pt_clust_9="89.22230"></scales>
<clustering>
<clus scale="   81.662">  5  6 -1 -1</clus>
<clus scale="   89.222">  1  9  2 -1</clus>
<clus scale="   91.774">  7  8 -1 -1</clus>
<clus scale="  106.005">  2  5  1 -1</clus>
<clus scale="   89.222">  1  5  2 -1</clus>
</clustering>
</event>
<event>
 9    2  0.1325014E-004  0.1350941E+03  0.7546771E-02  0.1238460E+00
          2   -1    0    0  502    0 -0.00000000000E+00  0.00000000000E+00  0.69201906945E+03  0.69201906945E+03  0.00000000000E+00 0. -1.
         21   -1    0    0  501  502  0.00000000000E+00 -0.00000000000E+00 -0.44786411907E+02  0.44786411907E+02  0.00000000000E+00 0. -1.
         23    2    1    2    0    0 -0.25163208322E+02  0.28881985401E+02  0.25137532938E+03  0.26781917009E+03  0.84084454658E+02 0.  0.
         24    2    1    2    0    0  0.10500366456E+03 -0.81424559274E+02  0.26011707726E+03  0.30297234728E+03  0.80471242760E+02 0.  0.
        -11    1    4    4    0    0  0.40014976213E+01 -0.42923073552E+02  0.45542117712E+02  0.62709542432E+02  0.00000000000E+00 0.  1.
         12    1    4    4    0    0  0.10100216694E+03 -0.38501485722E+02  0.21457495955E+03  0.24026280485E+03  0.00000000000E+00 0. -1.
        -13    1    3    3    0    0 -0.24447811729E+02  0.57691835464E+02  0.15370022243E+03  0.16598132953E+03  0.00000000000E+00 0.  1.
         13    1    3    3    0    0 -0.71539659354E+00 -0.28809850063E+02  0.97675106949E+02  0.10183784056E+03  0.00000000000E+00 0. -1.
          1    1    1    2  501    0 -0.79840456240E+02  0.52542573874E+02  0.13574025091E+03  0.16601396399E+03  0.00000000000E+00 0. -1.
<scales pt_clust_5="13000.00000" pt_clust_6="13000.00000" pt_clust_7="13000.00000" pt_clust_8="13000.00000" pt_clust_9="108.51168"></scales>
<clustering>
<clus scale="   80.471">  5  6 -1 -1</clus>
<clus scale="   84.084">  7  8 -1 -1</clus>
<clus scale="   92.399">  1  7  2 -1</clus>
<clus scale="  108.512">  2  9  1 -1</clus>
<clus scale="  108.512">  2  5  1 -1</clus>
</clustering>
</event>
<event>
 9    2  0.1325014E-004  0.1069160E+03  0.7546771E-02  0.1271435E+00
          2   -1    0    0  502    0 -0.00000000000E+00  0.00000000000E+00  0.21780959930E+03  0.21780959930E+03  0.00000000000E+00 0. -1.
         21   -1    0    0  501  502  0.00000000000E+00 -0.00000000000E+00 -0.13577809815E+03  0.13577809815E+03  0.00000000000E+00 0.  1.
         24    2    1    2    0    0 -0.31882978857E+02 -0.50133826144E+02  0.15448289139E+03  0.18362215516E+03  0.79512308902E+02 0.  0.
         23    2    1    2    0    0  0.50711104026E+02  0.73414939487E+01 -0.36356790424E+02  0.11090199915E+03  0.91388859279E+02 0.  0.
        -11    1    3    3    0    0 -0.58555574655E+02 -0.33312928350E+02  0.11227105750E+03  0.13093241336E+03  0.00000000000E+00 0.  1.
         12    1    3    3    0    0  0.26672595798E+02 -0.16820897794E+02  0.42211833897E+02  0.52689741792E+02  0.00000000000E+00 0. -1.
        -11    1    4    4    0    0  0.32769764829E+02 -0.38878947154E+02 -0.25858057026E+01  0.50912831485E+02  0.00000000000E+00 0.  1.
         11    1    4    4    0    0  0.17941339197E+02  0.46220441103E+02 -0.33770984722E+02  0.59989167664E+02  0.00000000000E+00 0. -1.
          1    1    1    2  501    0 -0.18828125168E+02  0.42792332195E+02 -0.36094599824E+02  0.59063543142E+02  0.00000000000E+00 0. -1.
<scales pt_clust_5="13000.00000" pt_clust_6="13000.00000" pt_clust_7="13000.00000" pt_clust_8="13000.00000" pt_clust_9="46.75128"></scales>
<clustering>
<clus scale="   46.751">  2  9  1 -1</clus>
<clus scale="   79.512">  5  6 -1 -1</clus>
<clus scale="   91.389">  7  8 -1 -1</clus>
<clus scale="   96.960">  1  5  2 -1</clus>
<clus scale="   46.751">  2  5  1 -1</clus>
</clustering>
</event>
<event>
 9    2  0.1325014E-004  0.2108205E+03  0.7546771E-02  0.1146394E+00
         21   -1    0    0  501  502  0.00000000000E+00  0.00000000000E+00  0.22135640598E+03  0.22135640598E+03  0.00000000000E+00 0. -1.
          2   -1    0    0  502    0 -0.00000000000E+00 -0.00000000000E+00 -0.43283777794E+03  0.43283777794E+03  0.00000000000E+00 0. -1.
         24    2    1    2    0    0  0.15610124262E+03 -0.56252506768E+02 -0.69457670449E+02  0.19750950766E+03  0.81570185530E+02 0.  0.
         23    2    1    2    0    0 -0.13754984699E+03 -0.15212101852E+03 -0.83485827816E+02  0.23945124656E+03  0.91138638087E+02 0.  0.
        -11    1    3    3    0    0  0.15921425253E+03 -0.48311285370E+02 -0.46111645790E+02  0.17265411197E+03  0.00000000000E+00 0.  1.
         12    1    3    3    0    0 -0.31130099020E+01 -0.79412213982E+01 -0.23346024659E+02  0.24855395698E+02  0.00000000000E+00 0. -1.
        -11    1    4    4    0    0 -0.35182146158E+02 -0.53798863329E+01 -0.43344144679E+02  0.56084235425E+02  0.00000000000E+00 0.  1.
         11    1    4    4    0    0 -0.10236770083E+03 -0.14674113218E+03 -0.40141683137E+02  0.18336701114E+03  0.00000000000E+00 0. -1.
          1    1    1    2  501    0 -0.18551395635E+02  0.20837352528E+03 -0.58537873690E+02  0.21723342969E+03  0.00000000000E+00 0. -1.
<scales pt_clust_5="13000.00000" pt_clust_6="13000.00000" pt_clust_7="13000.00000" pt_clust_8="13000.00000" pt_clust_9="190.10269"></scales>
<clustering>
<clus scale="   81.570">  5  6 -1 -1</clus>
<clus scale="   91.139">  7  8 -1 -1</clus>
<clus scale="  184.894">  2  5  1 -1</clus>
<clus scale="  190.103">  1  9  2 -1</clus>
<clus scale="  190.103">  1  5  2 -1</clus>
</clustering>
</event>
<event>
 9    2  0.1325014E-004  0.1298525E+03  0.7546771E-02  0.1228878E+00
          2   -1    0    0  502    0 -0.00000000000E+00  0.00000000000E+00  0.39562327871E+03  0.39562327871E+03  0.00000000000E+00 0. -1.
         21   -1    0    0  501  502  0.00000000000E+00 -0.00000000000E+00 -0.92273206742E+02  0.92273206742E+02  0.00000000000E+00 0.  1.
         24    2    1    2    0    0  0.86979332692E+02  0.92320942924E+01  0.30506428636E+03  0.33189229745E+03  0.97147529104E+02 0.  0.
         23    2    1    2    0    0 -0.82093284789E+02  0.19059720548E+02  0.81489520928E+01  0.12564661392E+03  0.92833645920E+02 0.  0.
        -11    1    3    3    0    0  0.51782517922E+02  0.14964364223E+02  0.47418962890E+02  0.71790803035E+02  0.00000000000E+00 0.  1.
         12    1    3    3    0    0  0.35196814771E+02 -0.57322699307E+01  0.25764532347E+03  0.26010149441E+03  0.00000000000E+00 0. -1.
        -11    1    4    4    0    0 -0.24722095942E+02 -0.37394077189E+02  0.96802068362E+00  0.44837886888E+02  0.00000000000E+00 0.  1.
         11    1    4    4    0    0 -0.57371188847E+02  0.56453797737E+02  0.71809314092E+01  0.80808727033E+02  0.00000000000E+00 0. -1.
          1    1    1    2  501    0 -0.48860479034E+01 -0.28291814841E+02 -0.98631664865E+01  0.30357574083E+02  0.00000000000E+00 0. -1.
<scales pt_clust_5="13000.00000" pt_clust_6="13000.00000" pt_clust_7="13000.00000" pt_clust_8="13000.00000" pt_clust_9="28.71063"></scales>
<clustering>
<clus scale="   28.711">  2  9  1 -1</clus>
<clus scale="   92.834">  7  8 -1 -1</clus>
<clus scale="   97.148">  5  6 -1 -1</clus>
<clus scale="  126.657">  2  7  1 -1</clus>
<clus scale="   28.711">  2  5  1 -1</clus>
</clustering>
</event>
<event>
 9    2  0.1325014E-004  0.1813418E+03  0.7546771E-02  0.1167620E+00
          2   -1    0    0  502    0 -0.00000000000E+00  0.00000000000E+00  0.99591545111E+03  0.99591545111E+03  0.00000000000E+00 0. -1.
         21   -1    0    0  501  502  0.00000000000E+00 -0.00000000000E+00 -0.91540243456E+02  0.91540243456E+02  0.00000000000E+00 0.  1.
         23    2    1    2    0    0  0.70184266432E+02  0.14523579985E+03  0.86449145227E+03  0.88407404388E+03  0.90676210801E+02 0.  0.
         24    2    1    2    0    0 -0.61581217655E+02 -0.11886738699E+03  0.61516523834E+02  0.16820662665E+03  0.81163319823E+02 0.  0.
        -11    1    4    4    0    0 -0.79403524399E+02 -0.85832868082E+02  0.34342386987E+02  0.12186714272E+03  0.00000000000E+00 0.  1.
         12    1    4    4    0    0  0.17822306745E+02 -0.33034518911E+02  0.27174136847E+02  0.46339483928E+02  0.00000000000E+00 0. -1.
        -11    1    3    3    0    0  0.86203822017E+02  0.79826247577E+02  0.56971068268E+03  0.58169888318E+03  0.00000000000E+00 0. -1.
         11    1    3    3    0    0 -0.16019555585E+02  0.65409552274E+02  0.29478076958E+03  0.30237516070E+03  0.00000000000E+00 0.  1.
          1    1    1    2  501    0 -0.86030487771E+01 -0.26368412858E+02 -0.21632768453E+02  0.35175024035E+02  0.00000000000E+00 0. -1.
<scales pt_clust_5="13000.00000" pt_clust_6="13000.00000" pt_clust_7="13000.00000" pt_clust_8="13000.00000" pt_clust_9="27.73636"></scales>
<clustering>
<clus scale="   27.736">  2  9  1 -1</clus>
<clus scale="   81.163">  5  6 -1 -1</clus>
<clus scale="   90.676">  7  8 -1 -1</clus>
<clus scale="  176.777">  2  5  1 -1</clus>
<clus scale="   27.736">  2  5  1 -1</clus>
</clustering>
</event>
<event>
 9    2  0.1325014E-004  0.1980637E+03  0.7546771E-02  0.1163522E+00
         21   -1    0    0  501  502  0.00000000000E+00  0.00000000000E+00  0.11549643312E+03  0.11549643312E+03  0.00000000000E+00 0.  1.
          2   -1    0    0  502    0 -0.00000000000E+00 -0.00000000000E+00 -0.10139329249E+04  0.10139329249E+04  0.00000000000E+00 0. -1.
         24    2    1    2    0    0 -0.93590830530E+02 -0.88187540767E+02 -0.11818551030E+03  0.19027224381E+03  0.75494542948E+02 0.  0.
         23    2    1    2    0    0  0.14913293833E+03 -0.10003311523E+03 -0.88188585134E+02  0.21980858843E+03  0.91056749131E+02 0.  0.
        -13    1    3    3    0    0 -0.92569603358E+02 -0.97675020752E+02 -0.12029395467E+03  0.18049979688E+03  0.00000000000E+00 0.  1.
         14    1    3    3    0    0 -0.10212271722E+01  0.94874799852E+01  0.21084443655E+01  0.97724469325E+01  0.00000000000E+00 0. -1.
        -13    1    4    4    0    0  0.30463639969E+02  0.13178302499E+02  0.82138693890E+00  0.33202043512E+02  0.00000000000E+00 0. -1.
         13    1    4    4    0    0  0.11866929836E+03 -0.11321141773E+03 -0.89009972073E+02  0.18660654492E+03  0.00000000000E+00 0.  1.
          1    1    1    2  501    0 -0.55542107802E+02  0.18822065600E+03 -0.69206239637E+03  0.71934852579E+03  0.00000000000E+00 0. -1.
<scales pt_clust_5="13000.00000" pt_clust_6="13000.00000" pt_clust_7="13000.00000" pt_clust_8="13000.00000" pt_clust_9="175.89186"></scales>
<clustering>
<clus scale="   75.495">  5  6 -1 -1</clus>
<clus scale="   91.057">  7  8 -1 -1</clus>
<clus scale="  149.117">  2  5  1 -1</clus>
<clus scale="  175.892">  1  9  2 -1</clus>
<clus scale="  175.892">  1  5  2 -1</clus>
</clustering>
</event>
<event>
 9    2  0.1325014E-004  0.9914529E+02  0.7546771E-02  0.1304494E+00
         -1   -1    0    0    0  501 -0.00000000000E+00  0.00000000000E+00  0.48763462348E+03  0.48763462348E+03  0.00000000000E+00 0.  1.
         21   -1    0    0  501  502  0.00000000000E+00 -0.00000000000E+00 -0.40555649572E+02  0.40555649572E+02  0.00000000000E+00 0. -1.
         23    2    1    2    0    0 -0.36345891351E+02 -0.15581881508E+02  0.37360610828E+03  0.38664149097E+03  0.91358084203E+02 0.  0.
         24    2    1    2    0    0  0.90765736197E+01  0.52469114663E+02  0.42110532143E+02  0.85980089266E+02  0.52762549698E+02 0.  0.
        -11    1    4    4    0    0  0.32386580591E+01  0.22164285617E+02  0.49424293124E+02  0.54263295272E+02  0.00000000000E+00 0.  1.
         12    1    4    4    0    0  0.58379155606E+01  0.30304829046E+02 -0.73137609811E+01  0.31716793994E+02  0.00000000000E+00 0. -1.
        -11    1    3    3    0    0 -0.17421868756E+02 -0.53808545825E+02  0.19707890492E+03  0.20503408468E+03  0.00000000000E+00 0.  1.
         11    1    3    3    0    0 -0.18924022594E+02  0.38226664317E+02  0.17652720335E+03  0.18160740629E+03  0.00000000000E+00 0. -1.
         -2    1    1    2    0  502  0.27269317731E+02 -0.36887233155E+02  0.31362333489E+02  0.55568692816E+02  0.00000000000E+00 0.  1.
<scales pt_clust_5="13000.00000" pt_clust_6="13000.00000" pt_clust_7="13000.00000" pt_clust_8="13000.00000" pt_clust_9="45.87247"></scales>
<clustering>
<clus scale="   45.872">  2  9  1 -1</clus>
<clus scale="   52.763">  5  6 -1 -1</clus>
<clus scale="   65.325">  2  5  1 -1</clus>
<clus scale="   91.358">  7  8 -1 -1</clus>
<clus scale="   45.872">  2  5  1 -1</clus>
</clustering>
</event>
<event>
 9    2  0.1677360E-004  0.1540233E+03  0.7546771E-02  0.1225222E+00
         21   -1    0    0  501  502  0.00000000000E+00  0.00000000000E+00  0.60250916583E+02  0.60250916583E+02  0.00000000000E+00 0. -1.
         -1   -1    0    0    0  501 -0.00000000000E+00 -0.00000000000E+00 -0.75518603114E+03  0.75518603114E+03  0.00000000000E+00 0.  1.
         24    2    1    2    0    0 -0.11162932308E+02 -0.40715373521E+01 -0.49684873128E+02  0.95773752751E+02  0.81011336393E+02 0.  0.
         23    2    1    2    0    0  0.65876370358E+02  0.10708417409E+03 -0.17246542443E+03  0.23270257355E+03  0.92733211964E+02 0.  0.
        -13    1    3    3    0    0  0.15435249364E+02 -0.20295801300E+02 -0.58144513546E+02  0.63489770269E+02  0.00000000000E+00 0.  1.
         14    1    3    3    0    0 -0.26598181671E+02  0.16224263948E+02  0.84596404177E+01  0.32283982482E+02  0.00000000000E+00 0. -1.
        -11    1    4    4    0    0  0.22172747715E+02  0.10248466190E+02 -0.10278908499E+03  0.10565158680E+03  0.00000000000E+00 0. -1.
         11    1    4    4    0    0  0.43703622643E+02  0.96835707897E+02 -0.69676339439E+02  0.12705098675E+03  0.00000000000E+00 0.  1.
         -2    1    1    2    0  502 -0.54713438050E+02 -0.10301263674E+03 -0.47278481700E+03  0.48696062142E+03  0.00000000000E+00 0.  1.
<scales pt_clust_5="13000.00000" pt_clust_6="13000.00000" pt_clust_7="13000.00000" pt_clust_8="13000.00000" pt_clust_9="122.97862"></scales>
<clustering>
<clus scale="   81.011">  5  6 -1 -1</clus>
<clus scale="   81.878">  2  5  1 -1</clus>
<clus scale="   92.733">  7  8 -1 -1</clus>
<clus scale="  122.979">  1  9  2 -1</clus>
<clus scale="  122.979">  1  5  2 -1</clus>
</clustering>
</event>
<event>
 9    2  0.1325014E-004  0.1490237E+03  0.7546771E-02  0.1203605E+00
         21   -1    0    0  501  502  0.00000000000E+00  0.00000000000E+00  0.14508040889E+03  0.14508040889E+03  0.00000000000E+00 0.  1.
          2   -1    0    0  502    0 -0.00000000000E+00 -0.00000000000E+00 -0.67058502981E+03  0.67058502981E+03  0.00000000000E+00 0. -1.
         24    2    1    2    0    0  0.54601930688E+02  0.10149312974E+03 -0.57838450450E+03  0.59531270612E+03  0.81156372549E+02 0.  0.
         23    2    1    2    0    0 -0.73676637557E+02 -0.12404211831E+03  0.13800382924E+02  0.17136795231E+03  0.91443044966E+02 0.  0.
        -13    1    3    3    0    0  0.61642354945E+02  0.31700023896E+02 -0.33071033513E+03  0.33789642970E+03  0.00000000000E+00 0.  1.
         14    1    3    3    0    0 -0.70404242573E+01  0.69793105840E+02 -0.24767416937E+03  0.25741627643E+03  0.00000000000E+00 0. -1.
        -13    1    4    4    0    0 -0.15232717870E+02 -0.10741199246E+03  0.19906679224E+02  0.11029799497E+03  0.00000000000E+00 0.  1.
         13    1    4    4    0    0 -0.58443919687E+02 -0.16630125851E+02 -0.61062963002E+01  0.61069957334E+02  0.00000000000E+00 0. -1.
          1    1    1    2  501    0  0.19074706869E+02  0.22548988572E+02  0.39079500652E+02  0.48984780279E+02  0.00000000000E+00 0. -1.
<scales pt_clust_5="13000.00000" pt_clust_6="13000.00000" pt_clust_7="13000.00000" pt_clust_8="13000.00000" pt_clust_9="29.53475"></scales>
<clustering>
<clus scale="   29.535">  1  9  2 -1</clus>
<clus scale="   81.156">  5  6 -1 -1</clus>
<clus scale="   91.443">  7  8 -1 -1</clus>
<clus scale="  142.943">  2  5  1 -1</clus>
<clus scale="   29.535">  1  5  2 -1</clus>
</clustering>
</event>
<event>
 9    2  0.1325014E-004  0.9163753E+02  0.7546771E-02  0.1304715E+00
          2   -1    0    0  502    0 -0.00000000000E+00  0.00000000000E+00  0.46541668022E+03  0.46541668022E+03  0.00000000000E+00 0. -1.
         21   -1    0    0  501  502  0.00000000000E+00 -0.00000000000E+00 -0.49170395180E+02  0.49170395180E+02  0.00000000000E+00 0.  1.
         24    2    1    2    0    0  0.11146763169E+01  0.21036422688E+01  0.33582320516E+03  0.34574331598E+03  0.82192138364E+02 0.  0.
         23    2    1    2    0    0 -0.39857342310E+02  0.23934973751E+01  0.28262474969E+02  0.10371352728E+03  0.91451581091E+02 0.  0.
        -11    1    3    3    0    0 -0.39955101017E+02  0.63244373139E+01  0.18502397442E+03  0.18939450814E+03  0.00000000000E+00 0.  1.
         12    1    3    3    0    0  0.41069777334E+02 -0.42207950451E+01  0.15079923075E+03  0.15634880785E+03  0.00000000000E+00 0. -1.
        -11    1    4    4    0    0 -0.54585557332E+02 -0.25722371289E+02 -0.12748140228E+01  0.60356015482E+02  0.00000000000E+00 0.  1.
         11    1    4    4    0    0  0.14728215022E+02  0.28115868664E+02  0.29537288992E+02  0.43357511800E+02  0.00000000000E+00 0. -1.
          1    1    1    2  501    0  0.38742665993E+02 -0.44971396439E+01  0.52160604908E+02  0.65130232132E+02  0.00000000000E+00 0. -1.
<scales pt_clust_5="13000.00000" pt_clust_6="13000.00000" pt_clust_7="13000.00000" pt_clust_8="13000.00000" pt_clust_9="39.00280"></scales>
<clustering>
<clus scale="   39.003">  2  9  1 -1</clus>
<clus scale="   82.192">  5  6 -1 -1</clus>
<clus scale="   82.399">  1  5  2 -1</clus>
<clus scale="   91.452">  7  8 -1 -1</clus>
<clus scale="   39.003">  2  5  1 -1</clus>
</clustering>
</event>
<event>
 9    2  0.1325014E-004  0.2014931E+03  0.7546771E-02  0.1149224E+00
          2   -1    0    0  502    0 -0.00000000000E+00  0.00000000000E+00  0.61660851551E+03  0.61660851551E+03  0.00000000000E+00 0. -1.
         21   -1    0    0  501  502  0.00000000000E+00 -0.00000000000E+00 -0.10915811697E+03  0.10915811697E+03  0.00000000000E+00 0. -1.
         24    2    1    2    0    0 -0.12624688240E+03  0.95011207336E+02  0.15511792839E+03  0.23529522878E+03  0.79604448025E+02 0.  0.
         23    2    1    2    0    0  0.11113610565E+03 -0.19143114606E+03  0.20791777977E+03  0.31617067808E+03  0.87960086808E+02 0.  0.
        -11    1    3    3    0    0  0.58433053645E+01  0.28097499923E+02  0.21652314822E+02  0.35950472273E+02  0.00000000000E+00 0.  1.
         12    1    3    3    0    0 -0.13209018776E+03  0.66913707414E+02  0.13346561356E+03  0.19934475651E+03  0.00000000000E+00 0. -1.
        -11    1    4    4    0    0  0.22179600357E+02 -0.12278020151E+03  0.12419211878E+03  0.17604145797E+03  0.00000000000E+00 0.  1.
         11    1    4    4    0    0  0.88956505292E+02 -0.68650944543E+02  0.83725660988E+02  0.14012922011E+03  0.00000000000E+00 0. -1.
          1    1    1    2  501    0  0.15110776750E+02  0.96419938720E+02  0.14441469037E+03  0.17430072562E+03  0.00000000000E+00 0. -1.
<scales pt_clust_5="13000.00000" pt_clust_6="13000.00000" pt_clust_7="13000.00000" pt_clust_8="13000.00000" pt_clust_9="97.59687"></scales>
<clustering>
<clus scale="   79.604">  5  6 -1 -1</clus>
<clus scale="   87.960">  7  8 -1 -1</clus>
<clus scale="   97.597">  2  9  1 -1</clus>
<clus scale="  197.988">  1  5  2 -1</clus>
<clus scale="   97.597">  2  5  1 -1</clus>
</clustering>
</event>
<event>
 9    2  0.1325014E-004  0.1788451E+03  0.7546771E-02  0.1195552E+00
          2   -1    0    0  502    0 -0.00000000000E+00  0.00000000000E+00  0.71612112520E+03  0.71612112520E+03  0.00000000000E+00 0. -1.
         21   -1    0    0  501  502  0.00000000000E+00 -0.00000000000E+00 -0.30027616966E+03  0.30027616966E+03  0.00000000000E+00 0. -1.
         23    2    1    2    0    0  0.36146373845E+02  0.13666106753E+02 -0.19726103883E+03  0.22049324012E+03  0.90620244331E+02 0.  0.
         24    2    1    2    0    0  0.69821608611E+02  0.96374687521E+02  0.62390703158E+03  0.64275428453E+03  0.98539072491E+02 0.  0.
        -13    1    4    4    0    0  0.65297902407E+02  0.90471280617E+01  0.30745590385E+03  0.31444363469E+03  0.00000000000E+00 0.  1.
         14    1    4    4    0    0  0.45237062033E+01  0.87327559459E+02  0.31645112773E+03  0.32831064984E+03  0.00000000000E+00 0. -1.
        -11    1    3    3    0    0  0.79978912527E+00 -0.35243686165E+02 -0.10000687995E+03  0.10603835681E+03  0.00000000000E+00 0.  1.
         11    1    3    3    0    0  0.35346584720E+02  0.48909792919E+02 -0.97254158882E+02  0.11445488331E+03  0.00000000000E+00 0. -1.
          1    1    1    2  501    0 -0.10596798246E+03 -0.11004079427E+03 -0.10801037212E+02  0.15314977021E+03  0.00000000000E+00 0. -1.
<scales pt_clust_5="13000.00000" pt_clust_6="13000.00000" pt_clust_7="13000.00000" pt_clust_8="13000.00000" pt_clust_9="149.25023"></scales>
<clustering>
<clus scale="   90.620">  7  8 -1 -1</clus>
<clus scale="   98.516">  1  7  2 -1</clus>
<clus scale="   98.539">  5  6 -1 -1</clus>
<clus scale="  149.250">  2  9  1 -1</clus>
<clus scale="  149.250">  2  5  1 -1</clus>
</clustering>
</event>
<event>
 9    2  0.1325014E-004  0.9860460E+02  0.7546771E-02  0.1289834E+00
         21   -1    0    0  501  502  0.00000000000E+00  0.00000000000E+00  0.16563171870E+02  0.16563171870E+02  0.00000000000E+00 0. -1.
          2   -1    0    0  502    0 -0.00000000000E+00 -0.00000000000E+00 -0.11874594787E+04  0.11874594787E+04  0.00000000000E+00 0. -1.
         24    2    1    2    0    0  0.69054162533E+01 -0.45536958385E+02 -0.76749622104E+03  0.77283808568E+03  0.78147028228E+02 0.  0.
         23    2    1    2    0    0  0.15448688046E+02  0.69391652190E+01 -0.16903466925E+03  0.19261247078E+03  0.90774613823E+02 0.  0.
        -13    1    3    3    0    0  0.29702078967E+02 -0.15035986621E+02 -0.12964040371E+03  0.13384666101E+03  0.00000000000E+00 0.  1.
         14    1    3    3    0    0 -0.22796662714E+02 -0.30500971765E+02 -0.63785581733E+03  0.63899142467E+03  0.00000000000E+00 0. -1.
        -11    1    4    4    0    0  0.41096780217E+01  0.48715759191E+02 -0.95361898481E+02  0.10716345613E+03  0.00000000000E+00 0.  1.
         11    1    4    4    0    0  0.11339010025E+02 -0.41776593972E+02 -0.73672770768E+02  0.85449014652E+02  0.00000000000E+00 0. -1.
          1    1    1    2  501    0 -0.22354104300E+02  0.38597793166E+02 -0.23436541652E+03  0.23857209409E+03  0.00000000000E+00 0. -1.
<scales pt_clust_5="13000.00000" pt_clust_6="13000.00000" pt_clust_7="13000.00000" pt_clust_8="13000.00000" pt_clust_9="44.60378"></scales>
<clustering>
<clus scale="   44.604">  1  9  2 -1</clus>
<clus scale="   78.147">  5  6 -1 -1</clus>
<clus scale="   87.119">  2  5  1 -1</clus>
<clus scale="   90.775">  7  8 -1 -1</clus>
<clus scale="   44.604">  1  5  2 -1</clus>
</clustering>
</event>
<event>
 9    2  0.1325014E-004  0.2060220E+03  0.7546771E-02  0.1173902E+00
         21   -1    0    0  501  502  0.00000000000E+00  0.00000000000E+00  0.11120330948E+03  0.11120330948E+03  0.00000000000E+00 0. -1.
          2   -1    0    0  502    0 -0.00000000000E+00 -0.00000000000E+00 -0.96842787815E+03  0.96842787815E+03  0.00000000000E+00 0. -1.
         23    2    1    2    0    0 -0.37803819705E+02 -0.18299011825E+02 -0.12576210802E+03  0.16347250002E+03  0.95619913363E+02 0.  0.
         24    2    1    2    0    0 -0.14468313996E+03  0.84894026675E+02 -0.69392194721E+03  0.71830602374E+03  0.79345246713E+02 0.  0.
        -13    1    4    4    0    0 -0.52864663179E+02  0.66712199106E+02 -0.23511283043E+03  0.25004646199E+03  0.00000000000E+00 0.  1.
         14    1    4    4    0    0 -0.91818476783E+02  0.18181827569E+02 -0.45880911678E+03  0.46825956175E+03  0.00000000000E+00 0. -1.
        -13    1    3    3    0    0  0.13903727917E+01  0.32138004184E+02 -0.14734893465E+02  0.35382220604E+02  0.00000000000E+00 0. -1.
         13    1    3    3    0    0 -0.39194192496E+02 -0.50437016009E+02 -0.11102721455E+03  0.12809027942E+03  0.00000000000E+00 0.  1.
          1    1    1    2  501    0  0.18248695967E+03 -0.66595014851E+02 -0.37540513440E+02  0.19785266387E+03  0.00000000000E+00 0. -1.
<scales pt_clust_5="13000.00000" pt_clust_6="13000.00000" pt_clust_7="13000.00000" pt_clust_8="13000.00000" pt_clust_9="190.12991"></scales>
<clustering>
<clus scale="   79.345">  5  6 -1 -1</clus>
<clus scale="   95.620">  7  8 -1 -1</clus>
<clus scale="  104.437">  2  7  1 -1</clus>
<clus scale="  190.130">  1  9  2 -1</clus>
<clus scale="  190.130">  1  5  2 -1</clus>
</clustering>
</event>
<event>
 9    2  0.1325014E-004  0.1843732E+03  0.7546771E-02  0.1164750E+00
         21   -1    0    0  501  502  0.00000000000E+00  0.00000000000E+00  0.43692283638E+02  0.43692283638E+02  0.00000000000E+00 0. -1.
          4   -1    0    0  502    0 -0.00000000000E+00 -0.00000000000E+00 -0.15849449859E+04  0.15849449859E+04  0.00000000000E+00 0. -1.
         23    2    1    2    0    0 -0.11352199414E+02  0.21241081082E+03 -0.10277997694E+04  0.10518548016E+04  0.69129823400E+02 0.  0.
         24    2    1    2    0    0 -0.30867187885E+02 -0.11461204110E+03 -0.37908844356E+03  0.40531558491E+03  0.80523115164E+02 0.  0.
        -11    1    4    4    0    0  0.21858654801E+02 -0.11604386930E+02 -0.10351337002E+03  0.10643063637E+03  0.00000000000E+00 0.  1.
         12    1    4    4    0    0 -0.52725842686E+02 -0.10300765417E+03 -0.27557507354E+03  0.29888494854E+03  0.00000000000E+00 0. -1.
        -11    1    3    3    0    0 -0.37848290905E+02  0.82387925282E+02 -0.44440828894E+03  0.45356255427E+03  0.00000000000E+00 0.  1.
         11    1    3    3    0    0  0.26496091490E+02  0.13002288554E+03 -0.58339148051E+03  0.59829224728E+03  0.00000000000E+00 0. -1.
          3    1    1    2  501    0  0.42219387299E+02 -0.97798769722E+02 -0.13436448929E+03  0.17146688311E+03  0.00000000000E+00 0. -1.
<scales pt_clust_5="13000.00000" pt_clust_6="13000.00000" pt_clust_7="13000.00000" pt_clust_8="13000.00000" pt_clust_9="106.52265"></scales>
<clustering>
<clus scale="   69.130">  7  8 -1 -1</clus>
<clus scale="   80.523">  5  6 -1 -1</clus>
<clus scale="  106.523">  1  9  2 -1</clus>
<clus scale="  179.690">  2  7  1 -1</clus>
<clus scale="  106.523">  1  5  2 -1</clus>
</clustering>
</event>
<event>
 9    2  0.1325014E-004  0.9721628E+02  0.7546771E-02  0.1292813E+00
         21   -1    0    0  501  502  0.00000000000E+00  0.00000000000E+00  0.70297849599E+02  0.70297849599E+02  0.00000000000E+00 0. -1.
          2   -1    0    0  502    0 -0.00000000000E+00 -0.00000000000E+00 -0.44943798954E+03  0.44943798954E+03  0.00000000000E+00 0. -1.
         23    2    1    2    0    0 -0.16228232612E+02 -0.21800296238E+01 -0.14121746197E+03  0.16994158653E+03  0.93111026221E+02 0.  0.
         24    2    1    2    0    0  0.27037033296E+02  0.83322020781E+02 -0.25590362535E+02  0.12222917383E+03  0.81311401195E+02 0.  0.
        -13    1    4    4    0    0  0.23958715914E+02  0.21266696872E+02  0.26166834127E+02  0.41364183448E+02  0.00000000000E+00 0.  1.
         14    1    4    4    0    0  0.30783173813E+01  0.62055323909E+02 -0.51757196661E+02  0.80864990383E+02  0.00000000000E+00 0. -1.
        -13    1    3    3    0    0 -0.90149978347E+00  0.28230941630E+02 -0.13153998500E+03  0.13453834555E+03  0.00000000000E+00 0.  1.
         13    1    3    3    0    0 -0.15326732828E+02 -0.30410971254E+02 -0.96774769667E+01  0.35403240985E+02  0.00000000000E+00 0. -1.
          1    1    1    2  501    0 -0.10808800684E+02 -0.81141991157E+02 -0.21233231543E+03  0.22756507877E+03  0.00000000000E+00 0. -1.
<scales pt_clust_5="13000.00000" pt_clust_6="13000.00000" pt_clust_7="13000.00000" pt_clust_8="13000.00000" pt_clust_9="81.85878"></scales>
<clustering>
<clus scale="   81.311">  5  6 -1 -1</clus>
<clus scale="   81.859">  1  9  2 -1</clus>
<clus scale="   85.982">  1  5  2 -1</clus>
<clus scale="   93.111">  7  8 -1 -1</clus>
<clus scale="   81.859">  1  5  2 -1</clus>
</clustering>
</event>
<event>
 9    2  0.1325014E-004  0.9738240E+02  0.7546771E-02  0.1290528E+00
         21   -1    0    0  501  502  0.00000000000E+00  0.00000000000E+00  0.83997106698E+02  0.83997106698E+02  0.00000000000E+00 0.  1.
          2   -1    0    0  502    0 -0.00000000000E+00 -0.00000000000E+00 -0.48440784388E+03  0.48440784388E+03  0.00000000000E+00 0. -1.
         23    2    1    2    0    0  0.53144079934E+01  0.46117201807E+02 -0.19261264848E+03  0.21727293409E+03  0.89178788391E+02 0.  0.
         24    2    1    2    0    0 -0.37435670618E+02  0.81793326721E+01  0.38487040694E+02  0.96895405963E+02  0.80244230184E+02 0.  0.
        -13    1    4    4    0    0 -0.71668480249E+01  0.24724811905E+02  0.53425519893E+02  0.59304015127E+02  0.00000000000E+00 0.  1.
         14    1    4    4    0    0 -0.30268822593E+02 -0.16545479233E+02 -0.14938479199E+02  0.37591390836E+02  0.00000000000E+00 0. -1.
        -13    1    3    3    0    0 -0.40196012734E+02  0.13893334192E+02 -0.61280795587E+02  0.74592761596E+02  0.00000000000E+00 0.  1.
         13    1    3    3    0    0  0.45510420727E+02  0.32223867614E+02 -0.13133185289E+03  0.14268017249E+03  0.00000000000E+00 0. -1.
          1    1    1    2  501    0  0.32121262625E+02 -0.54296534479E+02 -0.24628512940E+03  0.25423661053E+03  0.00000000000E+00 0. -1.
<scales pt_clust_5="13000.00000" pt_clust_6="13000.00000" pt_clust_7="13000.00000" pt_clust_8="13000.00000" pt_clust_9="63.08639"></scales>
<clustering>
<clus scale="   63.086">  1  9  2 -1</clus>
<clus scale="   80.244">  5  6 -1 -1</clus>
<clus scale="   89.179">  7  8 -1 -1</clus>
<clus scale="   89.273">  1  5  2 -1</clus>
<clus scale="   63.086">  1  5  2 -1</clus>
</clustering>
</event>
<event>
 9    2  0.1325014E-004  0.8406533E+02  0.7546771E-02  0.1318472E+00
         21   -1    0    0  501  502  0.00000000000E+00  0.00000000000E+00  0.10688604313E+03  0.10688604313E+03  0.00000000000E+00 0. -1.
          2   -1    0    0  502    0 -0.00000000000E+00 -0.00000000000E+00 -0.35820152336E+03  0.35820152336E+03  0.00000000000E+00 0. -1.
         23    2    1    2    0    0  0.88601765640E+01 -0.10758367516E+02 -0.18301765818E+03  0.20115075608E+03  0.82291665845E+02 0.  0.
         24    2    1    2    0    0 -0.13295429527E+02  0.53246773169E+02  0.69094735492E+02  0.12005612737E+03  0.81408868972E+02 0.  0.
        -13    1    4    4    0    0  0.60742640687E+00  0.72499541768E+02  0.41083878066E+02  0.83333292028E+02  0.00000000000E+00 0.  1.
         14    1    4    4    0    0 -0.13902855934E+02 -0.19252768598E+02  0.28010857427E+02  0.36722835343E+02  0.00000000000E+00 0. -1.
        -11    1    3    3    0    0  0.20562101405E+02  0.25316731905E+02 -0.14023690156E+03  0.14397960094E+03  0.00000000000E+00 0.  1.
         11    1    3    3    0    0 -0.11701924841E+02 -0.36075099421E+02 -0.42780756616E+02  0.57171155138E+02  0.00000000000E+00 0. -1.
          1    1    1    2  501    0  0.44352529634E+01 -0.42488405653E+02 -0.13739255754E+03  0.14388068304E+03  0.00000000000E+00 0. -1.
<scales pt_clust_5="13000.00000" pt_clust_6="13000.00000" pt_clust_7="13000.00000" pt_clust_8="13000.00000" pt_clust_9="42.71929"></scales>
<clustering>
<clus scale="   42.719">  1  9  2 -1</clus>
<clus scale="   81.409">  5  6 -1 -1</clus>
<clus scale="   82.292">  7  8 -1 -1</clus>
<clus scale="   83.201">  1  5  2 -1</clus>
<clus scale="   42.719">  1  5  2 -1</clus>
</clustering>
</event>
<event>
 9    2  0.1325014E-004  0.2449604E+03  0.7546771E-02  0.1117144E+00
         21   -1    0    0  501  502  0.00000000000E+00  0.00000000000E+00  0.27819381059E+03  0.27819381059E+03  0.00000000000E+00 0. -1.
          2   -1    0    0  502    0 -0.00000000000E+00 -0.00000000000E+00 -0.63155871669E+03  0.63155871669E+03  0.00000000000E+00 0. -1.
         24    2    1    2    0    0  0.18581024541E+03 -0.15453568671E+03 -0.34432991677E+03  0.42819798411E+03  0.79898036563E+02 0.  0.
         23    2    1    2    0    0 -0.15800927989E+03  0.47461139190E+02  0.18134827619E+03  0.26136453386E+03  0.90579964774E+02 0.  0.
        -13    1    3    3    0    0  0.10825919347E+03 -0.13649223114E+03 -0.22119236737E+03  0.28156037632E+03  0.00000000000E+00 0.  1.
         14    1    3    3    0    0  0.77551051938E+02 -0.18043455578E+02 -0.12313754940E+03  0.14663760779E+03  0.00000000000E+00 0. -1.
        -13    1    4    4    0    0 -0.14315813610E+03  0.18306351707E+02  0.10553845069E+03  0.17879524328E+03  0.00000000000E+00 0. -1.
         13    1    4    4    0    0 -0.14851143790E+02  0.29154787483E+02  0.75809825498E+02  0.82569290581E+02  0.00000000000E+00 0.  1.
          1    1    1    2  501    0 -0.27800965513E+02  0.10707454752E+03 -0.19038326551E+03  0.22019000930E+03  0.00000000000E+00 0. -1.
<scales pt_clust_5="13000.00000" pt_clust_6="13000.00000" pt_clust_7="13000.00000" pt_clust_8="13000.00000" pt_clust_9="110.62488"></scales>
<clustering>
<clus scale="   79.898">  5  6 -1 -1</clus>
<clus scale="   90.580">  7  8 -1 -1</clus>
<clus scale="  110.625">  1  9  2 -1</clus>
<clus scale="  241.215">  2  5  1 -1</clus>
<clus scale="  110.625">  1  5  2 -1</clus>
</clustering>
</event>
<event>
 9    2  0.1325014E-004  0.1032704E+03  0.7546771E-02  0.1276675E+00
          4   -1    0    0  502    0 -0.00000000000E+00  0.00000000000E+00  0.57528690370E+02  0.57528690370E+02  0.00000000000E+00 0. -1.
         21   -1    0    0  501  502  0.00000000000E+00 -0.00000000000E+00 -0.32675032490E+03  0.32675032490E+03  0.00000000000E+00 0. -1.
         23    2    1    2    0    0  0.56345048335E+01 -0.60508119300E+02 -0.63309687434E+02  0.12566627163E+03  0.89949514488E+02 0.  0.
         24    2    1    2    0    0  0.40709296864E+02  0.29778641904E+02 -0.15665806522E+03  0.18432954489E+03  0.83015765706E+02 0.  0.
        -11    1    4    4    0    0  0.62186878735E+01 -0.28618522498E+02 -0.49322182513E+02  0.57361743320E+02  0.00000000000E+00 0.  1.
         12    1    4    4    0    0  0.34490608990E+02  0.58397164403E+02 -0.10733588271E+03  0.12696780157E+03  0.00000000000E+00 0. -1.
        -13    1    3    3    0    0 -0.25965181584E+02 -0.22581586564E+01 -0.52374341974E+02  0.58500954115E+02  0.00000000000E+00 0.  1.
         13    1    3    3    0    0  0.31599686417E+02 -0.58249960644E+02 -0.10935345460E+02  0.67165317516E+02  0.00000000000E+00 0. -1.
          3    1    1    2  501    0 -0.46343801697E+02  0.30729477396E+02 -0.49253881881E+02  0.74283198754E+02  0.00000000000E+00 0. -1.
<scales pt_clust_5="13000.00000" pt_clust_6="13000.00000" pt_clust_7="13000.00000" pt_clust_8="13000.00000" pt_clust_9="55.60622"></scales>
<clustering>
<clus scale="   55.606">  2  9  1 -1</clus>
<clus scale="   83.016">  5  6 -1 -1</clus>
<clus scale="   89.950">  7  8 -1 -1</clus>
<clus scale="   97.291">  2  5  1 -1</clus>
<clus scale="   55.606">  2  5  1 -1</clus>
</clustering>
</event>
<event>
 9    2  0.1325014E-004  0.8553251E+02  0.7546771E-02  0.1318350E+00
          2   -1    0    0  502    0 -0.00000000000E+00  0.00000000000E+00  0.27071507591E+03  0.27071507591E+03  0.00000000000E+00 0. -1.
         21   -1    0    0  501  502  0.00000000000E+00 -0.00000000000E+00 -0.87712539650E+02  0.87712539650E+02  0.00000000000E+00 0. -1.
         24    2    1    2    0    0 -0.10109167575E+02 -0.20067753214E+00  0.22380892384E+03  0.23746911761E+03  0.78733168896E+02 0.  0.
         23    2    1    2    0    0 -0.74029880288E+01  0.13126069256E+02 -0.15944069996E+02  0.87914948185E+02  0.85133582213E+02 0.  0.
        -11    1    3    3    0    0  0.63563097820E+01 -0.29329327216E+02  0.36775758721E+02  0.47466499118E+02  0.00000000000E+00 0.  1.
         12    1    3    3    0    0 -0.16465477357E+02  0.29128649684E+02  0.18703316512E+03  0.19000261849E+03  0.00000000000E+00 0. -1.
        -11    1    4    4    0    0  0.32213609177E+02 -0.17218514711E+02 -0.56366607362E+01  0.36958974679E+02  0.00000000000E+00 0.  1.
         11    1    4    4    0    0 -0.39616597206E+02  0.30344583966E+02 -0.10307409259E+02  0.50955973506E+02  0.00000000000E+00 0. -1.
          1    1    1    2  501    0  0.17512155604E+02 -0.12925391723E+02 -0.24862317590E+02  0.33043549765E+02  0.00000000000E+00 0. -1.
<scales pt_clust_5="13000.00000" pt_clust_6="13000.00000" pt_clust_7="13000.00000" pt_clust_8="13000.00000" pt_clust_9="21.76560"></scales>
<clustering>
<clus scale="   21.766">  2  9  1 -1</clus>
<clus scale="   78.733">  5  6 -1 -1</clus>
<clus scale="   79.164">  1  5  2 -1</clus>
<clus scale="   85.134">  7  8 -1 -1</clus>
<clus scale="   21.766">  2  5  1 -1</clus>
</clustering>
</event>
<event>
 9    2  0.1325014E-004  0.1143573E+03  0.7546771E-02  0.1259666E+00
         -3   -1    0    0    0  501 -0.00000000000E+00  0.00000000000E+00  0.11578764013E+03  0.11578764013E+03  0.00000000000E+00 0.  1.
         21   -1    0    0  501  502  0.00000000000E+00 -0.00000000000E+00 -0.18398557008E+03  0.18398557008E+03  0.00000000000E+00 0. -1.
         24    2    1    2    0    0 -0.31212090516E+02 -0.50389034240E+02 -0.25231182964E+02  0.10369167486E+03  0.81253316698E+02 0.  0.
         23    2    1    2    0    0 -0.33008297901E+02  0.66989277215E+02 -0.38295767621E+02  0.12958608887E+03  0.98736404724E+02 0.  0.
        -13    1    3    3    0    0  0.24085794363E+02 -0.36155670362E+02 -0.96265881911E+01  0.44497518915E+02  0.00000000000E+00 0.  1.
         14    1    3    3    0    0 -0.55297884879E+02 -0.14233363879E+02 -0.15604594772E+02  0.59194155940E+02  0.00000000000E+00 0. -1.
        -13    1    4    4    0    0 -0.53446201075E+02  0.81191679176E+02 -0.21477631835E+02  0.99548349288E+02  0.00000000000E+00 0.  1.
         13    1    4    4    0    0  0.20437903175E+02 -0.14202401960E+02 -0.16818135786E+02  0.30037739578E+02  0.00000000000E+00 0. -1.
         -4    1    1    2    0  502  0.64220388416E+02 -0.16600242975E+02 -0.46709793597E+01  0.66495446486E+02  0.00000000000E+00 0.  1.
<scales pt_clust_5="13000.00000" pt_clust_6="13000.00000" pt_clust_7="13000.00000" pt_clust_8="13000.00000" pt_clust_9="66.33122"></scales>
<clustering>
<clus scale="   66.331">  2  9  1 -1</clus>
<clus scale="   81.253">  5  6 -1 -1</clus>
<clus scale="   98.736">  7  8 -1 -1</clus>
<clus scale="   99.654">  1  5  2 -1</clus>
<clus scale="   66.331">  2  5  1 -1</clus>
</clustering>
</event>
<event>
 9    2  0.1325014E-004  0.1071870E+03  0.7546771E-02  0.1275409E+00
         21   -1    0    0  501  502  0.00000000000E+00  0.00000000000E+00  0.69595817336E+02  0.69595817336E+02  0.00000000000E+00 0.  1.
          2   -1    0    0  502    0 -0.00000000000E+00 -0.00000000000E+00 -0.21412069535E+03  0.21412069535E+03  0.00000000000E+00 0. -1.
         24    2    1    2    0    0 -0.35307305432E+02 -0.20730974169E+01 -0.10286711141E+03  0.13532908803E+03  0.80507241330E+02 0.  0.
         23    2    1    2    0    0  0.44915710285E+02 -0.25629271353E+02 -0.28397832020E+02  0.11620717381E+03  0.10011688070E+03 0.  0.
        -13    1    3    3    0    0  0.95099488741E+01 -0.26208523386E+02 -0.10362530590E+02  0.29744039165E+02  0.00000000000E+00 0.  1.
         14    1    3    3    0    0 -0.44817254306E+02  0.24135425969E+02 -0.92504580824E+02  0.10558504886E+03  0.00000000000E+00 0. -1.
        -13    1    4    4    0    0  0.72287077063E+02 -0.35383700214E+02 -0.83707644797E+01  0.80916607993E+02  0.00000000000E+00 0.  1.
         13    1    4    4    0    0 -0.27371366778E+02  0.97544288615E+01 -0.20027067540E+02  0.35290565821E+02  0.00000000000E+00 0. -1.
          1    1    1    2  501    0 -0.96084048536E+01  0.27702368770E+02 -0.13259934584E+02  0.32180250845E+02  0.00000000000E+00 0. -1.
<scales pt_clust_5="13000.00000" pt_clust_6="13000.00000" pt_clust_7="13000.00000" pt_clust_8="13000.00000" pt_clust_9="29.32137"></scales>
<clustering>
<clus scale="   29.321">  1  9  2 -1</clus>
<clus scale="   80.507">  5  6 -1 -1</clus>
<clus scale="   89.146">  2  5  1 -1</clus>
<clus scale="  100.117">  7  8 -1 -1</clus>
<clus scale="   29.321">  1  5  2 -1</clus>
</clustering>
</event>
<event>
 9    2  0.1325014E-004  0.1152169E+03  0.7546771E-02  0.1255907E+00
         21   -1    0    0  501  502  0.00000000000E+00  0.00000000000E+00  0.22365460926E+03  0.22365460926E+03  0.00000000000E+00 0.  1.
          4   -1    0    0  502    0 -0.00000000000E+00 -0.00000000000E+00 -0.69908823274E+02  0.69908823274E+02  0.00000000000E+00 0. -1.
         24    2    1    2    0    0  0.30212850128E+02 -0.70122817957E+02  0.33760753465E+02  0.11529990473E+03  0.79525176174E+02 0.  0.
         23    2    1    2    0    0 -0.13075663747E+02  0.54126413483E+02  0.10293425039E+03  0.14927564612E+03  0.92666698452E+02 0.  0.
        -11    1    3    3    0    0  0.20723590525E+02  0.37834959986E+01  0.34915028462E+02  0.40777950644E+02  0.00000000000E+00 0.  1.
         12    1    3    3    0    0  0.94892596038E+01 -0.73906313955E+02 -0.11542749976E+01  0.74521954088E+02  0.00000000000E+00 0. -1.
        -11    1    4    4    0    0  0.26536685339E+02  0.25810099040E+01  0.72980988929E+02  0.77698661675E+02  0.00000000000E+00 0.  1.
         11    1    4    4    0    0 -0.39612349086E+02  0.51545403579E+02  0.29953261465E+02  0.71576984448E+02  0.00000000000E+00 0. -1.
          3    1    1    2  501    0 -0.17137186382E+02  0.15996404474E+02  0.17050782126E+02  0.28987881680E+02  0.00000000000E+00 0. -1.
<scales pt_clust_5="13000.00000" pt_clust_6="13000.00000" pt_clust_7="13000.00000" pt_clust_8="13000.00000" pt_clust_9="23.44287"></scales>
<clustering>
<clus scale="   23.443">  1  9  2 -1</clus>
<clus scale="   79.525">  5  6 -1 -1</clus>
<clus scale="   92.667">  7  8 -1 -1</clus>
<clus scale="  104.938">  2  5  1 -1</clus>
<clus scale="   23.443">  1  5  2 -1</clus>
</clustering>
</event>
<event>
 9    2  0.1325014E-004  0.1382777E+03  0.7546771E-02  0.1217956E+00
          2   -1    0    0  502    0 -0.00000000000E+00  0.00000000000E+00  0.93259432684E+03  0.93259432684E+03  0.00000000000E+00 0. -1.
         21   -1    0    0  501  502  0.00000000000E+00 -0.00000000000E+00 -0.65655698868E+02  0.65655698868E+02  0.00000000000E+00 0. -1.
         23    2    1    2    0    0 -0.76143487896E+02 -0.10443496210E+03  0.60281533357E+03  0.62333105991E+03  0.91928188290E+02 0.  0.
         24    2    1    2    0    0 -0.57710120742E+01  0.84751584425E+02  0.26566521694E+03  0.29065866562E+03  0.81782129850E+02 0.  0.
        -11    1    4    4    0    0  0.23747487473E+02  0.81582024401E+02  0.16340253003E+03  0.18417371334E+03  0.00000000000E+00 0.  1.
         12    1    4    4    0    0 -0.29518499547E+02  0.31695600233E+01  0.10226268691E+03  0.10648495227E+03  0.00000000000E+00 0. -1.
        -11    1    3    3    0    0 -0.41021414394E+01 -0.50713902730E+02  0.96392268056E+02  0.10899631570E+03  0.00000000000E+00 0.  1.
         11    1    3    3    0    0 -0.72041346457E+02 -0.53721059368E+02  0.50642306551E+03  0.51433474421E+03  0.00000000000E+00 0. -1.
          1    1    1    2  501    0  0.81914499970E+02  0.19683377673E+02 -0.15419225375E+01  0.84260300184E+02  0.00000000000E+00 0. -1.
<scales pt_clust_5="13000.00000" pt_clust_6="13000.00000" pt_clust_7="13000.00000" pt_clust_8="13000.00000" pt_clust_9="84.24619"></scales>
<clustering>
<clus scale="   81.782">  5  6 -1 -1</clus>
<clus scale="   84.246">  2  9  1 -1</clus>
<clus scale="   91.928">  7  8 -1 -1</clus>
<clus scale="  131.751">  2  5  1 -1</clus>
<clus scale="   84.246">  2  5  1 -1</clus>
</clustering>
</event>
<event>
 9    2  0.1325014E-004  0.1512604E+03  0.7546771E-02  0.1227861E+00
         21   -1    0    0  501  502  0.00000000000E+00  0.00000000000E+00  0.47360043284E+03  0.47360043284E+03  0.00000000000E+00 0. -1.
         -1   -1    0    0    0  501 -0.00000000000E+00 -0.00000000000E+00 -0.24159548765E+03  0.24159548765E+03  0.00000000000E+00 0.  1.
         24    2    1    2    0    0 -0.34544525052E+02  0.16328120479E+02 -0.17527223862E+03  0.19343609853E+03  0.72368742251E+02 0.  0.
         23    2    1    2    0    0  0.53034546463E+02  0.10551714255E+03  0.73280674585E+02  0.16575165184E+03  0.90316235148E+02 0.  0.
        -11    1    3    3    0    0 -0.16067602209E+02 -0.28515657804E+02 -0.59361774071E+02  0.67787394120E+02  0.00000000000E+00 0.  1.
         12    1    3    3    0    0 -0.18476922843E+02  0.44843778283E+02 -0.11591046454E+03  0.12564870441E+03  0.00000000000E+00 0. -1.
        -11    1    4    4    0    0  0.68226351819E+02  0.62895064144E+02  0.18360822234E+02  0.94592515398E+02  0.00000000000E+00 0. -1.
         11    1    4    4    0    0 -0.15191805356E+02  0.42622078404E+02  0.54919852351E+02  0.71159136445E+02  0.00000000000E+00 0.  1.
         -2    1    1    2    0  502 -0.18490021411E+02 -0.12184526303E+03  0.33399650923E+03  0.35600817012E+03  0.00000000000E+00 0.  1.
<scales pt_clust_5="13000.00000" pt_clust_6="13000.00000" pt_clust_7="13000.00000" pt_clust_8="13000.00000" pt_clust_9="121.33710"></scales>
<clustering>
<clus scale="   72.369">  5  6 -1 -1</clus>
<clus scale="   81.836">  2  5  1 -1</clus>
<clus scale="   90.316">  7  8 -1 -1</clus>
<clus scale="  121.337">  1  9  2 -1</clus>
<clus scale="  121.337">  1  5  2 -1</clus>
</clustering>
</event>
<event>
 9    2  0.1325014E-004  0.1844887E+03  0.7546771E-02  0.1174395E+00
          2   -1    0    0  502    0 -0.00000000000E+00  0.00000000000E+00  0.24705993225E+03  0.24705993225E+03  0.00000000000E+00 0. -1.
         21   -1    0    0  501  502  0.00000000000E+00 -0.00000000000E+00 -0.30203914091E+03  0.30203914091E+03  0.00000000000E+00 0. -1.
         23    2    1    2    0    0 -0.83343812070E+02 -0.73233942296E+02 -0.10340225130E+03  0.17713419857E+03  0.91515558318E+02 0.  0.
         24    2    1    2    0    0 -0.25771239493E+02  0.18677148153E+03 -0.53705691590E+01  0.20555988679E+03  0.81720749793E+02 0.  0.
        -11    1    4    4    0    0  0.20065937918E+01  0.21971284351E+02 -0.29356205836E+02  0.36722616679E+02  0.00000000000E+00 0.  1.
         12    1    4    4    0    0 -0.27777833285E+02  0.16480019718E+03  0.23985636677E+02  0.16883727011E+03  0.00000000000E+00 0. -1.
        -11    1    3    3    0    0  0.89247700714E+01 -0.32752334771E+02 -0.17268447164E+01  0.33990424334E+02  0.00000000000E+00 0.  1.
         11    1    3    3    0    0 -0.92268582142E+02 -0.40481607526E+02 -0.10167540658E+03  0.14314377424E+03  0.00000000000E+00 0. -1.
          1    1    1    2  501    0  0.10911505156E+03 -0.11353753923E+03  0.53793611805E+02  0.16640498780E+03  0.00000000000E+00 0. -1.
<scales pt_clust_5="13000.00000" pt_clust_6="13000.00000" pt_clust_7="13000.00000" pt_clust_8="13000.00000" pt_clust_9="165.40196"></scales>
<clustering>
<clus scale="   81.721">  5  6 -1 -1</clus>
<clus scale="   91.516">  7  8 -1 -1</clus>
<clus scale="  143.821">  1  7  2 -1</clus>
<clus scale="  165.402">  2  9  1 -1</clus>
<clus scale="  165.402">  2  5  1 -1</clus>
</clustering>
</event>
<event>
 9    2  0.1325014E-004  0.1805099E+03  0.7546771E-02  0.1184884E+00
          2   -1    0    0  502    0 -0.00000000000E+00  0.00000000000E+00  0.85722223221E+02  0.85722223221E+02  0.00000000000E+00 0. -1.
         21   -1    0    0  501  502  0.00000000000E+00 -0.00000000000E+00 -0.81228892591E+03  0.81228892591E+03  0.00000000000E+00 0. -1.
         24    2    1    2    0    0  0.70472671421E+02  0.55486285741E+02 -0.14787852148E+03  0.19124627500E+03  0.81620801661E+02 0.  0.
         23    2    1    2    0    0 -0.16335894176E+03 -0.15774709603E+03 -0.24522092734E+03  0.34581398835E+03  0.88790321426E+02 0.  0.
        -11    1    3    3    0    0  0.60568059344E+02  0.22404612693E+02 -0.14229711218E+03  0.15626555800E+03  0.00000000000E+00 0.  1.
         12    1    3    3    0    0  0.99046120775E+01  0.33081673049E+02 -0.55814093011E+01  0.34980717001E+02  0.00000000000E+00 0. -1.
        -11    1    4    4    0    0 -0.26060413231E+02  0.80888733897E+01 -0.39683450328E+02  0.48159643276E+02  0.00000000000E+00 0.  1.
         11    1    4    4    0    0 -0.13729852853E+03 -0.16583596942E+03 -0.20553747701E+03  0.29765434508E+03  0.00000000000E+00 0. -1.
          1    1    1    2  501    0  0.92886270339E+02  0.10226081028E+03 -0.33346725388E+03  0.36095088578E+03  0.00000000000E+00 0. -1.
<scales pt_clust_5="13000.00000" pt_clust_6="13000.00000" pt_clust_7="13000.00000" pt_clust_8="13000.00000" pt_clust_9="157.16270"></scales>
<clustering>
<clus scale="   81.621">  5  6 -1 -1</clus>
<clus scale="   88.790">  7  8 -1 -1</clus>
<clus scale="  121.273">  1  5  2 -1</clus>
<clus scale="  157.163">  2  9  1 -1</clus>
<clus scale="  157.163">  2  5  1 -1</clus>
</clustering>
</event>
<event>
 9    2  0.1325014E-004  0.9221924E+02  0.7546771E-02  0.1302344E+00
          4   -1    0    0  502    0 -0.00000000000E+00  0.00000000000E+00  0.33623902765E+03  0.33623902765E+03  0.00000000000E+00 0. -1.
         21   -1    0    0  501  502  0.00000000000E+00 -0.00000000000E+00 -0.94053799640E+02  0.94053799640E+02  0.00000000000E+00 0.  1.
         23    2    1    2    0    0 -0.14686250994E+00  0.23567442270E+02  0.28369718753E+03  0.29815892379E+03  0.88652150127E+02 0.  0.
         24    2    1    2    0    0  0.66769051885E+01 -0.45488972307E+02 -0.52711934186E+02  0.10666560224E+03  0.80530584445E+02 0.  0.
        -13    1    4    4    0    0  0.65315018884E+00 -0.39531106732E+02 -0.73919353192E+02  0.83828430624E+02  0.00000000000E+00 0.  1.
         14    1    4    4    0    0  0.60237549996E+01 -0.59578655751E+01  0.21207419006E+02  0.22837171615E+02  0.00000000000E+00 0. -1.
        -11    1    3    3    0    0  0.31310622126E+02 -0.20613933933E+02  0.11401620937E+03  0.12002077040E+03  0.00000000000E+00 0.  1.
         11    1    3    3    0    0 -0.31457484636E+02  0.44181376203E+02  0.16968097816E+03  0.17813815339E+03  0.00000000000E+00 0. -1.
          3    1    1    2  501    0 -0.65300426785E+01  0.21921530037E+02  0.11199974674E+02  0.25468301263E+02  0.00000000000E+00 0. -1.
<scales pt_clust_5="13000.00000" pt_clust_6="13000.00000" pt_clust_7="13000.00000" pt_clust_8="13000.00000" pt_clust_9="22.87345"></scales>
<clustering>
<clus scale="   22.873">  2  9  1 -1</clus>
<clus scale="   80.531">  5  6 -1 -1</clus>
<clus scale="   84.441">  2  5  1 -1</clus>
<clus scale="   88.652">  7  8 -1 -1</clus>
<clus scale="   22.873">  2  5  1 -1</clus>
</clustering>
</event>
<event>
 9    2  0.1325014E-004  0.9199152E+02  0.7546771E-02  0.1304770E+00
         21   -1    0    0  501  502  0.00000000000E+00  0.00000000000E+00  0.14426320444E+03  0.14426320444E+03  0.00000000000E+00 0. -1.
          2   -1    0    0  502    0 -0.00000000000E+00 -0.00000000000E+00 -0.12265103181E+03  0.12265103181E+03  0.00000000000E+00 0. -1.
         23    2    1    2    0    0  0.90846669828E+01  0.15098541013E+02 -0.79279252204E+02  0.12189447203E+03  0.90898654375E+02 0.  0.
         24    2    1    2    0    0 -0.92632784189E+01  0.77990688149E+01  0.74523044584E+02  0.11009664988E+03  0.80130857592E+02 0.  0.
        -11    1    4    4    0    0 -0.26027956751E+02 -0.28597004874E+02  0.23612858427E+02  0.45307949672E+02  0.00000000000E+00 0.  1.
         12    1    4    4    0    0  0.16764678332E+02  0.36396073689E+02  0.50910186157E+02  0.64788700204E+02  0.00000000000E+00 0. -1.
        -13    1    3    3    0    0  0.40881056758E+02 -0.11907795541E+02 -0.65186234172E+02  0.77860782952E+02  0.00000000000E+00 0. -1.
         13    1    3    3    0    0 -0.31796389775E+02  0.27006336555E+02 -0.14093018032E+02  0.44033689081E+02  0.00000000000E+00 0.  1.
          1    1    1    2  501    0  0.17861143611E+00 -0.22897609828E+02  0.26368380251E+02  0.34923114336E+02  0.00000000000E+00 0. -1.
<scales pt_clust_5="13000.00000" pt_clust_6="13000.00000" pt_clust_7="13000.00000" pt_clust_8="13000.00000" pt_clust_9="22.89831"></scales>
<clustering>
<clus scale="   22.898">  1  9  2 -1</clus>
<clus scale="   80.131">  5  6 -1 -1</clus>
<clus scale="   81.368">  1  5  2 -1</clus>
<clus scale="   90.899">  7  8 -1 -1</clus>
<clus scale="   22.898">  1  5  2 -1</clus>
</clustering>
</event>
<event>
 9    2  0.1325014E-004  0.1563603E+03  0.7546771E-02  0.1205772E+00
         21   -1    0    0  501  502  0.00000000000E+00  0.00000000000E+00  0.18069982445E+03  0.18069982445E+03  0.00000000000E+00 0. -1.
         -1   -1    0    0    0  501 -0.00000000000E+00 -0.00000000000E+00 -0.28985947327E+03  0.28985947327E+03  0.00000000000E+00 0.  1.
         24    2    1    2    0    0  0.33445301491E+02  0.78455257019E+02 -0.41780205228E+02  0.12527771215E+03  0.81701310072E+02 0.  0.
         23    2    1    2    0    0 -0.68073609332E+02  0.89405765350E+02  0.29649079273E+02  0.14832733508E+03  0.92165738027E+02 0.  0.
        -11    1    3    3    0    0  0.22576644112E+02  0.91543733756E+02 -0.49619069286E+02  0.10654582153E+03  0.00000000000E+00 0.  1.
         12    1    3    3    0    0  0.10868657379E+02 -0.13088476736E+02  0.78388640576E+01  0.18731890620E+02  0.00000000000E+00 0. -1.
        -11    1    4    4    0    0  0.14790313453E+02  0.47139135209E+02 -0.36165200651E+01  0.49537164409E+02  0.00000000000E+00 0.  1.
         11    1    4    4    0    0 -0.82863922784E+02  0.42266630141E+02  0.33265599338E+02  0.98790170675E+02  0.00000000000E+00 0. -1.
         -2    1    1    2    0  502  0.34628307841E+02 -0.16786102237E+03 -0.97028522866E+02  0.19695425049E+03  0.00000000000E+00 0.  1.
<scales pt_clust_5="13000.00000" pt_clust_6="13000.00000" pt_clust_7="13000.00000" pt_clust_8="13000.00000" pt_clust_9="126.30930"></scales>
<clustering>
<clus scale="   81.701">  5  6 -1 -1</clus>
<clus scale="   92.166">  7  8 -1 -1</clus>
<clus scale="  118.106">  2  5  1 -1</clus>
<clus scale="  126.309">  1  9  2 -1</clus>
<clus scale="  126.309">  1  5  2 -1</clus>
</clustering>
</event>
<event>
 9    2  0.1325014E-004  0.1035354E+03  0.7546771E-02  0.1278023E+00
         -3   -1    0    0    0  501 -0.00000000000E+00  0.00000000000E+00  0.17257166324E+03  0.17257166324E+03  0.00000000000E+00 0.  1.
         21   -1    0    0  501  502  0.00000000000E+00 -0.00000000000E+00 -0.10232586894E+03  0.10232586894E+03  0.00000000000E+00 0. -1.
         24    2    1    2    0    0  0.25589461912E+01  0.47518044228E+02  0.10266843423E+03  0.14003536470E+03  0.82489897838E+02 0.  0.
         23    2    1    2    0    0 -0.26368140223E+02 -0.34683167025E+02 -0.18563069259E+02  0.10446974257E+03  0.93118949082E+02 0.  0.
        -13    1    3    3    0    0  0.23039728915E+02 -0.16009741760E+02  0.36631542901E+02  0.46141205825E+02  0.00000000000E+00 0.  1.
         14    1    3    3    0    0 -0.20480782724E+02  0.63527785989E+02  0.66036891331E+02  0.93894158872E+02  0.00000000000E+00 0. -1.
        -11    1    4    4    0    0 -0.15683807596E+02  0.19934113948E+02  0.23602775019E+02  0.34647391074E+02  0.00000000000E+00 0.  1.
         11    1    4    4    0    0 -0.10684332627E+02 -0.54617280972E+02 -0.42165844278E+02  0.69822351494E+02  0.00000000000E+00 0. -1.
         -4    1    1    2    0  502  0.23809194032E+02 -0.12834877204E+02 -0.13859570674E+02  0.30392424920E+02  0.00000000000E+00 0.  1.
<scales pt_clust_5="13000.00000" pt_clust_6="13000.00000" pt_clust_7="13000.00000" pt_clust_8="13000.00000" pt_clust_9="27.04832"></scales>
<clustering>
<clus scale="   27.048">  2  9  1 -1</clus>
<clus scale="   82.490">  5  6 -1 -1</clus>
<clus scale="   93.119">  7  8 -1 -1</clus>
<clus scale="   94.091">  1  5  2 -1</clus>
<clus scale="   27.048">  2  5  1 -1</clus>
</clustering>
</event>
<event>
 9    2  0.1325014E-004  0.1125941E+03  0.7546771E-02  0.1260102E+00
         -1   -1    0    0    0  501 -0.00000000000E+00  0.00000000000E+00  0.19974948140E+02  0.19974948140E+02  0.00000000000E+00 0.  1.
         21   -1    0    0  501  502  0.00000000000E+00 -0.00000000000E+00 -0.11302717533E+04  0.11302717533E+04  0.00000000000E+00 0. -1.
         23    2    1    2    0    0 -0.58274694101E+02  0.28374995374E+02 -0.18798194733E+03  0.22009605577E+03  0.94360907745E+02 0.  0.
         24    2    1    2    0    0  0.36617128245E+02 -0.34357091755E+02 -0.78585768895E+03  0.79185605223E+03  0.83321523813E+02 0.  0.
        -11    1    4    4    0    0 -0.15684113199E+02 -0.26961082227E+02 -0.12286026535E+03  0.12675778541E+03  0.00000000000E+00 0.  1.
         12    1    4    4    0    0  0.52301241444E+02 -0.73960095272E+01 -0.66299742360E+03  0.66509826681E+03  0.00000000000E+00 0. -1.
        -13    1    3    3    0    0 -0.70552769529E+02 -0.82123726141E+01 -0.89082052477E+02  0.11393308749E+03  0.00000000000E+00 0.  1.
         13    1    3    3    0    0  0.12278075428E+02  0.36587367988E+02 -0.98899894853E+02  0.10616296828E+03  0.00000000000E+00 0. -1.
         -2    1    1    2    0  502  0.21657565855E+02  0.59820963811E+01 -0.13645716887E+03  0.13829459343E+03  0.00000000000E+00 0.  1.
<scales pt_clust_5="13000.00000" pt_clust_6="13000.00000" pt_clust_7="13000.00000" pt_clust_8="13000.00000" pt_clust_9="22.46855"></scales>
<clustering>
<clus scale="   22.469">  2  9  1 -1</clus>
<clus scale="   83.322">  5  6 -1 -1</clus>
<clus scale="   94.361">  7  8 -1 -1</clus>
<clus scale="  103.518">  2  5  1 -1</clus>
<clus scale="   22.469">  2  5  1 -1</clus>
</clustering>
</event>
<event>
 9    2  0.1325014E-004  0.1935766E+03  0.7546771E-02  0.1156304E+00
          4   -1    0    0  502    0 -0.00000000000E+00  0.00000000000E+00  0.13193487515E+03  0.13193487515E+03  0.00000000000E+00 0. -1.
         21   -1    0    0  501  502  0.00000000000E+00 -0.00000000000E+00 -0.42315699486E+03  0.42315699486E+03  0.00000000000E+00 0. -1.
         23    2    1    2    0    0 -0.14483837794E+03  0.10448479453E+03 -0.27844704335E+02  0.20274823099E+03  0.91849276514E+02 0.  0.
         24    2    1    2    0    0  0.13840350106E+03 -0.76232447858E+02 -0.14211958054E+03  0.22767180885E+03  0.81667387355E+02 0.  0.
        -11    1    4    4    0    0  0.97011731549E+02 -0.46895686284E+02 -0.14030345424E+03  0.17690545702E+03  0.00000000000E+00 0.  1.
         12    1    4    4    0    0  0.41391769513E+02 -0.29336761574E+02 -0.18161262965E+01  0.50766351827E+02  0.00000000000E+00 0. -1.
        -13    1    3    3    0    0  0.59303310604E+01  0.33711794737E+02 -0.63525486844E+01  0.34813916839E+02  0.00000000000E+00 0. -1.
         13    1    3    3    0    0 -0.15076870900E+03  0.70772999793E+02 -0.21492155650E+02  0.16793431415E+03  0.00000000000E+00 0.  1.
          3    1    1    2  501    0  0.64348768807E+01 -0.28252346672E+02 -0.12125783483E+03  0.12467183018E+03  0.00000000000E+00 0. -1.
<scales pt_clust_5="13000.00000" pt_clust_6="13000.00000" pt_clust_7="13000.00000" pt_clust_8="13000.00000" pt_clust_9="28.97590"></scales>
<clustering>
<clus scale="   28.976">  2  9  1 -1</clus>
<clus scale="   81.667">  5  6 -1 -1</clus>
<clus scale="   91.849">  7  8 -1 -1</clus>
<clus scale="  188.958">  2  5  1 -1</clus>
<clus scale="   28.976">  2  5  1 -1</clus>
</clustering>
</event>
<event>
 9    2  0.1325014E-004  0.2179916E+03  0.7546771E-02  0.1147028E+00
          2   -1    0    0  502    0 -0.00000000000E+00  0.00000000000E+00  0.14991148345E+04  0.14991148345E+04  0.00000000000E+00 0. -1.
         21   -1    0    0  501  502  0.00000000000E+00 -0.00000000000E+00 -0.73605025826E+02  0.73605025826E+02  0.00000000000E+00 0. -1.
         24    2    1    2    0    0  0.81655591884E+02  0.11850667710E+03  0.43525483489E+03  0.46538501196E+03  0.80155909675E+02 0.  0.
         23    2    1    2    0    0 -0.46697208113E+02 -0.28690979457E+03  0.76768162678E+03  0.82605101776E+03  0.92343621187E+02 0.  0.
        -13    1    3    3    0    0  0.33279345489E+01  0.47569197907E+02  0.66791076559E+02  0.82066751159E+02  0.00000000000E+00 0.  1.
         14    1    3    3    0    0  0.78327657336E+02  0.70937479195E+02  0.36846375833E+03  0.38331826080E+03  0.00000000000E+00 0. -1.
        -13    1    4    4    0    0 -0.10422048043E+01 -0.23496209126E+03  0.56563427173E+03  0.61249522437E+03  0.00000000000E+00 0. -1.
         13    1    4    4    0    0 -0.45655003309E+02 -0.51947703316E+02  0.20204735505E+03  0.21355579339E+03  0.00000000000E+00 0.  1.
          1    1    1    2  501    0 -0.34958383772E+02  0.16840311747E+03  0.22257334702E+03  0.28128383063E+03  0.00000000000E+00 0. -1.
<scales pt_clust_5="13000.00000" pt_clust_6="13000.00000" pt_clust_7="13000.00000" pt_clust_8="13000.00000" pt_clust_9="197.46639"></scales>
<clustering>
<clus scale="   80.156">  5  6 -1 -1</clus>
<clus scale="   92.344">  7  8 -1 -1</clus>
<clus scale="  164.731">  1  5  2 -1</clus>
<clus scale="  197.466">  2  9  1 -1</clus>
<clus scale="  197.466">  2  5  1 -1</clus>
</clustering>
</event>
<event>
 9    2  0.1325014E-004  0.2131454E+03  0.7546771E-02  0.1139970E+00
         21   -1    0    0  501  502  0.00000000000E+00  0.00000000000E+00  0.35514756298E+02  0.35514756298E+02  0.00000000000E+00 0. -1.
          2   -1    0    0  502    0 -0.00000000000E+00 -0.00000000000E+00 -0.15644995899E+04  0.15644995899E+04  0.00000000000E+00 0. -1.
         23    2    1    2    0    0 -0.75948066190E+02  0.19075115900E+03 -0.94560505514E+03  0.97192682831E+03  0.91207049376E+02 0.  0.
         24    2    1    2    0    0  0.62265283512E+02 -0.16103374946E+03 -0.41553998659E+03  0.45708886671E+03  0.80298926618E+02 0.  0.
        -13    1    4    4    0    0 -0.14242213779E+02 -0.70296851231E+02 -0.15634450807E+03  0.17201189828E+03  0.00000000000E+00 0.  1.
         14    1    4    4    0    0  0.76507497291E+02 -0.90736898229E+02 -0.25919547853E+03  0.28507696843E+03  0.00000000000E+00 0. -1.
        -11    1    3    3    0    0 -0.28742968593E+02  0.17035217382E+02 -0.64714661016E+02  0.72830929043E+02  0.00000000000E+00 0.  1.
         11    1    3    3    0    0 -0.47205097597E+02  0.17371594162E+03 -0.88089039412E+03  0.89909589926E+03  0.00000000000E+00 0. -1.
          1    1    1    2  501    0  0.13682782678E+02 -0.29717409542E+02 -0.16783979183E+03  0.17099865115E+03  0.00000000000E+00 0. -1.
<scales pt_clust_5="13000.00000" pt_clust_6="13000.00000" pt_clust_7="13000.00000" pt_clust_8="13000.00000" pt_clust_9="32.71611"></scales>
<clustering>
<clus scale="   32.716">  1  9  2 -1</clus>
<clus scale="   80.299">  5  6 -1 -1</clus>
<clus scale="   91.207">  7  8 -1 -1</clus>
<clus scale="  208.711">  1  5  2 -1</clus>
<clus scale="   32.716">  1  5  2 -1</clus>
</clustering>
</event>
<event>
 9    2  0.1325014E-004  0.9799784E+02  0.7546771E-02  0.1292743E+00
          2   -1    0    0  502    0 -0.00000000000E+00  0.00000000000E+00  0.42811210815E+02  0.42811210815E+02  0.00000000000E+00 0. -1.
         21   -1    0    0  501  502  0.00000000000E+00 -0.00000000000E+00 -0.26933538224E+03  0.26933538224E+03  0.00000000000E+00 0.  1.
         24    2    1    2    0    0  0.32622252209E+02  0.25564521084E+02 -0.72356274124E+02  0.11317705145E+03  0.76523581280E+02 0.  0.
         23    2    1    2    0    0 -0.61678806865E+01 -0.30143793531E+02 -0.10339273972E+03  0.14153331492E+03  0.91623848231E+02 0.  0.
        -11    1    3    3    0    0  0.10443329944E+02 -0.27516186056E+02 -0.26611652202E+02  0.39678503856E+02  0.00000000000E+00 0.  1.
         12    1    3    3    0    0  0.22178922265E+02  0.53080707140E+02 -0.45744621922E+02  0.73498547592E+02  0.00000000000E+00 0. -1.
        -11    1    4    4    0    0 -0.52457480807E+01 -0.59141800058E+02 -0.39362529445E+02  0.71236782012E+02  0.00000000000E+00 0. -1.
         11    1    4    4    0    0 -0.92213260577E+00  0.28998006527E+02 -0.64030210271E+02  0.70296532905E+02  0.00000000000E+00 0.  1.
          1    1    1    2  501    0 -0.26454371522E+02  0.45792724468E+01 -0.50775157586E+02  0.57436226692E+02  0.00000000000E+00 0. -1.
<scales pt_clust_5="13000.00000" pt_clust_6="13000.00000" pt_clust_7="13000.00000" pt_clust_8="13000.00000" pt_clust_9="26.84778"></scales>
<clustering>
<clus scale="   26.848">  2  9  1 -1</clus>
<clus scale="   76.524">  5  6 -1 -1</clus>
<clus scale="   84.051">  1  5  2 -1</clus>
<clus scale="   91.624">  7  8 -1 -1</clus>
<clus scale="   26.848">  2  5  1 -1</clus>
</clustering>
</event>
<event>
 9    2  0.1325014E-004  0.9242593E+02  0.7546771E-02  0.1302611E+00
          2   -1    0    0  502    0 -0.00000000000E+00  0.00000000000E+00  0.37771791058E+03  0.37771791058E+03  0.00000000000E+00 0. -1.
         21   -1    0    0  501  502  0.00000000000E+00 -0.00000000000E+00 -0.19757161845E+03  0.19757161845E+03  0.00000000000E+00 0. -1.
         23    2    1    2    0    0 -0.12724654981E+02  0.31421571595E+02  0.26901015679E+03  0.28563196947E+03  0.89832764183E+02 0.  0.
         24    2    1    2    0    0  0.22939963368E+02  0.24295191332E+02  0.75771837952E+02  0.11554947597E+03  0.80584190318E+02 0.  0.
        -11    1    4    4    0    0  0.23344885048E+02 -0.12480715291E+02 -0.48708437802E+01  0.26916110997E+02  0.00000000000E+00 0.  1.
         12    1    4    4    0    0 -0.40492167968E+00  0.36775906623E+02  0.80642681733E+02  0.88633364974E+02  0.00000000000E+00 0. -1.
        -13    1    3    3    0    0  0.31044676360E+02  0.33145157856E+02  0.18938195704E+03  0.19475086411E+03  0.00000000000E+00 0. -1.
         13    1    3    3    0    0 -0.43769331342E+02 -0.17235862614E+01  0.79628199748E+02  0.90881105356E+02  0.00000000000E+00 0.  1.
          1    1    1    2  501    0 -0.10215308387E+02 -0.55716762927E+02 -0.16463570262E+03  0.17410808359E+03  0.00000000000E+00 0. -1.
<scales pt_clust_5="13000.00000" pt_clust_6="13000.00000" pt_clust_7="13000.00000" pt_clust_8="13000.00000" pt_clust_9="56.64548"></scales>
<clustering>
<clus scale="   56.645">  2  9  1 -1</clus>
<clus scale="   80.584">  5  6 -1 -1</clus>
<clus scale="   83.465">  2  5  1 -1</clus>
<clus scale="   89.833">  7  8 -1 -1</clus>
<clus scale="   56.645">  2  5  1 -1</clus>
</clustering>
</event>
<event>
 9    2  0.1325014E-004  0.1416479E+03  0.7546771E-02  0.1213461E+00
         21   -1    0    0  501  502  0.00000000000E+00  0.00000000000E+00  0.15167030851E+03  0.15167030851E+03  0.00000000000E+00 0.  1.
         -1   -1    0    0    0  501 -0.00000000000E+00 -0.00000000000E+00 -0.27300724665E+03  0.27300724665E+03  0.00000000000E+00 0.  1.
         24    2    1    2    0    0  0.39511927187E+02 -0.97367129591E+02 -0.11227082661E+03  0.17345412143E+03  0.80249881104E+02 0.  0.
         23    2    1    2    0    0 -0.10928496342E+03  0.77947261007E+02  0.35511815735E+02  0.16617874266E+03  0.91297901001E+02 0.  0.
        -11    1    3    3    0    0 -0.16173128551E+02 -0.59149715075E+02 -0.72965809968E+02  0.95311427987E+02  0.00000000000E+00 0.  1.
         12    1    3    3    0    0  0.55685055738E+02 -0.38217414517E+02 -0.39305016646E+02  0.78142693442E+02  0.00000000000E+00 0. -1.
        -13    1    4    4    0    0 -0.43855655481E+02  0.31495287175E+02  0.61495130233E+02  0.81834727801E+02  0.00000000000E+00 0. -1.
         13    1    4    4    0    0 -0.65429307937E+02  0.46451973832E+02 -0.25983314498E+02  0.84344014858E+02  0.00000000000E+00 0.  1.
         -2    1    1    2    0  502  0.69773036231E+02  0.19419868585E+02 -0.44577927256E+02  0.85044691070E+02  0.00000000000E+00 0.  1.
<scales pt_clust_5="13000.00000" pt_clust_6="13000.00000" pt_clust_7="13000.00000" pt_clust_8="13000.00000" pt_clust_9="72.42522"></scales>
<clustering>
<clus scale="   72.425">  1  9  2 -1</clus>
<clus scale="   80.250">  5  6 -1 -1</clus>
<clus scale="   91.298">  7  8 -1 -1</clus>
<clus scale="  134.792">  2  5  1 -1</clus>
<clus scale="   72.425">  1  5  2 -1</clus>
</clustering>
</event>
<event>
 9    2  0.1325014E-004  0.9920257E+02  0.7546771E-02  0.1288545E+00
          2   -1    0    0  502    0 -0.00000000000E+00  0.00000000000E+00  0.38983028753E+03  0.38983028753E+03  0.00000000000E+00 0. -1.
         21   -1    0    0  501  502  0.00000000000E+00 -0.00000000000E+00 -0.35625256343E+02  0.35625256343E+02  0.00000000000E+00 0. -1.
         24    2    1    2    0    0 -0.25900169841E+02 -0.24334325801E+01  0.17791431782E+03  0.19662781690E+03  0.79575457904E+02 0.  0.
         23    2    1    2    0    0  0.60085117527E+02  0.92778804959E+01  0.12451615171E+03  0.16640928138E+03  0.92149207694E+02 0.  0.
        -11    1    3    3    0    0 -0.12910942581E+02 -0.21554016799E+02  0.98588448952E+01  0.26990088943E+02  0.00000000000E+00 0.  1.
         12    1    3    3    0    0 -0.12989227260E+02  0.19120584219E+02  0.16805547292E+03  0.16963772795E+03  0.00000000000E+00 0. -1.
        -13    1    4    4    0    0  0.82151680963E+02 -0.77483392194E+01  0.94064054399E+02  0.12512786171E+03  0.00000000000E+00 0. -1.
         13    1    4    4    0    0 -0.22066563436E+02  0.17026219715E+02  0.30452097315E+02  0.41281419677E+02  0.00000000000E+00 0.  1.
          1    1    1    2  501    0 -0.34184947686E+02 -0.68444479158E+01  0.51774561657E+02  0.62418445594E+02  0.00000000000E+00 0. -1.
<scales pt_clust_5="13000.00000" pt_clust_6="13000.00000" pt_clust_7="13000.00000" pt_clust_8="13000.00000" pt_clust_9="34.86341"></scales>
<clustering>
<clus scale="   34.863">  2  9  1 -1</clus>
<clus scale="   79.575">  5  6 -1 -1</clus>
<clus scale="   87.647">  1  5  2 -1</clus>
<clus scale="   92.149">  7  8 -1 -1</clus>
<clus scale="   34.863">  2  5  1 -1</clus>
</clustering>
</event>
<event>
 9    2  0.1325014E-004  0.2278893E+03  0.7546771E-02  0.1128794E+00
         21   -1    0    0  501  502  0.00000000000E+00  0.00000000000E+00  0.28306014590E+03  0.28306014590E+03  0.00000000000E+00 0. -1.
          2   -1    0    0  502    0 -0.00000000000E+00 -0.00000000000E+00 -0.51140657351E+03  0.51140657351E+03  0.00000000000E+00 0. -1.
         23    2    1    2    0    0  0.18103563248E+03  0.16034355805E+03  0.83616964221E+01  0.25878600929E+03  0.91740524306E+02 0.  0.
         24    2    1    2    0    0 -0.84453121346E+02 -0.15896136677E+03  0.73262577559E+02  0.21100867906E+03  0.82196177132E+02 0.  0.
        -13    1    4    4    0    0  0.14216131418E+02 -0.27341607834E+02  0.24697304807E+02  0.39492009017E+02  0.00000000000E+00 0.  1.
         14    1    4    4    0    0 -0.98669252764E+02 -0.13161975894E+03  0.48565272752E+02  0.17151667004E+03  0.00000000000E+00 0. -1.
        -13    1    3    3    0    0  0.47885445968E+02 -0.50574808318E+00  0.14024829578E+02  0.49899574761E+02  0.00000000000E+00 0.  1.
         13    1    3    3    0    0  0.13315018652E+03  0.16084930613E+03 -0.56631331563E+01  0.20888643453E+03  0.00000000000E+00 0. -1.
          1    1    1    2  501    0 -0.96582511137E+02 -0.13821912750E+01 -0.30997070159E+03  0.32467203106E+03  0.00000000000E+00 0. -1.
<scales pt_clust_5="13000.00000" pt_clust_6="13000.00000" pt_clust_7="13000.00000" pt_clust_8="13000.00000" pt_clust_9="96.59245"></scales>
<clustering>
<clus scale="   82.196">  5  6 -1 -1</clus>
<clus scale="   91.741">  7  8 -1 -1</clus>
<clus scale="   96.592">  1  9  2 -1</clus>
<clus scale="  224.217">  1  5  2 -1</clus>
<clus scale="   96.592">  1  5  2 -1</clus>
</clustering>
</event>
<event>
 9    2  0.1325014E-004  0.9066845E+02  0.7546771E-02  0.1304889E+00
         21   -1    0    0  501  502  0.00000000000E+00  0.00000000000E+00  0.47205607187E+03  0.47205607187E+03  0.00000000000E+00 0. -1.
          2   -1    0    0  502    0 -0.00000000000E+00 -0.00000000000E+00 -0.71394977564E+02  0.71394977564E+02  0.00000000000E+00 0. -1.
         24    2    1    2    0    0 -0.11384982881E+02  0.11287193268E+02 -0.20307814271E+02  0.85776825849E+02  0.81781648096E+02 0.  0.
         23    2    1    2    0    0  0.41903044735E+02 -0.31433701295E+02  0.13498142381E+03  0.16935829387E+03  0.87853879782E+02 0.  0.
        -13    1    3    3    0    0 -0.30421704096E+02  0.11890673617E+02  0.21998934633E+02  0.39380468816E+02  0.00000000000E+00 0.  1.
         14    1    3    3    0    0  0.19036721215E+02 -0.60348034956E+00 -0.42306748904E+02  0.46396357034E+02  0.00000000000E+00 0. -1.
        -11    1    4    4    0    0  0.32169454311E+02  0.51044639818E+01  0.12647360304E+03  0.13060054214E+03  0.00000000000E+00 0. -1.
         11    1    4    4    0    0  0.97335904237E+01 -0.36538165277E+02  0.85078207732E+01  0.38757751724E+02  0.00000000000E+00 0.  1.
          1    1    1    2  501    0 -0.30518061854E+02  0.20146508028E+02  0.28598748477E+03  0.28831592972E+03  0.00000000000E+00 0. -1.
<scales pt_clust_5="13000.00000" pt_clust_6="13000.00000" pt_clust_7="13000.00000" pt_clust_8="13000.00000" pt_clust_9="36.56821"></scales>
<clustering>
<clus scale="   36.568">  1  9  2 -1</clus>
<clus scale="   81.782">  5  6 -1 -1</clus>
<clus scale="   84.798">  2  5  1 -1</clus>
<clus scale="   87.854">  7  8 -1 -1</clus>
<clus scale="   36.568">  1  5  2 -1</clus>
</clustering>
</event>
<event>
 9    2  0.1325014E-004  0.1334405E+03  0.7546771E-02  0.1225181E+00
         21   -1    0    0  501  502  0.00000000000E+00  0.00000000000E+00  0.12986911417E+03  0.12986911417E+03  0.00000000000E+00 0. -1.
          4   -1    0    0  502    0 -0.00000000000E+00 -0.00000000000E+00 -0.25626451620E+03  0.25626451620E+03  0.00000000000E+00 0. -1.
         24    2    1    2    0    0 -0.42590935860E+02 -0.40431139327E+02  0.45893227343E+01  0.99569133942E+02  0.80276308498E+02 0.  0.
         23    2    1    2    0    0  0.77458458009E+02  0.11712014372E+03 -0.65794490330E+02  0.18004353999E+03  0.91486723370E+02 0.  0.
        -13    1    3    3    0    0 -0.17892224411E+02 -0.44941159246E+02  0.35313917159E+02  0.59890835975E+02  0.00000000000E+00 0.  1.
         14    1    3    3    0    0 -0.24698711450E+02  0.45100199194E+01 -0.30724594425E+02  0.39678297966E+02  0.00000000000E+00 0. -1.
        -11    1    4    4    0    0 -0.20909527857E+02  0.26219515266E+02 -0.10502049505E+02  0.35142059982E+02  0.00000000000E+00 0.  1.
         11    1    4    4    0    0  0.98367985866E+02  0.90900628454E+02 -0.55292440825E+02  0.14490148001E+03  0.00000000000E+00 0. -1.
          3    1    1    2  501    0 -0.34867522149E+02 -0.76689004393E+02 -0.65190234435E+02  0.10652095644E+03  0.00000000000E+00 0. -1.
<scales pt_clust_5="13000.00000" pt_clust_6="13000.00000" pt_clust_7="13000.00000" pt_clust_8="13000.00000" pt_clust_9="84.24342"></scales>
<clustering>
<clus scale="   80.276">  5  6 -1 -1</clus>
<clus scale="   84.243">  1  9  2 -1</clus>
<clus scale="   91.487">  7  8 -1 -1</clus>
<clus scale="  126.019">  2  5  1 -1</clus>
<clus scale="   84.243">  1  5  2 -1</clus>
</clustering>
</event>
<event>
 9    2  0.1325014E-004  0.1700580E+03  0.7546771E-02  0.1178560E+00
          2   -1    0    0  502    0 -0.00000000000E+00  0.00000000000E+00  0.20237872558E+04  0.20237872558E+04  0.00000000000E+00 0. -1.
         21   -1    0    0  501  502  0.00000000000E+00 -0.00000000000E+00 -0.36968476071E+02  0.36968476071E+02  0.00000000000E+00 0.  1.
         24    2    1    2    0    0 -0.46752143228E+02  0.12377615235E+03  0.11602481679E+04  0.11704670202E+04  0.79441397223E+02 0.  0.
         23    2    1    2    0    0  0.11911885462E+03 -0.15473916578E+03  0.75285401651E+03  0.78244722820E+03  0.85445794441E+02 0.  0.
        -11    1    3    3    0    0 -0.39452388996E+01  0.83759965171E+02  0.44564110466E+03  0.45346145463E+03  0.00000000000E+00 0.  1.
         12    1    3    3    0    0 -0.42806904328E+02  0.40016187181E+02  0.71460706323E+03  0.71700556561E+03  0.00000000000E+00 0. -1.
        -13    1    4    4    0    0  0.54292244308E+02 -0.92477861605E+02  0.25640113238E+03  0.27792326884E+03  0.00000000000E+00 0.  1.
         13    1    4    4    0    0  0.64826610316E+02 -0.62261304180E+02  0.49645288413E+03  0.50452395936E+03  0.00000000000E+00 0. -1.
          1    1    1    2  501    0 -0.72366711397E+02  0.30963013432E+02  0.73716595294E+02  0.10784148340E+03  0.00000000000E+00 0. -1.
<scales pt_clust_5="13000.00000" pt_clust_6="13000.00000" pt_clust_7="13000.00000" pt_clust_8="13000.00000" pt_clust_9="78.71245"></scales>
<clustering>
<clus scale="   78.712">  2  9  1 -1</clus>
<clus scale="   79.441">  5  6 -1 -1</clus>
<clus scale="   85.446">  7  8 -1 -1</clus>
<clus scale="  167.122">  1  5  2 -1</clus>
<clus scale="   78.712">  2  5  1 -1</clus>
</clustering>
</event>
<event>
 9    2  0.1325014E-004  0.1275528E+03  0.7546771E-02  0.1245683E+00
          2   -1    0    0  502    0 -0.00000000000E+00  0.00000000000E+00  0.47180474694E+03  0.47180474694E+03  0.00000000000E+00 0. -1.
         21   -1    0    0  501  502  0.00000000000E+00 -0.00000000000E+00 -0.65478873844E+02  0.65478873844E+02  0.00000000000E+00 0.  1.
         23    2    1    2    0    0  0.29636705138E+01  0.20602357320E+02  0.20099134794E+03  0.22224515168E+03  0.92531859533E+02 0.  0.
         24    2    1    2    0    0 -0.83978523144E+02  0.41758335609E+02  0.64463913280E+02  0.14097873321E+03  0.83206106504E+02 0.  0.
        -11    1    4    4    0    0 -0.76329247184E+02  0.37362189299E+01  0.14592136872E+02  0.77801309539E+02  0.00000000000E+00 0.  1.
         12    1    4    4    0    0 -0.76492759604E+01  0.38022116680E+02  0.49871776407E+02  0.63177423670E+02  0.00000000000E+00 0. -1.
        -13    1    3    3    0    0  0.79029408197E+01  0.56459542035E+02  0.10210590901E+03  0.11694337526E+03  0.00000000000E+00 0.  1.
         13    1    3    3    0    0 -0.49392703059E+01 -0.35857184715E+02  0.98885438922E+02  0.10530177642E+03  0.00000000000E+00 0. -1.
          1    1    1    2  501    0  0.81014852630E+02 -0.62360692930E+02  0.14087061188E+03  0.17405973590E+03  0.00000000000E+00 0. -1.
<scales pt_clust_5="13000.00000" pt_clust_6="13000.00000" pt_clust_7="13000.00000" pt_clust_8="13000.00000" pt_clust_9="96.67717"></scales>
<clustering>
<clus scale="   83.206">  5  6 -1 -1</clus>
<clus scale="   92.532">  7  8 -1 -1</clus>
<clus scale="   94.844">  1  7  2 -1</clus>
<clus scale="   96.677">  2  9  1 -1</clus>
<clus scale="   96.677">  2  5  1 -1</clus>
</clustering>
</event>
<event>
 9    2  0.1342216E-004  0.1426892E+03  0.7546771E-02  0.1224629E+00
         21   -1    0    0  501  502  0.00000000000E+00  0.00000000000E+00  0.23235849626E+03  0.23235849626E+03  0.00000000000E+00 0.  1.
         -1   -1    0    0    0  501 -0.00000000000E+00 -0.00000000000E+00 -0.39130916086E+03  0.39130916086E+03  0.00000000000E+00 0.  1.
         23    2    1    2    0    0 -0.49116529917E+02  0.74614516984E+01  0.12217816148E+03  0.16061632700E+03  0.91662394598E+02 0.  0.
         24    2    1    2    0    0  0.14428395622E+03  0.50917749496E+02 -0.30295752721E+03  0.34929078180E+03  0.82524600666E+02 0.  0.
        -13    1    4    4    0    0  0.13172429732E+03  0.32075426350E+02 -0.29605024203E+03  0.32561613793E+03  0.00000000000E+00 0.  1.
         14    1    4    4    0    0  0.12559658909E+02  0.18842323146E+02 -0.69072851889E+01  0.23674643864E+02  0.00000000000E+00 0. -1.
        -11    1    3    3    0    0 -0.66421695914E+02  0.31540814318E+02  0.96976771613E+02  0.12170110471E+03  0.00000000000E+00 0. -1.
         11    1    3    3    0    0  0.17305165997E+02 -0.24079362619E+02  0.25201389865E+02  0.38915222285E+02  0.00000000000E+00 0.  1.
         -2    1    1    2    0  502 -0.95167426308E+02 -0.58379201194E+02  0.21828701138E+02  0.11376054833E+03  0.00000000000E+00 0.  1.
<scales pt_clust_5="13000.00000" pt_clust_6="13000.00000" pt_clust_7="13000.00000" pt_clust_8="13000.00000" pt_clust_9="116.40398"></scales>
<clustering>
<clus scale="   82.525">  5  6 -1 -1</clus>
<clus scale="   91.662">  7  8 -1 -1</clus>
<clus scale="  104.260">  2  7  1 -1</clus>
<clus scale="  116.404">  1  9  2 -1</clus>
<clus scale="  116.404">  1  5  2 -1</clus>
</clustering>
</event>
<event>
 9    2  0.1325014E-004  0.1483502E+03  0.7546771E-02  0.1205805E+00
         21   -1    0    0  501  502  0.00000000000E+00  0.00000000000E+00  0.87834805321E+02  0.87834805321E+02  0.00000000000E+00 0.  1.
          2   -1    0    0  502    0 -0.00000000000E+00 -0.00000000000E+00 -0.31179857229E+03  0.31179857229E+03  0.00000000000E+00 0. -1.
         23    2    1    2    0    0 -0.93196484465E+02  0.33259826444E+02 -0.79831738303E+02  0.15852333121E+03  0.94682307352E+02 0.  0.
         24    2    1    2    0    0  0.12541385223E+03 -0.38993651653E+02 -0.88175225495E+02  0.17628721587E+03  0.77802139356E+02 0.  0.
        -13    1    4    4    0    0  0.89479621945E+01 -0.20821402831E+02  0.81258390045E+01  0.24075425288E+02  0.00000000000E+00 0.  1.
         14    1    4    4    0    0  0.11646589003E+03 -0.18172248822E+02 -0.96301064500E+02  0.15221179058E+03  0.00000000000E+00 0. -1.
        -11    1    3    3    0    0 -0.85813730192E+02  0.62141756414E+02 -0.53236703339E+02  0.11857377772E+03  0.00000000000E+00 0.  1.
         11    1    3    3    0    0 -0.73827542727E+01 -0.28881929970E+02 -0.26595034965E+02  0.39949553492E+02  0.00000000000E+00 0. -1.
          1    1    1    2  501    0 -0.32217367762E+02  0.57338252096E+01 -0.55956803170E+02  0.64822830531E+02  0.00000000000E+00 0. -1.
<scales pt_clust_5="13000.00000" pt_clust_6="13000.00000" pt_clust_7="13000.00000" pt_clust_8="13000.00000" pt_clust_9="32.72364"></scales>
<clustering>
<clus scale="   32.724">  1  9  2 -1</clus>
<clus scale="   77.802">  5  6 -1 -1</clus>
<clus scale="   94.682">  7  8 -1 -1</clus>
<clus scale="  138.189">  1  5  2 -1</clus>
<clus scale="   32.724">  1  5  2 -1</clus>
</clustering>
</event>
<event>
 9    2  0.1325014E-004  0.1636188E+03  0.7546771E-02  0.1185651E+00
          2   -1    0    0  502    0 -0.00000000000E+00  0.00000000000E+00  0.27490969170E+03  0.27490969170E+03  0.00000000000E+00 0. -1.
         21   -1    0    0  501  502  0.00000000000E+00 -0.00000000000E+00 -0.36243023608E+03  0.36243023608E+03  0.00000000000E+00 0.  1.
         24    2    1    2    0    0  0.12108344845E+03  0.70054760590E+02  0.22478967851E+03  0.27626543595E+03  0.78888025484E+02 0.  0.
         23    2    1    2    0    0 -0.12429110288E+03 -0.50223803692E+02 -0.25783888406E+03  0.30301691133E+03  0.85835014463E+02 0.  0.
        -11    1    3    3    0    0  0.14619320422E+02  0.46927098170E+02  0.93734149734E+02  0.10583934948E+03  0.00000000000E+00 0.  1.
         12    1    3    3    0    0  0.10646412802E+03  0.23127662420E+02  0.13105552878E+03  0.17042608647E+03  0.00000000000E+00 0. -1.
        -11    1    4    4    0    0 -0.98090564851E+02 -0.68234977432E+02 -0.15709011339E+03  0.19737039997E+03  0.00000000000E+00 0.  1.
         11    1    4    4    0    0 -0.26200538027E+02  0.18011173740E+02 -0.10074877066E+03  0.10564651136E+03  0.00000000000E+00 0. -1.
          1    1    1    2  501    0  0.32076544335E+01 -0.19830956898E+02 -0.54471338842E+02  0.58057580501E+02  0.00000000000E+00 0. -1.
<scales pt_clust_5="13000.00000" pt_clust_6="13000.00000" pt_clust_7="13000.00000" pt_clust_8="13000.00000" pt_clust_9="20.08870"></scales>
<clustering>
<clus scale="   20.089">  2  9  1 -1</clus>
<clus scale="   78.888">  5  6 -1 -1</clus>
<clus scale="   85.835">  7  8 -1 -1</clus>
<clus scale="  160.084">  1  5  2 -1</clus>
<clus scale="   20.089">  2  5  1 -1</clus>
</clustering>
</event>
<event>
 9    2  0.1325014E-004  0.1563419E+03  0.7546771E-02  0.1205310E+00
          2   -1    0    0  502    0 -0.00000000000E+00  0.00000000000E+00  0.50163707203E+02  0.50163707203E+02  0.00000000000E+00 0. -1.
         21   -1    0    0  501  502  0.00000000000E+00 -0.00000000000E+00 -0.10104409021E+04  0.10104409021E+04  0.00000000000E+00 0. -1.
         24    2    1    2    0    0 -0.24183648519E+01  0.88300638285E+02 -0.48560979208E+03  0.50005541471E+03  0.80222792298E+02 0.  0.
         23    2    1    2    0    0 -0.12442433436E+03 -0.46410470378E+02 -0.22107773981E+03  0.27392823638E+03  0.92336151658E+02 0.  0.
        -11    1    3    3    0    0 -0.31977380674E+02  0.70195848591E+01 -0.12449505777E+03  0.12872780141E+03  0.00000000000E+00 0.  1.
         12    1    3    3    0    0  0.29559015822E+02  0.81281053426E+02 -0.36111473431E+03  0.37132761330E+03  0.00000000000E+00 0. -1.
        -11    1    4    4    0    0 -0.57409608243E+02 -0.66437299053E+01 -0.17292205222E+03  0.18232399296E+03  0.00000000000E+00 0.  1.
         11    1    4    4    0    0 -0.67014726114E+02 -0.39766740473E+02 -0.48155687591E+02  0.91604243414E+02  0.00000000000E+00 0. -1.
          1    1    1    2  501    0  0.12684269921E+03 -0.41890167907E+02 -0.25358966305E+03  0.28662095826E+03  0.00000000000E+00 0. -1.
<scales pt_clust_5="13000.00000" pt_clust_6="13000.00000" pt_clust_7="13000.00000" pt_clust_8="13000.00000" pt_clust_9="126.16194"></scales>
<clustering>
<clus scale="   80.223">  5  6 -1 -1</clus>
<clus scale="   92.336">  7  8 -1 -1</clus>
<clus scale="  119.325">  1  5  2 -1</clus>
<clus scale="  126.162">  2  9  1 -1</clus>
<clus scale="  126.162">  2  5  1 -1</clus>
</clustering>
</event>
<event>
 9    2  0.1325014E-004  0.4272014E+03  0.7546771E-02  0.1034748E+00
          4   -1    0    0  502    0 -0.00000000000E+00  0.00000000000E+00  0.82242605681E+03  0.82242605681E+03  0.00000000000E+00 0. -1.
         21   -1    0    0  501  502  0.00000000000E+00 -0.00000000000E+00 -0.21051760951E+03  0.21051760951E+03  0.00000000000E+00 0. -1.
         24    2    1    2    0    0  0.25645843893E+02 -0.93741382188E+02  0.26787325629E+02  0.12846484974E+03  0.79627261424E+02 0.  0.
         23    2    1    2    0    0  0.10247614181E+03 -0.26233359411E+03  0.16729711482E+03  0.34075766860E+03  0.93846629352E+02 0.  0.
        -13    1    3    3    0    0  0.37163722483E+02 -0.66920147573E+01  0.10049047656E+02  0.39075678997E+02  0.00000000000E+00 0.  1.
         14    1    3    3    0    0 -0.11517878590E+02 -0.87049367430E+02  0.16738277973E+02  0.89389170746E+02  0.00000000000E+00 0. -1.
        -13    1    4    4    0    0  0.11077803010E+03 -0.22489136867E+03  0.16904847738E+03  0.30236614784E+03  0.00000000000E+00 0. -1.
         13    1    4    4    0    0 -0.83018882913E+01 -0.37442225445E+02 -0.17513625581E+01  0.38391520760E+02  0.00000000000E+00 0.  1.
          3    1    1    2  501    0 -0.12812198570E+03  0.35607497630E+03  0.41782400686E+03  0.56372114798E+03  0.00000000000E+00 0. -1.
<scales pt_clust_5="13000.00000" pt_clust_6="13000.00000" pt_clust_7="13000.00000" pt_clust_8="13000.00000" pt_clust_9="378.42407"></scales>
<clustering>
<clus scale="   79.627">  5  6 -1 -1</clus>
<clus scale="   93.847">  7  8 -1 -1</clus>
<clus scale="  103.883">  5  7 -1 -1</clus>
<clus scale="  378.424">  2  9  1 -1</clus>
<clus scale="  378.424">  2  5  1 -1</clus>
</clustering>
</event>
<event>
 9    2  0.1325014E-004  0.9684951E+02  0.7546771E-02  0.1295338E+00
         21   -1    0    0  501  502  0.00000000000E+00  0.00000000000E+00  0.82084691210E+03  0.82084691210E+03  0.00000000000E+00 0. -1.
          2   -1    0    0  502    0 -0.00000000000E+00 -0.00000000000E+00 -0.21793880486E+02  0.21793880486E+02  0.00000000000E+00 0. -1.
         23    2    1    2    0    0 -0.59823419704E+01  0.18390631333E+02  0.19097022591E+03  0.21353320751E+03  0.93556398968E+02 0.  0.
         24    2    1    2    0    0 -0.49623778050E+02 -0.31979081704E+02  0.45715987661E+03  0.46769377807E+03  0.79102062218E+02 0.  0.
        -11    1    4    4    0    0 -0.18493211172E+02  0.26064742018E+02  0.18000788663E+03  0.18282288939E+03  0.00000000000E+00 0.  1.
         12    1    4    4    0    0 -0.31130566877E+02 -0.58043823722E+02  0.27715198998E+03  0.28487088867E+03  0.00000000000E+00 0. -1.
        -11    1    3    3    0    0 -0.46506774225E+02  0.20194642722E+02  0.73788625351E+02  0.89529128638E+02  0.00000000000E+00 0. -1.
         11    1    3    3    0    0  0.40524432255E+02 -0.18040113889E+01  0.11718160056E+03  0.12400407887E+03  0.00000000000E+00 0.  1.
          1    1    1    2  501    0  0.55606120020E+02  0.13588450371E+02  0.15092292909E+03  0.16141380701E+03  0.00000000000E+00 0. -1.
<scales pt_clust_5="13000.00000" pt_clust_6="13000.00000" pt_clust_7="13000.00000" pt_clust_8="13000.00000" pt_clust_9="57.24238"></scales>
<clustering>
<clus scale="   57.242">  1  9  2 -1</clus>
<clus scale="   79.102">  5  6 -1 -1</clus>
<clus scale="   82.971">  1  5  2 -1</clus>
<clus scale="   93.556">  7  8 -1 -1</clus>
<clus scale="   57.242">  1  5  2 -1</clus>
</clustering>
</event>
<event>
 9    2  0.1325014E-004  0.1840083E+03  0.7546771E-02  0.1168960E+00
         21   -1    0    0  501  502  0.00000000000E+00  0.00000000000E+00  0.31248817383E+02  0.31248817383E+02  0.00000000000E+00 0. -1.
          2   -1    0    0  502    0 -0.00000000000E+00 -0.00000000000E+00 -0.16903164217E+04  0.16903164217E+04  0.00000000000E+00 0. -1.
         23    2    1    2    0    0 -0.38060522020E+02 -0.13339206876E+03 -0.76077063200E+03  0.78174225669E+03  0.11448560626E+03 0.  0.
         24    2    1    2    0    0  0.11944852278E+03  0.10847498194E+03 -0.72322059610E+03  0.74515247771E+03  0.78545611702E+02 0.  0.
        -11    1    4    4    0    0  0.34728107071E+02  0.81768698575E+02 -0.41407952616E+03  0.42350208438E+03  0.00000000000E+00 0.  1.
         12    1    4    4    0    0  0.84720415713E+02  0.26706283369E+02 -0.30914106994E+03  0.32165039334E+03  0.00000000000E+00 0. -1.
        -11    1    3    3    0    0 -0.31273757876E+02  0.70118791109E+01 -0.72567149869E+02  0.79329727218E+02  0.00000000000E+00 0.  1.
         11    1    3    3    0    0 -0.67867641438E+01 -0.14040394787E+03 -0.68820348213E+03  0.70241252947E+03  0.00000000000E+00 0. -1.
          1    1    1    2  501    0 -0.81388000764E+02  0.24917086814E+02 -0.17507637626E+03  0.19467050472E+03  0.00000000000E+00 0. -1.
<scales pt_clust_5="13000.00000" pt_clust_6="13000.00000" pt_clust_7="13000.00000" pt_clust_8="13000.00000" pt_clust_9="85.11679"></scales>
<clustering>
<clus scale="   78.546">  5  6 -1 -1</clus>
<clus scale="   85.117">  1  9  2 -1</clus>
<clus scale="  114.486">  7  8 -1 -1</clus>
<clus scale="  164.078">  1  5  2 -1</clus>
<clus scale="   85.117">  1  5  2 -1</clus>
</clustering>
</event>
<event>
 9    2  0.1325014E-004  0.1112739E+03  0.7546771E-02  0.1263407E+00
         21   -1    0    0  501  502  0.00000000000E+00  0.00000000000E+00  0.31895586342E+03  0.31895586342E+03  0.00000000000E+00 0.  1.
          2   -1    0    0  502    0 -0.00000000000E+00 -0.00000000000E+00 -0.11086410021E+03  0.11086410021E+03  0.00000000000E+00 0. -1.
         24    2    1    2    0    0  0.37317183825E+01 -0.61470487824E+02 -0.12777674922E+02  0.10166149693E+03  0.79870172070E+02 0.  0.
         23    2    1    2    0    0 -0.56147314964E+02  0.47605877670E+02  0.20269935825E+02  0.12036101121E+03  0.93043334822E+02 0.  0.
        -13    1    3    3    0    0 -0.58315931523E+01 -0.56707301699E+02  0.25113456650E+02  0.62292947029E+02  0.00000000000E+00 0.  1.
         14    1    3    3    0    0  0.95633115348E+01 -0.47631861250E+01 -0.37891131572E+02  0.39368549902E+02  0.00000000000E+00 0. -1.
        -11    1    4    4    0    0 -0.34620360775E+02  0.31322805461E+02  0.57694580533E+02  0.74218273659E+02  0.00000000000E+00 0.  1.
         11    1    4    4    0    0 -0.21526954190E+02  0.16283072209E+02 -0.37424644708E+02  0.46142737552E+02  0.00000000000E+00 0. -1.
          1    1    1    2  501    0  0.52415596582E+02  0.13864610154E+02  0.20059950231E+03  0.20779745549E+03  0.00000000000E+00 0. -1.
<scales pt_clust_5="13000.00000" pt_clust_6="13000.00000" pt_clust_7="13000.00000" pt_clust_8="13000.00000" pt_clust_9="54.21828"></scales>
<clustering>
<clus scale="   54.218">  1  9  2 -1</clus>
<clus scale="   79.870">  5  6 -1 -1</clus>
<clus scale="   93.043">  7  8 -1 -1</clus>
<clus scale="  100.519">  2  5  1 -1</clus>
<clus scale="   54.218">  1  5  2 -1</clus>
</clustering>
</event>
<event>
 9    2  0.1325014E-004  0.1046987E+03  0.7546771E-02  0.1274462E+00
         -1   -1    0    0    0  501 -0.00000000000E+00  0.00000000000E+00  0.47051053758E+02  0.47051053758E+02  0.00000000000E+00 0.  1.
         21   -1    0    0  501  502  0.00000000000E+00 -0.00000000000E+00 -0.43377308925E+03  0.43377308925E+03  0.00000000000E+00 0. -1.
         23    2    1    2    0    0  0.30980564010E+02 -0.52492579966E+02 -0.18458758856E+03  0.21510013009E+03  0.92088119834E+02 0.  0.
         24    2    1    2    0    0 -0.77921818456E+01  0.37794249225E+02 -0.21608942354E+03  0.23492655579E+03  0.83706178236E+02 0.  0.
        -13    1    4    4    0    0 -0.27720816390E+02  0.17981473534E+01 -0.19162373135E+02  0.33747200468E+02  0.00000000000E+00 0.  1.
         14    1    4    4    0    0  0.19928634545E+02  0.35996101871E+02 -0.19692705041E+03  0.20117935532E+03  0.00000000000E+00 0. -1.
        -13    1    3    3    0    0  0.24113645780E+02  0.10130131162E+02 -0.12726863814E+03  0.12992841769E+03  0.00000000000E+00 0.  1.
         13    1    3    3    0    0  0.68669182300E+01 -0.62622711128E+02 -0.57318950428E+02  0.85171712400E+02  0.00000000000E+00 0. -1.
         -2    1    1    2    0  502 -0.23188382165E+02  0.14698330741E+02  0.13954976609E+02  0.30797457138E+02  0.00000000000E+00 0.  1.
<scales pt_clust_5="13000.00000" pt_clust_6="13000.00000" pt_clust_7="13000.00000" pt_clust_8="13000.00000" pt_clust_9="27.45438"></scales>
<clustering>
<clus scale="   27.454">  2  9  1 -1</clus>
<clus scale="   83.706">  5  6 -1 -1</clus>
<clus scale="   92.088">  7  8 -1 -1</clus>
<clus scale="   97.408">  2  5  1 -1</clus>
<clus scale="   27.454">  2  5  1 -1</clus>
</clustering>
</event>
<event>
 9    2  0.1325014E-004  0.1605163E+03  0.7546771E-02  0.1189799E+00
         21   -1    0    0  501  502  0.00000000000E+00  0.00000000000E+00  0.89901275071E+02  0.89901275071E+02  0.00000000000E+00 0. -1.
          2   -1    0    0  502    0 -0.00000000000E+00 -0.00000000000E+00 -0.90994912297E+03  0.90994912297E+03  0.00000000000E+00 0. -1.
         24    2    1    2    0    0  0.10894980442E+03  0.76372534169E+02 -0.67922379939E+03  0.69682179647E+03  0.80702060220E+02 0.  0.
         23    2    1    2    0    0 -0.11394034572E+03 -0.48873704888E+02  0.54006026163E+01  0.15415704716E+03  0.91455930744E+02 0.  0.
        -11    1    3    3    0    0  0.12364387398E+02  0.53271085391E+02 -0.19524847454E+03  0.20276255429E+03  0.00000000000E+00 0.  1.
         12    1    3    3    0    0  0.96585417022E+02  0.23101448778E+02 -0.48397532485E+03  0.49405924218E+03  0.00000000000E+00 0. -1.
        -13    1    4    4    0    0 -0.33033918979E+02  0.23517799142E+02 -0.15838836065E+02  0.43533842094E+02  0.00000000000E+00 0.  1.
         13    1    4    4    0    0 -0.80906426745E+02 -0.72391504030E+02  0.21239438681E+02  0.11062320507E+03  0.00000000000E+00 0. -1.
          1    1    1    2  501    0  0.49905413034E+01 -0.27498829280E+02 -0.14622465113E+03  0.14887155441E+03  0.00000000000E+00 0. -1.
<scales pt_clust_5="13000.00000" pt_clust_6="13000.00000" pt_clust_7="13000.00000" pt_clust_8="13000.00000" pt_clust_9="27.94802"></scales>
<clustering>
<clus scale="   27.948">  1  9  2 -1</clus>
<clus scale="   80.702">  5  6 -1 -1</clus>
<clus scale="   91.456">  7  8 -1 -1</clus>
<clus scale="  154.642">  2  5  1 -1</clus>
<clus scale="   27.948">  1  5  2 -1</clus>
</clustering>
</event>
<event>
 9    2  0.1325014E-004  0.1168455E+03  0.7546771E-02  0.1252118E+00
         21   -1    0    0  501  502  0.00000000000E+00  0.00000000000E+00  0.24949536661E+03  0.24949536661E+03  0.00000000000E+00 0.  1.
         -1   -1    0    0    0  501 -0.00000000000E+00 -0.00000000000E+00 -0.16696445776E+03  0.16696445776E+03  0.00000000000E+00 0.  1.
         24    2    1    2    0    0  0.28904411038E+02 -0.79244629839E+02 -0.10890401376E+03  0.15960415351E+03  0.80611570328E+02 0.  0.
         23    2    1    2    0    0 -0.31255064188E+02  0.17922138176E+02  0.69889207298E+02  0.12069644617E+03  0.91569911803E+02 0.  0.
        -13    1    3    3    0    0 -0.25423587799E+02 -0.46776313275E+02 -0.53753562581E+02  0.75655983176E+02  0.00000000000E+00 0.  1.
         14    1    3    3    0    0  0.54327998837E+02 -0.32468316565E+02 -0.55150451177E+02  0.83948170339E+02  0.00000000000E+00 0. -1.
        -13    1    4    4    0    0 -0.56483652041E+02  0.20973905810E+02  0.73487896018E+02  0.95030408470E+02  0.00000000000E+00 0. -1.
         13    1    4    4    0    0  0.25228587854E+02 -0.30517676345E+01 -0.35986887203E+01  0.25666037701E+02  0.00000000000E+00 0.  1.
         -2    1    1    2    0  502  0.23506531497E+01  0.61322491664E+02  0.12154571531E+03  0.13615922468E+03  0.00000000000E+00 0.  1.
<scales pt_clust_5="13000.00000" pt_clust_6="13000.00000" pt_clust_7="13000.00000" pt_clust_8="13000.00000" pt_clust_9="61.36753"></scales>
<clustering>
<clus scale="   61.368">  1  9  2 -1</clus>
<clus scale="   80.612">  5  6 -1 -1</clus>
<clus scale="   91.570">  7  8 -1 -1</clus>
<clus scale="  108.471">  2  5  1 -1</clus>
<clus scale="   61.368">  1  5  2 -1</clus>
</clustering>
</event>
<event>
 9    2  0.1325014E-004  0.1361271E+03  0.7546771E-02  0.1224439E+00
         21   -1    0    0  501  502  0.00000000000E+00  0.00000000000E+00  0.73371528067E+02  0.73371528067E+02  0.00000000000E+00 0.  1.
          2   -1    0    0  502    0 -0.00000000000E+00 -0.00000000000E+00 -0.37605574649E+03  0.37605574649E+03  0.00000000000E+00 0. -1.
         24    2    1    2    0    0 -0.19219570441E+02  0.10475094959E+03 -0.16767254918E+03  0.21603641973E+03  0.84944084967E+02 0.  0.
         23    2    1    2    0    0  0.44638480353E+02 -0.51122701016E+02 -0.11592578372E+03  0.17105000905E+03  0.10589236883E+03 0.  0.
        -11    1    3    3    0    0  0.32327787498E+02  0.37155756020E+02 -0.79803920023E+02  0.93777938242E+02  0.00000000000E+00 0.  1.
         12    1    3    3    0    0 -0.51547357940E+02  0.67595193573E+02 -0.87868629157E+02  0.12225848148E+03  0.00000000000E+00 0. -1.
        -11    1    4    4    0    0  0.60831964371E+02  0.88836717042E+01 -0.73383061710E+02  0.95731506089E+02  0.00000000000E+00 0.  1.
         11    1    4    4    0    0 -0.16193484017E+02 -0.60006372720E+02 -0.42542722014E+02  0.75318502959E+02  0.00000000000E+00 0. -1.
          1    1    1    2  501    0 -0.25418909912E+02 -0.53628248577E+02 -0.19085885515E+02  0.62340845779E+02  0.00000000000E+00 0. -1.
<scales pt_clust_5="13000.00000" pt_clust_6="13000.00000" pt_clust_7="13000.00000" pt_clust_8="13000.00000" pt_clust_9="59.34737"></scales>
<clustering>
<clus scale="   59.347">  1  9  2 -1</clus>
<clus scale="   84.944">  5  6 -1 -1</clus>
<clus scale="  105.892">  7  8 -1 -1</clus>
<clus scale="  120.552">  2  5  1 -1</clus>
<clus scale="   59.347">  1  5  2 -1</clus>
</clustering>
</event>
<event>
 9    2  0.1325014E-004  0.1766173E+03  0.7546771E-02  0.1190511E+00
          2   -1    0    0  502    0 -0.00000000000E+00  0.00000000000E+00  0.17975651923E+03  0.17975651923E+03  0.00000000000E+00 0. -1.
         21   -1    0    0  501  502  0.00000000000E+00 -0.00000000000E+00 -0.36715438992E+03  0.36715438992E+03  0.00000000000E+00 0. -1.
         23    2    1    2    0    0  0.11415836844E+02 -0.66317214808E+02  0.48896785118E+02  0.12429931654E+03  0.92364117425E+02 0.  0.
         24    2    1    2    0    0 -0.15930326593E+03  0.80263013785E+02 -0.97525223290E+02  0.21933313237E+03  0.82317506397E+02 0.  0.
        -11    1    4    4    0    0 -0.11283004178E+02  0.22008641182E+02 -0.45821887005E+02  0.52070450340E+02  0.00000000000E+00 0.  1.
         12    1    4    4    0    0 -0.14802026175E+03  0.58254372603E+02 -0.51703336285E+02  0.16726268203E+03  0.00000000000E+00 0. -1.
        -13    1    3    3    0    0 -0.49949614168E+01 -0.30502326924E+02  0.72192800077E+02  0.78531152865E+02  0.00000000000E+00 0. -1.
         13    1    3    3    0    0  0.16410798261E+02 -0.35814887883E+02 -0.23296014958E+02  0.45768163680E+02  0.00000000000E+00 0.  1.
          1    1    1    2  501    0  0.14788742909E+03 -0.13945798977E+02 -0.13876943253E+03  0.20327846023E+03  0.00000000000E+00 0. -1.
<scales pt_clust_5="13000.00000" pt_clust_6="13000.00000" pt_clust_7="13000.00000" pt_clust_8="13000.00000" pt_clust_9="156.26100"></scales>
<clustering>
<clus scale="   82.318">  5  6 -1 -1</clus>
<clus scale="   92.364">  7  8 -1 -1</clus>
<clus scale="  114.278">  1  7  2 -1</clus>
<clus scale="  156.261">  2  9  1 -1</clus>
<clus scale="  156.261">  2  5  1 -1</clus>
</clustering>
</event>
<event>
 9    2  0.1325014E-004  0.1129188E+03  0.7546771E-02  0.1260607E+00
          2   -1    0    0  502    0 -0.00000000000E+00  0.00000000000E+00  0.58058246288E+03  0.58058246288E+03  0.00000000000E+00 0. -1.
         21   -1    0    0  501  502  0.00000000000E+00 -0.00000000000E+00 -0.40989903924E+02  0.40989903924E+02  0.00000000000E+00 0.  1.
         24    2    1    2    0    0  0.57501158818E+02 -0.55856755146E+02  0.40659872003E+03  0.42103204349E+03  0.74290659918E+02 0.  0.
         23    2    1    2    0    0 -0.21003045517E+02  0.39601438782E+02  0.12476047650E+03  0.15974650220E+03  0.89131176322E+02 0.  0.
        -11    1    3    3    0    0  0.69081339689E+02 -0.56115083223E+02  0.27768972819E+03  0.29160370231E+03  0.00000000000E+00 0.  1.
         12    1    3    3    0    0 -0.11580180871E+02  0.25832807654E+00  0.12890899185E+03  0.12942834119E+03  0.00000000000E+00 0. -1.
        -13    1    4    4    0    0 -0.54586813790E+02  0.29135762857E+02  0.96454634681E+02  0.11459541644E+03  0.00000000000E+00 0. -1.
         13    1    4    4    0    0  0.33583768274E+02  0.10465675924E+02  0.28305841819E+02  0.45151085757E+02  0.00000000000E+00 0.  1.
          1    1    1    2  501    0 -0.36498113302E+02  0.16255316364E+02  0.82333624225E+01  0.40793821119E+02  0.00000000000E+00 0. -1.
<scales pt_clust_5="13000.00000" pt_clust_6="13000.00000" pt_clust_7="13000.00000" pt_clust_8="13000.00000" pt_clust_9="39.95432"></scales>
<clustering>
<clus scale="   39.954">  2  9  1 -1</clus>
<clus scale="   74.291">  5  6 -1 -1</clus>
<clus scale="   89.131">  7  8 -1 -1</clus>
<clus scale="  101.614">  1  5  2 -1</clus>
<clus scale="   39.954">  2  5  1 -1</clus>
</clustering>
</event>
<event>
 9    2  0.1325014E-004  0.1632651E+03  0.7546771E-02  0.1186570E+00
          2   -1    0    0  502    0 -0.00000000000E+00  0.00000000000E+00  0.10049162500E+04  0.10049162500E+04  0.00000000000E+00 0. -1.
         21   -1    0    0  501  502  0.00000000000E+00 -0.00000000000E+00 -0.84099622518E+02  0.84099622518E+02  0.00000000000E+00 0.  1.
         24    2    1    2    0    0  0.10226278320E+03 -0.86286122055E+02  0.85713832587E+03  0.87124776489E+03  0.80520720609E+02 0.  0.
         23    2    1    2    0    0 -0.10656991043E+03  0.11043759106E+03  0.71455111044E+02  0.19203245995E+03  0.90647809975E+02 0.  0.
        -11    1    3    3    0    0  0.35708445808E+02 -0.62163599825E+02  0.25251238720E+03  0.26249173689E+03  0.00000000000E+00 0.  1.
         12    1    3    3    0    0  0.66554337395E+02 -0.24122522230E+02  0.60462593867E+03  0.60875602800E+03  0.00000000000E+00 0. -1.
        -13    1    4    4    0    0 -0.65652830996E+02  0.11136367003E+03  0.27874164014E+02  0.13224647534E+03  0.00000000000E+00 0.  1.
         13    1    4    4    0    0 -0.40917079433E+02 -0.92607897623E+00  0.43580947030E+02  0.59785984609E+02  0.00000000000E+00 0. -1.
          1    1    1    2  501    0  0.43071272266E+01 -0.24151469001E+02 -0.77768093884E+01  0.25735647731E+02  0.00000000000E+00 0. -1.
<scales pt_clust_5="13000.00000" pt_clust_6="13000.00000" pt_clust_7="13000.00000" pt_clust_8="13000.00000" pt_clust_9="24.53253"></scales>
<clustering>
<clus scale="   24.533">  2  9  1 -1</clus>
<clus scale="   80.521">  5  6 -1 -1</clus>
<clus scale="   90.648">  7  8 -1 -1</clus>
<clus scale="  157.867">  1  5  2 -1</clus>
<clus scale="   24.533">  2  5  1 -1</clus>
</clustering>
</event>
<event>
 9    2  0.1325014E-004  0.9728296E+02  0.7546771E-02  0.1292055E+00
         21   -1    0    0  501  502  0.00000000000E+00  0.00000000000E+00  0.76231545707E+02  0.76231545707E+02  0.00000000000E+00 0.  1.
         -3   -1    0    0    0  501 -0.00000000000E+00 -0.00000000000E+00 -0.28233430045E+03  0.28233430045E+03  0.00000000000E+00 0.  1.
         24    2    1    2    0    0  0.28852910037E+02 -0.30489567395E+00 -0.20585471740E+03  0.22298423870E+03  0.80704539250E+02 0.  0.
         23    2    1    2    0    0 -0.54275158031E+02 -0.10687678791E+02 -0.62175885887E+01  0.10724853617E+03  0.91670992387E+02 0.  0.
        -13    1    3    3    0    0  0.46054811477E+02  0.24743474405E+02 -0.15674478532E+03  0.16523381285E+03  0.00000000000E+00 0.  1.
         14    1    3    3    0    0 -0.17201901441E+02 -0.25048370079E+02 -0.49109932084E+02  0.57750425852E+02  0.00000000000E+00 0. -1.
        -11    1    4    4    0    0 -0.49389047364E+02  0.21288352240E+02  0.27600998998E+02  0.60450699634E+02  0.00000000000E+00 0.  1.
         11    1    4    4    0    0 -0.48861106670E+01 -0.31976031031E+02 -0.33818587586E+02  0.46797836534E+02  0.00000000000E+00 0. -1.
         -4    1    1    2    0  502  0.25422247994E+02  0.10992574465E+02  0.59695512430E+01  0.28333071286E+02  0.00000000000E+00 0.  1.
<scales pt_clust_5="13000.00000" pt_clust_6="13000.00000" pt_clust_7="13000.00000" pt_clust_8="13000.00000" pt_clust_9="27.69706"></scales>
<clustering>
<clus scale="   27.697">  1  9  2 -1</clus>
<clus scale="   80.705">  5  6 -1 -1</clus>
<clus scale="   87.027">  2  5  1 -1</clus>
<clus scale="   91.671">  7  8 -1 -1</clus>
<clus scale="   27.697">  1  5  2 -1</clus>
</clustering>
</event>
<event>
 9    2  0.1325014E-004  0.3251902E+03  0.7546771E-02  0.1115791E+00
         21   -1    0    0  501  502  0.00000000000E+00  0.00000000000E+00  0.15520867718E+03  0.15520867718E+03  0.00000000000E+00 0. -1.
          2   -1    0    0  502    0 -0.00000000000E+00 -0.00000000000E+00 -0.16715959805E+04  0.16715959805E+04  0.00000000000E+00 0. -1.
         23    2    1    2    0    0  0.23527916523E+02 -0.49793744561E+02 -0.15808255976E+03  0.19070971002E+03  0.91362563136E+02 0.  0.
         24    2    1    2    0    0  0.14536794333E+03  0.30958054826E+03 -0.12640157061E+04  0.13122038897E+04  0.84684048905E+02 0.  0.
        -13    1    4    4    0    0  0.40051579613E+02  0.40167965000E+02 -0.31556497320E+03  0.32062259239E+03  0.00000000000E+00 0.  1.
         14    1    4    4    0    0  0.10531636371E+03  0.26941258326E+03 -0.94845073288E+03  0.99158129732E+03  0.00000000000E+00 0. -1.
        -11    1    3    3    0    0  0.45345965648E+02 -0.57092913146E+02 -0.75398953325E+02  0.10488498222E+03  0.00000000000E+00 0.  1.
         11    1    3    3    0    0 -0.21818049126E+02  0.72991685846E+01 -0.82683606434E+02  0.85824727803E+02  0.00000000000E+00 0. -1.
          1    1    1    2  501    0 -0.16889585985E+03 -0.25978680370E+03 -0.94289037511E+02  0.32389105799E+03  0.00000000000E+00 0. -1.
<scales pt_clust_5="13000.00000" pt_clust_6="13000.00000" pt_clust_7="13000.00000" pt_clust_8="13000.00000" pt_clust_9="313.97023"></scales>
<clustering>
<clus scale="   84.684">  5  6 -1 -1</clus>
<clus scale="   91.363">  7  8 -1 -1</clus>
<clus scale="  106.678">  2  7  1 -1</clus>
<clus scale="  313.970">  1  9  2 -1</clus>
<clus scale="  313.970">  1  5  2 -1</clus>
</clustering>
</event>
<event>
 9    2  0.1325014E-004  0.1058764E+03  0.7546771E-02  0.1271561E+00
         21   -1    0    0  501  502  0.00000000000E+00  0.00000000000E+00  0.56307382095E+02  0.56307382095E+02  0.00000000000E+00 0. -1.
          2   -1    0    0  502    0 -0.00000000000E+00 -0.00000000000E+00 -0.45891510082E+03  0.45891510082E+03  0.00000000000E+00 0. -1.
         24    2    1    2    0    0  0.62697110212E+01  0.52854305532E+02 -0.19779363945E+03  0.22068634685E+03  0.82141664143E+02 0.  0.
         23    2    1    2    0    0  0.15364983241E+02 -0.69503092542E+02 -0.31001936828E+02  0.11859323918E+03  0.89646381459E+02 0.  0.
        -11    1    3    3    0    0 -0.34000439390E+02  0.13793585549E+02 -0.45899357466E+02  0.58762606280E+02  0.00000000000E+00 0.  1.
         12    1    3    3    0    0  0.40270150411E+02  0.39060719983E+02 -0.15189428199E+03  0.16192374057E+03  0.00000000000E+00 0. -1.
        -13    1    4    4    0    0 -0.16024880667E+02 -0.43099000307E+02  0.22488186943E+02  0.51186318287E+02  0.00000000000E+00 0. -1.
         13    1    4    4    0    0  0.31389863908E+02 -0.26404092234E+02 -0.53490123771E+02  0.67406920890E+02  0.00000000000E+00 0.  1.
          1    1    1    2  501    0 -0.21634694262E+02  0.16648787010E+02 -0.17381214245E+03  0.17594289689E+03  0.00000000000E+00 0. -1.
<scales pt_clust_5="13000.00000" pt_clust_6="13000.00000" pt_clust_7="13000.00000" pt_clust_8="13000.00000" pt_clust_9="27.29914"></scales>
<clustering>
<clus scale="   27.299">  1  9  2 -1</clus>
<clus scale="   82.142">  5  6 -1 -1</clus>
<clus scale="   89.646">  7  8 -1 -1</clus>
<clus scale="   99.602">  2  5  1 -1</clus>
<clus scale="   27.299">  1  5  2 -1</clus>
</clustering>
</event>
<event>
 9    2  0.1325014E-004  0.1329077E+03  0.7546771E-02  0.1225139E+00
          2   -1    0    0  502    0 -0.00000000000E+00  0.00000000000E+00  0.59844439367E+03  0.59844439367E+03  0.00000000000E+00 0. -1.
         21   -1    0    0  501  502  0.00000000000E+00 -0.00000000000E+00 -0.56176478478E+02  0.56176478478E+02  0.00000000000E+00 0. -1.
         23    2    1    2    0    0  0.10868081288E+03 -0.23522124814E+02  0.19004307075E+03  0.23804076757E+03  0.90455673357E+02 0.  0.
         24    2    1    2    0    0 -0.60956103763E+02  0.69010814283E+02  0.10986163879E+03  0.16540926195E+03  0.82537901520E+02 0.  0.
        -13    1    4    4    0    0  0.17198298682E+02  0.33730619777E+02  0.31614000223E+02  0.49325259231E+02  0.00000000000E+00 0.  1.
         14    1    4    4    0    0 -0.78154402445E+02  0.35280194506E+02  0.78247638570E+02  0.11608400272E+03  0.00000000000E+00 0. -1.
        -13    1    3    3    0    0  0.85015627195E+01 -0.35900390611E+02  0.24962648978E+02  0.44544903846E+02  0.00000000000E+00 0.  1.
         13    1    3    3    0    0  0.10017925016E+03  0.12378265796E+02  0.16508042177E+03  0.19349586373E+03  0.00000000000E+00 0. -1.
          1    1    1    2  501    0 -0.47724709121E+02 -0.45488689469E+02  0.24236320565E+03  0.25117084263E+03  0.00000000000E+00 0. -1.
<scales pt_clust_5="13000.00000" pt_clust_6="13000.00000" pt_clust_7="13000.00000" pt_clust_8="13000.00000" pt_clust_9="65.93082"></scales>
<clustering>
<clus scale="   65.931">  2  9  1 -1</clus>
<clus scale="   82.538">  5  6 -1 -1</clus>
<clus scale="   90.456">  7  8 -1 -1</clus>
<clus scale="  127.651">  2  5  1 -1</clus>
<clus scale="   65.931">  2  5  1 -1</clus>
</clustering>
</event>
<event>
 9    2  0.1325014E-004  0.1074260E+03  0.7546771E-02  0.1270225E+00
         21   -1    0    0  501  502  0.00000000000E+00  0.00000000000E+00  0.20073734895E+02  0.20073734895E+02  0.00000000000E+00 0. -1.
         -1   -1    0    0    0  501 -0.00000000000E+00 -0.00000000000E+00 -0.75916225913E+03  0.75916225913E+03  0.00000000000E+00 0.  1.
         24    2    1    2    0    0 -0.26654775646E+02  0.44722063154E+02 -0.42480915627E+03  0.43597127908E+03  0.83051772623E+02 0.  0.
         23    2    1    2    0    0  0.47260511350E+02 -0.28677395682E+02 -0.27707217152E+03  0.29780700751E+03  0.94149224807E+02 0.  0.
        -13    1    3    3    0    0  0.11025623702E+02  0.56453196327E+02 -0.28219858573E+03  0.28800098879E+03  0.00000000000E+00 0.  1.
         14    1    3    3    0    0 -0.37680399348E+02 -0.11731133173E+02 -0.14261057054E+03  0.14797029029E+03  0.00000000000E+00 0. -1.
        -13    1    4    4    0    0  0.19748960835E+02  0.10492166337E+02 -0.68651072637E+01  0.23393090994E+02  0.00000000000E+00 0. -1.
         13    1    4    4    0    0  0.27511550515E+02 -0.39169562019E+02 -0.27020706426E+03  0.27441391651E+03  0.00000000000E+00 0.  1.
         -2    1    1    2    0  502 -0.20605735703E+02 -0.16044667472E+02 -0.37207196441E+02  0.45457707434E+02  0.00000000000E+00 0.  1.
<scales pt_clust_5="13000.00000" pt_clust_6="13000.00000" pt_clust_7="13000.00000" pt_clust_8="13000.00000" pt_clust_9="26.11566"></scales>
<clustering>
<clus scale="   26.116">  1  9  2 -1</clus>
<clus scale="   83.052">  5  6 -1 -1</clus>
<clus scale="   94.149">  7  8 -1 -1</clus>
<clus scale="   97.846">  2  5  1 -1</clus>
<clus scale="   26.116">  1  5  2 -1</clus>
</clustering>
</event>
<event>
 9    2  0.1325014E-004  0.1214687E+03  0.7546771E-02  0.1243938E+00
         21   -1    0    0  501  502  0.00000000000E+00  0.00000000000E+00  0.53495546723E+02  0.53495546723E+02  0.00000000000E+00 0. -1.
          2   -1    0    0  502    0 -0.00000000000E+00 -0.00000000000E+00 -0.52982682591E+03  0.52982682591E+03  0.00000000000E+00 0. -1.
         24    2    1    2    0    0 -0.72219342058E+02  0.62201946920E+01 -0.27038321501E+03  0.29113383635E+03  0.79984395445E+02 0.  0.
         23    2    1    2    0    0  0.11291967988E+03 -0.39766050917E+01 -0.93047445059E+02  0.17215478691E+03  0.90624368322E+02 0.  0.
        -13    1    3    3    0    0 -0.26497960581E+02  0.35148336935E+02 -0.18411089075E+03  0.18929967669E+03  0.00000000000E+00 0.  1.
         14    1    3    3    0    0 -0.45721381477E+02 -0.28928142243E+02 -0.86272324266E+02  0.10183415965E+03  0.00000000000E+00 0. -1.
        -11    1    4    4    0    0  0.11418292557E+03  0.21779543040E+02 -0.88201282271E+02  0.14591626085E+03  0.00000000000E+00 0. -1.
         11    1    4    4    0    0 -0.12632456903E+01 -0.25756148132E+02 -0.48461627880E+01  0.26238526064E+02  0.00000000000E+00 0.  1.
          1    1    1    2  501    0 -0.40700337817E+02 -0.22435896003E+01 -0.11290061912E+03  0.12003374938E+03  0.00000000000E+00 0. -1.
<scales pt_clust_5="13000.00000" pt_clust_6="13000.00000" pt_clust_7="13000.00000" pt_clust_8="13000.00000" pt_clust_9="40.76215"></scales>
<clustering>
<clus scale="   40.762">  1  9  2 -1</clus>
<clus scale="   79.984">  5  6 -1 -1</clus>
<clus scale="   90.624">  7  8 -1 -1</clus>
<clus scale="  113.751">  2  5  1 -1</clus>
<clus scale="   40.762">  1  5  2 -1</clus>
</clustering>
</event>
<event>
 9    2  0.1325014E-004  0.2088004E+03  0.7546771E-02  0.1150491E+00
         21   -1    0    0  501  502  0.00000000000E+00  0.00000000000E+00  0.46232847876E+02  0.46232847876E+02  0.00000000000E+00 0. -1.
          2   -1    0    0  502    0 -0.00000000000E+00 -0.00000000000E+00 -0.20710695516E+04  0.20710695516E+04  0.00000000000E+00 0. -1.
         23    2    1    2    0    0 -0.14602021989E+03 -0.10391999642E+02 -0.37781174200E+03  0.41539404229E+03  0.91545615422E+02 0.  0.
         24    2    1    2    0    0 -0.26228411609E+02 -0.16215105535E+03 -0.77940479227E+03  0.80068393712E+03  0.81498727731E+02 0.  0.
        -11    1    4    4    0    0  0.28986896348E+02 -0.41272578503E+02 -0.20715637228E+03  0.21320747753E+03  0.00000000000E+00 0.  1.
         12    1    4    4    0    0 -0.55215307957E+02 -0.12087847685E+03 -0.57224841999E+03  0.58747645959E+03  0.00000000000E+00 0. -1.
        -11    1    3    3    0    0 -0.10211641181E+03 -0.27183352667E+02 -0.15445284688E+03  0.18714266786E+03  0.00000000000E+00 0.  1.
         11    1    3    3    0    0 -0.43903808079E+02  0.16791353025E+02 -0.22335889513E+03  0.22825137444E+03  0.00000000000E+00 0. -1.
          1    1    1    2  501    0  0.17224863150E+03  0.17254305499E+03 -0.86762016945E+03  0.90122442007E+03  0.00000000000E+00 0. -1.
<scales pt_clust_5="13000.00000" pt_clust_6="13000.00000" pt_clust_7="13000.00000" pt_clust_8="13000.00000" pt_clust_9="192.23842"></scales>
<clustering>
<clus scale="   81.499">  5  6 -1 -1</clus>
<clus scale="   91.546">  7  8 -1 -1</clus>
<clus scale="  172.657">  2  7  1 -1</clus>
<clus scale="  192.238">  1  9  2 -1</clus>
<clus scale="  192.238">  1  5  2 -1</clus>
</clustering>
</event>
<event>
 9    2  0.1325014E-004  0.9485421E+02  0.7546771E-02  0.1298124E+00
         21   -1    0    0  501  502  0.00000000000E+00  0.00000000000E+00  0.21449412599E+03  0.21449412599E+03  0.00000000000E+00 0.  1.
         -1   -1    0    0    0  501 -0.00000000000E+00 -0.00000000000E+00 -0.19268746296E+03  0.19268746296E+03  0.00000000000E+00 0.  1.
         23    2    1    2    0    0  0.39732848577E+01 -0.15643506631E+02 -0.30651375542E+01  0.92540188169E+02  0.91070220522E+02 0.  0.
         24    2    1    2    0    0  0.44014814624E+02  0.61986999932E+02  0.14211718604E+03  0.17974493132E+03  0.79569175578E+02 0.  0.
        -11    1    4    4    0    0  0.59674274091E+02  0.68869500955E+02  0.10602532516E+03  0.13980485229E+03  0.00000000000E+00 0.  1.
         12    1    4    4    0    0 -0.15659459467E+02 -0.68825010229E+01  0.36091860877E+02  0.39940079027E+02  0.00000000000E+00 0. -1.
        -11    1    3    3    0    0  0.11155640120E+02  0.29451603102E+02 -0.26549856991E+02  0.41191505654E+02  0.00000000000E+00 0. -1.
         11    1    3    3    0    0 -0.71823552625E+01 -0.45095109733E+02  0.23484719437E+02  0.51348682515E+02  0.00000000000E+00 0.  1.
         -2    1    1    2    0  502 -0.47988099481E+02 -0.46343493301E+02 -0.11724538545E+03  0.13489646946E+03  0.00000000000E+00 0.  1.
<scales pt_clust_5="13000.00000" pt_clust_6="13000.00000" pt_clust_7="13000.00000" pt_clust_8="13000.00000" pt_clust_9="66.71268"></scales>
<clustering>
<clus scale="   66.713">  1  9  2 -1</clus>
<clus scale="   79.569">  5  6 -1 -1</clus>
<clus scale="   83.874">  1  5  2 -1</clus>
<clus scale="   91.070">  7  8 -1 -1</clus>
<clus scale="   66.713">  1  5  2 -1</clus>
</clustering>
</event>
<event>
 9    2  0.1325014E-004  0.1836422E+03  0.7546771E-02  0.1165332E+00
         21   -1    0    0  501  502  0.00000000000E+00  0.00000000000E+00  0.12722039984E+03  0.12722039984E+03  0.00000000000E+00 0.  1.
         -1   -1    0    0    0  501 -0.00000000000E+00 -0.00000000000E+00 -0.50891741044E+03  0.50891741044E+03  0.00000000000E+00 0.  1.
         23    2    1    2    0    0 -0.71115882572E+02  0.15799670724E+03 -0.27755768527E+03  0.33975585380E+03  0.91516901635E+02 0.  0.
         24    2    1    2    0    0  0.12495155983E+03 -0.86594986681E+02 -0.11272913376E+03  0.20654727134E+03  0.82718399859E+02 0.  0.
        -13    1    4    4    0    0  0.69168156439E+02 -0.42750731152E+02 -0.10834026020E+03  0.13546021873E+03  0.00000000000E+00 0.  1.
         14    1    4    4    0    0  0.55783403392E+02 -0.43844255530E+02 -0.43888735652E+01  0.71087052605E+02  0.00000000000E+00 0. -1.
        -13    1    3    3    0    0 -0.34949863741E+02  0.15476086632E+03 -0.23825001382E+03  0.28624375592E+03  0.00000000000E+00 0.  1.
         13    1    3    3    0    0 -0.36166018831E+02  0.32358409284E+01 -0.39307671449E+02  0.53512097879E+02  0.00000000000E+00 0. -1.
         -2    1    1    2    0  502 -0.53835677259E+02 -0.71401720563E+02  0.85898084303E+01  0.89834685140E+02  0.00000000000E+00 0.  1.
<scales pt_clust_5="13000.00000" pt_clust_6="13000.00000" pt_clust_7="13000.00000" pt_clust_8="13000.00000" pt_clust_9="89.42307"></scales>
<clustering>
<clus scale="   82.718">  5  6 -1 -1</clus>
<clus scale="   89.423">  1  9  2 -1</clus>
<clus scale="   91.517">  7  8 -1 -1</clus>
<clus scale="  179.420">  1  5  2 -1</clus>
<clus scale="   89.423">  1  5  2 -1</clus>
</clustering>
</event>
<event>
 9    2  0.1325014E-004  0.1281506E+03  0.7546771E-02  0.1235585E+00
          2   -1    0    0  502    0 -0.00000000000E+00  0.00000000000E+00  0.22084854611E+03  0.22084854611E+03  0.00000000000E+00 0. -1.
         21   -1    0    0  501  502  0.00000000000E+00 -0.00000000000E+00 -0.38032050110E+03  0.38032050110E+03  0.00000000000E+00 0. -1.
         23    2    1    2    0    0  0.31264427611E+02  0.97935537793E+02  0.12355132764E+03  0.18963595002E+03  0.10063810899E+03 0.  0.
         24    2    1    2    0    0 -0.51728188581E+02 -0.29698006886E+02  0.16638771833E+02  0.10351934260E+03  0.82955581233E+02 0.  0.
        -13    1    4    4    0    0  0.14228857995E+02 -0.30758948218E+02 -0.46398279548E+01  0.34206743469E+02  0.00000000000E+00 0.  1.
         14    1    4    4    0    0 -0.65957046576E+02  0.10609413317E+01  0.21278599787E+02  0.69312599132E+02  0.00000000000E+00 0. -1.
        -13    1    3    3    0    0 -0.34647422262E+02  0.31941781998E+02  0.22837250557E+02  0.52366605004E+02  0.00000000000E+00 0.  1.
         13    1    3    3    0    0  0.65911849873E+02  0.65993755794E+02  0.10071407708E+03  0.13726934501E+03  0.00000000000E+00 0. -1.
          1    1    1    2  501    0  0.20463760970E+02 -0.68237530906E+02 -0.29966205446E+03  0.30801375460E+03  0.00000000000E+00 0. -1.
<scales pt_clust_5="13000.00000" pt_clust_6="13000.00000" pt_clust_7="13000.00000" pt_clust_8="13000.00000" pt_clust_9="71.23992"></scales>
<clustering>
<clus scale="   71.240">  2  9  1 -1</clus>
<clus scale="   82.956">  5  6 -1 -1</clus>
<clus scale="  100.638">  7  8 -1 -1</clus>
<clus scale="  114.788">  2  5  1 -1</clus>
<clus scale="   71.240">  2  5  1 -1</clus>
</clustering>
</event>
<event>
 9    2  0.1325014E-004  0.2875488E+03  0.7546771E-02  0.1092095E+00
          2   -1    0    0  502    0 -0.00000000000E+00  0.00000000000E+00  0.11007044405E+04  0.11007044405E+04  0.00000000000E+00 0. -1.
         21   -1    0    0  501  502  0.00000000000E+00 -0.00000000000E+00 -0.17863674435E+03  0.17863674435E+03  0.00000000000E+00 0. -1.
         23    2    1    2    0    0  0.15827187545E+03  0.25224933952E+03  0.88384542134E+03  0.93728682093E+03  0.92973867345E+02 0.  0.
         24    2    1    2    0    0 -0.12025197866E+03 -0.12156024714E+03 -0.26523998943E+02  0.19133199870E+03  0.81651571641E+02 0.  0.
        -11    1    4    4    0    0  0.24245810336E+01 -0.23879447402E+02 -0.24791671155E+02  0.34507007406E+02  0.00000000000E+00 0.  1.
         12    1    4    4    0    0 -0.12267655970E+03 -0.97680799733E+02 -0.17323277873E+01  0.15682499130E+03  0.00000000000E+00 0. -1.
        -11    1    3    3    0    0  0.72297999677E+02  0.11167218914E+03  0.53781217935E+03  0.55402131624E+03  0.00000000000E+00 0. -1.
         11    1    3    3    0    0  0.85973875769E+02  0.14057715038E+03  0.34603324199E+03  0.38326550469E+03  0.00000000000E+00 0.  1.
          1    1    1    2  501    0 -0.38019896781E+02 -0.13068909238E+03  0.64746273774E+02  0.15072236525E+03  0.00000000000E+00 0. -1.
<scales pt_clust_5="13000.00000" pt_clust_6="13000.00000" pt_clust_7="13000.00000" pt_clust_8="13000.00000" pt_clust_9="136.10713"></scales>
<clustering>
<clus scale="   81.652">  5  6 -1 -1</clus>
<clus scale="   92.974">  7  8 -1 -1</clus>
<clus scale="  136.107">  2  9  1 -1</clus>
<clus scale="  284.090">  2  5  1 -1</clus>
<clus scale="  136.107">  2  5  1 -1</clus>
</clustering>
</event>
<event>
 9    2  0.1325014E-004  0.1963080E+03  0.7546771E-02  0.1176373E+00
         21   -1    0    0  501  502  0.00000000000E+00  0.00000000000E+00  0.13911506571E+03  0.13911506571E+03  0.00000000000E+00 0. -1.
         -3   -1    0    0    0  501 -0.00000000000E+00 -0.00000000000E+00 -0.88492252973E+03  0.88492252973E+03  0.00000000000E+00 0.  1.
         24    2    1    2    0    0  0.15342917285E+02 -0.79036806724E+02 -0.52148705886E+03  0.53383314748E+03  0.80912637238E+02 0.  0.
         23    2    1    2    0    0  0.67399813447E+02 -0.13679315468E+03 -0.15225960573E+02  0.17851643329E+03  0.91548812441E+02 0.  0.
        -13    1    3    3    0    0  0.42488880806E+02 -0.74129236782E+02 -0.42371439992E+03  0.43224338217E+03  0.00000000000E+00 0.  1.
         14    1    3    3    0    0 -0.27145963522E+02 -0.49075699420E+01 -0.97772658945E+02  0.10158976531E+03  0.00000000000E+00 0. -1.
        -13    1    4    4    0    0  0.56128774917E+02 -0.23403298294E+02  0.10468089641E+02  0.61706844397E+02  0.00000000000E+00 0. -1.
         13    1    4    4    0    0  0.11271038530E+02 -0.11338985639E+03 -0.25694050213E+02  0.11680958890E+03  0.00000000000E+00 0.  1.
         -4    1    1    2    0  502 -0.82742730732E+02  0.21582996141E+03 -0.20909444458E+03  0.31168801466E+03  0.00000000000E+00 0.  1.
<scales pt_clust_5="13000.00000" pt_clust_6="13000.00000" pt_clust_7="13000.00000" pt_clust_8="13000.00000" pt_clust_9="173.65385"></scales>
<clustering>
<clus scale="   80.913">  5  6 -1 -1</clus>
<clus scale="   91.549">  7  8 -1 -1</clus>
<clus scale="  114.145">  2  5  1 -1</clus>
<clus scale="  173.654">  1  9  2 -1</clus>
<clus scale="  173.654">  1  5  2 -1</clus>
</clustering>
</event>
<event>
 9    2  0.1325014E-004  0.2263198E+03  0.7546771E-02  0.1155693E+00
          2   -1    0    0  502    0 -0.00000000000E+00  0.00000000000E+00  0.13011117296E+04  0.13011117296E+04  0.00000000000E+00 0. -1.
         21   -1    0    0  501  502  0.00000000000E+00 -0.00000000000E+00 -0.65437352132E+02  0.65437352132E+02  0.00000000000E+00 0. -1.
         24    2    1    2    0    0  0.89758461382E+02  0.12172399947E+01  0.35322420942E+03  0.37303367455E+03  0.79553234763E+02 0.  0.
         23    2    1    2    0    0 -0.11519536938E+03  0.19871899782E+03  0.57734324523E+03  0.62784920718E+03  0.90056598477E+02 0.  0.
        -13    1    3    3    0    0  0.10067704384E+03 -0.22503733552E+01  0.25532346912E+03  0.27446494352E+03  0.00000000000E+00 0.  1.
         14    1    3    3    0    0 -0.10918582456E+02  0.34676133499E+01  0.97900740302E+02  0.98568731030E+02  0.00000000000E+00 0. -1.
        -13    1    4    4    0    0 -0.61041924000E+02  0.17587827455E+03  0.40448008864E+03  0.44526781385E+03  0.00000000000E+00 0. -1.
         13    1    4    4    0    0 -0.54153445378E+02  0.22840723267E+02  0.17286315659E+03  0.18258139333E+03  0.00000000000E+00 0.  1.
          1    1    1    2  501    0  0.25436907996E+02 -0.19993623781E+03  0.30510692285E+03  0.36566620004E+03  0.00000000000E+00 0. -1.
<scales pt_clust_5="13000.00000" pt_clust_6="13000.00000" pt_clust_7="13000.00000" pt_clust_8="13000.00000" pt_clust_9="207.63062"></scales>
<clustering>
<clus scale="   79.553">  5  6 -1 -1</clus>
<clus scale="   90.057">  7  8 -1 -1</clus>
<clus scale="  119.945">  1  5  2 -1</clus>
<clus scale="  207.631">  2  9  1 -1</clus>
<clus scale="  207.631">  2  5  1 -1</clus>
</clustering>
</event>
<event>
 9    2  0.1325014E-004  0.1513104E+03  0.7546771E-02  0.1198980E+00
         21   -1    0    0  501  502  0.00000000000E+00  0.00000000000E+00  0.58805473885E+02  0.58805473885E+02  0.00000000000E+00 0. -1.
          2   -1    0    0  502    0 -0.00000000000E+00 -0.00000000000E+00 -0.76159305441E+03  0.76159305441E+03  0.00000000000E+00 0. -1.
         23    2    1    2    0    0  0.71585854051E+02  0.95083369000E+02 -0.38411505836E+03  0.41032524642E+03  0.81590736200E+02 0.  0.
         24    2    1    2    0    0 -0.10947344350E+03 -0.10922247746E+03 -0.13267321831E+03  0.21972852923E+03  0.82246332983E+02 0.  0.
        -13    1    4    4    0    0 -0.49832892099E+02 -0.94736979735E+02 -0.11209569937E+03  0.15499631700E+03  0.00000000000E+00 0.  1.
         14    1    4    4    0    0 -0.59640551398E+02 -0.14485497722E+02 -0.20577518933E+02  0.64732212234E+02  0.00000000000E+00 0. -1.
        -13    1    3    3    0    0 -0.36363107530E+01  0.62028860396E+02 -0.16566413547E+03  0.17693334355E+03  0.00000000000E+00 0. -1.
         13    1    3    3    0    0  0.75222164804E+02  0.33054508604E+02 -0.21845092289E+03  0.23339190287E+03  0.00000000000E+00 0.  1.
          1    1    1    2  501    0  0.37887589447E+02  0.14139108457E+02 -0.18599930386E+03  0.19034475264E+03  0.00000000000E+00 0. -1.
<scales pt_clust_5="13000.00000" pt_clust_6="13000.00000" pt_clust_7="13000.00000" pt_clust_8="13000.00000" pt_clust_9="40.43990"></scales>
<clustering>
<clus scale="   40.440">  1  9  2 -1</clus>
<clus scale="   81.591">  7  8 -1 -1</clus>
<clus scale="   82.246">  5  6 -1 -1</clus>
<clus scale="  150.955">  2  7  1 -1</clus>
<clus scale="   40.440">  1  5  2 -1</clus>
</clustering>
</event>
<event>
 9    2  0.1325014E-004  0.9973558E+02  0.7546771E-02  0.1287642E+00
          2   -1    0    0  502    0 -0.00000000000E+00  0.00000000000E+00  0.76725317159E+03  0.76725317159E+03  0.00000000000E+00 0. -1.
         21   -1    0    0  501  502  0.00000000000E+00 -0.00000000000E+00 -0.74665283495E+02  0.74665283495E+02  0.00000000000E+00 0.  1.
         24    2    1    2    0    0 -0.28017163216E+02 -0.26287224671E+02  0.70212474046E+03  0.70753360691E+03  0.78413481731E+02 0.  0.
         23    2    1    2    0    0  0.47031093444E+02  0.38459679086E+02 -0.15463751700E+02  0.11104333312E+03  0.91653824517E+02 0.  0.
        -11    1    3    3    0    0  0.21732297126E+02 -0.24389050516E+02  0.17187668026E+03  0.17495345592E+03  0.00000000000E+00 0.  1.
         12    1    3    3    0    0 -0.49749460342E+02 -0.18981741548E+01  0.53024806021E+03  0.53258015098E+03  0.00000000000E+00 0. -1.
        -11    1    4    4    0    0  0.45541566992E+02 -0.13747018472E+02  0.15856352543E+02  0.50144179692E+02  0.00000000000E+00 0. -1.
         11    1    4    4    0    0  0.14895264524E+01  0.52206697559E+02 -0.31320104243E+02  0.60899153433E+02  0.00000000000E+00 0.  1.
          1    1    1    2  501    0 -0.19013930228E+02 -0.12172454416E+02  0.59268993282E+01  0.23341515051E+02  0.00000000000E+00 0. -1.
<scales pt_clust_5="13000.00000" pt_clust_6="13000.00000" pt_clust_7="13000.00000" pt_clust_8="13000.00000" pt_clust_9="22.57650"></scales>
<clustering>
<clus scale="   22.576">  2  9  1 -1</clus>
<clus scale="   78.413">  5  6 -1 -1</clus>
<clus scale="   87.724">  1  5  2 -1</clus>
<clus scale="   91.654">  7  8 -1 -1</clus>
<clus scale="   22.576">  2  5  1 -1</clus>
</clustering>
</event>
<event>
 9    2  0.1325014E-004  0.1343859E+03  0.7546771E-02  0.1240342E+00
         21   -1    0    0  501  502  0.00000000000E+00  0.00000000000E+00  0.41727128334E+02  0.41727128334E+02  0.00000000000E+00 0.  1.
         -1   -1    0    0    0  501 -0.00000000000E+00 -0.00000000000E+00 -0.92586964611E+03  0.92586964611E+03  0.00000000000E+00 0.  1.
         24    2    1    2    0    0 -0.87952936320E+00  0.41039454380E+02 -0.68409918089E+02  0.11332088709E+03  0.80477923490E+02 0.  0.
         23    2    1    2    0    0  0.97403360037E+02 -0.28130068148E+02 -0.62642575630E+03  0.64138957240E+03  0.93234329274E+02 0.  0.
        -11    1    3    3    0    0  0.99335995476E+01  0.64097699652E+02 -0.49933773223E+02  0.81857029074E+02  0.00000000000E+00 0.  1.
         12    1    3    3    0    0 -0.10813128911E+02 -0.23058245272E+02 -0.18476144867E+02  0.31463858012E+02  0.00000000000E+00 0. -1.
        -11    1    4    4    0    0  0.70610473197E+02 -0.62018429177E+02 -0.45499256547E+03  0.46459698570E+03  0.00000000000E+00 0.  1.
         11    1    4    4    0    0  0.26792886840E+02  0.33888361029E+02 -0.17143319082E+03  0.17679258671E+03  0.00000000000E+00 0. -1.
         -2    1    1    2    0  502 -0.96523830674E+02 -0.12909386231E+02 -0.18930684339E+03  0.21288631495E+03  0.00000000000E+00 0.  1.
<scales pt_clust_5="13000.00000" pt_clust_6="13000.00000" pt_clust_7="13000.00000" pt_clust_8="13000.00000" pt_clust_9="96.78296"></scales>
<clustering>
<clus scale="   80.478">  5  6 -1 -1</clus>
<clus scale="   90.342">  2  5  1 -1</clus>
<clus scale="   93.234">  7  8 -1 -1</clus>
<clus scale="   96.783">  1  9  2 -1</clus>
<clus scale="   96.783">  1  5  2 -1</clus>
</clustering>
</event>
<event>
 9    2  0.1325014E-004  0.1950480E+03  0.7546771E-02  0.1187309E+00
         21   -1    0    0  501  502  0.00000000000E+00  0.00000000000E+00  0.87812083238E+02  0.87812083238E+02  0.00000000000E+00 0.  1.
          2   -1    0    0  502    0 -0.00000000000E+00 -0.00000000000E+00 -0.92699072752E+03  0.92699072752E+03  0.00000000000E+00 0. -1.
         23    2    1    2    0    0  0.14031104321E+02  0.14500352589E+02 -0.11887048278E+03  0.14975120363E+03  0.88814971702E+02 0.  0.
         24    2    1    2    0    0 -0.11838306945E+03  0.13274282236E+03 -0.99772988246E+02  0.21880568920E+03  0.79284755297E+02 0.  0.
        -13    1    4    4    0    0 -0.11685261480E+03  0.13549691594E+03 -0.75288503700E+02  0.19411931023E+03  0.00000000000E+00 0.  1.
         14    1    4    4    0    0 -0.15304546474E+01 -0.27540935864E+01 -0.24484484546E+02  0.24686378964E+02  0.00000000000E+00 0. -1.
        -13    1    3    3    0    0 -0.35518186365E+02  0.71233886541E+00 -0.71450199804E+02  0.79794611606E+02  0.00000000000E+00 0.  1.
         13    1    3    3    0    0  0.49549290686E+02  0.13788013724E+02 -0.47420282973E+02  0.69956592021E+02  0.00000000000E+00 0. -1.
          1    1    1    2  501    0  0.10435196513E+03 -0.14724317495E+03 -0.62053517326E+03  0.64624591794E+03  0.00000000000E+00 0. -1.
<scales pt_clust_5="13000.00000" pt_clust_6="13000.00000" pt_clust_7="13000.00000" pt_clust_8="13000.00000" pt_clust_9="178.20688"></scales>
<clustering>
<clus scale="   79.285">  5  6 -1 -1</clus>
<clus scale="   88.815">  7  8 -1 -1</clus>
<clus scale="   91.078">  2  7  1 -1</clus>
<clus scale="  178.207">  1  9  2 -1</clus>
<clus scale="  178.207">  1  5  2 -1</clus>
</clustering>
</event>
<event>
 9    2  0.1325014E-004  0.1732766E+03  0.7546771E-02  0.1176583E+00
         21   -1    0    0  501  502  0.00000000000E+00  0.00000000000E+00  0.96800444875E+02  0.96800444875E+02  0.00000000000E+00 0. -1.
          2   -1    0    0  502    0 -0.00000000000E+00 -0.00000000000E+00 -0.61162504437E+03  0.61162504437E+03  0.00000000000E+00 0. -1.
         24    2    1    2    0    0 -0.64813394585E+02  0.88307474653E+02 -0.15397494075E+03  0.20526413632E+03  0.80162940847E+02 0.  0.
         23    2    1    2    0    0  0.83784121361E+02 -0.19958674521E+03 -0.22538346474E+03  0.32682629048E+03  0.95723926551E+02 0.  0.
        -11    1    3    3    0    0  0.15145814405E+01  0.51831933658E+02 -0.29718129881E+02  0.59766299428E+02  0.00000000000E+00 0.  1.
         12    1    3    3    0    0 -0.66327976026E+02  0.36475540995E+02 -0.12425681087E+03  0.14549783689E+03  0.00000000000E+00 0. -1.
        -11    1    4    4    0    0  0.21182245105E+02 -0.11601753438E+02 -0.72937415684E+02  0.76831990715E+02  0.00000000000E+00 0.  1.
         11    1    4    4    0    0  0.62601876256E+02 -0.18798499177E+03 -0.15244604906E+03  0.24999429976E+03  0.00000000000E+00 0. -1.
          1    1    1    2  501    0 -0.18970726776E+02  0.11127927055E+03 -0.13546619401E+03  0.17633506245E+03  0.00000000000E+00 0. -1.
<scales pt_clust_5="13000.00000" pt_clust_6="13000.00000" pt_clust_7="13000.00000" pt_clust_8="13000.00000" pt_clust_9="112.88480"></scales>
<clustering>
<clus scale="   80.163">  5  6 -1 -1</clus>
<clus scale="   95.724">  7  8 -1 -1</clus>
<clus scale="  112.885">  1  9  2 -1</clus>
<clus scale="  165.190">  2  5  1 -1</clus>
<clus scale="  112.885">  1  5  2 -1</clus>
</clustering>
</event>
<event>
 9    2  0.1325014E-004  0.9681612E+02  0.7546771E-02  0.1294351E+00
          2   -1    0    0  502    0 -0.00000000000E+00  0.00000000000E+00  0.74181992929E+02  0.74181992929E+02  0.00000000000E+00 0. -1.
         21   -1    0    0  501  502  0.00000000000E+00 -0.00000000000E+00 -0.38878507339E+03  0.38878507339E+03  0.00000000000E+00 0. -1.
         23    2    1    2    0    0  0.20676982716E+02  0.23228914953E+02 -0.42126937998E+02  0.10692223538E+03  0.93223202096E+02 0.  0.
         24    2    1    2    0    0 -0.34949162724E+02  0.35280770770E+02 -0.27983076035E+03  0.29537219419E+03  0.80456832540E+02 0.  0.
        -13    1    4    4    0    0  0.90619262437E+01  0.23909563002E+02 -0.22505728450E+02  0.34063081529E+02  0.00000000000E+00 0.  1.
         14    1    4    4    0    0 -0.44011088967E+02  0.11371207768E+02 -0.25732503190E+03  0.26130911266E+03  0.00000000000E+00 0. -1.
        -11    1    3    3    0    0 -0.17761259937E+02  0.93780246001E+01  0.22689966770E+02  0.30302545966E+02  0.00000000000E+00 0. -1.
         11    1    3    3    0    0  0.38438242654E+02  0.13850890352E+02 -0.64816904769E+02  0.76619689412E+02  0.00000000000E+00 0.  1.
          1    1    1    2  501    0  0.14272180007E+02 -0.58509685723E+02  0.73546178885E+01  0.60672636747E+02  0.00000000000E+00 0. -1.
<scales pt_clust_5="13000.00000" pt_clust_6="13000.00000" pt_clust_7="13000.00000" pt_clust_8="13000.00000" pt_clust_9="60.22526"></scales>
<clustering>
<clus scale="   60.225">  2  9  1 -1</clus>
<clus scale="   80.457">  5  6 -1 -1</clus>
<clus scale="   84.594">  2  5  1 -1</clus>
<clus scale="   93.223">  7  8 -1 -1</clus>
<clus scale="   60.225">  2  5  1 -1</clus>
</clustering>
</event>
<event>
 9    2  0.1325014E-004  0.2076242E+03  0.7546771E-02  0.1144427E+00
         21   -1    0    0  501  502  0.00000000000E+00  0.00000000000E+00  0.90325093295E+02  0.90325093295E+02  0.00000000000E+00 0.  1.
          2   -1    0    0  502    0 -0.00000000000E+00 -0.00000000000E+00 -0.82929811098E+03  0.82929811098E+03  0.00000000000E+00 0. -1.
         23    2    1    2    0    0  0.11235254306E+03 -0.14834231530E+03 -0.31034783287E+03  0.37336633373E+03  0.91967958304E+02 0.  0.
         24    2    1    2    0    0 -0.46969327569E+02  0.19048186719E+03 -0.15753407663E+03  0.26422656076E+03  0.80679803237E+02 0.  0.
        -11    1    4    4    0    0 -0.90354106668E+01  0.54120418942E+02 -0.34155921639E+01  0.54975673368E+02  0.00000000000E+00 0.  1.
         12    1    4    4    0    0 -0.37933916902E+02  0.13636144825E+03 -0.15411848447E+03  0.20925088739E+03  0.00000000000E+00 0. -1.
        -13    1    3    3    0    0  0.93895409349E+02 -0.76419032304E+02 -0.24967169961E+03  0.27747463665E+03  0.00000000000E+00 0. -1.
         13    1    3    3    0    0  0.18457133711E+02 -0.71923283000E+02 -0.60676133253E+02  0.95891697080E+02  0.00000000000E+00 0.  1.
          1    1    1    2  501    0 -0.65383215491E+02 -0.42139551887E+02 -0.27109110819E+03  0.28203030979E+03  0.00000000000E+00 0. -1.
<scales pt_clust_5="13000.00000" pt_clust_6="13000.00000" pt_clust_7="13000.00000" pt_clust_8="13000.00000" pt_clust_9="77.78633"></scales>
<clustering>
<clus scale="   77.786">  1  9  2 -1</clus>
<clus scale="   80.680">  5  6 -1 -1</clus>
<clus scale="   91.968">  7  8 -1 -1</clus>
<clus scale="  202.877">  1  5  2 -1</clus>
<clus scale="   77.786">  1  5  2 -1</clus>
</clustering>
</event>
<event>
 9    2  0.1325014E-004  0.1227605E+03  0.7546771E-02  0.1242043E+00
         21   -1    0    0  501  502  0.00000000000E+00  0.00000000000E+00  0.13185661207E+03  0.13185661207E+03  0.00000000000E+00 0. -1.
          2   -1    0    0  502    0 -0.00000000000E+00 -0.00000000000E+00 -0.18790930834E+03  0.18790930834E+03  0.00000000000E+00 0. -1.
         23    2    1    2    0    0 -0.66193203672E+02 -0.41531546737E+02 -0.79229423049E+02  0.14439773889E+03  0.92016280803E+02 0.  0.
         24    2    1    2    0    0  0.51393178981E+02  0.80731660424E+02  0.38186773143E+02  0.13085985493E+03  0.80667292927E+02 0.  0.
        -13    1    4    4    0    0  0.61409860448E+02  0.22941557890E+02  0.28202587877E+02  0.71364360864E+02  0.00000000000E+00 0.  1.
         14    1    4    4    0    0 -0.10016681466E+02  0.57790102534E+02  0.99841852658E+01  0.59495494064E+02  0.00000000000E+00 0. -1.
        -11    1    3    3    0    0 -0.45704368400E+02 -0.38065576872E+02  0.30271210009E+01  0.59557039004E+02  0.00000000000E+00 0.  1.
         11    1    3    3    0    0 -0.20488835272E+02 -0.34659698649E+01 -0.82256544050E+02  0.84840699885E+02  0.00000000000E+00 0. -1.
          1    1    1    2  501    0  0.14800024691E+02 -0.39200113687E+02 -0.15010046365E+02  0.44508326589E+02  0.00000000000E+00 0. -1.
<scales pt_clust_5="13000.00000" pt_clust_6="13000.00000" pt_clust_7="13000.00000" pt_clust_8="13000.00000" pt_clust_9="41.90097"></scales>
<clustering>
<clus scale="   41.901">  1  9  2 -1</clus>
<clus scale="   80.667">  5  6 -1 -1</clus>
<clus scale="   92.016">  7  8 -1 -1</clus>
<clus scale="  114.500">  1  5  2 -1</clus>
<clus scale="   41.901">  1  5  2 -1</clus>
</clustering>
</event>
<event>
 9    2  0.1325014E-004  0.1555811E+03  0.7546771E-02  0.1194568E+00
          2   -1    0    0  502    0 -0.00000000000E+00  0.00000000000E+00  0.83266126139E+03  0.83266126139E+03  0.00000000000E+00 0. -1.
         21   -1    0    0  501  502  0.00000000000E+00 -0.00000000000E+00 -0.78846231142E+02  0.78846231142E+02  0.00000000000E+00 0. -1.
         24    2    1    2    0    0 -0.93153107094E+02  0.10823364110E+03  0.65485145608E+03  0.67488358634E+03  0.79027863158E+02 0.  0.
         23    2    1    2    0    0  0.55228927064E+02 -0.82303827916E+02  0.12788018119E+03  0.18233975745E+03  0.84085027989E+02 0.  0.
        -13    1    3    3    0    0 -0.36413108922E+02  0.11101318221E+01  0.88511492232E+02  0.95715365283E+02  0.00000000000E+00 0.  1.
         14    1    3    3    0    0 -0.56739998172E+02  0.10712350928E+03  0.56633996384E+03  0.57916822105E+03  0.00000000000E+00 0. -1.
        -11    1    4    4    0    0  0.34310727716E+02 -0.82880640116E+02  0.13334779074E+03  0.16071110677E+03  0.00000000000E+00 0.  1.
         11    1    4    4    0    0  0.20918199349E+02  0.57681219962E+00 -0.54676095499E+01  0.21628650686E+02  0.00000000000E+00 0. -1.
          1    1    1    2  501    0  0.37924180030E+02 -0.25929813183E+02 -0.28916607024E+02  0.54284148740E+02  0.00000000000E+00 0. -1.
<scales pt_clust_5="13000.00000" pt_clust_6="13000.00000" pt_clust_7="13000.00000" pt_clust_8="13000.00000" pt_clust_9="45.94125"></scales>
<clustering>
<clus scale="   45.941">  2  9  1 -1</clus>
<clus scale="   79.028">  5  6 -1 -1</clus>
<clus scale="   84.085">  7  8 -1 -1</clus>
<clus scale="  152.907">  1  5  2 -1</clus>
<clus scale="   45.941">  2  5  1 -1</clus>
</clustering>
</event>
<event>
 9    2  0.1325014E-004  0.1477156E+03  0.7546771E-02  0.1225470E+00
         21   -1    0    0  501  502  0.00000000000E+00  0.00000000000E+00  0.66603711257E+02  0.66603711257E+02  0.00000000000E+00 0. -1.
          2   -1    0    0  502    0 -0.00000000000E+00 -0.00000000000E+00 -0.58015526614E+03  0.58015526614E+03  0.00000000000E+00 0. -1.
         24    2    1    2    0    0 -0.19458723373E+02  0.34759505426E+02 -0.74252998185E+02  0.11849382891E+03  0.83309150870E+02 0.  0.
         23    2    1    2    0    0  0.29690107705E+02  0.10205737144E+03 -0.13521348966E+03  0.19466169074E+03  0.91177170922E+02 0.  0.
        -11    1    3    3    0    0 -0.22089488415E+02  0.17838266403E+02  0.11804619191E+02  0.30748955770E+02  0.00000000000E+00 0.  1.
         12    1    3    3    0    0  0.26307650418E+01  0.16921239023E+02 -0.86057617376E+02  0.87744873145E+02  0.00000000000E+00 0. -1.
        -11    1    4    4    0    0  0.19704345308E+02 -0.11011245315E+02 -0.42414981523E+02  0.48047262201E+02  0.00000000000E+00 0.  1.
         11    1    4    4    0    0  0.99857623970E+01  0.11306861675E+03 -0.92798508134E+02  0.14661442854E+03  0.00000000000E+00 0. -1.
          1    1    1    2  501    0 -0.10231384332E+02 -0.13681687686E+03 -0.30408506704E+03  0.33360345774E+03  0.00000000000E+00 0. -1.
<scales pt_clust_5="13000.00000" pt_clust_6="13000.00000" pt_clust_7="13000.00000" pt_clust_8="13000.00000" pt_clust_9="116.21806"></scales>
<clustering>
<clus scale="   83.309">  5  6 -1 -1</clus>
<clus scale="   91.177">  7  8 -1 -1</clus>
<clus scale="   92.343">  2  5  1 -1</clus>
<clus scale="  116.218">  1  9  2 -1</clus>
<clus scale="  116.218">  1  5  2 -1</clus>
</clustering>
</event>
<event>
 9    2  0.1325014E-004  0.1460358E+03  0.7546771E-02  0.1231909E+00
         21   -1    0    0  501  502  0.00000000000E+00  0.00000000000E+00  0.13692932298E+03  0.13692932298E+03  0.00000000000E+00 0. -1.
          2   -1    0    0  502    0 -0.00000000000E+00 -0.00000000000E+00 -0.54062799416E+03  0.54062799416E+03  0.00000000000E+00 0. -1.
         24    2    1    2    0    0 -0.11966424524E+02 -0.14469383013E+02 -0.41519367535E+02  0.93382891660E+02  0.81510417822E+02 0.  0.
         23    2    1    2    0    0  0.37657726938E+02 -0.10549576082E+03  0.50421747344E+02  0.15371965895E+03  0.92411692957E+02 0.  0.
        -11    1    3    3    0    0  0.12907351993E+02  0.16008704061E+02  0.14333358159E+02  0.25066381815E+02  0.00000000000E+00 0.  1.
         12    1    3    3    0    0 -0.24873776517E+02 -0.30478087074E+02 -0.55852725695E+02  0.68316509845E+02  0.00000000000E+00 0. -1.
        -11    1    4    4    0    0  0.67829304580E+02 -0.60916535464E+02  0.35743578681E+02  0.97924676511E+02  0.00000000000E+00 0.  1.
         11    1    4    4    0    0 -0.30171577643E+02 -0.44579225353E+02  0.14678168663E+02  0.55794982443E+02  0.00000000000E+00 0. -1.
          1    1    1    2  501    0 -0.25691302414E+02  0.11996514383E+03 -0.41260105099E+03  0.43045476653E+03  0.00000000000E+00 0. -1.
<scales pt_clust_5="13000.00000" pt_clust_6="13000.00000" pt_clust_7="13000.00000" pt_clust_8="13000.00000" pt_clust_9="113.07756"></scales>
<clustering>
<clus scale="   81.510">  5  6 -1 -1</clus>
<clus scale="   83.645">  2  5  1 -1</clus>
<clus scale="   92.412">  7  8 -1 -1</clus>
<clus scale="  113.078">  1  9  2 -1</clus>
<clus scale="  113.078">  1  5  2 -1</clus>
</clustering>
</event>
<event>
 9    2  0.1325014E-004  0.1018692E+03  0.7546771E-02  0.1281400E+00
          2   -1    0    0  502    0 -0.00000000000E+00  0.00000000000E+00  0.29203684600E+03  0.29203684600E+03  0.00000000000E+00 0. -1.
         21   -1    0    0  501  502  0.00000000000E+00 -0.00000000000E+00 -0.66278317362E+02  0.66278317362E+02  0.00000000000E+00 0.  1.
         23    2    1    2    0    0 -0.14659986452E+02 -0.44716574015E+02  0.22106699742E+03  0.24350992039E+03  0.90619957985E+02 0.  0.
         24    2    1    2    0    0  0.32669905242E+02  0.35223857340E+02  0.95172766738E+01  0.93882607762E+02  0.80095709314E+02 0.  0.
        -11    1    4    4    0    0  0.27293022550E+02  0.58932516439E+02  0.19184983940E+02  0.67720116528E+02  0.00000000000E+00 0.  1.
         12    1    4    4    0    0  0.53768826919E+01 -0.23708659100E+02 -0.96677072663E+01  0.26162491234E+02  0.00000000000E+00 0. -1.
        -11    1    3    3    0    0 -0.39661417555E+02 -0.55011153646E+01  0.40122576780E+02  0.56684314234E+02  0.00000000000E+00 0.  1.
         11    1    3    3    0    0  0.25001431103E+02 -0.39215458650E+02  0.18094442064E+03  0.18682560616E+03  0.00000000000E+00 0. -1.
          1    1    1    2  501    0 -0.18009918790E+02  0.94927166748E+01 -0.48257454603E+01  0.20922635206E+02  0.00000000000E+00 0. -1.
<scales pt_clust_5="13000.00000" pt_clust_6="13000.00000" pt_clust_7="13000.00000" pt_clust_8="13000.00000" pt_clust_9="20.35851"></scales>
<clustering>
<clus scale="   20.359">  2  9  1 -1</clus>
<clus scale="   80.096">  5  6 -1 -1</clus>
<clus scale="   90.620">  7  8 -1 -1</clus>
<clus scale="   92.632">  2  5  1 -1</clus>
<clus scale="   20.359">  2  5  1 -1</clus>
</clustering>
</event>
<event>
 9    2  0.1325014E-004  0.8388634E+02  0.7546771E-02  0.1321300E+00
         21   -1    0    0  501  502  0.00000000000E+00  0.00000000000E+00  0.56302326532E+02  0.56302326532E+02  0.00000000000E+00 0. -1.
          2   -1    0    0  502    0 -0.00000000000E+00 -0.00000000000E+00 -0.56134968828E+03  0.56134968828E+03  0.00000000000E+00 0. -1.
         23    2    1    2    0    0  0.23149044517E+02  0.17818294648E+02 -0.17191300257E+03  0.18893770276E+03  0.72732421836E+02 0.  0.
         24    2    1    2    0    0 -0.12734386080E+02 -0.58732583255E+02 -0.52538637028E+01  0.98126860026E+02  0.77392484455E+02 0.  0.
        -13    1    4    4    0    0 -0.38075683239E+02 -0.49495928665E+02 -0.22197087796E+02  0.66274545002E+02  0.00000000000E+00 0.  1.
         14    1    4    4    0    0  0.25341297159E+02 -0.92366545897E+01  0.16943224093E+02  0.31852315024E+02  0.00000000000E+00 0. -1.
        -11    1    3    3    0    0 -0.25403943373E+02 -0.28448264441E+01 -0.52979217112E+02  0.58823896693E+02  0.00000000000E+00 0. -1.
         11    1    3    3    0    0  0.48552987890E+02  0.20663121092E+02 -0.11893378546E+03  0.13011380607E+03  0.00000000000E+00 0.  1.
          1    1    1    2  501    0 -0.10414658437E+02  0.40914288607E+02 -0.32788049548E+03  0.33058745203E+03  0.00000000000E+00 0. -1.
<scales pt_clust_5="13000.00000" pt_clust_6="13000.00000" pt_clust_7="13000.00000" pt_clust_8="13000.00000" pt_clust_9="42.21902"></scales>
<clustering>
<clus scale="   42.219">  1  9  2 -1</clus>
<clus scale="   72.732">  7  8 -1 -1</clus>
<clus scale="   77.392">  5  6 -1 -1</clus>
<clus scale="   79.607">  2  7  1 -1</clus>
<clus scale="   42.219">  1  5  2 -1</clus>
</clustering>
</event>
<event>
 9    2  0.1325014E-004  0.1242129E+03  0.7546771E-02  0.1237756E+00
          2   -1    0    0  502    0 -0.00000000000E+00  0.00000000000E+00  0.15277735762E+04  0.15277735762E+04  0.00000000000E+00 0. -1.
         21   -1    0    0  501  502  0.00000000000E+00 -0.00000000000E+00 -0.38915569832E+02  0.38915569832E+02  0.00000000000E+00 0. -1.
         24    2    1    2    0    0  0.76052997998E+02 -0.49540302314E+02  0.13225583936E+04  0.13284463223E+04  0.85852353870E+02 0.  0.
         23    2    1    2    0    0 -0.49048265278E+02  0.22487348768E+02  0.16964417433E+03  0.19987221031E+03  0.90875416856E+02 0.  0.
        -11    1    3    3    0    0  0.13873477864E+02  0.18007861250E+02  0.10505994535E+03  0.10749115578E+03  0.00000000000E+00 0.  1.
         12    1    3    3    0    0  0.62179520133E+02 -0.67548163565E+02  0.12174984482E+04  0.12209551665E+04  0.00000000000E+00 0. -1.
        -11    1    4    4    0    0 -0.25703012848E+02  0.45166665720E+02  0.15626885070E+03  0.16468341223E+03  0.00000000000E+00 0.  1.
         11    1    4    4    0    0 -0.23345252430E+02 -0.22679316953E+02  0.13375323623E+02  0.35188798082E+02  0.00000000000E+00 0. -1.
          1    1    1    2  501    0 -0.27004732719E+02  0.27052953546E+02 -0.33445615409E+01  0.38370613453E+02  0.00000000000E+00 0. -1.
<scales pt_clust_5="13000.00000" pt_clust_6="13000.00000" pt_clust_7="13000.00000" pt_clust_8="13000.00000" pt_clust_9="38.22457"></scales>
<clustering>
<clus scale="   38.225">  2  9  1 -1</clus>
<clus scale="   85.852">  5  6 -1 -1</clus>
<clus scale="   90.875">  7  8 -1 -1</clus>
<clus scale="  120.587">  1  5  2 -1</clus>
<clus scale="   38.225">  2  5  1 -1</clus>
</clustering>
</event>
<event>
 9    2  0.1325014E-004  0.1268765E+03  0.7546771E-02  0.1235841E+00
          2   -1    0    0  502    0 -0.00000000000E+00  0.00000000000E+00  0.62327392109E+02  0.62327392109E+02  0.00000000000E+00 0. -1.
         21   -1    0    0  501  502  0.00000000000E+00 -0.00000000000E+00 -0.42553306201E+03  0.42553306201E+03  0.00000000000E+00 0. -1.
         23    2    1    2    0    0 -0.10332062313E+02  0.10232988185E+03 -0.74906783688E+02  0.15708312981E+03  0.92119092466E+02 0.  0.
         24    2    1    2    0    0  0.65361956283E+01 -0.52019208935E+02 -0.25022394361E+03  0.26756914709E+03  0.78946225812E+02 0.  0.
        -11    1    4    4    0    0 -0.21265669407E+02 -0.49108861204E+02 -0.21993519264E+03  0.22635237552E+03  0.00000000000E+00 0.  1.
         12    1    4    4    0    0  0.27801865035E+02 -0.29103477309E+01 -0.30288750970E+02  0.41216771570E+02  0.00000000000E+00 0. -1.
        -13    1    3    3    0    0  0.15315426845E+01  0.21703798639E+02  0.21676067882E+02  0.30712414708E+02  0.00000000000E+00 0.  1.
         13    1    3    3    0    0 -0.11863604998E+02  0.80626083210E+02 -0.96582851570E+02  0.12637071510E+03  0.00000000000E+00 0. -1.
          1    1    1    2  501    0  0.37958666850E+01 -0.50310672914E+02 -0.38074942603E+02  0.63208177218E+02  0.00000000000E+00 0. -1.
<scales pt_clust_5="13000.00000" pt_clust_6="13000.00000" pt_clust_7="13000.00000" pt_clust_8="13000.00000" pt_clust_9="50.45369"></scales>
<clustering>
<clus scale="   50.454">  2  9  1 -1</clus>
<clus scale="   78.946">  5  6 -1 -1</clus>
<clus scale="   92.119">  7  8 -1 -1</clus>
<clus scale="  117.662">  2  5  1 -1</clus>
<clus scale="   50.454">  2  5  1 -1</clus>
</clustering>
</event>
<event>
 9    2  0.1325014E-004  0.1389621E+03  0.7546771E-02  0.1217342E+00
          2   -1    0    0  502    0 -0.00000000000E+00  0.00000000000E+00  0.26485978976E+03  0.26485978976E+03  0.00000000000E+00 0. -1.
         21   -1    0    0  501  502  0.00000000000E+00 -0.00000000000E+00 -0.11942285865E+03  0.11942285865E+03  0.00000000000E+00 0. -1.
         24    2    1    2    0    0  0.34655309820E+02 -0.11296293055E+03  0.11401645692E+03  0.18247208455E+03  0.79590797296E+02 0.  0.
         23    2    1    2    0    0 -0.19894391996E+02  0.88143569615E+02  0.75545055140E+02  0.14907666569E+03  0.91387751912E+02 0.  0.
        -13    1    3    3    0    0  0.90601649147E+01 -0.40051324986E+02  0.94105541497E+02  0.10267447668E+03  0.00000000000E+00 0.  1.
         14    1    3    3    0    0  0.25595144905E+02 -0.72911605559E+02  0.19910915422E+02  0.79797607864E+02  0.00000000000E+00 0. -1.
        -13    1    4    4    0    0  0.23241459475E+02  0.71397362256E+02  0.21860803246E+02  0.78202579844E+02  0.00000000000E+00 0.  1.
         13    1    4    4    0    0 -0.43135851471E+02  0.16746207359E+02  0.53684251893E+02  0.70874085845E+02  0.00000000000E+00 0. -1.
          1    1    1    2  501    0 -0.14760917824E+02  0.24819360930E+02 -0.44124580951E+02  0.52733898169E+02  0.00000000000E+00 0. -1.
<scales pt_clust_5="13000.00000" pt_clust_6="13000.00000" pt_clust_7="13000.00000" pt_clust_8="13000.00000" pt_clust_9="28.87707"></scales>
<clustering>
<clus scale="   28.877">  2  9  1 -1</clus>
<clus scale="   79.591">  5  6 -1 -1</clus>
<clus scale="   91.388">  7  8 -1 -1</clus>
<clus scale="  131.505">  1  5  2 -1</clus>
<clus scale="   28.877">  2  5  1 -1</clus>
</clustering>
</event>
<event>
 9    2  0.1325014E-004  0.2476672E+03  0.7546771E-02  0.1115196E+00
         21   -1    0    0  501  502  0.00000000000E+00  0.00000000000E+00  0.61872829193E+02  0.61872829193E+02  0.00000000000E+00 0. -1.
          2   -1    0    0  502    0 -0.00000000000E+00 -0.00000000000E+00 -0.20993928151E+04  0.20993928151E+04  0.00000000000E+00 0. -1.
         23    2    1    2    0    0  0.19204341415E+03  0.10773609418E+03 -0.62482172761E+03  0.66832442228E+03  0.88134007141E+02 0.  0.
         24    2    1    2    0    0 -0.83312552223E+02 -0.26440927522E+03 -0.93553711931E+03  0.97908167063E+03  0.80733945561E+02 0.  0.
        -11    1    4    4    0    0 -0.34558307294E+02 -0.64458531014E+02 -0.14784458442E+03  0.16494605168E+03  0.00000000000E+00 0.  1.
         12    1    4    4    0    0 -0.48754244929E+02 -0.19995074421E+03 -0.78769253490E+03  0.81413561895E+03  0.00000000000E+00 0. -1.
        -13    1    3    3    0    0  0.20195025740E+02  0.51092459760E+02 -0.11774786077E+03  0.12993397256E+03  0.00000000000E+00 0.  1.
         13    1    3    3    0    0  0.17184838841E+03  0.56643634423E+02 -0.50707386683E+03  0.53839044971E+03  0.00000000000E+00 0. -1.
          1    1    1    2  501    0 -0.10873086193E+03  0.15667318104E+03 -0.47716113899E+03  0.51385955139E+03  0.00000000000E+00 0. -1.
<scales pt_clust_5="13000.00000" pt_clust_6="13000.00000" pt_clust_7="13000.00000" pt_clust_8="13000.00000" pt_clust_9="190.70628"></scales>
<clustering>
<clus scale="   80.734">  5  6 -1 -1</clus>
<clus scale="   88.134">  7  8 -1 -1</clus>
<clus scale="  190.706">  1  9  2 -1</clus>
<clus scale="  245.131">  1  5  2 -1</clus>
<clus scale="  190.706">  1  5  2 -1</clus>
</clustering>
</event>
<event>
 9    2  0.1325014E-004  0.1137898E+03  0.7546771E-02  0.1269985E+00
          2   -1    0    0  502    0 -0.00000000000E+00  0.00000000000E+00  0.36281164200E+03  0.36281164200E+03  0.00000000000E+00 0. -1.
         21   -1    0    0  501  502  0.00000000000E+00 -0.00000000000E+00 -0.78716543087E+02  0.78716543087E+02  0.00000000000E+00 0. -1.
         23    2    1    2    0    0  0.28740223016E+02  0.11785219932E+02  0.28406516482E+03  0.30698209833E+03  0.11216104048E+03 0.  0.
         24    2    1    2    0    0  0.18888310097E+02  0.77711884773E+00  0.12862321834E+02  0.83644616277E+02  0.80458749288E+02 0.  0.
        -11    1    4    4    0    0 -0.30867395961E+02  0.79357059126E+01  0.95334621935E+01  0.33266476566E+02  0.00000000000E+00 0.  1.
         12    1    4    4    0    0  0.49755706059E+02 -0.71585870648E+01  0.33288596402E+01  0.50378139710E+02  0.00000000000E+00 0. -1.
        -11    1    3    3    0    0  0.48732153204E+01  0.49732635313E+02  0.58191898725E+02  0.76703196283E+02  0.00000000000E+00 0. -1.
         11    1    3    3    0    0  0.23867007696E+02 -0.37947415382E+02  0.22587326609E+03  0.23027890204E+03  0.00000000000E+00 0.  1.
          1    1    1    2  501    0 -0.47628533113E+02 -0.12562338780E+02 -0.12832387741E+02  0.50901470482E+02  0.00000000000E+00 0. -1.
<scales pt_clust_5="13000.00000" pt_clust_6="13000.00000" pt_clust_7="13000.00000" pt_clust_8="13000.00000" pt_clust_9="49.25738"></scales>
<clustering>
<clus scale="   49.257">  2  9  1 -1</clus>
<clus scale="   80.459">  5  6 -1 -1</clus>
<clus scale="   82.714">  2  5  1 -1</clus>
<clus scale="  112.161">  7  8 -1 -1</clus>
<clus scale="   49.257">  2  5  1 -1</clus>
</clustering>
</event>
<event>
 9    2  0.1325014E-004  0.1185428E+03  0.7546771E-02  0.1249063E+00
         21   -1    0    0  501  502  0.00000000000E+00  0.00000000000E+00  0.11913905968E+03  0.11913905968E+03  0.00000000000E+00 0.  1.
          2   -1    0    0  502    0 -0.00000000000E+00 -0.00000000000E+00 -0.13843794480E+04  0.13843794480E+04  0.00000000000E+00 0. -1.
         24    2    1    2    0    0  0.14604004223E+02  0.75201644392E+02 -0.13392586129E+04  0.13438595682E+04  0.80475727087E+02 0.  0.
         23    2    1    2    0    0  0.42786490529E+01 -0.44971784195E+02  0.37316530185E+02  0.10849827674E+03  0.91315849770E+02 0.  0.
        -11    1    3    3    0    0  0.24986433050E+02  0.19848807144E+02 -0.15439207206E+03  0.15765534845E+03  0.00000000000E+00 0.  1.
         12    1    3    3    0    0 -0.10382428828E+02  0.55352837248E+02 -0.11848665408E+04  0.11862042198E+04  0.00000000000E+00 0. -1.
        -11    1    4    4    0    0  0.44240331361E+02 -0.48884071623E+01  0.98546006415E+01  0.45587460966E+02  0.00000000000E+00 0.  1.
         11    1    4    4    0    0 -0.39961682308E+02 -0.40083377032E+02  0.27461929544E+02  0.62910815775E+02  0.00000000000E+00 0. -1.
          1    1    1    2  501    0 -0.18882653276E+02 -0.30229860197E+02  0.36701694365E+02  0.51160662736E+02  0.00000000000E+00 0. -1.
<scales pt_clust_5="13000.00000" pt_clust_6="13000.00000" pt_clust_7="13000.00000" pt_clust_8="13000.00000" pt_clust_9="35.64266"></scales>
<clustering>
<clus scale="   35.643">  1  9  2 -1</clus>
<clus scale="   80.476">  5  6 -1 -1</clus>
<clus scale="   91.316">  7  8 -1 -1</clus>
<clus scale="  110.409">  2  5  1 -1</clus>
<clus scale="   35.643">  1  5  2 -1</clus>
</clustering>
</event>
<event>
 9    2  0.1325014E-004  0.9651165E+02  0.7546771E-02  0.1289703E+00
         21   -1    0    0  501  502  0.00000000000E+00  0.00000000000E+00  0.23478015260E+02  0.23478015260E+02  0.00000000000E+00 0. -1.
         -3   -1    0    0    0  501 -0.00000000000E+00 -0.00000000000E+00 -0.62176255091E+03  0.62176255091E+03  0.00000000000E+00 0.  1.
         24    2    1    2    0    0 -0.78315927680E+01  0.40334491331E+02 -0.28195276593E+03  0.29609754154E+03  0.80549282171E+02 0.  0.
         23    2    1    2    0    0 -0.66821169854E+01 -0.60416815593E+02 -0.15991775311E+03  0.19077859645E+03  0.84427144981E+02 0.  0.
        -13    1    3    3    0    0  0.28179654190E+02 -0.61024691037E+01 -0.61113351967E+02  0.67573477253E+02  0.00000000000E+00 0.  1.
         14    1    3    3    0    0 -0.36011246958E+02  0.46436960435E+02 -0.22083941396E+03  0.22852406429E+03  0.00000000000E+00 0. -1.
        -13    1    4    4    0    0 -0.34704513390E+02 -0.54204280739E+02 -0.14452545405E+03  0.15820908371E+03  0.00000000000E+00 0. -1.
         13    1    4    4    0    0  0.28022396405E+02 -0.62125348538E+01 -0.15392299054E+02  0.32569512734E+02  0.00000000000E+00 0.  1.
         -4    1    1    2    0  502  0.14513709753E+02  0.20082324261E+02 -0.15641401662E+03  0.15836442818E+03  0.00000000000E+00 0.  1.
<scales pt_clust_5="13000.00000" pt_clust_6="13000.00000" pt_clust_7="13000.00000" pt_clust_8="13000.00000" pt_clust_9="24.77798"></scales>
<clustering>
<clus scale="   24.778">  1  9  2 -1</clus>
<clus scale="   80.549">  5  6 -1 -1</clus>
<clus scale="   84.427">  7  8 -1 -1</clus>
<clus scale="   93.138">  2  5  1 -1</clus>
<clus scale="   24.778">  1  5  2 -1</clus>
</clustering>
</event>
<event>
 9    2  0.1325014E-004  0.2770648E+03  0.7546771E-02  0.1132391E+00
         21   -1    0    0  501  502  0.00000000000E+00  0.00000000000E+00  0.93722880363E+02  0.93722880363E+02  0.00000000000E+00 0. -1.
          2   -1    0    0  502    0 -0.00000000000E+00 -0.00000000000E+00 -0.12802561220E+04  0.12802561220E+04  0.00000000000E+00 0. -1.
         23    2    1    2    0    0 -0.16304706001E+02 -0.27427466518E+02 -0.76548159638E+02  0.13750415139E+03  0.10967981377E+03 0.  0.
         24    2    1    2    0    0  0.19322960055E+03 -0.17607682681E+03 -0.51594069079E+03  0.58409064328E+03  0.81402430459E+02 0.  0.
        -11    1    4    4    0    0  0.54453493918E+02 -0.38130133430E+02 -0.67108517646E+02  0.94459743891E+02  0.00000000000E+00 0.  1.
         12    1    4    4    0    0  0.13877610664E+03 -0.13794669338E+03 -0.44883217314E+03  0.48963089939E+03  0.00000000000E+00 0. -1.
        -11    1    3    3    0    0 -0.43667880563E+02  0.14078251145E+02 -0.74811292889E+02  0.87759959503E+02  0.00000000000E+00 0.  1.
         11    1    3    3    0    0  0.27363174561E+02 -0.41505717663E+02 -0.17368667491E+01  0.49744191892E+02  0.00000000000E+00 0. -1.
          1    1    1    2  501    0 -0.17692489455E+03  0.20350429333E+03 -0.59404439120E+03  0.65238420769E+03  0.00000000000E+00 0. -1.
<scales pt_clust_5="13000.00000" pt_clust_6="13000.00000" pt_clust_7="13000.00000" pt_clust_8="13000.00000" pt_clust_9="264.83694"></scales>
<clustering>
<clus scale="   81.402">  5  6 -1 -1</clus>
<clus scale="  109.680">  7  8 -1 -1</clus>
<clus scale="  114.227">  2  7  1 -1</clus>
<clus scale="  264.837">  1  9  2 -1</clus>
<clus scale="  264.837">  1  5  2 -1</clus>
</clustering>
</event>
<event>
 9    2  0.1325014E-004  0.1063592E+03  0.7546771E-02  0.1271949E+00
          4   -1    0    0  502    0 -0.00000000000E+00  0.00000000000E+00  0.22487161063E+03  0.22487161063E+03  0.00000000000E+00 0. -1.
         21   -1    0    0  501  502  0.00000000000E+00 -0.00000000000E+00 -0.20252010446E+03  0.20252010446E+03  0.00000000000E+00 0. -1.
         23    2    1    2    0    0 -0.60100567836E+02 -0.21388248650E+02  0.16170541403E+03  0.19641703255E+03  0.91441097509E+02 0.  0.
         24    2    1    2    0    0 -0.22364300151E+02  0.48820776248E+02 -0.77677891190E+02  0.12440578907E+03  0.80989600932E+02 0.  0.
        -13    1    4    4    0    0  0.27067967303E+02  0.22559218305E+02 -0.52019378717E+02  0.62830000371E+02  0.00000000000E+00 0.  1.
         14    1    4    4    0    0 -0.49432267455E+02  0.26261557942E+02 -0.25658512473E+02  0.61575788697E+02  0.00000000000E+00 0. -1.
        -11    1    3    3    0    0 -0.52135538185E+02  0.29549698632E+02  0.85606155015E+02  0.10449742967E+03  0.00000000000E+00 0.  1.
         11    1    3    3    0    0 -0.79650296518E+01 -0.50937947282E+02  0.76099259014E+02  0.91919602878E+02  0.00000000000E+00 0. -1.
          3    1    1    2  501    0  0.82464867988E+02 -0.27432527597E+02 -0.61676016671E+02  0.10656889347E+03  0.00000000000E+00 0. -1.
<scales pt_clust_5="13000.00000" pt_clust_6="13000.00000" pt_clust_7="13000.00000" pt_clust_8="13000.00000" pt_clust_9="86.90799"></scales>
<clustering>
<clus scale="   80.990">  5  6 -1 -1</clus>
<clus scale="   86.908">  2  9  1 -1</clus>
<clus scale="   91.441">  7  8 -1 -1</clus>
<clus scale="   97.520">  2  5  1 -1</clus>
<clus scale="   86.908">  2  5  1 -1</clus>
</clustering>
</event>
<event>
 9    2  0.1325014E-004  0.9431376E+02  0.7546771E-02  0.1300078E+00
         21   -1    0    0  501  502  0.00000000000E+00  0.00000000000E+00  0.68568209328E+02  0.68568209328E+02  0.00000000000E+00 0.  1.
          4   -1    0    0  502    0 -0.00000000000E+00 -0.00000000000E+00 -0.47249088339E+03  0.47249088339E+03  0.00000000000E+00 0. -1.
         23    2    1    2    0    0 -0.13287753089E+02 -0.24189615158E+02 -0.41695777716E+03  0.42768432413E+03  0.91095506541E+02 0.  0.
         24    2    1    2    0    0  0.47648971229E+01  0.21499872860E+01 -0.11163276772E+02  0.79552499901E+02  0.78591696777E+02 0.  0.
        -11    1    4    4    0    0  0.32622252165E+02  0.26295022302E+02 -0.58524765784E+01  0.42307103615E+02  0.00000000000E+00 0.  1.
         12    1    4    4    0    0 -0.27857355042E+02 -0.24145035016E+02 -0.53108001933E+01  0.37245396287E+02  0.00000000000E+00 0. -1.
        -13    1    3    3    0    0 -0.31424297296E+01  0.34513973571E+02 -0.12530434757E+03  0.13000872569E+03  0.00000000000E+00 0.  1.
         13    1    3    3    0    0 -0.10145323360E+02 -0.58703588729E+02 -0.29165342959E+03  0.29767559844E+03  0.00000000000E+00 0. -1.
          3    1    1    2  501    0  0.85228559664E+01  0.22039627872E+02  0.24198379870E+02  0.33822268683E+02  0.00000000000E+00 0. -1.
<scales pt_clust_5="13000.00000" pt_clust_6="13000.00000" pt_clust_7="13000.00000" pt_clust_8="13000.00000" pt_clust_9="23.63016"></scales>
<clustering>
<clus scale="   23.630">  1  9  2 -1</clus>
<clus scale="   78.592">  5  6 -1 -1</clus>
<clus scale="   82.300">  1  5  2 -1</clus>
<clus scale="   91.096">  7  8 -1 -1</clus>
<clus scale="   23.630">  1  5  2 -1</clus>
</clustering>
</event>
<event>
 9    2  0.1325014E-004  0.1220967E+03  0.7546771E-02  0.1242590E+00
          4   -1    0    0  502    0 -0.00000000000E+00  0.00000000000E+00  0.40921533153E+03  0.40921533153E+03  0.00000000000E+00 0. -1.
         21   -1    0    0  501  502  0.00000000000E+00 -0.00000000000E+00 -0.13790635768E+03  0.13790635768E+03  0.00000000000E+00 0. -1.
         24    2    1    2    0    0  0.78558195819E+02 -0.80170058689E+01  0.32677073402E+03  0.34575732271E+03  0.80829147448E+02 0.  0.
         23    2    1    2    0    0 -0.10485054744E+03  0.45035739876E+02 -0.28064855623E+02  0.14833357545E+03  0.90517171414E+02 0.  0.
        -11    1    3    3    0    0  0.49242211183E+01 -0.27555775736E+02  0.38567193099E+02  0.47654979945E+02  0.00000000000E+00 0.  1.
         12    1    3    3    0    0  0.73633974701E+02  0.19538769867E+02  0.28820354093E+03  0.29810234276E+03  0.00000000000E+00 0. -1.
        -11    1    4    4    0    0 -0.86036086256E+02  0.94836379269E+01 -0.52533992533E+02  0.10125200195E+03  0.00000000000E+00 0.  1.
         11    1    4    4    0    0 -0.18814461180E+02  0.35552101949E+02  0.24469136910E+02  0.47081573504E+02  0.00000000000E+00 0. -1.
          3    1    1    2  501    0  0.26292351617E+02 -0.37018734007E+02 -0.27396904554E+02  0.53030791057E+02  0.00000000000E+00 0. -1.
<scales pt_clust_5="13000.00000" pt_clust_6="13000.00000" pt_clust_7="13000.00000" pt_clust_8="13000.00000" pt_clust_9="45.40567"></scales>
<clustering>
<clus scale="   45.406">  2  9  1 -1</clus>
<clus scale="   80.829">  5  6 -1 -1</clus>
<clus scale="   90.517">  7  8 -1 -1</clus>
<clus scale="  115.098">  1  5  2 -1</clus>
<clus scale="   45.406">  2  5  1 -1</clus>
</clustering>
</event>
<event>
 9    2  0.1325014E-004  0.3171459E+03  0.7546771E-02  0.1078619E+00
         21   -1    0    0  501  502  0.00000000000E+00  0.00000000000E+00  0.11801511269E+04  0.11801511269E+04  0.00000000000E+00 0. -1.
          4   -1    0    0  502    0 -0.00000000000E+00 -0.00000000000E+00 -0.22644740556E+03  0.22644740556E+03  0.00000000000E+00 0. -1.
         23    2    1    2    0    0  0.11824443657E+02  0.28792847569E+03  0.19316216229E+03  0.35959508530E+03  0.94627585039E+02 0.  0.
         24    2    1    2    0    0 -0.30606657177E+03 -0.44862847786E+02  0.46551361580E+03  0.56461271681E+03  0.79969819437E+02 0.  0.
        -13    1    4    4    0    0 -0.28098420767E+03 -0.24524998868E+02  0.44328611088E+03  0.52541048393E+03  0.00000000000E+00 0.  1.
         14    1    4    4    0    0 -0.25082364100E+02 -0.20337848918E+02  0.22227504925E+02  0.39202232879E+02  0.00000000000E+00 0. -1.
        -11    1    3    3    0    0  0.35931037392E+02  0.58880664056E+02  0.21185522143E+02  0.72158148509E+02  0.00000000000E+00 0.  1.
         11    1    3    3    0    0 -0.24106593735E+02  0.22904781163E+03  0.17197664014E+03  0.28743693679E+03  0.00000000000E+00 0. -1.
          3    1    1    2  501    0  0.29424212811E+03 -0.24306562790E+03  0.29502794324E+03  0.48239073033E+03  0.00000000000E+00 0. -1.
<scales pt_clust_5="13000.00000" pt_clust_6="13000.00000" pt_clust_7="13000.00000" pt_clust_8="13000.00000" pt_clust_9="306.89813"></scales>
<clustering>
<clus scale="   79.970">  5  6 -1 -1</clus>
<clus scale="   94.628">  7  8 -1 -1</clus>
<clus scale="  303.310">  2  7  1 -1</clus>
<clus scale="  306.898">  1  9  2 -1</clus>
<clus scale="  306.898">  1  5  2 -1</clus>
</clustering>
</event>
<event>
 9    2  0.1325014E-004  0.1021752E+03  0.7546771E-02  0.1277530E+00
          2   -1    0    0  502    0 -0.00000000000E+00  0.00000000000E+00  0.53849954490E+03  0.53849954490E+03  0.00000000000E+00 0. -1.
         21   -1    0    0  501  502  0.00000000000E+00 -0.00000000000E+00 -0.35792756344E+02  0.35792756344E+02  0.00000000000E+00 0. -1.
         24    2    1    2    0    0 -0.31915352895E+02 -0.55893041605E+02  0.32659768790E+03  0.34279746157E+03  0.81862250544E+02 0.  0.
         23    2    1    2    0    0  0.30648149671E+02  0.30405721485E+02  0.18152958119E+03  0.20540670253E+03  0.85878446762E+02 0.  0.
        -11    1    3    3    0    0  0.21586284853E+02 -0.30358441730E+02  0.68442680011E+02  0.77923059007E+02  0.00000000000E+00 0.  1.
         12    1    3    3    0    0 -0.53501637748E+02 -0.25534599875E+02  0.25815500789E+03  0.26487440256E+03  0.00000000000E+00 0. -1.
        -13    1    4    4    0    0  0.56068928613E+02  0.14798245515E+02  0.75139753821E+02  0.94914147683E+02  0.00000000000E+00 0. -1.
         13    1    4    4    0    0 -0.25420778941E+02  0.15607475971E+02  0.10638982737E+03  0.11049255484E+03  0.00000000000E+00 0.  1.
          1    1    1    2  501    0  0.12672032236E+01  0.25487320119E+02 -0.54204805345E+01  0.26088137153E+02  0.00000000000E+00 0. -1.
<scales pt_clust_5="13000.00000" pt_clust_6="13000.00000" pt_clust_7="13000.00000" pt_clust_8="13000.00000" pt_clust_9="25.51880"></scales>
<clustering>
<clus scale="   25.519">  2  9  1 -1</clus>
<clus scale="   81.862">  5  6 -1 -1</clus>
<clus scale="   85.878">  7  8 -1 -1</clus>
<clus scale="   98.824">  1  5  2 -1</clus>
<clus scale="   25.519">  2  5  1 -1</clus>
</clustering>
</event>
<event>
 9    2  0.1325014E-004  0.2515801E+03  0.7546771E-02  0.1126625E+00
         21   -1    0    0  501  502  0.00000000000E+00  0.00000000000E+00  0.89002297595E+02  0.89002297595E+02  0.00000000000E+00 0. -1.
          2   -1    0    0  502    0 -0.00000000000E+00 -0.00000000000E+00 -0.14089721636E+04  0.14089721636E+04  0.00000000000E+00 0. -1.
         24    2    1    2    0    0 -0.13010394851E+03 -0.86940000993E+02 -0.49543747456E+03  0.52570686786E+03  0.80148727553E+02 0.  0.
         23    2    1    2    0    0  0.12878222894E+03 -0.18549073893E+03 -0.37224956318E+03  0.44427137011E+03  0.88406087405E+02 0.  0.
        -13    1    3    3    0    0 -0.82580209315E+02 -0.12928716795E+02 -0.18415630438E+03  0.20223794682E+03  0.00000000000E+00 0.  1.
         14    1    3    3    0    0 -0.47523739193E+02 -0.74011284198E+02 -0.31128117017E+03  0.32346892104E+03  0.00000000000E+00 0. -1.
        -11    1    4    4    0    0  0.13899115666E+02 -0.35580048634E+02 -0.13894881708E+03  0.14410377874E+03  0.00000000000E+00 0.  1.
         11    1    4    4    0    0  0.11488311328E+03 -0.14991069030E+03 -0.23330074610E+03  0.30016759137E+03  0.00000000000E+00 0. -1.
          1    1    1    2  501    0  0.13217195662E+01  0.27243073992E+03 -0.45228282828E+03  0.52799622324E+03  0.00000000000E+00 0. -1.
<scales pt_clust_5="13000.00000" pt_clust_6="13000.00000" pt_clust_7="13000.00000" pt_clust_8="13000.00000" pt_clust_9="235.53546"></scales>
<clustering>
<clus scale="   80.149">  5  6 -1 -1</clus>
<clus scale="   88.406">  7  8 -1 -1</clus>
<clus scale="  175.811">  2  5  1 -1</clus>
<clus scale="  235.535">  1  9  2 -1</clus>
<clus scale="  235.535">  1  5  2 -1</clus>
</clustering>
</event>
<event>
 9    2  0.1325014E-004  0.9749958E+02  0.7546771E-02  0.1296485E+00
         -1   -1    0    0    0  501 -0.00000000000E+00  0.00000000000E+00  0.48312675384E+03  0.48312675384E+03  0.00000000000E+00 0.  1.
         21   -1    0    0  501  502  0.00000000000E+00 -0.00000000000E+00 -0.36791477028E+02  0.36791477028E+02  0.00000000000E+00 0. -1.
         23    2    1    2    0    0  0.10696505061E+02 -0.22305512139E+02  0.37507364531E+03  0.38790953279E+03  0.95820744777E+02 0.  0.
         24    2    1    2    0    0  0.25367532534E+01  0.18732228413E+01  0.74344311775E+02  0.10747096205E+03  0.77543451751E+02 0.  0.
        -13    1    4    4    0    0  0.32365724781E+02 -0.22171803168E+02  0.39762813154E+02  0.55858842686E+02  0.00000000000E+00 0.  1.
         14    1    4    4    0    0 -0.29828971528E+02  0.24045026009E+02  0.34581498621E+02  0.51612119363E+02  0.00000000000E+00 0. -1.
        -13    1    3    3    0    0 -0.24724898693E+02  0.25505231673E+02  0.91349294301E+02  0.98012912554E+02  0.00000000000E+00 0. -1.
         13    1    3    3    0    0  0.35421403754E+02 -0.47810743811E+02  0.28372435101E+03  0.28989662024E+03  0.00000000000E+00 0.  1.
         -2    1    1    2    0  502 -0.13233258315E+02  0.20432289297E+02 -0.30826802789E+01  0.24537736025E+02  0.00000000000E+00 0.  1.
<scales pt_clust_5="13000.00000" pt_clust_6="13000.00000" pt_clust_7="13000.00000" pt_clust_8="13000.00000" pt_clust_9="24.34333"></scales>
<clustering>
<clus scale="   24.343">  2  9  1 -1</clus>
<clus scale="   77.543">  5  6 -1 -1</clus>
<clus scale="   79.609">  2  5  1 -1</clus>
<clus scale="   95.821">  7  8 -1 -1</clus>
<clus scale="   24.343">  2  5  1 -1</clus>
</clustering>
</event>
<event>
 9    2  0.1325014E-004  0.3453006E+03  0.7546771E-02  0.1089377E+00
         21   -1    0    0  501  502  0.00000000000E+00  0.00000000000E+00  0.85729346461E+02  0.85729346461E+02  0.00000000000E+00 0. -1.
          2   -1    0    0  502    0 -0.00000000000E+00 -0.00000000000E+00 -0.24528201135E+04  0.24528201135E+04  0.00000000000E+00 0. -1.
         23    2    1    2    0    0  0.15023493221E+03  0.37704434472E+02 -0.64673758827E+03  0.67032718120E+03  0.84124090150E+02 0.  0.
         24    2    1    2    0    0  0.14472712854E+03 -0.28395648434E+03 -0.60587749313E+03  0.68936743476E+03  0.81010472688E+02 0.  0.
        -13    1    4    4    0    0  0.80570211469E+02 -0.82486661931E+02 -0.17774178586E+03  0.21186729529E+03  0.00000000000E+00 0.  1.
         14    1    4    4    0    0  0.64156917066E+02 -0.20146982241E+03 -0.42813570727E+03  0.47750013947E+03  0.00000000000E+00 0. -1.
        -11    1    3    3    0    0  0.10637913701E+03  0.43333858106E+02 -0.57258253222E+03  0.58399066795E+03  0.00000000000E+00 0.  1.
         11    1    3    3    0    0  0.43855795196E+02 -0.56294236347E+01 -0.74155056046E+02  0.86336513249E+02  0.00000000000E+00 0. -1.
          1    1    1    2  501    0 -0.29496206074E+03  0.24625204987E+03 -0.11144756856E+04  0.11788548440E+04  0.00000000000E+00 0. -1.
<scales pt_clust_5="13000.00000" pt_clust_6="13000.00000" pt_clust_7="13000.00000" pt_clust_8="13000.00000" pt_clust_9="335.66345"></scales>
<clustering>
<clus scale="   81.010">  5  6 -1 -1</clus>
<clus scale="   84.124">  7  8 -1 -1</clus>
<clus scale="  176.264">  2  7  1 -1</clus>
<clus scale="  335.663">  1  9  2 -1</clus>
<clus scale="  335.663">  1  5  2 -1</clus>
</clustering>
</event>
<event>
 9    2  0.1325014E-004  0.9065830E+02  0.7546771E-02  0.1303649E+00
          2   -1    0    0  502    0 -0.00000000000E+00  0.00000000000E+00  0.35959338415E+02  0.35959338415E+02  0.00000000000E+00 0. -1.
         21   -1    0    0  501  502  0.00000000000E+00 -0.00000000000E+00 -0.59324568487E+03  0.59324568487E+03  0.00000000000E+00 0. -1.
         23    2    1    2    0    0 -0.28442447963E+02  0.14382473652E+02 -0.14698680093E+03  0.17553576164E+03  0.90508870126E+02 0.  0.
         24    2    1    2    0    0 -0.54333102829E+02  0.11659017481E+02 -0.26799704568E+03  0.28699607085E+03  0.86349924364E+02 0.  0.
        -11    1    4    4    0    0 -0.61520688213E+01  0.41909706238E+02 -0.79228666321E+02  0.89841265545E+02  0.00000000000E+00 0.  1.
         12    1    4    4    0    0 -0.48181034007E+02 -0.30250688757E+02 -0.18876837936E+03  0.19715480531E+03  0.00000000000E+00 0. -1.
        -13    1    3    3    0    0 -0.51930809201E+02 -0.34104316737E+01 -0.43167248389E+02  0.67615466589E+02  0.00000000000E+00 0. -1.
         13    1    3    3    0    0  0.23488361238E+02  0.17792905326E+02 -0.10381955254E+03  0.10792029505E+03  0.00000000000E+00 0.  1.
          1    1    1    2  501    0  0.82775550792E+02 -0.26041491133E+02 -0.14230249984E+03  0.16667319080E+03  0.00000000000E+00 0. -1.
<scales pt_clust_5="13000.00000" pt_clust_6="13000.00000" pt_clust_7="13000.00000" pt_clust_8="13000.00000" pt_clust_9="86.77533"></scales>
<clustering>
<clus scale="   86.350">  5  6 -1 -1</clus>
<clus scale="   86.775">  2  9  1 -1</clus>
<clus scale="   86.775">  2  5  1 -1</clus>
<clus scale="   90.509">  7  8 -1 -1</clus>
<clus scale="   86.775">  2  5  1 -1</clus>
</clustering>
</event>
<event>
 9    2  0.1325014E-004  0.1155083E+03  0.7546771E-02  0.1252658E+00
          2   -1    0    0  502    0 -0.00000000000E+00  0.00000000000E+00  0.17582131552E+03  0.17582131552E+03  0.00000000000E+00 0. -1.
         21   -1    0    0  501  502  0.00000000000E+00 -0.00000000000E+00 -0.28349100938E+03  0.28349100938E+03  0.00000000000E+00 0. -1.
         23    2    1    2    0    0  0.74169976963E+02 -0.83426973349E+01  0.11990446676E+03  0.16594629837E+03  0.87122366325E+02 0.  0.
         24    2    1    2    0    0 -0.82608577922E+02 -0.11081341562E+02 -0.72990447834E+02  0.13733837664E+03  0.81161881108E+02 0.  0.
        -11    1    4    4    0    0 -0.38786873239E+02  0.14058338913E+02 -0.76268036098E+02  0.86711428076E+02  0.00000000000E+00 0.  1.
         12    1    4    4    0    0 -0.43821704683E+02 -0.25139680475E+02  0.32775882645E+01  0.50626948561E+02  0.00000000000E+00 0. -1.
        -11    1    3    3    0    0  0.58791611712E+02  0.31992938048E+02  0.49064449715E+02  0.82989890459E+02  0.00000000000E+00 0. -1.
         11    1    3    3    0    0  0.15378365252E+02 -0.40335635382E+02  0.70840017043E+02  0.82956407915E+02  0.00000000000E+00 0.  1.
          1    1    1    2  501    0  0.84386009587E+01  0.19424038897E+02 -0.15458371278E+03  0.15602764989E+03  0.00000000000E+00 0. -1.
<scales pt_clust_5="13000.00000" pt_clust_6="13000.00000" pt_clust_7="13000.00000" pt_clust_8="13000.00000" pt_clust_9="21.17790"></scales>
<clustering>
<clus scale="   21.178">  2  9  1 -1</clus>
<clus scale="   81.162">  5  6 -1 -1</clus>
<clus scale="   87.122">  7  8 -1 -1</clus>
<clus scale="  111.082">  2  5  1 -1</clus>
<clus scale="   21.178">  2  5  1 -1</clus>
</clustering>
</event>
<event>
 9    2  0.1325014E-004  0.9672219E+02  0.7546771E-02  0.1291699E+00
         21   -1    0    0  501  502  0.00000000000E+00  0.00000000000E+00  0.30539681184E+02  0.30539681184E+02  0.00000000000E+00 0. -1.
          2   -1    0    0  502    0 -0.00000000000E+00 -0.00000000000E+00 -0.11856979323E+04  0.11856979323E+04  0.00000000000E+00 0. -1.
         23    2    1    2    0    0 -0.44709087732E+02  0.95747349576E+01 -0.41107284671E+03  0.42358914364E+03  0.91412795798E+02 0.  0.
         24    2    1    2    0    0 -0.14989706275E+02  0.56621590664E+02 -0.92937778954E+02  0.13542770810E+03  0.79199353156E+02 0.  0.
        -13    1    4    4    0    0 -0.40052977348E+02  0.89269803765E+01 -0.22670845855E+02  0.46881757912E+02  0.00000000000E+00 0.  1.
         14    1    4    4    0    0  0.25063271073E+02  0.47694610287E+02 -0.70266933099E+02  0.88545950187E+02  0.00000000000E+00 0. -1.
        -11    1    3    3    0    0 -0.11866361216E+02 -0.34495252529E+02 -0.79217800870E+02  0.87213490644E+02  0.00000000000E+00 0. -1.
         11    1    3    3    0    0 -0.32842726516E+02  0.44069987487E+02 -0.33185504584E+03  0.33637565300E+03  0.00000000000E+00 0.  1.
          1    1    1    2  501    0  0.59698794007E+02 -0.66196325621E+02 -0.65114762543E+03  0.65722076172E+03  0.00000000000E+00 0. -1.
<scales pt_clust_5="13000.00000" pt_clust_6="13000.00000" pt_clust_7="13000.00000" pt_clust_8="13000.00000" pt_clust_9="89.13982"></scales>
<clustering>
<clus scale="   79.199">  5  6 -1 -1</clus>
<clus scale="   89.140">  1  9  2 -1</clus>
<clus scale="   89.140">  1  5  2 -1</clus>
<clus scale="   91.413">  7  8 -1 -1</clus>
<clus scale="   89.140">  1  5  2 -1</clus>
</clustering>
</event>
<event>
 9    2  0.1325014E-004  0.9389791E+02  0.7546771E-02  0.1297877E+00
         21   -1    0    0  501  502  0.00000000000E+00  0.00000000000E+00  0.24366895584E+03  0.24366895584E+03  0.00000000000E+00 0.  1.
          4   -1    0    0  502    0 -0.00000000000E+00 -0.00000000000E+00 -0.14501680922E+03  0.14501680922E+03  0.00000000000E+00 0. -1.
         23    2    1    2    0    0  0.55582816602E+00 -0.23820693353E+02 -0.99982102843E+02  0.13704104362E+03  0.90642663081E+02 0.  0.
         24    2    1    2    0    0 -0.27810602127E+02  0.24087204712E+02  0.57092794313E+02  0.10750285640E+03  0.83328590238E+02 0.  0.
        -11    1    4    4    0    0 -0.18873231339E+02 -0.19403309176E+02  0.57003114657E+02  0.63103425808E+02  0.00000000000E+00 0.  1.
         12    1    4    4    0    0 -0.89373707887E+01  0.43490513888E+02  0.89679656475E-01  0.44399430596E+02  0.00000000000E+00 0. -1.
        -13    1    3    3    0    0 -0.21551671043E+02 -0.52227393498E+02 -0.50000304727E+02  0.75446707212E+02  0.00000000000E+00 0. -1.
         13    1    3    3    0    0  0.22107499209E+02  0.28406700145E+02 -0.49981798116E+02  0.61594336406E+02  0.00000000000E+00 0.  1.
          3    1    1    2  501    0  0.27254773961E+02 -0.26651135880E+00  0.14154145515E+03  0.14414186504E+03  0.00000000000E+00 0. -1.
<scales pt_clust_5="13000.00000" pt_clust_6="13000.00000" pt_clust_7="13000.00000" pt_clust_8="13000.00000" pt_clust_9="27.25608"></scales>
<clustering>
<clus scale="   27.256">  1  9  2 -1</clus>
<clus scale="   83.329">  5  6 -1 -1</clus>
<clus scale="   86.858">  1  5  2 -1</clus>
<clus scale="   90.643">  7  8 -1 -1</clus>
<clus scale="   27.256">  1  5  2 -1</clus>
</clustering>
</event>
<event>
 9    2  0.1325014E-004  0.1571623E+03  0.7546771E-02  0.1210094E+00
          2   -1    0    0  502    0 -0.00000000000E+00  0.00000000000E+00  0.38807480079E+03  0.38807480079E+03  0.00000000000E+00 0. -1.
         21   -1    0    0  501  502  0.00000000000E+00 -0.00000000000E+00 -0.12169279465E+03  0.12169279465E+03  0.00000000000E+00 0. -1.
         24    2    1    2    0    0  0.69420793839E+02  0.53931658903E+01 -0.91118231940E+01  0.10640866774E+03  0.79946522075E+02 0.  0.
         23    2    1    2    0    0 -0.97434073430E+02 -0.11435925828E+03  0.12627318206E+03  0.21647619790E+03  0.91354196018E+02 0.  0.
        -13    1    3    3    0    0  0.15082834725E+02  0.38633066056E+02  0.29517182512E+01  0.41577858733E+02  0.00000000000E+00 0.  1.
         14    1    3    3    0    0  0.54337959115E+02 -0.33239900166E+02 -0.12063541445E+02  0.64830809003E+02  0.00000000000E+00 0. -1.
        -13    1    4    4    0    0 -0.64500589728E+02 -0.92463762023E+02  0.13509538329E+03  0.17595634672E+03  0.00000000000E+00 0. -1.
         13    1    4    4    0    0 -0.32933483702E+02 -0.21895496259E+02 -0.88222012367E+01  0.40519851182E+02  0.00000000000E+00 0.  1.
          1    1    1    2  501    0  0.28013279591E+02  0.10896609239E+03  0.14922064728E+03  0.18688272981E+03  0.00000000000E+00 0. -1.
<scales pt_clust_5="13000.00000" pt_clust_6="13000.00000" pt_clust_7="13000.00000" pt_clust_8="13000.00000" pt_clust_9="127.88440"></scales>
<clustering>
<clus scale="   79.947">  5  6 -1 -1</clus>
<clus scale="   91.354">  7  8 -1 -1</clus>
<clus scale="  106.018">  1  5  2 -1</clus>
<clus scale="  127.884">  2  9  1 -1</clus>
<clus scale="  127.884">  2  5  1 -1</clus>
</clustering>
</event>
<event>
 9    2  0.1325014E-004  0.9907964E+02  0.7546771E-02  0.1287446E+00
          2   -1    0    0  502    0 -0.00000000000E+00  0.00000000000E+00  0.73929267273E+02  0.73929267273E+02  0.00000000000E+00 0. -1.
         21   -1    0    0  501  502  0.00000000000E+00 -0.00000000000E+00 -0.24477329361E+03  0.24477329361E+03  0.00000000000E+00 0.  1.
         23    2    1    2    0    0 -0.45092518743E+02  0.34617225633E+02 -0.67813236474E+02  0.12644796349E+03  0.90325881528E+02 0.  0.
         24    2    1    2    0    0  0.13326615592E+02 -0.12400843956E+02 -0.12359548405E+03  0.14837354379E+03  0.80046768859E+02 0.  0.
        -13    1    4    4    0    0  0.44063509243E+02  0.41096364978E+01 -0.88159271178E+02  0.98643494735E+02  0.00000000000E+00 0.  1.
         14    1    4    4    0    0 -0.30736893651E+02 -0.16510480454E+02 -0.35436212873E+02  0.49730049054E+02  0.00000000000E+00 0. -1.
        -13    1    3    3    0    0  0.24405414496E+02  0.21621666720E+02 -0.37017629486E+02  0.49329764050E+02  0.00000000000E+00 0. -1.
         13    1    3    3    0    0 -0.69497933239E+02  0.12995558913E+02 -0.30795606988E+02  0.77118199445E+02  0.00000000000E+00 0.  1.
          1    1    1    2  501    0  0.31765903151E+02 -0.22216381677E+02  0.20564694188E+02  0.43881053598E+02  0.00000000000E+00 0. -1.
<scales pt_clust_5="13000.00000" pt_clust_6="13000.00000" pt_clust_7="13000.00000" pt_clust_8="13000.00000" pt_clust_9="38.76392"></scales>
<clustering>
<clus scale="   38.764">  2  9  1 -1</clus>
<clus scale="   80.047">  5  6 -1 -1</clus>
<clus scale="   89.808">  2  5  1 -1</clus>
<clus scale="   90.326">  7  8 -1 -1</clus>
<clus scale="   38.764">  2  5  1 -1</clus>
</clustering>
</event>
<event>
 9    2  0.1325014E-004  0.2498653E+03  0.7546771E-02  0.1113983E+00
          2   -1    0    0  502    0 -0.00000000000E+00  0.00000000000E+00  0.22458573322E+03  0.22458573322E+03  0.00000000000E+00 0. -1.
         21   -1    0    0  501  502  0.00000000000E+00 -0.00000000000E+00 -0.46907726589E+03  0.46907726589E+03  0.00000000000E+00 0. -1.
         24    2    1    2    0    0  0.25628273045E+03  0.83008560460E+02  0.40384681432E+02  0.28403523748E+03  0.80460142922E+02 0.  0.
         23    2    1    2    0    0 -0.15805502668E+03 -0.41022860676E+02 -0.19247669593E+03  0.26838629558E+03  0.91212162695E+02 0.  0.
        -11    1    3    3    0    0  0.22027579164E+02 -0.15588932544E+02  0.33987705425E+01  0.27198909957E+02  0.00000000000E+00 0.  1.
         12    1    3    3    0    0  0.23425515129E+03  0.98597493003E+02  0.36985910889E+02  0.25683632752E+03  0.00000000000E+00 0. -1.
        -11    1    4    4    0    0 -0.51317856674E+02  0.28761957879E+02 -0.71701924870E+02  0.92746636945E+02  0.00000000000E+00 0.  1.
         11    1    4    4    0    0 -0.10673717000E+03 -0.69784818555E+02 -0.12077477106E+03  0.17563965864E+03  0.00000000000E+00 0. -1.
          1    1    1    2  501    0 -0.98227703774E+02 -0.41985699784E+02 -0.92399518160E+02  0.14124146605E+03  0.00000000000E+00 0. -1.
<scales pt_clust_5="13000.00000" pt_clust_6="13000.00000" pt_clust_7="13000.00000" pt_clust_8="13000.00000" pt_clust_9="106.82453"></scales>
<clustering>
<clus scale="   80.460">  5  6 -1 -1</clus>
<clus scale="   91.212">  7  8 -1 -1</clus>
<clus scale="  106.825">  2  9  1 -1</clus>
<clus scale="  246.144">  1  5  2 -1</clus>
<clus scale="  106.825">  2  5  1 -1</clus>
</clustering>
</event>
<event>
 9    2  0.1325014E-004  0.3042525E+03  0.7546771E-02  0.1083458E+00
         21   -1    0    0  501  502  0.00000000000E+00  0.00000000000E+00  0.11578797501E+03  0.11578797501E+03  0.00000000000E+00 0. -1.
          2   -1    0    0  502    0 -0.00000000000E+00 -0.00000000000E+00 -0.17782469649E+04  0.17782469649E+04  0.00000000000E+00 0. -1.
         24    2    1    2    0    0 -0.31999799670E+03  0.50888479820E+02 -0.12894342228E+04  0.13320511879E+04  0.82045090124E+02 0.  0.
         23    2    1    2    0    0  0.16728503088E+03 -0.14166049250E+03 -0.16891239733E+03  0.29138687903E+03  0.91230140880E+02 0.  0.
        -11    1    3    3    0    0 -0.12681024171E+03  0.60017874593E+02 -0.58000475748E+03  0.59673151532E+03  0.00000000000E+00 0.  1.
         12    1    3    3    0    0 -0.19318775499E+03 -0.91293947734E+01 -0.70942946535E+03  0.73531967255E+03  0.00000000000E+00 0. -1.
        -13    1    4    4    0    0  0.14451412593E+03 -0.15419015493E+03 -0.14749116155E+03  0.25770638177E+03  0.00000000000E+00 0. -1.
         13    1    4    4    0    0  0.22770904959E+02  0.12529662431E+02 -0.21421235778E+02  0.33680497258E+02  0.00000000000E+00 0.  1.
          1    1    1    2  501    0  0.15271296582E+03  0.90772012680E+02 -0.20411236975E+03  0.27059687304E+03  0.00000000000E+00 0. -1.
<scales pt_clust_5="13000.00000" pt_clust_6="13000.00000" pt_clust_7="13000.00000" pt_clust_8="13000.00000" pt_clust_9="177.65362"></scales>
<clustering>
<clus scale="   82.045">  5  6 -1 -1</clus>
<clus scale="   91.230">  7  8 -1 -1</clus>
<clus scale="  177.654">  1  9  2 -1</clus>
<clus scale="  301.626">  2  5  1 -1</clus>
<clus scale="  177.654">  1  5  2 -1</clus>
</clustering>
</event>
<event>
 9    2  0.1325014E-004  0.1146966E+03  0.7546771E-02  0.1258765E+00
         21   -1    0    0  501  502  0.00000000000E+00  0.00000000000E+00  0.23749775986E+03  0.23749775986E+03  0.00000000000E+00 0.  1.
          2   -1    0    0  502    0 -0.00000000000E+00 -0.00000000000E+00 -0.14201896692E+03  0.14201896692E+03  0.00000000000E+00 0. -1.
         24    2    1    2    0    0 -0.50863368955E+02  0.46932798626E+02 -0.83194067241E+02  0.13511175048E+03  0.80895997460E+02 0.  0.
         23    2    1    2    0    0 -0.66680405646E+01 -0.16785992339E+02  0.12710226290E+03  0.16146994441E+03  0.97935312369E+02 0.  0.
        -13    1    3    3    0    0 -0.69989159293E+02  0.19629901476E+02 -0.51237386049E+02  0.88933037617E+02  0.00000000000E+00 0.  1.
         14    1    3    3    0    0  0.19125790338E+02  0.27302897150E+02 -0.31956681191E+02  0.46178712862E+02  0.00000000000E+00 0. -1.
        -13    1    4    4    0    0  0.33592756937E+02  0.22477852140E+02  0.34559022873E+02  0.53179443561E+02  0.00000000000E+00 0. -1.
         13    1    4    4    0    0 -0.40260797502E+02 -0.39263844479E+02  0.92543240030E+02  0.10829050085E+03  0.00000000000E+00 0.  1.
          1    1    1    2  501    0  0.57531409520E+02 -0.30146806287E+02  0.51570597275E+02  0.82935031886E+02  0.00000000000E+00 0. -1.
<scales pt_clust_5="13000.00000" pt_clust_6="13000.00000" pt_clust_7="13000.00000" pt_clust_8="13000.00000" pt_clust_9="64.95147"></scales>
<clustering>
<clus scale="   64.951">  1  9  2 -1</clus>
<clus scale="   80.896">  5  6 -1 -1</clus>
<clus scale="   97.935">  7  8 -1 -1</clus>
<clus scale="  100.539">  2  5  1 -1</clus>
<clus scale="   64.951">  1  5  2 -1</clus>
</clustering>
</event>
<event>
 9    2  0.1325014E-004  0.1741053E+03  0.7546771E-02  0.1174642E+00
         -1   -1    0    0    0  501 -0.00000000000E+00  0.00000000000E+00  0.30926092229E+03  0.30926092229E+03  0.00000000000E+00 0.  1.
         21   -1    0    0  501  502  0.00000000000E+00 -0.00000000000E+00 -0.19104043715E+03  0.19104043715E+03  0.00000000000E+00 0.  1.
         23    2    1    2    0    0  0.61268869838E+02  0.13134479269E+03  0.10587375204E+03  0.19971932251E+03  0.87596960186E+02 0.  0.
         24    2    1    2    0    0 -0.14776790415E+03 -0.10346648680E+03 -0.31593028327E+02  0.19963657884E+03  0.79473119892E+02 0.  0.
        -11    1    4    4    0    0 -0.10535661797E+03 -0.10976839539E+03 -0.36541854953E+02  0.15647499717E+03  0.00000000000E+00 0.  1.
         12    1    4    4    0    0 -0.42411286180E+02  0.63019085902E+01  0.49488266265E+01  0.43161581670E+02  0.00000000000E+00 0. -1.
        -11    1    3    3    0    0  0.60684802650E+02  0.34690145743E+02  0.62538365798E+02  0.93792849840E+02  0.00000000000E+00 0. -1.
         11    1    3    3    0    0  0.58406718743E+00  0.96654646951E+02  0.43335386245E+02  0.10592647267E+03  0.00000000000E+00 0.  1.
         -2    1    1    2    0  502  0.86499034307E+02 -0.27878305898E+02  0.43939761417E+02  0.10094545809E+03  0.00000000000E+00 0.  1.
<scales pt_clust_5="13000.00000" pt_clust_6="13000.00000" pt_clust_7="13000.00000" pt_clust_8="13000.00000" pt_clust_9="90.88064"></scales>
<clustering>
<clus scale="   79.473">  5  6 -1 -1</clus>
<clus scale="   87.597">  7  8 -1 -1</clus>
<clus scale="   90.881">  2  9  1 -1</clus>
<clus scale="  170.163">  2  5  1 -1</clus>
<clus scale="   90.881">  2  5  1 -1</clus>
</clustering>
</event>
<event>
 9    2  0.1325014E-004  0.1046630E+03  0.7546771E-02  0.1275346E+00
         21   -1    0    0  501  502  0.00000000000E+00  0.00000000000E+00  0.83412337241E+02  0.83412337241E+02  0.00000000000E+00 0.  1.
          2   -1    0    0  502    0 -0.00000000000E+00 -0.00000000000E+00 -0.66068166047E+03  0.66068166047E+03  0.00000000000E+00 0. -1.
         24    2    1    2    0    0  0.40967019279E+02  0.49021387438E+02 -0.78305022999E+02  0.12900208090E+03  0.80177722306E+02 0.  0.
         23    2    1    2    0    0  0.32405123384E+02 -0.50235046276E+02  0.22900058843E+01  0.10849461749E+03  0.90510695504E+02 0.  0.
        -13    1    3    3    0    0  0.46381757638E+02  0.67023066817E+02 -0.52040983006E+02  0.96703789167E+02  0.00000000000E+00 0.  1.
         14    1    3    3    0    0 -0.54147383588E+01 -0.18001679379E+02 -0.26264039994E+02  0.32298291731E+02  0.00000000000E+00 0. -1.
        -13    1    4    4    0    0  0.11002653190E+02 -0.30440598697E+02 -0.43494365965E+02  0.54216679140E+02  0.00000000000E+00 0. -1.
         13    1    4    4    0    0  0.21402470195E+02 -0.19794447578E+02  0.45784371850E+02  0.54277938345E+02  0.00000000000E+00 0.  1.
          1    1    1    2  501    0 -0.73372142663E+02  0.12136588377E+01 -0.50125430611E+03  0.50659729932E+03  0.00000000000E+00 0. -1.
<scales pt_clust_5="13000.00000" pt_clust_6="13000.00000" pt_clust_7="13000.00000" pt_clust_8="13000.00000" pt_clust_9="73.38222"></scales>
<clustering>
<clus scale="   73.382">  1  9  2 -1</clus>
<clus scale="   80.178">  5  6 -1 -1</clus>
<clus scale="   90.511">  7  8 -1 -1</clus>
<clus scale="   95.868">  2  5  1 -1</clus>
<clus scale="   73.382">  1  5  2 -1</clus>
</clustering>
</event>
<event>
 9    2  0.1325014E-004  0.9445423E+02  0.7546771E-02  0.1300652E+00
         21   -1    0    0  501  502  0.00000000000E+00  0.00000000000E+00  0.12679560218E+03  0.12679560218E+03  0.00000000000E+00 0.  1.
          2   -1    0    0  502    0 -0.00000000000E+00 -0.00000000000E+00 -0.27025628855E+03  0.27025628855E+03  0.00000000000E+00 0. -1.
         24    2    1    2    0    0 -0.79647777447E+01  0.30012860041E+02 -0.64723053110E+02  0.10659715545E+03  0.78801462505E+02 0.  0.
         23    2    1    2    0    0 -0.32433719972E+02  0.31911722310E+02  0.69820488704E+02  0.12451436009E+03  0.92512815401E+02 0.  0.
        -11    1    3    3    0    0 -0.65878770631E+01  0.56944868210E+02 -0.48776190935E+02  0.75267754994E+02  0.00000000000E+00 0.  1.
         12    1    3    3    0    0 -0.13769006816E+01 -0.26932008168E+02 -0.15946862175E+02  0.31329400452E+02  0.00000000000E+00 0. -1.
        -11    1    4    4    0    0 -0.15766315389E+01  0.45387883012E+02 -0.17180535476E+01  0.45447743611E+02  0.00000000000E+00 0.  1.
         11    1    4    4    0    0 -0.30857088433E+02 -0.13476160702E+02  0.71538542251E+02  0.79066616478E+02  0.00000000000E+00 0. -1.
          1    1    1    2  501    0  0.40398497717E+02 -0.61924582351E+02 -0.14855812197E+03  0.16594037519E+03  0.00000000000E+00 0. -1.
<scales pt_clust_5="13000.00000" pt_clust_6="13000.00000" pt_clust_7="13000.00000" pt_clust_8="13000.00000" pt_clust_9="73.93712"></scales>
<clustering>
<clus scale="   73.937">  1  9  2 -1</clus>
<clus scale="   78.801">  5  6 -1 -1</clus>
<clus scale="   81.072">  2  5  1 -1</clus>
<clus scale="   92.513">  7  8 -1 -1</clus>
<clus scale="   73.937">  1  5  2 -1</clus>
</clustering>
</event>
<event>
 9    2  0.1325014E-004  0.1766537E+03  0.7546771E-02  0.1172455E+00
         21   -1    0    0  501  502  0.00000000000E+00  0.00000000000E+00  0.32845297737E+03  0.32845297737E+03  0.00000000000E+00 0.  1.
          2   -1    0    0  502    0 -0.00000000000E+00 -0.00000000000E+00 -0.21247146582E+03  0.21247146582E+03  0.00000000000E+00 0. -1.
         23    2    1    2    0    0 -0.11250981796E+03 -0.49467535103E+02  0.11213031144E+02  0.15320351697E+03  0.90774938037E+02 0.  0.
         24    2    1    2    0    0  0.20105426924E+03  0.10123568715E+03  0.14292368871E+03  0.27828655623E+03  0.79653895400E+02 0.  0.
        -13    1    4    4    0    0  0.20534386359E+03  0.93728883743E+02  0.12413898632E+03  0.25760763554E+03  0.00000000000E+00 0.  1.
         14    1    4    4    0    0 -0.42895943553E+01  0.75068034091E+01  0.18784702388E+02  0.20678920692E+02  0.00000000000E+00 0. -1.
        -11    1    3    3    0    0 -0.10400742513E+03 -0.61702401189E+01  0.24673349812E+02  0.10707189424E+03  0.00000000000E+00 0. -1.
         11    1    3    3    0    0 -0.85023928377E+01 -0.43297294984E+02 -0.13460318668E+02  0.46131622729E+02  0.00000000000E+00 0.  1.
          1    1    1    2  501    0 -0.88544451272E+02 -0.51768152049E+02 -0.38155208300E+02  0.10943437000E+03  0.00000000000E+00 0. -1.
<scales pt_clust_5="13000.00000" pt_clust_6="13000.00000" pt_clust_7="13000.00000" pt_clust_8="13000.00000" pt_clust_9="102.56740"></scales>
<clustering>
<clus scale="   79.654">  5  6 -1 -1</clus>
<clus scale="   90.775">  7  8 -1 -1</clus>
<clus scale="  102.567">  1  9  2 -1</clus>
<clus scale="  171.205">  1  5  2 -1</clus>
<clus scale="  102.567">  1  5  2 -1</clus>
</clustering>
</event>
<event>
 9    2  0.2509277E-004  0.2030135E+03  0.7546771E-02  0.1170937E+00
         21   -1    0    0  501  502  0.00000000000E+00  0.00000000000E+00  0.22773189558E+03  0.22773189558E+03  0.00000000000E+00 0.  1.
         -1   -1    0    0    0  501 -0.00000000000E+00 -0.00000000000E+00 -0.87475012310E+03  0.87475012310E+03  0.00000000000E+00 0.  1.
         23    2    1    2    0    0  0.22711532027E+02 -0.70004352032E+02 -0.18006549421E+03  0.21461527273E+03  0.90662616863E+02 0.  0.
         24    2    1    2    0    0  0.41449831457E+02  0.18686974867E+03  0.15037601885E+03  0.25630598898E+03  0.80258466528E+02 0.  0.
        -13    1    4    4    0    0  0.54361756033E+02  0.17877980949E+03  0.11930628644E+03  0.22170117452E+03  0.00000000000E+00 0.  1.
         14    1    4    4    0    0 -0.12911924576E+02  0.80899391803E+01  0.31069732407E+02  0.34604814463E+02  0.00000000000E+00 0. -1.
        -11    1    3    3    0    0  0.60400287625E+01 -0.88326630512E+02 -0.15948199771E+03  0.18240773886E+03  0.00000000000E+00 0. -1.
         11    1    3    3    0    0  0.16671503265E+02  0.18322278480E+02 -0.20583496499E+02  0.32207533869E+02  0.00000000000E+00 0.  1.
         -2    1    1    2    0  502 -0.64161363484E+02 -0.11686539664E+03 -0.61732875216E+03  0.63156075697E+03  0.00000000000E+00 0.  1.
<scales pt_clust_5="13000.00000" pt_clust_6="13000.00000" pt_clust_7="13000.00000" pt_clust_8="13000.00000" pt_clust_9="186.47546"></scales>
<clustering>
<clus scale="   80.258">  5  6 -1 -1</clus>
<clus scale="   90.663">  7  8 -1 -1</clus>
<clus scale="  116.774">  2  7  1 -1</clus>
<clus scale="  186.475">  1  9  2 -1</clus>
<clus scale="  186.475">  1  5  2 -1</clus>
</clustering>
</event>
<event>
 9    2  0.1325014E-004  0.9855164E+02  0.7546771E-02  0.1287318E+00
         21   -1    0    0  501  502  0.00000000000E+00  0.00000000000E+00  0.65931944093E+03  0.65931944093E+03  0.00000000000E+00 0.  1.
         -1   -1    0    0    0  501 -0.00000000000E+00 -0.00000000000E+00 -0.44587284352E+02  0.44587284352E+02  0.00000000000E+00 0.  1.
         23    2    1    2    0    0  0.41419572951E+02 -0.36298243097E+02  0.63944103311E+02  0.12391441168E+03  0.90734721013E+02 0.  0.
         24    2    1    2    0    0  0.47835787331E+01 -0.35513133543E+02  0.35618841506E+03  0.36748202155E+03  0.82998697924E+02 0.  0.
        -13    1    4    4    0    0 -0.37182233141E+02 -0.35474699884E+01  0.13313340061E+03  0.13827366114E+03  0.00000000000E+00 0.  1.
         14    1    4    4    0    0  0.41965811874E+02 -0.31965663555E+02  0.22305501445E+03  0.22920836041E+03  0.00000000000E+00 0. -1.
        -13    1    3    3    0    0  0.40711165633E+02 -0.60389567811E+02  0.22951549436E+02  0.76361459711E+02  0.00000000000E+00 0.  1.
         13    1    3    3    0    0  0.70840731798E+00  0.24091324715E+02  0.40992553875E+02  0.47552951965E+02  0.00000000000E+00 0. -1.
         -2    1    1    2    0  502 -0.46203151685E+02  0.71811376640E+02  0.19459963820E+03  0.21251029205E+03  0.00000000000E+00 0.  1.
<scales pt_clust_5="13000.00000" pt_clust_6="13000.00000" pt_clust_7="13000.00000" pt_clust_8="13000.00000" pt_clust_9="85.39090"></scales>
<clustering>
<clus scale="   82.999">  5  6 -1 -1</clus>
<clus scale="   85.391">  1  9  2 -1</clus>
<clus scale="   90.735">  7  8 -1 -1</clus>
<clus scale="   91.479">  1  5  2 -1</clus>
<clus scale="   85.391">  1  5  2 -1</clus>
</clustering>
</event>
<event>
 9    2  0.1325014E-004  0.1536309E+03  0.7546771E-02  0.1201958E+00
         -1   -1    0    0    0  501 -0.00000000000E+00  0.00000000000E+00  0.15364206451E+03  0.15364206451E+03  0.00000000000E+00 0.  1.
         21   -1    0    0  501  502  0.00000000000E+00 -0.00000000000E+00 -0.35930696962E+03  0.35930696962E+03  0.00000000000E+00 0.  1.
         23    2    1    2    0    0 -0.10674711576E+03 -0.19227473383E+02 -0.98644481336E+01  0.13555103788E+03  0.80697794742E+02 0.  0.
         24    2    1    2    0    0 -0.12964985858E+02  0.11039957243E+03 -0.85621632348E+01  0.13718659443E+03  0.79941820112E+02 0.  0.
        -11    1    4    4    0    0 -0.17779798971E+02  0.97855915232E+02  0.23696226517E+02  0.10224193146E+03  0.00000000000E+00 0.  1.
         12    1    4    4    0    0  0.48148131127E+01  0.12543657196E+02 -0.32258389751E+02  0.34944662976E+02  0.00000000000E+00 0. -1.
        -11    1    3    3    0    0 -0.52114343554E+02 -0.45709535317E+02  0.13272215929E+02  0.70579162213E+02  0.00000000000E+00 0.  1.
         11    1    3    3    0    0 -0.54632772209E+02  0.26482061934E+02 -0.23136664062E+02  0.64971875665E+02  0.00000000000E+00 0. -1.
         -2    1    1    2    0  502  0.11971210162E+03 -0.91172099044E+02 -0.18723829374E+03  0.24021140181E+03  0.00000000000E+00 0.  1.
<scales pt_clust_5="13000.00000" pt_clust_6="13000.00000" pt_clust_7="13000.00000" pt_clust_8="13000.00000" pt_clust_9="131.19363"></scales>
<clustering>
<clus scale="   79.942">  5  6 -1 -1</clus>
<clus scale="   80.698">  7  8 -1 -1</clus>
<clus scale="  135.192">  1  7  2 -1</clus>
<clus scale="  131.194">  2  9  1 -1</clus>
<clus scale="  131.194">  2  5  1 -1</clus>
</clustering>
</event>
<event>
 9    2  0.1325014E-004  0.1172601E+03  0.7546771E-02  0.1250800E+00
         21   -1    0    0  501  502  0.00000000000E+00  0.00000000000E+00  0.61124597360E+02  0.61124597360E+02  0.00000000000E+00 0.  1.
         -3   -1    0    0    0  501 -0.00000000000E+00 -0.00000000000E+00 -0.58099096762E+03  0.58099096762E+03  0.00000000000E+00 0.  1.
         23    2    1    2    0    0  0.80567084883E+02  0.28046067581E+02 -0.15887694988E+03  0.20189975120E+03  0.90796405520E+02 0.  0.
         24    2    1    2    0    0 -0.60125350202E+02  0.80220384472E+02 -0.12424169249E+03  0.17908562438E+03  0.81149829861E+02 0.  0.
        -13    1    4    4    0    0 -0.61993975515E+02  0.88502495934E+02 -0.81068017119E+02  0.13508504057E+03  0.00000000000E+00 0.  1.
         14    1    4    4    0    0  0.18686253131E+01 -0.82821114617E+01 -0.43173675370E+02  0.44000583812E+02  0.00000000000E+00 0. -1.
        -11    1    3    3    0    0 -0.24822041061E+01  0.30052148838E+02 -0.10648305874E+02  0.31979359046E+02  0.00000000000E+00 0. -1.
         11    1    3    3    0    0  0.83049288989E+02 -0.20060812570E+01 -0.14822864401E+03  0.16992039215E+03  0.00000000000E+00 0.  1.
         -4    1    1    2    0  502 -0.20441734681E+02 -0.10826645205E+03 -0.23674772789E+03  0.26113018940E+03  0.00000000000E+00 0.  1.
<scales pt_clust_5="13000.00000" pt_clust_6="13000.00000" pt_clust_7="13000.00000" pt_clust_8="13000.00000" pt_clust_9="110.17941"></scales>
<clustering>
<clus scale="   81.150">  5  6 -1 -1</clus>
<clus scale="   90.796">  7  8 -1 -1</clus>
<clus scale="  110.179">  1  9  2 -1</clus>
<clus scale="  110.179">  1  5  2 -1</clus>
<clus scale="  110.179">  1  5  2 -1</clus>
</clustering>
</event>
<event>
 9    2  0.1325014E-004  0.9994053E+02  0.7546771E-02  0.1283939E+00
          2   -1    0    0  502    0 -0.00000000000E+00  0.00000000000E+00  0.61144564978E+03  0.61144564978E+03  0.00000000000E+00 0. -1.
         21   -1    0    0  501  502  0.00000000000E+00 -0.00000000000E+00 -0.36175219056E+02  0.36175219056E+02  0.00000000000E+00 0.  1.
         23    2    1    2    0    0 -0.88128433023E+01  0.47137260752E+02  0.44201205103E+03  0.45308153330E+03  0.87227489937E+02 0.  0.
         24    2    1    2    0    0 -0.14482901382E+02 -0.55679951379E+02  0.55508304070E+02  0.11292595708E+03  0.79756432621E+02 0.  0.
        -13    1    4    4    0    0 -0.25992719138E+02 -0.41281693902E+02 -0.55947916571E+01  0.49102967255E+02  0.00000000000E+00 0.  1.
         14    1    4    4    0    0  0.11509817756E+02 -0.14398257477E+02  0.61103095727E+02  0.63822989828E+02  0.00000000000E+00 0. -1.
        -11    1    3    3    0    0  0.21564490190E+02 -0.10609514736E+02  0.47753685270E+02  0.53460298324E+02  0.00000000000E+00 0. -1.
         11    1    3    3    0    0 -0.30377333492E+02  0.57746775488E+02  0.39425836576E+03  0.39962123497E+03  0.00000000000E+00 0.  1.
          1    1    1    2  501    0  0.23295744684E+02  0.85426906266E+01  0.77750075623E+02  0.81613378456E+02  0.00000000000E+00 0. -1.
<scales pt_clust_5="13000.00000" pt_clust_6="13000.00000" pt_clust_7="13000.00000" pt_clust_8="13000.00000" pt_clust_9="24.81270"></scales>
<clustering>
<clus scale="   24.813">  2  9  1 -1</clus>
<clus scale="   79.756">  5  6 -1 -1</clus>
<clus scale="   87.227">  7  8 -1 -1</clus>
<clus scale="   93.491">  2  5  1 -1</clus>
<clus scale="   24.813">  2  5  1 -1</clus>
</clustering>
</event>
<event>
 9    2  0.1325014E-004  0.1549595E+03  0.7546771E-02  0.1197831E+00
         21   -1    0    0  501  502  0.00000000000E+00  0.00000000000E+00  0.65215884554E+03  0.65215884554E+03  0.00000000000E+00 0. -1.
          2   -1    0    0  502    0 -0.00000000000E+00 -0.00000000000E+00 -0.81025827164E+02  0.81025827164E+02  0.00000000000E+00 0. -1.
         24    2    1    2    0    0 -0.95586456055E+02  0.17355908424E+02  0.24740238628E+03  0.27752477301E+03  0.79837715153E+02 0.  0.
         23    2    1    2    0    0  0.15330109098E+03  0.18193476996E+01  0.34595485592E+03  0.39090972088E+03  0.98087272467E+02 0.  0.
        -13    1    3    3    0    0 -0.23790313466E+02  0.43196708940E+02  0.91099186748E+02  0.10359052324E+03  0.00000000000E+00 0.  1.
         14    1    3    3    0    0 -0.71796142588E+02 -0.25840800516E+02  0.15630319953E+03  0.17393424977E+03  0.00000000000E+00 0. -1.
        -13    1    4    4    0    0  0.12541782952E+03  0.39964143360E+02  0.21984880442E+03  0.25624258335E+03  0.00000000000E+00 0. -1.
         13    1    4    4    0    0  0.27883261465E+02 -0.38144795661E+02  0.12610605150E+03  0.13466713753E+03  0.00000000000E+00 0.  1.
          1    1    1    2  501    0 -0.57714634929E+02 -0.19175256124E+02 -0.22224223820E+02  0.64750178816E+02  0.00000000000E+00 0. -1.
<scales pt_clust_5="13000.00000" pt_clust_6="13000.00000" pt_clust_7="13000.00000" pt_clust_8="13000.00000" pt_clust_9="60.81672"></scales>
<clustering>
<clus scale="   60.817">  1  9  2 -1</clus>
<clus scale="   79.838">  5  6 -1 -1</clus>
<clus scale="   98.087">  7  8 -1 -1</clus>
<clus scale="  144.102">  2  5  1 -1</clus>
<clus scale="   60.817">  1  5  2 -1</clus>
</clustering>
</event>
<event>
 9    2  0.1325014E-004  0.9882665E+02  0.7546771E-02  0.1287696E+00
         21   -1    0    0  501  502  0.00000000000E+00  0.00000000000E+00  0.38512561558E+03  0.38512561558E+03  0.00000000000E+00 0.  1.
         -1   -1    0    0    0  501 -0.00000000000E+00 -0.00000000000E+00 -0.10286271073E+03  0.10286271073E+03  0.00000000000E+00 0.  1.
         23    2    1    2    0    0 -0.70854108861E+01  0.31087958169E+02 -0.22568295049E+02  0.98345094486E+02  0.90253894528E+02 0.  0.
         24    2    1    2    0    0  0.41418723599E+02 -0.40341866202E+02  0.18220202614E+02  0.10083486121E+03  0.80577395209E+02 0.  0.
        -13    1    4    4    0    0 -0.23030363324E+02 -0.48671056196E+01 -0.42347508606E+01  0.23916928456E+02  0.00000000000E+00 0.  1.
         14    1    4    4    0    0  0.64449086923E+02 -0.35474760582E+02  0.22454953475E+02  0.76917932753E+02  0.00000000000E+00 0. -1.
        -11    1    3    3    0    0  0.39539749962E+02 -0.58036185185E-01 -0.70205121621E+01  0.40158221901E+02  0.00000000000E+00 0. -1.
         11    1    3    3    0    0 -0.46625160848E+02  0.31145994355E+02 -0.15547782887E+02  0.58186872584E+02  0.00000000000E+00 0.  1.
         -2    1    1    2    0  502 -0.34333312713E+02  0.92539080322E+01  0.28661099728E+03  0.28880837062E+03  0.00000000000E+00 0.  1.
<scales pt_clust_5="13000.00000" pt_clust_6="13000.00000" pt_clust_7="13000.00000" pt_clust_8="13000.00000" pt_clust_9="35.55856"></scales>
<clustering>
<clus scale="   35.559">  1  9  2 -1</clus>
<clus scale="   80.577">  5  6 -1 -1</clus>
<clus scale="   90.076">  1  5  2 -1</clus>
<clus scale="   90.254">  7  8 -1 -1</clus>
<clus scale="   35.559">  1  5  2 -1</clus>
</clustering>
</event>
<event>
 9    2  0.1325014E-004  0.1045761E+03  0.7546771E-02  0.1275909E+00
         21   -1    0    0  501  502  0.00000000000E+00  0.00000000000E+00  0.22921263765E+02  0.22921263765E+02  0.00000000000E+00 0.  1.
          2   -1    0    0  502    0 -0.00000000000E+00 -0.00000000000E+00 -0.13866351221E+04  0.13866351221E+04  0.00000000000E+00 0. -1.
         24    2    1    2    0    0 -0.38346706534E+02 -0.44582710867E+02 -0.58389726931E+03  0.59229980673E+03  0.80155797819E+02 0.  0.
         23    2    1    2    0    0 -0.48927156050E+02  0.56947888274E+02 -0.21251739361E+03  0.24315031561E+03  0.91222282469E+02 0.  0.
        -11    1    3    3    0    0  0.99978206333E+01 -0.44841270182E+02 -0.19141486036E+03  0.19685107237E+03  0.00000000000E+00 0.  1.
         12    1    3    3    0    0 -0.48344527167E+02  0.25855931469E+00 -0.39248240896E+03  0.39544873435E+03  0.00000000000E+00 0. -1.
        -11    1    4    4    0    0 -0.12698909574E+02  0.59436265671E+02 -0.56569739949E+02  0.83030521251E+02  0.00000000000E+00 0.  1.
         11    1    4    4    0    0 -0.36228246477E+02 -0.24883773976E+01 -0.15594765366E+03  0.16011979436E+03  0.00000000000E+00 0. -1.
          1    1    1    2  501    0  0.87273862584E+02 -0.12365177407E+02 -0.56729919537E+03  0.57410626348E+03  0.00000000000E+00 0. -1.
<scales pt_clust_5="13000.00000" pt_clust_6="13000.00000" pt_clust_7="13000.00000" pt_clust_8="13000.00000" pt_clust_9="88.14552"></scales>
<clustering>
<clus scale="   80.156">  5  6 -1 -1</clus>
<clus scale="   88.146">  1  9  2 -1</clus>
<clus scale="   91.222">  7  8 -1 -1</clus>
<clus scale="   95.077">  2  5  1 -1</clus>
<clus scale="   88.146">  1  5  2 -1</clus>
</clustering>
</event>
<event>
 9    2  0.1325014E-004  0.1272800E+03  0.7546771E-02  0.1244666E+00
         -1   -1    0    0    0  501 -0.00000000000E+00  0.00000000000E+00  0.21763744907E+03  0.21763744907E+03  0.00000000000E+00 0.  1.
         21   -1    0    0  501  502  0.00000000000E+00 -0.00000000000E+00 -0.23697592478E+03  0.23697592478E+03  0.00000000000E+00 0.  1.
         23    2    1    2    0    0  0.28909730595E+02 -0.56242663145E+01  0.14630517076E+03  0.17577769407E+03  0.92871900196E+02 0.  0.
         24    2    1    2    0    0  0.50567773915E+02 -0.64209194958E+02 -0.75011408666E+02  0.13952455832E+03  0.84619563147E+02 0.  0.
        -11    1    4    4    0    0 -0.16795064751E+02 -0.36437066576E+02 -0.46154084340E+02  0.61154995887E+02  0.00000000000E+00 0.  1.
         12    1    4    4    0    0  0.67362838666E+02 -0.27772128382E+02 -0.28857324327E+02  0.78369562429E+02  0.00000000000E+00 0. -1.
        -13    1    3    3    0    0  0.11566787296E+02  0.21040895596E+02 -0.20055306875E+01  0.24094231865E+02  0.00000000000E+00 0. -1.
         13    1    3    3    0    0  0.17342943299E+02 -0.26665161910E+02  0.14831070145E+03  0.15168346220E+03  0.00000000000E+00 0.  1.
         -2    1    1    2    0  502 -0.79477504510E+02  0.69833461272E+02 -0.90632237797E+02  0.13931112147E+03  0.00000000000E+00 0.  1.
<scales pt_clust_5="13000.00000" pt_clust_6="13000.00000" pt_clust_7="13000.00000" pt_clust_8="13000.00000" pt_clust_9="95.07758"></scales>
<clustering>
<clus scale="   84.620">  5  6 -1 -1</clus>
<clus scale="   92.872">  7  8 -1 -1</clus>
<clus scale="   97.430">  1  7  2 -1</clus>
<clus scale="   95.078">  2  9  1 -1</clus>
<clus scale="   95.078">  2  5  1 -1</clus>
</clustering>
</event>
<event>
 9    2  0.1325014E-004  0.1376671E+03  0.7546771E-02  0.1231941E+00
         21   -1    0    0  501  502  0.00000000000E+00  0.00000000000E+00  0.14579729402E+03  0.14579729402E+03  0.00000000000E+00 0. -1.
          2   -1    0    0  502    0 -0.00000000000E+00 -0.00000000000E+00 -0.44349165288E+03  0.44349165288E+03  0.00000000000E+00 0. -1.
         24    2    1    2    0    0 -0.31365090309E+02  0.52923531953E+02 -0.30847392658E+03  0.32421006921E+03  0.78557854287E+02 0.  0.
         23    2    1    2    0    0  0.11075319276E+03  0.13812504402E+02 -0.39250396905E+02  0.14993042257E+03  0.92094967127E+02 0.  0.
        -11    1    3    3    0    0  0.26557790179E+02  0.18709268135E+02 -0.10355078613E+03  0.10852703922E+03  0.00000000000E+00 0.  1.
         12    1    3    3    0    0 -0.57922880488E+02  0.34214263818E+02 -0.20492314045E+03  0.21568302999E+03  0.00000000000E+00 0. -1.
        -13    1    4    4    0    0  0.10058508608E+03 -0.20963131302E+02 -0.46828580111E+02  0.11291469493E+03  0.00000000000E+00 0.  1.
         13    1    4    4    0    0  0.10168106681E+02  0.34775635704E+02  0.75781832064E+01  0.37015727641E+02  0.00000000000E+00 0. -1.
          1    1    1    2  501    0 -0.79388102449E+02 -0.66736036355E+02  0.50029964625E+02  0.11514845513E+03  0.00000000000E+00 0. -1.
<scales pt_clust_5="13000.00000" pt_clust_6="13000.00000" pt_clust_7="13000.00000" pt_clust_8="13000.00000" pt_clust_9="102.32665"></scales>
<clustering>
<clus scale="   78.558">  5  6 -1 -1</clus>
<clus scale="   92.095">  7  8 -1 -1</clus>
<clus scale="   99.780">  2  5  1 -1</clus>
<clus scale="  102.327">  1  9  2 -1</clus>
<clus scale="  102.327">  1  5  2 -1</clus>
</clustering>
</event>
<event>
 9    2  0.1325014E-004  0.1417144E+03  0.7546771E-02  0.1232818E+00
         21   -1    0    0  501  502  0.00000000000E+00  0.00000000000E+00  0.11713370777E+03  0.11713370777E+03  0.00000000000E+00 0. -1.
          4   -1    0    0  502    0 -0.00000000000E+00 -0.00000000000E+00 -0.80279271574E+03  0.80279271574E+03  0.00000000000E+00 0. -1.
         24    2    1    2    0    0  0.35030051458E+02 -0.73800337146E+01 -0.13775168913E+03  0.16445773135E+03  0.82396893991E+02 0.  0.
         23    2    1    2    0    0  0.70645213095E+02 -0.35218647090E+02  0.48441017910E+02  0.14833341243E+03  0.11586703497E+03 0.  0.
        -11    1    3    3    0    0 -0.19168486271E+02 -0.26104647831E+02 -0.53663119773E+02  0.62678656081E+02  0.00000000000E+00 0.  1.
         12    1    3    3    0    0  0.54198537729E+02  0.18724614117E+02 -0.84088569357E+02  0.10177907527E+03  0.00000000000E+00 0. -1.
        -13    1    4    4    0    0  0.32652063277E+01 -0.33752886751E+02 -0.29746120542E+02  0.45108210158E+02  0.00000000000E+00 0.  1.
         13    1    4    4    0    0  0.67380006767E+02 -0.14657603388E+01  0.78187138452E+02  0.10322520227E+03  0.00000000000E+00 0. -1.
          3    1    1    2  501    0 -0.10567526455E+03  0.42598680804E+02 -0.59634833676E+03  0.60713527973E+03  0.00000000000E+00 0. -1.
<scales pt_clust_5="13000.00000" pt_clust_6="13000.00000" pt_clust_7="13000.00000" pt_clust_8="13000.00000" pt_clust_9="81.59536"></scales>
<clustering>
<clus scale="   82.397">  5  6 -1 -1</clus>
<clus scale="   89.838">  2  5  1 -1</clus>
<clus scale="   81.595">  1  9  2 -1</clus>
<clus scale="  115.867">  7  8 -1 -1</clus>
<clus scale="   81.595">  1  5  2 -1</clus>
</clustering>
</event>
<event>
 9    2  0.1325014E-004  0.1257878E+03  0.7546771E-02  0.1234313E+00
         -3   -1    0    0    0  501 -0.00000000000E+00  0.00000000000E+00  0.23884867115E+03  0.23884867115E+03  0.00000000000E+00 0.  1.
         21   -1    0    0  501  502  0.00000000000E+00 -0.00000000000E+00 -0.10251548940E+03  0.10251548940E+03  0.00000000000E+00 0.  1.
         24    2    1    2    0    0 -0.18434640312E+02  0.10866813634E+03  0.95524283832E+02  0.17037847197E+03  0.88064380366E+02 0.  0.
         23    2    1    2    0    0  0.33181714842E+02 -0.58304046964E+02  0.38381561960E+02  0.11845084619E+03  0.89761186332E+02 0.  0.
        -13    1    3    3    0    0  0.18366776463E+02  0.10093422410E+03  0.61172130138E+02  0.11944490603E+03  0.00000000000E+00 0.  1.
         14    1    3    3    0    0 -0.36801416775E+02  0.77339122419E+01  0.34352153695E+02  0.50933565933E+02  0.00000000000E+00 0. -1.
        -11    1    4    4    0    0  0.12525502967E+01 -0.28489758984E+02  0.62393554367E+02  0.68601682747E+02  0.00000000000E+00 0. -1.
         11    1    4    4    0    0  0.31929164545E+02 -0.29814287980E+02 -0.24011992407E+02  0.49849163440E+02  0.00000000000E+00 0.  1.
         -4    1    1    2    0  502 -0.14747074530E+02 -0.50364089377E+02  0.24273359607E+01  0.52534842399E+02  0.00000000000E+00 0.  1.
<scales pt_clust_5="13000.00000" pt_clust_6="13000.00000" pt_clust_7="13000.00000" pt_clust_8="13000.00000" pt_clust_9="52.47874"></scales>
<clustering>
<clus scale="   52.479">  2  9  1 -1</clus>
<clus scale="   88.064">  5  6 -1 -1</clus>
<clus scale="   89.761">  7  8 -1 -1</clus>
<clus scale="  124.583">  1  5  2 -1</clus>
<clus scale="   52.479">  2  5  1 -1</clus>
</clustering>
</event>
<event>
 9    2  0.1325014E-004  0.1441457E+03  0.7546771E-02  0.1214055E+00
          2   -1    0    0  502    0 -0.00000000000E+00  0.00000000000E+00  0.24620004912E+03  0.24620004912E+03  0.00000000000E+00 0. -1.
         21   -1    0    0  501  502  0.00000000000E+00 -0.00000000000E+00 -0.96919412367E+02  0.96919412367E+02  0.00000000000E+00 0.  1.
         24    2    1    2    0    0 -0.93850536192E+02  0.59492516063E+02  0.11482751276E+03  0.17655651736E+03  0.75097027397E+02 0.  0.
         23    2    1    2    0    0  0.69647086808E+02 -0.45806900685E+02  0.15402349612E+02  0.13285782530E+03  0.10229848738E+03 0.  0.
        -13    1    3    3    0    0 -0.13383728756E+01  0.29454570876E+02  0.50967770126E+01  0.29922234599E+02  0.00000000000E+00 0.  1.
         14    1    3    3    0    0 -0.92512163317E+02  0.30037945187E+02  0.10973073575E+03  0.14663428276E+03  0.00000000000E+00 0. -1.
        -13    1    4    4    0    0  0.51169028271E+02 -0.69910418091E+02 -0.17172182102E+02  0.88321117803E+02  0.00000000000E+00 0.  1.
         13    1    4    4    0    0  0.18478058537E+02  0.24103517406E+02  0.32574531714E+02  0.44536707501E+02  0.00000000000E+00 0. -1.
          1    1    1    2  501    0  0.24203449384E+02 -0.13685615379E+02  0.19050774376E+02  0.33705118821E+02  0.00000000000E+00 0. -1.
<scales pt_clust_5="13000.00000" pt_clust_6="13000.00000" pt_clust_7="13000.00000" pt_clust_8="13000.00000" pt_clust_9="27.80474"></scales>
<clustering>
<clus scale="   27.805">  2  9  1 -1</clus>
<clus scale="   75.097">  5  6 -1 -1</clus>
<clus scale="  102.298">  7  8 -1 -1</clus>
<clus scale="  126.303">  1  5  2 -1</clus>
<clus scale="   27.805">  2  5  1 -1</clus>
</clustering>
</event>
<event>
 9    2  0.1325014E-004  0.1042037E+03  0.7546771E-02  0.1276442E+00
         -1   -1    0    0    0  501 -0.00000000000E+00  0.00000000000E+00  0.21606070392E+03  0.21606070392E+03  0.00000000000E+00 0.  1.
         21   -1    0    0  501  502  0.00000000000E+00 -0.00000000000E+00 -0.12159309499E+03  0.12159309499E+03  0.00000000000E+00 0. -1.
         24    2    1    2    0    0 -0.54562584816E+02  0.13690354894E+02  0.16221086451E+03  0.18969619836E+03  0.80670822659E+02 0.  0.
         23    2    1    2    0    0  0.18383718000E+02 -0.11514360194E+02 -0.38323749432E+02  0.10127620491E+03  0.91200977691E+02 0.  0.
        -13    1    3    3    0    0 -0.57015713409E+02  0.31522827327E+02  0.69529077159E+02  0.95282594365E+02  0.00000000000E+00 0.  1.
         14    1    3    3    0    0  0.24531285934E+01 -0.17832472433E+02  0.92681787350E+02  0.94413603995E+02  0.00000000000E+00 0. -1.
        -11    1    4    4    0    0 -0.27624846172E+02 -0.21812263060E+02 -0.41021081152E+02  0.54052160407E+02  0.00000000000E+00 0. -1.
         11    1    4    4    0    0  0.46008564172E+02  0.10297902866E+02  0.26973317199E+01  0.47224044500E+02  0.00000000000E+00 0.  1.
         -2    1    1    2    0  502  0.36178866816E+02 -0.21759947005E+01 -0.29419506146E+02  0.46681395640E+02  0.00000000000E+00 0.  1.
<scales pt_clust_5="13000.00000" pt_clust_6="13000.00000" pt_clust_7="13000.00000" pt_clust_8="13000.00000" pt_clust_9="36.24425"></scales>
<clustering>
<clus scale="   36.244">  2  9  1 -1</clus>
<clus scale="   80.671">  5  6 -1 -1</clus>
<clus scale="   91.201">  7  8 -1 -1</clus>
<clus scale="   95.124">  1  5  2 -1</clus>
<clus scale="   36.244">  2  5  1 -1</clus>
</clustering>
</event>
<event>
 9    2  0.1325014E-004  0.1486437E+03  0.7546771E-02  0.1224451E+00
          2   -1    0    0  502    0 -0.00000000000E+00  0.00000000000E+00  0.25785605342E+03  0.25785605342E+03  0.00000000000E+00 0. -1.
         21   -1    0    0  501  502  0.00000000000E+00 -0.00000000000E+00 -0.33577354133E+03  0.33577354133E+03  0.00000000000E+00 0. -1.
         24    2    1    2    0    0  0.86642804687E+01 -0.45950479026E+02  0.29655623716E+02  0.97201860114E+02  0.79888855999E+02 0.  0.
         23    2    1    2    0    0  0.10184238112E+03  0.76826681871E+01  0.15567085758E+03  0.20837646330E+03  0.93575854652E+02 0.  0.
        -13    1    3    3    0    0  0.17544327650E+02 -0.63721490861E+02  0.60793578617E+01  0.66371608555E+02  0.00000000000E+00 0.  1.
         14    1    3    3    0    0 -0.88800471810E+01  0.17771011835E+02  0.23576265854E+02  0.30830251559E+02  0.00000000000E+00 0. -1.
        -11    1    4    4    0    0  0.10209309217E+03  0.29528002696E+02  0.90326586640E+02  0.13947686068E+03  0.00000000000E+00 0. -1.
         11    1    4    4    0    0 -0.25071104918E+00 -0.21845334509E+02  0.65344270940E+02  0.68899602615E+02  0.00000000000E+00 0.  1.
          1    1    1    2  501    0 -0.11050666159E+03  0.38267810839E+02 -0.26324396920E+03  0.28805127134E+03  0.00000000000E+00 0. -1.
<scales pt_clust_5="13000.00000" pt_clust_6="13000.00000" pt_clust_7="13000.00000" pt_clust_8="13000.00000" pt_clust_9="115.49252"></scales>
<clustering>
<clus scale="   79.889">  5  6 -1 -1</clus>
<clus scale="   92.568">  1  5  2 -1</clus>
<clus scale="   93.576">  7  8 -1 -1</clus>
<clus scale="  115.493">  2  9  1 -1</clus>
<clus scale="  115.493">  2  5  1 -1</clus>
</clustering>
</event>
<event>
 9    2  0.1325014E-004  0.1755736E+03  0.7546771E-02  0.1194374E+00
         21   -1    0    0  501  502  0.00000000000E+00  0.00000000000E+00  0.62383117550E+02  0.62383117550E+02  0.00000000000E+00 0. -1.
          4   -1    0    0  502    0 -0.00000000000E+00 -0.00000000000E+00 -0.86054407278E+03  0.86054407278E+03  0.00000000000E+00 0. -1.
         24    2    1    2    0    0 -0.28262415258E+02 -0.64380763766E+02 -0.93648786464E+02  0.14208008297E+03  0.80455005507E+02 0.  0.
         23    2    1    2    0    0 -0.12601453801E+03  0.77509136540E+02 -0.45081581835E+03  0.48363410177E+03  0.93700118880E+02 0.  0.
        -11    1    3    3    0    0 -0.31319638378E+02 -0.55204315642E+02 -0.10770637121E+03  0.12501639338E+03  0.00000000000E+00 0.  1.
         12    1    3    3    0    0  0.30572231199E+01 -0.91764481246E+01  0.14057584751E+02  0.17063689590E+02  0.00000000000E+00 0. -1.
        -11    1    4    4    0    0 -0.12493517801E+02 -0.20308333996E+02 -0.85920560885E+02  0.89167590522E+02  0.00000000000E+00 0.  1.
         11    1    4    4    0    0 -0.11352102021E+03  0.97817470537E+02 -0.36489525747E+03  0.39446651124E+03  0.00000000000E+00 0. -1.
          3    1    1    2  501    0  0.15427695327E+03 -0.13128372774E+02 -0.25369635041E+03  0.29721300559E+03  0.00000000000E+00 0. -1.
<scales pt_clust_5="13000.00000" pt_clust_6="13000.00000" pt_clust_7="13000.00000" pt_clust_8="13000.00000" pt_clust_9="148.48028"></scales>
<clustering>
<clus scale="   80.455">  5  6 -1 -1</clus>
<clus scale="   93.700">  7  8 -1 -1</clus>
<clus scale="  106.849">  2  5  1 -1</clus>
<clus scale="  148.480">  1  9  2 -1</clus>
<clus scale="  148.480">  1  5  2 -1</clus>
</clustering>
</event>
<event>
 9    2  0.1325014E-004  0.1086649E+03  0.7546771E-02  0.1269072E+00
          2   -1    0    0  502    0 -0.00000000000E+00  0.00000000000E+00  0.27333203870E+03  0.27333203870E+03  0.00000000000E+00 0. -1.
         21   -1    0    0  501  502  0.00000000000E+00 -0.00000000000E+00 -0.11492046650E+03  0.11492046650E+03  0.00000000000E+00 0.  1.
         24    2    1    2    0    0 -0.85872345182E+01 -0.34289513204E+02  0.15037182488E+02  0.89640725008E+02  0.80992786163E+02 0.  0.
         23    2    1    2    0    0  0.56716012344E+01  0.87473939524E+02 -0.16310071341E+02  0.13027814951E+03  0.94986949921E+02 0.  0.
        -13    1    3    3    0    0  0.26663729011E+02 -0.44200650065E+02  0.11210495218E+02  0.52823546965E+02  0.00000000000E+00 0.  1.
         14    1    3    3    0    0 -0.35250963529E+02  0.99111368614E+01  0.38266872694E+01  0.36817178043E+02  0.00000000000E+00 0. -1.
        -11    1    4    4    0    0 -0.34517665056E+02  0.67949161543E+02 -0.32363539373E+02  0.82800703113E+02  0.00000000000E+00 0.  1.
         11    1    4    4    0    0  0.40189266290E+02  0.19524777981E+02  0.16053468032E+02  0.47477446393E+02  0.00000000000E+00 0. -1.
          1    1    1    2  501    0  0.29156332838E+01 -0.53184426320E+02  0.15968446105E+03  0.16833363069E+03  0.00000000000E+00 0. -1.
<scales pt_clust_5="13000.00000" pt_clust_6="13000.00000" pt_clust_7="13000.00000" pt_clust_8="13000.00000" pt_clust_9="53.26431"></scales>
<clustering>
<clus scale="   53.264">  2  9  1 -1</clus>
<clus scale="   80.993">  5  6 -1 -1</clus>
<clus scale="   94.987">  7  8 -1 -1</clus>
<clus scale="   96.671">  1  5  2 -1</clus>
<clus scale="   53.264">  2  5  1 -1</clus>
</clustering>
</event>
<event>
 9    2  0.1325014E-004  0.1216581E+03  0.7546771E-02  0.1243804E+00
          2   -1    0    0  502    0 -0.00000000000E+00  0.00000000000E+00  0.15845856410E+03  0.15845856410E+03  0.00000000000E+00 0. -1.
         21   -1    0    0  501  502  0.00000000000E+00 -0.00000000000E+00 -0.17126234784E+03  0.17126234784E+03  0.00000000000E+00 0.  1.
         23    2    1    2    0    0 -0.26442513751E+02 -0.42914229745E+02 -0.19543349974E+02  0.10777989682E+03  0.93240152200E+02 0.  0.
         24    2    1    2    0    0  0.30552619596E+02  0.11285829370E+03 -0.24730364588E+02  0.14513332280E+03  0.82350673547E+02 0.  0.
        -11    1    4    4    0    0  0.17302855526E+02  0.12105145785E+03 -0.84088416963E+01  0.12257060364E+03  0.00000000000E+00 0.  1.
         12    1    4    4    0    0  0.13249764070E+02 -0.81931641488E+01 -0.16321522891E+02  0.22562719166E+02  0.00000000000E+00 0. -1.
        -11    1    3    3    0    0  0.22595943468E+01 -0.35699127341E+02 -0.52472936645E+02  0.63505452834E+02  0.00000000000E+00 0.  1.
         11    1    3    3    0    0 -0.28702108098E+02 -0.72151024044E+01  0.32929586671E+02  0.44274443986E+02  0.00000000000E+00 0. -1.
          1    1    1    2  501    0 -0.41101058442E+01 -0.69944063959E+02  0.31469930820E+02  0.76807692316E+02  0.00000000000E+00 0. -1.
<scales pt_clust_5="13000.00000" pt_clust_6="13000.00000" pt_clust_7="13000.00000" pt_clust_8="13000.00000" pt_clust_9="70.06476"></scales>
<clustering>
<clus scale="   70.065">  2  9  1 -1</clus>
<clus scale="   82.351">  5  6 -1 -1</clus>
<clus scale="   93.240">  7  8 -1 -1</clus>
<clus scale="  113.528">  2  5  1 -1</clus>
<clus scale="   70.065">  2  5  1 -1</clus>
</clustering>
</event>
<event>
 9    2  0.1325014E-004  0.9646659E+02  0.7546771E-02  0.1290869E+00
         -3   -1    0    0    0  501 -0.00000000000E+00  0.00000000000E+00  0.94063776193E+02  0.94063776193E+02  0.00000000000E+00 0.  1.
         21   -1    0    0  501  502  0.00000000000E+00 -0.00000000000E+00 -0.28506319303E+03  0.28506319303E+03  0.00000000000E+00 0.  1.
         24    2    1    2    0    0 -0.31057409294E+02  0.14754332137E+02 -0.16481351828E+02  0.93071943817E+02  0.84902878508E+02 0.  0.
         23    2    1    2    0    0 -0.26044028478E+02 -0.73475632939E+02 -0.16486827274E+03  0.20358149114E+03  0.90481578918E+02 0.  0.
        -13    1    3    3    0    0 -0.42327719711E+02 -0.15115962534E+02  0.15826726055E+02  0.47650954207E+02  0.00000000000E+00 0.  1.
         14    1    3    3    0    0  0.11270310417E+02  0.29870294671E+02 -0.32308077883E+02  0.45420989610E+02  0.00000000000E+00 0. -1.
        -11    1    4    4    0    0  0.20198752944E+02 -0.18985173544E+02 -0.11011553407E+03  0.11355112187E+03  0.00000000000E+00 0. -1.
         11    1    4    4    0    0 -0.46242781422E+02 -0.54490459395E+02 -0.54752738672E+02  0.90030369270E+02  0.00000000000E+00 0.  1.
         -4    1    1    2    0  502  0.57101437772E+02  0.58721300801E+02 -0.96497922681E+01  0.82473534265E+02  0.00000000000E+00 0.  1.
<scales pt_clust_5="13000.00000" pt_clust_6="13000.00000" pt_clust_7="13000.00000" pt_clust_8="13000.00000" pt_clust_9="81.90709"></scales>
<clustering>
<clus scale="   81.907">  2  9  1 -1</clus>
<clus scale="   84.903">  5  6 -1 -1</clus>
<clus scale="   90.482">  7  8 -1 -1</clus>
<clus scale="   91.255">  1  5  2 -1</clus>
<clus scale="   81.907">  2  5  1 -1</clus>
</clustering>
</event>
<event>
 9    2  0.1325014E-004  0.1304806E+03  0.7546771E-02  0.1228935E+00
          4   -1    0    0  502    0 -0.00000000000E+00  0.00000000000E+00  0.35779427925E+03  0.35779427925E+03  0.00000000000E+00 0. -1.
         21   -1    0    0  501  502  0.00000000000E+00 -0.00000000000E+00 -0.29569919537E+03  0.29569919537E+03  0.00000000000E+00 0. -1.
         23    2    1    2    0    0  0.88683773417E+02 -0.88709994845E+01  0.29714599106E+03  0.32204583972E+03  0.86453898577E+02 0.  0.
         24    2    1    2    0    0 -0.97769688827E+02 -0.21257350249E+02 -0.54374637240E+02  0.14805138130E+03  0.94614075794E+02 0.  0.
        -13    1    4    4    0    0 -0.44534323264E+02 -0.35228458882E+01 -0.75802800312E+02  0.87987390726E+02  0.00000000000E+00 0.  1.
         14    1    4    4    0    0 -0.53235365563E+02 -0.17734504361E+02  0.21428163072E+02  0.60063990578E+02  0.00000000000E+00 0. -1.
        -13    1    3    3    0    0  0.23486235941E+02 -0.43903520588E+02  0.13175975996E+03  0.14085367139E+03  0.00000000000E+00 0. -1.
         13    1    3    3    0    0  0.65197537476E+02  0.35032521104E+02  0.16538623110E+03  0.18119216833E+03  0.00000000000E+00 0.  1.
          3    1    1    2  501    0  0.90859154096E+01  0.30128349734E+02 -0.18067626993E+03  0.18339625360E+03  0.00000000000E+00 0. -1.
<scales pt_clust_5="13000.00000" pt_clust_6="13000.00000" pt_clust_7="13000.00000" pt_clust_8="13000.00000" pt_clust_9="31.46858"></scales>
<clustering>
<clus scale="   31.469">  2  9  1 -1</clus>
<clus scale="   86.454">  7  8 -1 -1</clus>
<clus scale="   94.614">  5  6 -1 -1</clus>
<clus scale="  124.690">  1  7  2 -1</clus>
<clus scale="   31.469">  2  5  1 -1</clus>
</clustering>
</event>
<event>
 9    2  0.1325014E-004  0.9788925E+02  0.7546771E-02  0.1289959E+00
         21   -1    0    0  501  502  0.00000000000E+00  0.00000000000E+00  0.40295943028E+02  0.40295943028E+02  0.00000000000E+00 0. -1.
          2   -1    0    0  502    0 -0.00000000000E+00 -0.00000000000E+00 -0.65017254197E+03  0.65017254197E+03  0.00000000000E+00 0. -1.
         24    2    1    2    0    0  0.36944572398E+02 -0.21110010949E+02 -0.39558213237E+03  0.40609122183E+03  0.81328488305E+02 0.  0.
         23    2    1    2    0    0 -0.18591607834E+02 -0.43105016090E+02 -0.66496945930E+02  0.12219061724E+03  0.91131843121E+02 0.  0.
        -11    1    3    3    0    0  0.69071070002E+01 -0.21832627431E+02 -0.23549927401E+02  0.32847691368E+02  0.00000000000E+00 0.  1.
         12    1    3    3    0    0  0.30037465398E+02  0.72261648113E+00 -0.37203220496E+03  0.37324353046E+03  0.00000000000E+00 0. -1.
        -13    1    4    4    0    0  0.25439102473E+02 -0.50939210553E+02 -0.29374954195E+02  0.64069017788E+02  0.00000000000E+00 0. -1.
         13    1    4    4    0    0 -0.44030710307E+02  0.78341944621E+01 -0.37121991736E+02  0.58121599457E+02  0.00000000000E+00 0.  1.
          1    1    1    2  501    0 -0.18352964564E+02  0.64215027040E+02 -0.14779752064E+03  0.16218664592E+03  0.00000000000E+00 0. -1.
<scales pt_clust_5="13000.00000" pt_clust_6="13000.00000" pt_clust_7="13000.00000" pt_clust_8="13000.00000" pt_clust_9="66.78627"></scales>
<clustering>
<clus scale="   66.786">  1  9  2 -1</clus>
<clus scale="   81.328">  5  6 -1 -1</clus>
<clus scale="   88.835">  2  5  1 -1</clus>
<clus scale="   91.132">  7  8 -1 -1</clus>
<clus scale="   66.786">  1  5  2 -1</clus>
</clustering>
</event>
<event>
 9    2  0.1325014E-004  0.1161256E+03  0.7546771E-02  0.1258906E+00
          2   -1    0    0  502    0 -0.00000000000E+00  0.00000000000E+00  0.28343050483E+03  0.28343050483E+03  0.00000000000E+00 0. -1.
         21   -1    0    0  501  502  0.00000000000E+00 -0.00000000000E+00 -0.50896867540E+03  0.50896867540E+03  0.00000000000E+00 0. -1.
         24    2    1    2    0    0  0.61976570529E+02  0.42237394791E+02  0.25449905306E+03  0.27333548698E+03  0.65707135226E+02 0.  0.
         23    2    1    2    0    0  0.29890932902E+01 -0.21646530706E+02 -0.12084640148E+03  0.15346477658E+03  0.92033026296E+02 0.  0.
        -13    1    3    3    0    0 -0.78728341785E+01  0.24607036927E+02  0.46234989003E+02  0.52963780005E+02  0.00000000000E+00 0.  1.
         14    1    3    3    0    0  0.69849404708E+02  0.17630357864E+02  0.20826406406E+03  0.22037170697E+03  0.00000000000E+00 0. -1.
        -13    1    4    4    0    0 -0.43322502366E+02 -0.95967718020E+01 -0.41214279927E+02  0.60560334462E+02  0.00000000000E+00 0.  1.
         13    1    4    4    0    0  0.46311595656E+02 -0.12049758904E+02 -0.79632121550E+02  0.92904442113E+02  0.00000000000E+00 0. -1.
          1    1    1    2  501    0 -0.64965663819E+02 -0.20590864086E+02 -0.35919082215E+03  0.36559891668E+03  0.00000000000E+00 0. -1.
<scales pt_clust_5="13000.00000" pt_clust_6="13000.00000" pt_clust_7="13000.00000" pt_clust_8="13000.00000" pt_clust_9="68.15072"></scales>
<clustering>
<clus scale="   65.707">  5  6 -1 -1</clus>
<clus scale="   68.151">  2  9  1 -1</clus>
<clus scale="   92.033">  7  8 -1 -1</clus>
<clus scale="   96.605">  1  5  2 -1</clus>
<clus scale="   68.151">  2  5  1 -1</clus>
</clustering>
</event>
<event>
 9    2  0.1325014E-004  0.2417636E+03  0.7546771E-02  0.1137439E+00
         -1   -1    0    0    0  501 -0.00000000000E+00  0.00000000000E+00  0.27424481603E+03  0.27424481603E+03  0.00000000000E+00 0.  1.
         21   -1    0    0  501  502  0.00000000000E+00 -0.00000000000E+00 -0.45416952967E+03  0.45416952967E+03  0.00000000000E+00 0.  1.
         24    2    1    2    0    0  0.72815934672E+02 -0.10638571923E+03  0.12547267183E+02  0.15256271213E+03  0.80609339534E+02 0.  0.
         23    2    1    2    0    0 -0.12884631045E+03  0.29231936210E+03 -0.49230580829E+02  0.33454514540E+03  0.86283388033E+02 0.  0.
        -11    1    3    3    0    0 -0.49308012707E+01 -0.40101704979E+02 -0.20337605062E+02  0.45233590650E+02  0.00000000000E+00 0.  1.
         12    1    3    3    0    0  0.77746735943E+02 -0.66284014249E+02  0.32884872245E+02  0.10732912148E+03  0.00000000000E+00 0. -1.
        -13    1    4    4    0    0 -0.17867331465E+02  0.15690399487E+02 -0.26522309590E+02  0.35621104359E+02  0.00000000000E+00 0. -1.
         13    1    4    4    0    0 -0.11097897898E+03  0.27662896261E+03 -0.22708271238E+02  0.29892404104E+03  0.00000000000E+00 0.  1.
         -2    1    1    2    0  502  0.56030375774E+02 -0.18593364287E+03 -0.14324140000E+03  0.24130648817E+03  0.00000000000E+00 0.  1.
<scales pt_clust_5="13000.00000" pt_clust_6="13000.00000" pt_clust_7="13000.00000" pt_clust_8="13000.00000" pt_clust_9="225.84244"></scales>
<clustering>
<clus scale="   80.609">  5  6 -1 -1</clus>
<clus scale="   86.283">  7  8 -1 -1</clus>
<clus scale="  152.046">  1  5  2 -1</clus>
<clus scale="  225.842">  2  9  1 -1</clus>
<clus scale="  225.842">  2  5  1 -1</clus>
</clustering>
</event>
<event>
 9    2  0.1325014E-004  0.1142302E+03  0.7546771E-02  0.1256967E+00
         21   -1    0    0  501  502  0.00000000000E+00  0.00000000000E+00  0.77242798496E+02  0.77242798496E+02  0.00000000000E+00 0. -1.
          4   -1    0    0  502    0 -0.00000000000E+00 -0.00000000000E+00 -0.25060313755E+03  0.25060313755E+03  0.00000000000E+00 0. -1.
         23    2    1    2    0    0 -0.73090774081E+02  0.14155111701E+02 -0.16478852221E+03  0.20263215680E+03  0.91443455081E+02 0.  0.
         24    2    1    2    0    0  0.56456725604E+02  0.48326529634E+01 -0.14547684342E+02  0.99272735159E+02  0.80204266879E+02 0.  0.
        -13    1    4    4    0    0  0.45872325898E+02  0.27536368359E+02 -0.37469538145E+02  0.65318360011E+02  0.00000000000E+00 0.  1.
         14    1    4    4    0    0  0.10584399706E+02 -0.22703715396E+02  0.22921853803E+02  0.33954375148E+02  0.00000000000E+00 0. -1.
        -11    1    3    3    0    0 -0.76450132780E+02  0.43092314850E+02 -0.13458132492E+03  0.16066643526E+03  0.00000000000E+00 0. -1.
         11    1    3    3    0    0  0.33593586991E+01 -0.28937203150E+02 -0.30207197285E+02  0.41965721545E+02  0.00000000000E+00 0.  1.
          3    1    1    2  501    0  0.16634048477E+02 -0.18987764664E+02  0.59758674960E+01  0.25941044081E+02  0.00000000000E+00 0. -1.
<scales pt_clust_5="13000.00000" pt_clust_6="13000.00000" pt_clust_7="13000.00000" pt_clust_8="13000.00000" pt_clust_9="25.24335"></scales>
<clustering>
<clus scale="   25.243">  1  9  2 -1</clus>
<clus scale="   80.204">  5  6 -1 -1</clus>
<clus scale="   91.443">  7  8 -1 -1</clus>
<clus scale="  105.448">  1  5  2 -1</clus>
<clus scale="   25.243">  1  5  2 -1</clus>
</clustering>
</event>
<event>
 9    2  0.1325014E-004  0.1002689E+03  0.7546771E-02  0.1283537E+00
         21   -1    0    0  501  502  0.00000000000E+00  0.00000000000E+00  0.48111962887E+02  0.48111962887E+02  0.00000000000E+00 0. -1.
          2   -1    0    0  502    0 -0.00000000000E+00 -0.00000000000E+00 -0.85444763597E+03  0.85444763597E+03  0.00000000000E+00 0. -1.
         24    2    1    2    0    0 -0.44133306007E+02  0.32793498427E+01 -0.75826548314E+03  0.76398272251E+03  0.82125236847E+02 0.  0.
         23    2    1    2    0    0  0.41732055918E+02 -0.26111910716E+02 -0.52455221685E+02  0.11520337979E+03  0.89982620882E+02 0.  0.
        -13    1    3    3    0    0 -0.33614587714E+02  0.22389048625E+01 -0.97931447524E+02  0.10356409424E+03  0.00000000000E+00 0.  1.
         14    1    3    3    0    0 -0.10518718293E+02  0.10404449802E+01 -0.66033403562E+03  0.66041862826E+03  0.00000000000E+00 0. -1.
        -11    1    4    4    0    0  0.40402006256E+02  0.22564853721E+02 -0.47404647196E+02  0.66247228687E+02  0.00000000000E+00 0.  1.
         11    1    4    4    0    0  0.13300496616E+01 -0.48676764437E+02 -0.50505744888E+01  0.48956151103E+02  0.00000000000E+00 0. -1.
          1    1    1    2  501    0  0.24012500893E+01  0.22832560873E+02  0.43850317462E+01  0.23373496560E+02  0.00000000000E+00 0. -1.
<scales pt_clust_5="13000.00000" pt_clust_6="13000.00000" pt_clust_7="13000.00000" pt_clust_8="13000.00000" pt_clust_9="22.95848"></scales>
<clustering>
<clus scale="   22.958">  1  9  2 -1</clus>
<clus scale="   82.125">  5  6 -1 -1</clus>
<clus scale="   89.983">  7  8 -1 -1</clus>
<clus scale="   93.282">  2  5  1 -1</clus>
<clus scale="   22.958">  1  5  2 -1</clus>
</clustering>
</event>
<event>
 9    2  0.1325014E-004  0.2114579E+03  0.7546771E-02  0.1142068E+00
          2   -1    0    0  502    0 -0.00000000000E+00  0.00000000000E+00  0.14935781213E+03  0.14935781213E+03  0.00000000000E+00 0. -1.
         21   -1    0    0  501  502  0.00000000000E+00 -0.00000000000E+00 -0.70409635473E+03  0.70409635473E+03  0.00000000000E+00 0. -1.
         23    2    1    2    0    0  0.84720062983E+02  0.19638085998E+03 -0.17957783212E+02  0.23511923436E+03  0.95998130964E+02 0.  0.
         24    2    1    2    0    0 -0.13082137716E+03 -0.64842274487E+02 -0.33234659032E+03  0.37090603336E+03  0.76146412956E+02 0.  0.
        -13    1    4    4    0    0 -0.26208824036E+02 -0.27297380735E+02 -0.16997966949E+03  0.17414114245E+03  0.00000000000E+00 0.  1.
         14    1    4    4    0    0 -0.10461255312E+03 -0.37544893752E+02 -0.16236692082E+03  0.19676489091E+03  0.00000000000E+00 0. -1.
        -13    1    3    3    0    0  0.56329442612E+02  0.62595038193E+02  0.31178101676E+02  0.89795428255E+02  0.00000000000E+00 0.  1.
         13    1    3    3    0    0  0.28390620371E+02  0.13378582179E+03 -0.49135884888E+02  0.14532380610E+03  0.00000000000E+00 0. -1.
          1    1    1    2  501    0  0.46101314177E+02 -0.13153858550E+03 -0.20443416908E+03  0.24742889914E+03  0.00000000000E+00 0. -1.
<scales pt_clust_5="13000.00000" pt_clust_6="13000.00000" pt_clust_7="13000.00000" pt_clust_8="13000.00000" pt_clust_9="139.38339"></scales>
<clustering>
<clus scale="   76.146">  5  6 -1 -1</clus>
<clus scale="   95.998">  7  8 -1 -1</clus>
<clus scale="  139.383">  2  9  1 -1</clus>
<clus scale="  203.217">  2  5  1 -1</clus>
<clus scale="  139.383">  2  5  1 -1</clus>
</clustering>
</event>
<event>
 9    2  0.1325014E-004  0.2085773E+03  0.7546771E-02  0.1174499E+00
         -1   -1    0    0    0  501 -0.00000000000E+00  0.00000000000E+00  0.85752728115E+03  0.85752728115E+03  0.00000000000E+00 0.  1.
         21   -1    0    0  501  502  0.00000000000E+00 -0.00000000000E+00 -0.88506723501E+02  0.88506723501E+02  0.00000000000E+00 0.  1.
         23    2    1    2    0    0 -0.13529102341E+02 -0.34819813387E+02  0.11263269622E+03  0.15014864674E+03  0.91994759880E+02 0.  0.
         24    2    1    2    0    0  0.15133497614E+03  0.13332162660E+03  0.15606917828E+03  0.26766963421E+03  0.81317363103E+02 0.  0.
        -11    1    4    4    0    0  0.83192036886E+02  0.11713172626E+03  0.80706154574E+02  0.16478543529E+03  0.00000000000E+00 0.  1.
         12    1    4    4    0    0  0.68142939258E+02  0.16189900341E+02  0.75363023709E+02  0.10288419891E+03  0.00000000000E+00 0. -1.
        -11    1    3    3    0    0  0.19387131924E+02  0.10035144143E+02  0.85510481990E+02  0.88253087948E+02  0.00000000000E+00 0.  1.
         11    1    3    3    0    0 -0.32916234265E+02 -0.44854957529E+02  0.27122214225E+02  0.61895558787E+02  0.00000000000E+00 0. -1.
         -2    1    1    2    0  502 -0.13780587380E+03 -0.98501813217E+02  0.50031868315E+03  0.52821572370E+03  0.00000000000E+00 0.  1.
<scales pt_clust_5="13000.00000" pt_clust_6="13000.00000" pt_clust_7="13000.00000" pt_clust_8="13000.00000" pt_clust_9="192.07290"></scales>
<clustering>
<clus scale="   81.317">  5  6 -1 -1</clus>
<clus scale="   91.995">  7  8 -1 -1</clus>
<clus scale="   99.290">  1  7  2 -1</clus>
<clus scale="  192.073">  2  9  1 -1</clus>
<clus scale="  192.073">  2  5  1 -1</clus>
</clustering>
</event>
<event>
 9    2  0.1325014E-004  0.1020516E+03  0.7546771E-02  0.1279157E+00
          2   -1    0    0  502    0 -0.00000000000E+00  0.00000000000E+00  0.57442617870E+03  0.57442617870E+03  0.00000000000E+00 0. -1.
         21   -1    0    0  501  502  0.00000000000E+00 -0.00000000000E+00 -0.52757350037E+03  0.52757350037E+03  0.00000000000E+00 0. -1.
         24    2    1    2    0    0  0.28597625551E+02 -0.49673802357E+01  0.31231683412E+03  0.32753382295E+03  0.94308542799E+02 0.  0.
         23    2    1    2    0    0 -0.45120353605E+02 -0.55197075331E+02  0.23990609298E+03  0.26525877584E+03  0.87890393565E+02 0.  0.
        -13    1    3    3    0    0  0.56356743834E+02  0.20113326856E+02  0.16413728780E+03  0.17470454413E+03  0.00000000000E+00 0.  1.
         14    1    3    3    0    0 -0.27759118283E+02 -0.25080707092E+02  0.14817954632E+03  0.15282927882E+03  0.00000000000E+00 0. -1.
        -13    1    4    4    0    0  0.15366665669E+02 -0.50154549360E+02  0.11348563948E+03  0.12502241241E+03  0.00000000000E+00 0.  1.
         13    1    4    4    0    0 -0.60487019273E+02 -0.50425259713E+01  0.12642045349E+03  0.14023636344E+03  0.00000000000E+00 0. -1.
          1    1    1    2  501    0  0.16522728053E+02  0.60164455567E+02 -0.50537024878E+03  0.50920708028E+03  0.00000000000E+00 0. -1.
<scales pt_clust_5="13000.00000" pt_clust_6="13000.00000" pt_clust_7="13000.00000" pt_clust_8="13000.00000" pt_clust_9="62.39200"></scales>
<clustering>
<clus scale="   62.392">  2  9  1 -1</clus>
<clus scale="   87.890">  7  8 -1 -1</clus>
<clus scale="   94.309">  5  6 -1 -1</clus>
<clus scale="   96.152">  2  7  1 -1</clus>
<clus scale="   62.392">  2  5  1 -1</clus>
</clustering>
</event>
<event>
 9    2  0.1325014E-004  0.2249651E+03  0.7546771E-02  0.1130965E+00
          2   -1    0    0  502    0 -0.00000000000E+00  0.00000000000E+00  0.11468863109E+04  0.11468863109E+04  0.00000000000E+00 0. -1.
         21   -1    0    0  501  502  0.00000000000E+00 -0.00000000000E+00 -0.81272107374E+02  0.81272107374E+02  0.00000000000E+00 0. -1.
         23    2    1    2    0    0 -0.11882709990E+03  0.12755306370E+03  0.34461240643E+03  0.39651094203E+03  0.89852950712E+02 0.  0.
         24    2    1    2    0    0  0.18952680066E+03 -0.18864639936E+03  0.34211390769E+03  0.44140796507E+03  0.79317045025E+02 0.  0.
        -11    1    4    4    0    0  0.67303205934E+02 -0.20001724102E+02  0.97218156070E+02  0.11992147583E+03  0.00000000000E+00 0.  1.
         12    1    4    4    0    0  0.12222359472E+03 -0.16864467525E+03  0.24489575162E+03  0.32148648924E+03  0.00000000000E+00 0. -1.
        -11    1    3    3    0    0 -0.28016037801E+02  0.10923493944E+02  0.14524214728E+03  0.14832229246E+03  0.00000000000E+00 0.  1.
         11    1    3    3    0    0 -0.90811062097E+02  0.11662956975E+03  0.19937025915E+03  0.24818864957E+03  0.00000000000E+00 0. -1.
          1    1    1    2  501    0 -0.70699700760E+02  0.61093335657E+02  0.37888788939E+03  0.39023951117E+03  0.00000000000E+00 0. -1.
<scales pt_clust_5="13000.00000" pt_clust_6="13000.00000" pt_clust_7="13000.00000" pt_clust_8="13000.00000" pt_clust_9="93.43903"></scales>
<clustering>
<clus scale="   79.317">  5  6 -1 -1</clus>
<clus scale="   89.853">  7  8 -1 -1</clus>
<clus scale="   93.439">  2  9  1 -1</clus>
<clus scale="  220.968">  2  5  1 -1</clus>
<clus scale="   93.439">  2  5  1 -1</clus>
</clustering>
</event>
<event>
 9    2  0.1325014E-004  0.1321004E+03  0.7546771E-02  0.1241503E+00
         -3   -1    0    0    0  501 -0.00000000000E+00  0.00000000000E+00  0.24984692539E+03  0.24984692539E+03  0.00000000000E+00 0.  1.
         21   -1    0    0  501  502  0.00000000000E+00 -0.00000000000E+00 -0.22149708791E+03  0.22149708791E+03  0.00000000000E+00 0.  1.
         23    2    1    2    0    0 -0.13094122894E+02 -0.89247438062E+01 -0.13413861832E+02  0.93863280846E+02  0.91538389190E+02 0.  0.
         24    2    1    2    0    0 -0.52132315570E+02  0.90228946011E+02  0.16801339095E+03  0.21376193020E+03  0.81281130904E+02 0.  0.
        -11    1    4    4    0    0 -0.62939772130E+02  0.79461433889E+02  0.17044803111E+03  0.19831304975E+03  0.00000000000E+00 0.  1.
         12    1    4    4    0    0  0.10807456559E+02  0.10767512122E+02 -0.24346401611E+01  0.15448880455E+02  0.00000000000E+00 0. -1.
        -11    1    3    3    0    0 -0.40965922090E+02  0.25768973707E+02 -0.68531448221E+01  0.48879570094E+02  0.00000000000E+00 0.  1.
         11    1    3    3    0    0  0.27871799196E+02 -0.34693717513E+02 -0.65607170097E+01  0.44983710752E+02  0.00000000000E+00 0. -1.
         -4    1    1    2    0  502  0.65226438465E+02 -0.81304202205E+02 -0.12624969164E+03  0.16371880225E+03  0.00000000000E+00 0.  1.
<scales pt_clust_5="13000.00000" pt_clust_6="13000.00000" pt_clust_7="13000.00000" pt_clust_8="13000.00000" pt_clust_9="104.13407"></scales>
<clustering>
<clus scale="   81.281">  5  6 -1 -1</clus>
<clus scale="   91.538">  7  8 -1 -1</clus>
<clus scale="   92.900">  1  7  2 -1</clus>
<clus scale="  104.134">  2  9  1 -1</clus>
<clus scale="  104.134">  2  5  1 -1</clus>
</clustering>
</event>
<event>
 9    2  0.1325014E-004  0.2099437E+03  0.7546771E-02  0.1142724E+00
          4   -1    0    0  502    0 -0.00000000000E+00  0.00000000000E+00  0.12605983500E+03  0.12605983500E+03  0.00000000000E+00 0. -1.
         21   -1    0    0  501  502  0.00000000000E+00 -0.00000000000E+00 -0.99820541168E+03  0.99820541168E+03  0.00000000000E+00 0.  1.
         23    2    1    2    0    0  0.17233008431E+03  0.11702089764E+03 -0.79518113191E+02  0.24116949464E+03  0.91913254628E+02 0.  0.
         24    2    1    2    0    0 -0.60745284787E+02 -0.82376167859E+02 -0.74637930614E+03  0.75743622457E+03  0.78433047873E+02 0.  0.
        -13    1    4    4    0    0 -0.45516011755E+02 -0.91074755869E+02 -0.49045088140E+03  0.50090756188E+03  0.00000000000E+00 0.  1.
         14    1    4    4    0    0 -0.15229273032E+02  0.86985880100E+01 -0.25592842474E+03  0.25652866269E+03  0.00000000000E+00 0. -1.
        -11    1    3    3    0    0  0.31374563487E+02 -0.95312040797E+01  0.59919875923E+01  0.33333331674E+02  0.00000000000E+00 0.  1.
         11    1    3    3    0    0  0.14095552083E+03  0.12655210172E+03 -0.85510100783E+02  0.20783616297E+03  0.00000000000E+00 0. -1.
          3    1    1    2  501    0 -0.11158479953E+03 -0.34644729779E+02 -0.46248157342E+02  0.12565952747E+03  0.00000000000E+00 0. -1.
<scales pt_clust_5="13000.00000" pt_clust_6="13000.00000" pt_clust_7="13000.00000" pt_clust_8="13000.00000" pt_clust_9="116.83937"></scales>
<clustering>
<clus scale="   78.433">  5  6 -1 -1</clus>
<clus scale="   91.913">  7  8 -1 -1</clus>
<clus scale="  116.839">  2  9  1 -1</clus>
<clus scale="  204.402">  2  5  1 -1</clus>
<clus scale="  116.839">  2  5  1 -1</clus>
</clustering>
</event>
<event>
 9    2  0.1325014E-004  0.1062131E+03  0.7546771E-02  0.1282081E+00
         21   -1    0    0  501  502  0.00000000000E+00  0.00000000000E+00  0.13649082687E+03  0.13649082687E+03  0.00000000000E+00 0. -1.
          2   -1    0    0  502    0 -0.00000000000E+00 -0.00000000000E+00 -0.17774391185E+03  0.17774391185E+03  0.00000000000E+00 0. -1.
         24    2    1    2    0    0  0.44783241472E+01  0.20742772557E+02 -0.77792091549E+02  0.11367175691E+03  0.80120788884E+02 0.  0.
         23    2    1    2    0    0  0.35337012707E+02  0.43515149067E+02  0.35807171173E+02  0.12496617551E+03  0.10579281095E+03 0.  0.
        -11    1    3    3    0    0  0.19054637810E+02  0.37026134590E+02 -0.81483982237E+02  0.91507667580E+02  0.00000000000E+00 0.  1.
         12    1    3    3    0    0 -0.14576313662E+02 -0.16283362033E+02  0.36918906878E+01  0.22164089332E+02  0.00000000000E+00 0. -1.
        -11    1    4    4    0    0 -0.17274507003E+02 -0.19527011499E+02 -0.13323658467E+02  0.29278535572E+02  0.00000000000E+00 0.  1.
         11    1    4    4    0    0  0.52611519710E+02  0.63042160566E+02  0.49130829640E+02  0.95687639934E+02  0.00000000000E+00 0. -1.
          1    1    1    2  501    0 -0.39815336854E+02 -0.64257921624E+02  0.73183540405E+00  0.75596806304E+02  0.00000000000E+00 0. -1.
<scales pt_clust_5="13000.00000" pt_clust_6="13000.00000" pt_clust_7="13000.00000" pt_clust_8="13000.00000" pt_clust_9="75.59326"></scales>
<clustering>
<clus scale="   75.593">  1  9  2 -1</clus>
<clus scale="   80.121">  5  6 -1 -1</clus>
<clus scale="   80.675">  2  5  1 -1</clus>
<clus scale="  105.793">  7  8 -1 -1</clus>
<clus scale="   75.593">  1  5  2 -1</clus>
</clustering>
</event>
<event>
 9    2  0.1325014E-004  0.1569659E+03  0.7546771E-02  0.1194592E+00
         -3   -1    0    0    0  501 -0.00000000000E+00  0.00000000000E+00  0.10994257846E+03  0.10994257846E+03  0.00000000000E+00 0.  1.
         21   -1    0    0  501  502  0.00000000000E+00 -0.00000000000E+00 -0.32979215171E+03  0.32979215171E+03  0.00000000000E+00 0.  1.
         23    2    1    2    0    0  0.14421266335E+03 -0.18902763936E+02 -0.60202933050E+02  0.18330394580E+03  0.93921971034E+02 0.  0.
         24    2    1    2    0    0 -0.10741194992E+03 -0.26682655815E+02 -0.81674813411E+02  0.15890166678E+03  0.79559244926E+02 0.  0.
        -13    1    4    4    0    0 -0.11664987488E+03 -0.35685052257E+02 -0.66322667228E+02  0.13884996382E+03  0.00000000000E+00 0.  1.
         14    1    4    4    0    0  0.92379249603E+01  0.90023964428E+01 -0.15352146183E+02  0.20051702963E+02  0.00000000000E+00 0. -1.
        -11    1    3    3    0    0  0.94405436468E+02 -0.57093158700E+02 -0.36355302836E+02  0.11616248641E+03  0.00000000000E+00 0.  1.
         11    1    3    3    0    0  0.49807226886E+02  0.38190394764E+02 -0.23847630214E+02  0.67141459390E+02  0.00000000000E+00 0. -1.
         -4    1    1    2    0  502 -0.36800713433E+02  0.45585419751E+02 -0.77971826798E+02  0.97529117587E+02  0.00000000000E+00 0.  1.
<scales pt_clust_5="13000.00000" pt_clust_6="13000.00000" pt_clust_7="13000.00000" pt_clust_8="13000.00000" pt_clust_9="58.58603"></scales>
<clustering>
<clus scale="   58.586">  2  9  1 -1</clus>
<clus scale="   79.559">  5  6 -1 -1</clus>
<clus scale="   93.922">  7  8 -1 -1</clus>
<clus scale="  148.817">  2  5  1 -1</clus>
<clus scale="   58.586">  2  5  1 -1</clus>
</clustering>
</event>
<event>
 9    2  0.1325014E-004  0.1385282E+03  0.7546771E-02  0.1215606E+00
          4   -1    0    0  502    0 -0.00000000000E+00  0.00000000000E+00  0.25835257041E+03  0.25835257041E+03  0.00000000000E+00 0. -1.
         21   -1    0    0  501  502  0.00000000000E+00 -0.00000000000E+00 -0.28207881878E+03  0.28207881878E+03  0.00000000000E+00 0. -1.
         23    2    1    2    0    0  0.14217766959E+02 -0.10585285286E+03  0.18668000544E+03  0.23253546649E+03  0.88410109076E+02 0.  0.
         24    2    1    2    0    0  0.44503401418E+02  0.98754778056E+02 -0.20486153614E+03  0.24848799246E+03  0.89693781736E+02 0.  0.
        -11    1    4    4    0    0 -0.21271967225E+02  0.17665705649E+02 -0.14140748442E+02  0.31056955939E+02  0.00000000000E+00 0.  1.
         12    1    4    4    0    0  0.65775368643E+02  0.81089072407E+02 -0.19072078769E+03  0.21743103652E+03  0.00000000000E+00 0. -1.
        -11    1    3    3    0    0 -0.24005923866E+02 -0.21773165384E+02  0.11301247490E+02  0.34323072508E+02  0.00000000000E+00 0.  1.
         11    1    3    3    0    0  0.38223690826E+02 -0.84079687474E+02  0.17537875795E+03  0.19821239398E+03  0.00000000000E+00 0. -1.
          3    1    1    2  501    0 -0.58721168377E+02  0.70980748032E+01 -0.55447176793E+01  0.59407930242E+02  0.00000000000E+00 0. -1.
<scales pt_clust_5="13000.00000" pt_clust_6="13000.00000" pt_clust_7="13000.00000" pt_clust_8="13000.00000" pt_clust_9="59.14861"></scales>
<clustering>
<clus scale="   59.149">  2  9  1 -1</clus>
<clus scale="   88.410">  7  8 -1 -1</clus>
<clus scale="   89.694">  5  6 -1 -1</clus>
<clus scale="  137.700">  1  7  2 -1</clus>
<clus scale="   59.149">  2  5  1 -1</clus>
</clustering>
</event>
<event>
 9    2  0.1325014E-004  0.9192669E+02  0.7546771E-02  0.1303366E+00
         21   -1    0    0  501  502  0.00000000000E+00  0.00000000000E+00  0.38558497148E+03  0.38558497148E+03  0.00000000000E+00 0. -1.
         -3   -1    0    0    0  501 -0.00000000000E+00 -0.00000000000E+00 -0.11972765127E+03  0.11972765127E+03  0.00000000000E+00 0.  1.
         24    2    1    2    0    0  0.18325825503E+02 -0.29502531200E+01 -0.53812986935E+02  0.98795915768E+02  0.80748099270E+02 0.  0.
         23    2    1    2    0    0 -0.70114105125E+02  0.20048672439E+02  0.33127388555E+03  0.35075807643E+03  0.89279918961E+02 0.  0.
        -13    1    3    3    0    0  0.58203116186E+00 -0.40917202346E+02 -0.25394435161E+02  0.48160497768E+02  0.00000000000E+00 0.  1.
         14    1    3    3    0    0  0.17743794341E+02  0.37966949226E+02 -0.28418551773E+02  0.50635418000E+02  0.00000000000E+00 0. -1.
        -13    1    4    4    0    0 -0.48599202274E+02  0.51915424618E+02  0.15794618463E+03  0.17321689009E+03  0.00000000000E+00 0.  1.
         13    1    4    4    0    0 -0.21514902851E+02 -0.31866752179E+02  0.17332770093E+03  0.17754118634E+03  0.00000000000E+00 0. -1.
         -4    1    1    2    0  502  0.51788279622E+02 -0.17098419319E+02 -0.11603578412E+02  0.55758630555E+02  0.00000000000E+00 0.  1.
<scales pt_clust_5="13000.00000" pt_clust_6="13000.00000" pt_clust_7="13000.00000" pt_clust_8="13000.00000" pt_clust_9="54.53792"></scales>
<clustering>
<clus scale="   54.538">  1  9  2 -1</clus>
<clus scale="   80.748">  5  6 -1 -1</clus>
<clus scale="   83.665">  2  5  1 -1</clus>
<clus scale="   89.280">  7  8 -1 -1</clus>
<clus scale="   54.538">  1  5  2 -1</clus>
</clustering>
</event>
<event>
 9    2  0.1325014E-004  0.9450307E+02  0.7546771E-02  0.1297383E+00
          4   -1    0    0  502    0 -0.00000000000E+00  0.00000000000E+00  0.32502494971E+02  0.32502494971E+02  0.00000000000E+00 0. -1.
         21   -1    0    0  501  502  0.00000000000E+00 -0.00000000000E+00 -0.61915288189E+03  0.61915288189E+03  0.00000000000E+00 0. -1.
         23    2    1    2    0    0  0.20256756864E+02  0.27698488369E+02 -0.70618829014E+02  0.11971527379E+03  0.90372480940E+02 0.  0.
         24    2    1    2    0    0  0.21215316411E+02 -0.14975334440E+02 -0.35839957626E+03  0.36844804472E+03  0.81420851739E+02 0.  0.
        -11    1    4    4    0    0 -0.28974602898E+02  0.76885721930E+01 -0.14416537700E+03  0.14724910079E+03  0.00000000000E+00 0.  1.
         12    1    4    4    0    0  0.50189919308E+02 -0.22663906633E+02 -0.21423419926E+03  0.22119894393E+03  0.00000000000E+00 0. -1.
        -13    1    3    3    0    0 -0.22561396911E+02 -0.18383637233E+02 -0.40761568141E+02  0.50084730066E+02  0.00000000000E+00 0.  1.
         13    1    3    3    0    0  0.42818153775E+02  0.46082125602E+02 -0.29857260873E+02  0.69630543726E+02  0.00000000000E+00 0. -1.
          3    1    1    2  501    0 -0.41472073275E+02 -0.12723153929E+02 -0.15763198164E+03  0.16349205835E+03  0.00000000000E+00 0. -1.
<scales pt_clust_5="13000.00000" pt_clust_6="13000.00000" pt_clust_7="13000.00000" pt_clust_8="13000.00000" pt_clust_9="43.37985"></scales>
<clustering>
<clus scale="   43.380">  2  9  1 -1</clus>
<clus scale="   81.421">  5  6 -1 -1</clus>
<clus scale="   85.983">  2  5  1 -1</clus>
<clus scale="   90.372">  7  8 -1 -1</clus>
<clus scale="   43.380">  2  5  1 -1</clus>
</clustering>
</event>
<event>
 9    2  0.1325014E-004  0.9955671E+02  0.7546771E-02  0.1286287E+00
          2   -1    0    0  502    0 -0.00000000000E+00  0.00000000000E+00  0.94095898388E+03  0.94095898388E+03  0.00000000000E+00 0. -1.
         21   -1    0    0  501  502  0.00000000000E+00 -0.00000000000E+00 -0.24907182279E+02  0.24907182279E+02  0.00000000000E+00 0. -1.
         24    2    1    2    0    0 -0.31592603286E+02  0.34697945461E+02  0.70996899547E+03  0.71623597199E+03  0.82072852041E+02 0.  0.
         23    2    1    2    0    0 -0.48027609479E+01 -0.92409898917E+01  0.16464775275E+03  0.18888858756E+03  0.91986703489E+02 0.  0.
        -11    1    3    3    0    0  0.17813936374E+02 -0.91545668285E+01  0.68319122490E+02  0.71194416359E+02  0.00000000000E+00 0.  1.
         12    1    3    3    0    0 -0.49406539660E+02  0.43852512289E+02  0.64164987298E+03  0.64504155563E+03  0.00000000000E+00 0. -1.
        -11    1    4    4    0    0  0.12174313860E+02 -0.47421120862E+02  0.10721228058E+03  0.11786199442E+03  0.00000000000E+00 0.  1.
         11    1    4    4    0    0 -0.16977074808E+02  0.38180130970E+02  0.57435472173E+02  0.71026593144E+02  0.00000000000E+00 0. -1.
          1    1    1    2  501    0  0.36395364234E+02 -0.25456955569E+02  0.41435053382E+02  0.60741606608E+02  0.00000000000E+00 0. -1.
<scales pt_clust_5="13000.00000" pt_clust_6="13000.00000" pt_clust_7="13000.00000" pt_clust_8="13000.00000" pt_clust_9="44.41485"></scales>
<clustering>
<clus scale="   44.415">  2  9  1 -1</clus>
<clus scale="   82.073">  5  6 -1 -1</clus>
<clus scale="   90.476">  1  5  2 -1</clus>
<clus scale="   91.987">  7  8 -1 -1</clus>
<clus scale="   44.415">  2  5  1 -1</clus>
</clustering>
</event>
<event>
 9    2  0.1325014E-004  0.1635248E+03  0.7546771E-02  0.1186769E+00
         21   -1    0    0  501  502  0.00000000000E+00  0.00000000000E+00  0.44367011125E+02  0.44367011125E+02  0.00000000000E+00 0. -1.
          4   -1    0    0  502    0 -0.00000000000E+00 -0.00000000000E+00 -0.71888753789E+03  0.71888753789E+03  0.00000000000E+00 0. -1.
         23    2    1    2    0    0 -0.14463230502E+03  0.11861288541E+02 -0.44956618048E+03  0.48125522368E+03  0.91856659377E+02 0.  0.
         24    2    1    2    0    0  0.11897043754E+03 -0.17651357839E+02 -0.18630121089E+03  0.23524335009E+03  0.78522335292E+02 0.  0.
        -11    1    4    4    0    0  0.25257319165E+02  0.28469789378E+02 -0.37378843733E+02  0.53344531467E+02  0.00000000000E+00 0.  1.
         12    1    4    4    0    0  0.93713118374E+02 -0.46121147217E+02 -0.14892236716E+03  0.18189881862E+03  0.00000000000E+00 0. -1.
        -11    1    3    3    0    0 -0.27396885437E+02  0.32532800398E+02 -0.57540196406E+02  0.71553103607E+02  0.00000000000E+00 0.  1.
         11    1    3    3    0    0 -0.11723541958E+03 -0.20671511858E+02 -0.39202598407E+03  0.40970212007E+03  0.00000000000E+00 0. -1.
          3    1    1    2  501    0  0.25661867479E+02  0.57900692982E+01 -0.38653135397E+02  0.46755975244E+02  0.00000000000E+00 0. -1.
<scales pt_clust_5="13000.00000" pt_clust_6="13000.00000" pt_clust_7="13000.00000" pt_clust_8="13000.00000" pt_clust_9="26.30696"></scales>
<clustering>
<clus scale="   26.307">  1  9  2 -1</clus>
<clus scale="   78.522">  5  6 -1 -1</clus>
<clus scale="   91.857">  7  8 -1 -1</clus>
<clus scale="  156.424">  1  5  2 -1</clus>
<clus scale="   26.307">  1  5  2 -1</clus>
</clustering>
</event>
<event>
 9    2  0.1325014E-004  0.1996309E+03  0.7546771E-02  0.1164304E+00
          2   -1    0    0  502    0 -0.00000000000E+00  0.00000000000E+00  0.65017251496E+03  0.65017251496E+03  0.00000000000E+00 0. -1.
         21   -1    0    0  501  502  0.00000000000E+00 -0.00000000000E+00 -0.14994775386E+03  0.14994775386E+03  0.00000000000E+00 0.  1.
         24    2    1    2    0    0  0.35827854240E+02  0.11287518206E+03 -0.20450416883E+02  0.14447674328E+03  0.80192692523E+02 0.  0.
         23    2    1    2    0    0  0.16069966176E+03 -0.31456500631E+02  0.25981814525E+03  0.31904516287E+03  0.86431791760E+02 0.  0.
        -13    1    3    3    0    0  0.28309072133E+02  0.97963357896E+02 -0.47653100282E+02  0.11255683463E+03  0.00000000000E+00 0.  1.
         14    1    3    3    0    0  0.75187821070E+01  0.14911824165E+02  0.27202683399E+02  0.31919908653E+02  0.00000000000E+00 0. -1.
        -13    1    4    4    0    0  0.11329192237E+03  0.86303973079E+01  0.11588228961E+03  0.16229062967E+03  0.00000000000E+00 0.  1.
         13    1    4    4    0    0  0.47407739386E+02 -0.40086897939E+02  0.14393585564E+03  0.15675453320E+03  0.00000000000E+00 0. -1.
          1    1    1    2  501    0 -0.19652751600E+03 -0.81418681429E+02  0.26085703273E+03  0.33659836268E+03  0.00000000000E+00 0. -1.
<scales pt_clust_5="13000.00000" pt_clust_6="13000.00000" pt_clust_7="13000.00000" pt_clust_8="13000.00000" pt_clust_9="179.95018"></scales>
<clustering>
<clus scale="   80.193">  5  6 -1 -1</clus>
<clus scale="   86.432">  7  8 -1 -1</clus>
<clus scale="  143.022">  1  5  2 -1</clus>
<clus scale="  179.950">  2  9  1 -1</clus>
<clus scale="  179.950">  2  5  1 -1</clus>
</clustering>
</event>
<event>
 9    2  0.1325014E-004  0.9757663E+02  0.7546771E-02  0.1297490E+00
          2   -1    0    0  502    0 -0.00000000000E+00  0.00000000000E+00  0.79792826808E+03  0.79792826808E+03  0.00000000000E+00 0. -1.
         21   -1    0    0  501  502  0.00000000000E+00 -0.00000000000E+00 -0.37203251241E+02  0.37203251241E+02  0.00000000000E+00 0. -1.
         24    2    1    2    0    0 -0.57247195532E+01 -0.22264194937E+02  0.60721184713E+03  0.61236005694E+03  0.75829712188E+02 0.  0.
         23    2    1    2    0    0  0.50581663085E+01 -0.87121721971E+01  0.16384753249E+03  0.19010988451E+03  0.95886742031E+02 0.  0.
        -11    1    3    3    0    0  0.11216677466E+02  0.21418426052E+02  0.95699636380E+02  0.98706551106E+02  0.00000000000E+00 0.  1.
         12    1    3    3    0    0 -0.16941397019E+02 -0.43682620989E+02  0.51151221075E+03  0.51365350584E+03  0.00000000000E+00 0. -1.
        -11    1    4    4    0    0 -0.16742563162E+02  0.31223334955E+02  0.23356494602E+02  0.42435078732E+02  0.00000000000E+00 0.  1.
         11    1    4    4    0    0  0.21800729470E+02 -0.39935507152E+02  0.14049103789E+03  0.14767480578E+03  0.00000000000E+00 0. -1.
          1    1    1    2  501    0  0.66655324471E+00  0.30976367134E+02 -0.10334362785E+02  0.32661577859E+02  0.00000000000E+00 0. -1.
<scales pt_clust_5="13000.00000" pt_clust_6="13000.00000" pt_clust_7="13000.00000" pt_clust_8="13000.00000" pt_clust_9="30.98354"></scales>
<clustering>
<clus scale="   30.984">  2  9  1 -1</clus>
<clus scale="   75.830">  5  6 -1 -1</clus>
<clus scale="   77.956">  1  5  2 -1</clus>
<clus scale="   95.887">  7  8 -1 -1</clus>
<clus scale="   30.984">  2  5  1 -1</clus>
</clustering>
</event>
<event>
 9    2  0.1325014E-004  0.1571465E+03  0.7546771E-02  0.1192002E+00
         21   -1    0    0  501  502  0.00000000000E+00  0.00000000000E+00  0.53583736922E+02  0.53583736922E+02  0.00000000000E+00 0. -1.
          2   -1    0    0  502    0 -0.00000000000E+00 -0.00000000000E+00 -0.65046383333E+03  0.65046383333E+03  0.00000000000E+00 0. -1.
         23    2    1    2    0    0  0.90135593214E+02  0.65348958608E+02 -0.19152493845E+03  0.23646206722E+03  0.82689755274E+02 0.  0.
         24    2    1    2    0    0 -0.12240547857E+03 -0.10301151411E+03 -0.28073241161E+03  0.33345630228E+03  0.82388988216E+02 0.  0.
        -13    1    4    4    0    0 -0.52916346061E+01 -0.32685396685E+02 -0.10956748234E+03  0.11446121501E+03  0.00000000000E+00 0.  1.
         14    1    4    4    0    0 -0.11711384397E+03 -0.70326117429E+02 -0.17116492927E+03  0.21899508728E+03  0.00000000000E+00 0. -1.
        -13    1    3    3    0    0  0.73209872679E+02  0.17328633614E+02 -0.62681791093E+02  0.97923306395E+02  0.00000000000E+00 0. -1.
         13    1    3    3    0    0  0.16925720535E+02  0.48020324994E+02 -0.12884314736E+03  0.13853876082E+03  0.00000000000E+00 0.  1.
          1    1    1    2  501    0  0.32269885357E+02  0.37662555506E+02 -0.12462274634E+03  0.13412920075E+03  0.00000000000E+00 0. -1.
<scales pt_clust_5="13000.00000" pt_clust_6="13000.00000" pt_clust_7="13000.00000" pt_clust_8="13000.00000" pt_clust_9="49.59653"></scales>
<clustering>
<clus scale="   49.597">  1  9  2 -1</clus>
<clus scale="   82.389">  5  6 -1 -1</clus>
<clus scale="   82.690">  7  8 -1 -1</clus>
<clus scale="  156.988">  1  5  2 -1</clus>
<clus scale="   49.597">  1  5  2 -1</clus>
</clustering>
</event>
<event>
 9    2  0.1325014E-004  0.1159132E+03  0.7546771E-02  0.1251369E+00
          4   -1    0    0  502    0 -0.00000000000E+00  0.00000000000E+00  0.49116364753E+02  0.49116364753E+02  0.00000000000E+00 0. -1.
         21   -1    0    0  501  502  0.00000000000E+00 -0.00000000000E+00 -0.61718194372E+03  0.61718194372E+03  0.00000000000E+00 0.  1.
         24    2    1    2    0    0  0.65323070752E+02 -0.88680643555E+02 -0.24140636329E+03  0.27719391263E+03  0.80175263305E+02 0.  0.
         23    2    1    2    0    0 -0.47962433211E+02  0.16145279815E+02 -0.28944485054E+03  0.30575165323E+03  0.84526249715E+02 0.  0.
        -11    1    3    3    0    0  0.66569511506E+02 -0.30901844021E+02 -0.96877836054E+02  0.12153904288E+03  0.00000000000E+00 0.  1.
         12    1    3    3    0    0 -0.12464407541E+01 -0.57778799534E+02 -0.14452852724E+03  0.15565486974E+03  0.00000000000E+00 0. -1.
        -11    1    4    4    0    0 -0.37835344818E+02 -0.25651064731E+02 -0.21475040251E+03  0.21956143973E+03  0.00000000000E+00 0.  1.
         11    1    4    4    0    0 -0.10127088393E+02  0.41796344546E+02 -0.74694448030E+02  0.86190213501E+02  0.00000000000E+00 0. -1.
          3    1    1    2  501    0 -0.17360637541E+02  0.72535363740E+02 -0.37214365136E+02  0.83352742613E+02  0.00000000000E+00 0. -1.
<scales pt_clust_5="13000.00000" pt_clust_6="13000.00000" pt_clust_7="13000.00000" pt_clust_8="13000.00000" pt_clust_9="74.58402"></scales>
<clustering>
<clus scale="   74.584">  2  9  1 -1</clus>
<clus scale="   80.175">  5  6 -1 -1</clus>
<clus scale="   84.526">  7  8 -1 -1</clus>
<clus scale="  112.780">  1  5  2 -1</clus>
<clus scale="   74.584">  2  5  1 -1</clus>
</clustering>
</event>
<event>
 9    2  0.1325014E-004  0.3780015E+03  0.7546771E-02  0.1067474E+00
         21   -1    0    0  501  502  0.00000000000E+00  0.00000000000E+00  0.31214713587E+03  0.31214713587E+03  0.00000000000E+00 0. -1.
          2   -1    0    0  502    0 -0.00000000000E+00 -0.00000000000E+00 -0.11585629477E+04  0.11585629477E+04  0.00000000000E+00 0. -1.
         24    2    1    2    0    0 -0.21155643936E+03  0.88424481508E+02  0.51234887579E+02  0.24817577699E+03  0.79944897363E+02 0.  0.
         23    2    1    2    0    0 -0.25739149657E+03  0.13928152748E+03 -0.28131788652E+03  0.41529931639E+03  0.87658670518E+02 0.  0.
        -11    1    3    3    0    0 -0.37610477211E+02 -0.14072887709E+02  0.12239268772E+01  0.40175765849E+02  0.00000000000E+00 0.  1.
         12    1    3    3    0    0 -0.17394596215E+03  0.10249736922E+03  0.50010960702E+02  0.20800001114E+03  0.00000000000E+00 0. -1.
        -11    1    4    4    0    0 -0.91108071634E+02  0.90122143025E+02 -0.87151782054E+02  0.15497778710E+03  0.00000000000E+00 0.  1.
         11    1    4    4    0    0 -0.16628342493E+03  0.49159384457E+02 -0.19416610447E+03  0.26032152929E+03  0.00000000000E+00 0. -1.
          1    1    1    2  501    0  0.46894793592E+03 -0.22770600899E+03 -0.61633281290E+03  0.80723499019E+03  0.00000000000E+00 0. -1.
<scales pt_clust_5="13000.00000" pt_clust_6="13000.00000" pt_clust_7="13000.00000" pt_clust_8="13000.00000" pt_clust_9="367.69718"></scales>
<clustering>
<clus scale="   79.945">  5  6 -1 -1</clus>
<clus scale="   87.659">  7  8 -1 -1</clus>
<clus scale="  242.830">  2  5  1 -1</clus>
<clus scale="  367.697">  1  9  2 -1</clus>
<clus scale="  367.697">  1  5  2 -1</clus>
</clustering>
</event>
<event>
 9    2  0.1325014E-004  0.1331120E+03  0.7546771E-02  0.1224227E+00
          4   -1    0    0  502    0 -0.00000000000E+00  0.00000000000E+00  0.21594912726E+03  0.21594912726E+03  0.00000000000E+00 0. -1.
         21   -1    0    0  501  502  0.00000000000E+00 -0.00000000000E+00 -0.28484143897E+03  0.28484143897E+03  0.00000000000E+00 0. -1.
         23    2    1    2    0    0  0.10665253083E+03 -0.12593303011E+02  0.13876046511E+03  0.19578784240E+03  0.86862298732E+02 0.  0.
         24    2    1    2    0    0 -0.83938734863E+02  0.95148028120E+01 -0.23617339971E+02  0.11954535487E+03  0.81222351848E+02 0.  0.
        -13    1    4    4    0    0 -0.98479226901E+02  0.17804219087E+02 -0.16815274677E+02  0.10147857809E+03  0.00000000000E+00 0.  1.
         14    1    4    4    0    0  0.14540492038E+02 -0.82894162748E+01 -0.68020652939E+01  0.18066776778E+02  0.00000000000E+00 0. -1.
        -11    1    3    3    0    0  0.10552138503E+03  0.11761241585E+02  0.82459507159E+02  0.13443459310E+03  0.00000000000E+00 0.  1.
         11    1    3    3    0    0  0.11311458023E+01 -0.24354544596E+02  0.56300957948E+02  0.61353249296E+02  0.00000000000E+00 0. -1.
          3    1    1    2  501    0 -0.22713795965E+02  0.30785001990E+01 -0.18403543684E+03  0.18545736897E+03  0.00000000000E+00 0. -1.
<scales pt_clust_5="13000.00000" pt_clust_6="13000.00000" pt_clust_7="13000.00000" pt_clust_8="13000.00000" pt_clust_9="22.92147"></scales>
<clustering>
<clus scale="   22.921">  2  9  1 -1</clus>
<clus scale="   81.222">  5  6 -1 -1</clus>
<clus scale="   86.862">  7  8 -1 -1</clus>
<clus scale="  129.502">  2  5  1 -1</clus>
<clus scale="   22.921">  2  5  1 -1</clus>
</clustering>
</event>
<event>
 9    2  0.1325014E-004  0.1635201E+03  0.7546771E-02  0.1186059E+00
         21   -1    0    0  501  502  0.00000000000E+00  0.00000000000E+00  0.18074299804E+03  0.18074299804E+03  0.00000000000E+00 0. -1.
          2   -1    0    0  502    0 -0.00000000000E+00 -0.00000000000E+00 -0.30621452309E+03  0.30621452309E+03  0.00000000000E+00 0. -1.
         23    2    1    2    0    0  0.10319000599E+03 -0.14255269448E+03 -0.13441809132E+03  0.23927739574E+03  0.90642157976E+02 0.  0.
         24    2    1    2    0    0 -0.80978645021E+02  0.26723642862E+02  0.41360263909E+02  0.12536756860E+03  0.82064985154E+02 0.  0.
        -11    1    4    4    0    0 -0.43753204682E+02  0.21884987093E+02 -0.20472291581E+02  0.53032162907E+02  0.00000000000E+00 0.  1.
         12    1    4    4    0    0 -0.37225440339E+02  0.48386557689E+01  0.61832555490E+02  0.72335405691E+02  0.00000000000E+00 0. -1.
        -13    1    3    3    0    0 -0.13384542072E+02 -0.29653660457E+02 -0.39873157048E+02  0.51462162779E+02  0.00000000000E+00 0.  1.
         13    1    3    3    0    0  0.11657454806E+03 -0.11289903402E+03 -0.94544934273E+02  0.18781523297E+03  0.00000000000E+00 0. -1.
          1    1    1    2  501    0 -0.22211360964E+02  0.11582905161E+03 -0.32413697634E+02  0.12231255679E+03  0.00000000000E+00 0. -1.
<scales pt_clust_5="13000.00000" pt_clust_6="13000.00000" pt_clust_7="13000.00000" pt_clust_8="13000.00000" pt_clust_9="117.93951"></scales>
<clustering>
<clus scale="   82.065">  5  6 -1 -1</clus>
<clus scale="   90.642">  7  8 -1 -1</clus>
<clus scale="  117.940">  1  9  2 -1</clus>
<clus scale="  158.926">  1  5  2 -1</clus>
<clus scale="  117.940">  1  5  2 -1</clus>
</clustering>
</event>
<event>
 9    2  0.1325014E-004  0.2919212E+03  0.7546771E-02  0.1128437E+00
         21   -1    0    0  501  502  0.00000000000E+00  0.00000000000E+00  0.82217254527E+03  0.82217254527E+03  0.00000000000E+00 0. -1.
          2   -1    0    0  502    0 -0.00000000000E+00 -0.00000000000E+00 -0.23767236751E+03  0.23767236751E+03  0.00000000000E+00 0. -1.
         24    2    1    2    0    0  0.54371836609E+02  0.45744470786E+02  0.45564224011E+03  0.46817766955E+03  0.80818476010E+02 0.  0.
         23    2    1    2    0    0  0.24551791752E+03 -0.58547731528E+02  0.68195747172E+01  0.26764386423E+03  0.88768501007E+02 0.  0.
        -13    1    3    3    0    0  0.20653674471E+02  0.32726698449E+02  0.63427996318E+02  0.74301559724E+02  0.00000000000E+00 0.  1.
         14    1    3    3    0    0  0.33718162138E+02  0.13017772338E+02  0.39221424379E+03  0.39387610982E+03  0.00000000000E+00 0. -1.
        -11    1    4    4    0    0  0.80343197264E+02 -0.55102435275E+02 -0.22157446612E+02  0.99911261429E+02  0.00000000000E+00 0.  1.
         11    1    4    4    0    0  0.16517472026E+03 -0.34452962526E+01  0.28977021329E+02  0.16773260280E+03  0.00000000000E+00 0. -1.
          1    1    1    2  501    0 -0.29988975413E+03  0.12803260742E+02  0.12203836293E+03  0.32402337901E+03  0.00000000000E+00 0. -1.
<scales pt_clust_5="13000.00000" pt_clust_6="13000.00000" pt_clust_7="13000.00000" pt_clust_8="13000.00000" pt_clust_9="278.09734"></scales>
<clustering>
<clus scale="   80.818">  5  6 -1 -1</clus>
<clus scale="   88.769">  7  8 -1 -1</clus>
<clus scale="  107.613">  2  5  1 -1</clus>
<clus scale="  278.097">  1  9  2 -1</clus>
<clus scale="  278.097">  1  5  2 -1</clus>
</clustering>
</event>
<event>
 9    2  0.1325014E-004  0.1208407E+03  0.7546771E-02  0.1244354E+00
         21   -1    0    0  501  502  0.00000000000E+00  0.00000000000E+00  0.52542823257E+03  0.52542823257E+03  0.00000000000E+00 0.  1.
         -1   -1    0    0    0  501 -0.00000000000E+00 -0.00000000000E+00 -0.30069946200E+03  0.30069946200E+03  0.00000000000E+00 0.  1.
         24    2    1    2    0    0 -0.25197078078E+02  0.78866950598E+02 -0.26966074534E+03  0.29396313041E+03  0.82719500857E+02 0.  0.
         23    2    1    2    0    0 -0.44368878384E+02 -0.15089503095E+02  0.25835329582E+03  0.27795976032E+03  0.91208072141E+02 0.  0.
        -11    1    3    3    0    0  0.24498470325E+02  0.55551850041E+02 -0.16432423983E+03  0.17518173103E+03  0.00000000000E+00 0.  1.
         12    1    3    3    0    0 -0.49695548403E+02  0.23315100557E+02 -0.10533650551E+03  0.11878139938E+03  0.00000000000E+00 0. -1.
        -13    1    4    4    0    0 -0.45371829455E+02  0.25731958244E+02  0.83909467164E+02  0.98800482098E+02  0.00000000000E+00 0.  1.
         13    1    4    4    0    0  0.10029510719E+01 -0.40821461339E+02  0.17444382866E+03  0.17915927822E+03  0.00000000000E+00 0. -1.
         -2    1    1    2    0  502  0.69565956462E+02 -0.63777447503E+02  0.23603622009E+03  0.25420480385E+03  0.00000000000E+00 0.  1.
<scales pt_clust_5="13000.00000" pt_clust_6="13000.00000" pt_clust_7="13000.00000" pt_clust_8="13000.00000" pt_clust_9="94.37683"></scales>
<clustering>
<clus scale="   82.720">  5  6 -1 -1</clus>
<clus scale="   91.208">  7  8 -1 -1</clus>
<clus scale="   94.377">  1  9  2 -1</clus>
<clus scale="  114.569">  2  5  1 -1</clus>
<clus scale="   94.377">  1  5  2 -1</clus>
</clustering>
</event>
<event>
 9    2  0.1325014E-004  0.9478725E+02  0.7546771E-02  0.1298005E+00
          2   -1    0    0  502    0 -0.00000000000E+00  0.00000000000E+00  0.42901097260E+03  0.42901097260E+03  0.00000000000E+00 0. -1.
         21   -1    0    0  501  502  0.00000000000E+00 -0.00000000000E+00 -0.59246750141E+02  0.59246750141E+02  0.00000000000E+00 0.  1.
         23    2    1    2    0    0 -0.21353442165E+02 -0.12950391077E+01  0.22415965603E+03  0.24301718198E+03  0.91390112841E+02 0.  0.
         24    2    1    2    0    0  0.42024159624E+02  0.21643871636E+02 -0.35135213864E+01  0.93327547052E+02  0.80394023626E+02 0.  0.
        -13    1    4    4    0    0  0.35727482987E+02  0.50939989696E+02 -0.89896353437E+01  0.62866120721E+02  0.00000000000E+00 0.  1.
         14    1    4    4    0    0  0.62966766368E+01 -0.29296118061E+02  0.54761139573E+01  0.30461426332E+02  0.00000000000E+00 0. -1.
        -11    1    3    3    0    0 -0.20194275767E+02 -0.30435134245E+02  0.20475709780E+03  0.20798936336E+03  0.00000000000E+00 0.  1.
         11    1    3    3    0    0 -0.11591663980E+01  0.29140095137E+02  0.19402558234E+02  0.35027818622E+02  0.00000000000E+00 0. -1.
          1    1    1    2  501    0 -0.20670717459E+02 -0.20348832528E+02  0.14911808781E+03  0.15191299371E+03  0.00000000000E+00 0. -1.
<scales pt_clust_5="13000.00000" pt_clust_6="13000.00000" pt_clust_7="13000.00000" pt_clust_8="13000.00000" pt_clust_9="29.00611"></scales>
<clustering>
<clus scale="   29.006">  2  9  1 -1</clus>
<clus scale="   80.394">  5  6 -1 -1</clus>
<clus scale="   84.236">  2  5  1 -1</clus>
<clus scale="   91.390">  7  8 -1 -1</clus>
<clus scale="   29.006">  2  5  1 -1</clus>
</clustering>
</event>
<event>
 9    2  0.1325014E-004  0.1916570E+03  0.7546771E-02  0.1186222E+00
         -1   -1    0    0    0  501 -0.00000000000E+00  0.00000000000E+00  0.99137950685E+02  0.99137950685E+02  0.00000000000E+00 0.  1.
         21   -1    0    0  501  502  0.00000000000E+00 -0.00000000000E+00 -0.73307358009E+03  0.73307358009E+03  0.00000000000E+00 0.  1.
         23    2    1    2    0    0  0.22183022657E+02 -0.22925579151E+02  0.11081682687E+01  0.98352856912E+02  0.93028961901E+02 0.  0.
         24    2    1    2    0    0  0.14441996672E+02 -0.15353835534E+03 -0.23222391796E+03  0.29255971883E+03  0.88772986785E+02 0.  0.
        -13    1    4    4    0    0  0.26446790800E+02 -0.11883937649E+03 -0.10706729255E+03  0.16212845303E+03  0.00000000000E+00 0.  1.
         14    1    4    4    0    0 -0.12004794128E+02 -0.34698978852E+02 -0.12515662541E+03  0.13043126580E+03  0.00000000000E+00 0. -1.
        -11    1    3    3    0    0  0.28648692192E+01  0.32416282978E+02 -0.17375775149E+02  0.36890926253E+02  0.00000000000E+00 0. -1.
         11    1    3    3    0    0  0.19318153438E+02 -0.55341862129E+02  0.18483943418E+02  0.61461930659E+02  0.00000000000E+00 0.  1.
         -2    1    1    2    0  502 -0.36625019329E+02  0.17646393449E+03 -0.40281987971E+03  0.44129895503E+03  0.00000000000E+00 0.  1.
<scales pt_clust_5="13000.00000" pt_clust_6="13000.00000" pt_clust_7="13000.00000" pt_clust_8="13000.00000" pt_clust_9="169.85809"></scales>
<clustering>
<clus scale="   88.773">  5  6 -1 -1</clus>
<clus scale="   93.029">  7  8 -1 -1</clus>
<clus scale="   98.347">  1  7  2 -1</clus>
<clus scale="  169.858">  2  9  1 -1</clus>
<clus scale="  169.858">  2  5  1 -1</clus>
</clustering>
</event>
<event>
 9    2  0.1325014E-004  0.9978495E+02  0.7546771E-02  0.1282178E+00
         21   -1    0    0  501  502  0.00000000000E+00  0.00000000000E+00  0.22715563365E+03  0.22715563365E+03  0.00000000000E+00 0. -1.
          2   -1    0    0  502    0 -0.00000000000E+00 -0.00000000000E+00 -0.88918292682E+02  0.88918292682E+02  0.00000000000E+00 0. -1.
         24    2    1    2    0    0 -0.45197372932E+02 -0.22507026218E+02  0.39048216524E+02  0.11202425296E+03  0.92061399559E+02 0.  0.
         23    2    1    2    0    0  0.28046134106E+02 -0.41477837662E+02  0.91759046228E+02  0.13739058651E+03  0.89159710866E+02 0.  0.
        -13    1    3    3    0    0  0.11327187457E+00 -0.46587548578E+02 -0.15199331595E+01  0.46612473757E+02  0.00000000000E+00 0.  1.
         14    1    3    3    0    0 -0.45310644807E+02  0.24080522360E+02  0.40568149683E+02  0.65411779204E+02  0.00000000000E+00 0. -1.
        -11    1    4    4    0    0  0.53305126919E+02 -0.52136053050E+02  0.71470891331E+02  0.10328452397E+03  0.00000000000E+00 0. -1.
         11    1    4    4    0    0 -0.25258992813E+02  0.10658215387E+02  0.20288154898E+02  0.34106062545E+02  0.00000000000E+00 0.  1.
          1    1    1    2  501    0  0.17151238826E+02  0.63984863880E+02  0.74300782197E+01  0.66659086863E+02  0.00000000000E+00 0. -1.
<scales pt_clust_5="13000.00000" pt_clust_6="13000.00000" pt_clust_7="13000.00000" pt_clust_8="13000.00000" pt_clust_9="66.24373"></scales>
<clustering>
<clus scale="   66.244">  1  9  2 -1</clus>
<clus scale="   89.160">  7  8 -1 -1</clus>
<clus scale="   92.061">  5  6 -1 -1</clus>
<clus scale="   97.114">  1  7  2 -1</clus>
<clus scale="   66.244">  1  5  2 -1</clus>
</clustering>
</event>
<event>
 9    2  0.1325014E-004  0.1166065E+03  0.7546771E-02  0.1256585E+00
         -1   -1    0    0    0  501 -0.00000000000E+00  0.00000000000E+00  0.13806910054E+03  0.13806910054E+03  0.00000000000E+00 0.  1.
         21   -1    0    0  501  502  0.00000000000E+00 -0.00000000000E+00 -0.27981203040E+03  0.27981203040E+03  0.00000000000E+00 0. -1.
         24    2    1    2    0    0  0.59799361002E+02 -0.12936854238E+02  0.90623811382E+02  0.13605563550E+03  0.80963788122E+02 0.  0.
         23    2    1    2    0    0 -0.25756392038E+02  0.28197073456E+02 -0.21528607148E+03  0.24079444250E+03  0.10087320894E+03 0.  0.
        -13    1    3    3    0    0  0.75369632095E+02  0.74874248948E+01  0.65644321113E+02  0.10022883751E+03  0.00000000000E+00 0.  1.
         14    1    3    3    0    0 -0.15570271094E+02 -0.20424279133E+02  0.24979490269E+02  0.35826797989E+02  0.00000000000E+00 0. -1.
        -11    1    4    4    0    0 -0.38812308214E+02 -0.29464370741E+02 -0.98910823427E+02  0.11026284688E+03  0.00000000000E+00 0.  1.
         11    1    4    4    0    0  0.13055916176E+02  0.57661444197E+02 -0.11637524806E+03  0.13053159562E+03  0.00000000000E+00 0. -1.
         -2    1    1    2    0  502 -0.34042968964E+02 -0.15260219218E+02 -0.17080669753E+02  0.41031052944E+02  0.00000000000E+00 0.  1.
<scales pt_clust_5="13000.00000" pt_clust_6="13000.00000" pt_clust_7="13000.00000" pt_clust_8="13000.00000" pt_clust_9="37.30681"></scales>
<clustering>
<clus scale="   37.307">  2  9  1 -1</clus>
<clus scale="   80.964">  5  6 -1 -1</clus>
<clus scale="   99.884">  1  5  2 -1</clus>
<clus scale="  100.873">  7  8 -1 -1</clus>
<clus scale="   37.307">  2  5  1 -1</clus>
</clustering>
</event>
<event>
 9    2  0.1325014E-004  0.1321268E+03  0.7546771E-02  0.1231879E+00
         21   -1    0    0  501  502  0.00000000000E+00  0.00000000000E+00  0.20909041556E+03  0.20909041556E+03  0.00000000000E+00 0. -1.
          2   -1    0    0  502    0 -0.00000000000E+00 -0.00000000000E+00 -0.87205140263E+03  0.87205140263E+03  0.00000000000E+00 0. -1.
         24    2    1    2    0    0  0.62930830776E+02 -0.61618149079E+02 -0.77308173028E+03  0.78176141375E+03  0.75752627512E+02 0.  0.
         23    2    1    2    0    0 -0.56967266870E+02  0.78631594479E+01 -0.52201410695E+02  0.12828497885E+03  0.10210264321E+03 0.  0.
        -11    1    3    3    0    0  0.21455785975E+02 -0.63799750019E+02 -0.33369052189E+03  0.34041169671E+03  0.00000000000E+00 0.  1.
         12    1    3    3    0    0  0.41475044801E+02  0.21816009401E+01 -0.43939120839E+03  0.44134971704E+03  0.00000000000E+00 0. -1.
        -13    1    4    4    0    0 -0.20047589631E+02 -0.23216521065E+02  0.23408729241E+02  0.38586024738E+02  0.00000000000E+00 0. -1.
         13    1    4    4    0    0 -0.36919677239E+02  0.31079680513E+02 -0.75610139937E+02  0.89698954116E+02  0.00000000000E+00 0.  1.
          1    1    1    2  501    0 -0.59635639066E+01  0.53754989631E+02  0.16232215391E+03  0.17109542558E+03  0.00000000000E+00 0. -1.
<scales pt_clust_5="13000.00000" pt_clust_6="13000.00000" pt_clust_7="13000.00000" pt_clust_8="13000.00000" pt_clust_9="54.08478"></scales>
<clustering>
<clus scale="   54.085">  1  9  2 -1</clus>
<clus scale="   75.753">  5  6 -1 -1</clus>
<clus scale="  102.103">  7  8 -1 -1</clus>
<clus scale="  113.009">  2  5  1 -1</clus>
<clus scale="   54.085">  1  5  2 -1</clus>
</clustering>
</event>
<event>
 9    2  0.1325014E-004  0.1420963E+03  0.7546771E-02  0.1213237E+00
          2   -1    0    0  502    0 -0.00000000000E+00  0.00000000000E+00  0.61564196641E+03  0.61564196641E+03  0.00000000000E+00 0. -1.
         21   -1    0    0  501  502  0.00000000000E+00 -0.00000000000E+00 -0.53106146506E+02  0.53106146506E+02  0.00000000000E+00 0. -1.
         23    2    1    2    0    0  0.32853027950E+02 -0.67996970584E+02  0.12914081266E+03  0.17593570913E+03  0.92591116198E+02 0.  0.
         24    2    1    2    0    0 -0.82680569603E+02  0.11405565752E+03  0.25642126676E+03  0.30327641414E+03  0.79874574956E+02 0.  0.
        -13    1    4    4    0    0 -0.80984455737E+02  0.44726420211E+02  0.14194486283E+03  0.16943222486E+03  0.00000000000E+00 0.  1.
         14    1    4    4    0    0 -0.16961138653E+01  0.69329237310E+02  0.11447640393E+03  0.13384418928E+03  0.00000000000E+00 0. -1.
        -11    1    3    3    0    0 -0.14921740715E+02 -0.43272172519E+02  0.12439317567E+02  0.47432856566E+02  0.00000000000E+00 0. -1.
         11    1    3    3    0    0  0.47774768665E+02 -0.24724798065E+02  0.11670149509E+03  0.12850285256E+03  0.00000000000E+00 0.  1.
          1    1    1    2  501    0  0.49827541653E+02 -0.46058686937E+02  0.17697374049E+03  0.18953598965E+03  0.00000000000E+00 0. -1.
<scales pt_clust_5="13000.00000" pt_clust_6="13000.00000" pt_clust_7="13000.00000" pt_clust_8="13000.00000" pt_clust_9="67.85419"></scales>
<clustering>
<clus scale="   67.854">  2  9  1 -1</clus>
<clus scale="   79.875">  5  6 -1 -1</clus>
<clus scale="   92.591">  7  8 -1 -1</clus>
<clus scale="  134.157">  2  5  1 -1</clus>
<clus scale="   67.854">  2  5  1 -1</clus>
</clustering>
</event>
<event>
 9    2  0.1325014E-004  0.9403751E+02  0.7546771E-02  0.1299877E+00
         21   -1    0    0  501  502  0.00000000000E+00  0.00000000000E+00  0.22360841050E+02  0.22360841050E+02  0.00000000000E+00 0. -1.
          2   -1    0    0  502    0 -0.00000000000E+00 -0.00000000000E+00 -0.63152713966E+03  0.63152713966E+03  0.00000000000E+00 0. -1.
         24    2    1    2    0    0  0.10581431236E+02  0.15927465755E+02 -0.38977102793E+03  0.39834091421E+03  0.79927334920E+02 0.  0.
         23    2    1    2    0    0  0.14292109601E+01 -0.40536677008E+02 -0.19446885312E+03  0.21851741491E+03  0.91030000323E+02 0.  0.
        -11    1    3    3    0    0  0.43925948258E+02  0.20444122034E+02 -0.23877223912E+03  0.24363832463E+03  0.00000000000E+00 0.  1.
         12    1    3    3    0    0 -0.33344517022E+02 -0.45166562784E+01 -0.15099878881E+03  0.15470258958E+03  0.00000000000E+00 0. -1.
        -11    1    4    4    0    0 -0.41596008515E+02 -0.23849958238E+01 -0.92535476523E+02  0.10148266130E+03  0.00000000000E+00 0.  1.
         11    1    4    4    0    0  0.43025219475E+02 -0.38151681184E+02 -0.10193337660E+03  0.11703475361E+03  0.00000000000E+00 0. -1.
          1    1    1    2  501    0 -0.12010642197E+02  0.24609211253E+02 -0.24926417557E+02  0.37029651588E+02  0.00000000000E+00 0. -1.
<scales pt_clust_5="13000.00000" pt_clust_6="13000.00000" pt_clust_7="13000.00000" pt_clust_8="13000.00000" pt_clust_9="27.38373"></scales>
<clustering>
<clus scale="   27.384">  1  9  2 -1</clus>
<clus scale="   79.927">  5  6 -1 -1</clus>
<clus scale="   83.336">  2  5  1 -1</clus>
<clus scale="   91.030">  7  8 -1 -1</clus>
<clus scale="   27.384">  1  5  2 -1</clus>
</clustering>
</event>
<event>
 9    2  0.1325014E-004  0.2185491E+03  0.7546771E-02  0.1135871E+00
         21   -1    0    0  501  502  0.00000000000E+00  0.00000000000E+00  0.39727396165E+02  0.39727396165E+02  0.00000000000E+00 0. -1.
          2   -1    0    0  502    0 -0.00000000000E+00 -0.00000000000E+00 -0.21590689007E+04  0.21590689007E+04  0.00000000000E+00 0. -1.
         24    2    1    2    0    0  0.79362741029E+02  0.21369224060E+03 -0.13151752222E+04  0.13370874189E+04  0.78447960797E+02 0.  0.
         23    2    1    2    0    0 -0.12810763601E+03 -0.10419313733E+03 -0.45047343140E+03  0.48825908044E+03  0.90569536641E+02 0.  0.
        -13    1    3    3    0    0 -0.16049318463E+02  0.34567969718E+02 -0.20314338068E+03  0.20668758614E+03  0.00000000000E+00 0.  1.
         14    1    3    3    0    0  0.95412059492E+02  0.17912427089E+03 -0.11120318415E+04  0.11303998328E+04  0.00000000000E+00 0. -1.
        -11    1    4    4    0    0 -0.66898545584E+02 -0.92192233168E+01 -0.10558480417E+03  0.12533379573E+03  0.00000000000E+00 0. -1.
         11    1    4    4    0    0 -0.61209090428E+02 -0.94973914013E+02 -0.34488862723E+03  0.36292528471E+03  0.00000000000E+00 0.  1.
          1    1    1    2  501    0  0.48744894983E+02 -0.10949910327E+03 -0.35369285096E+03  0.37344979746E+03  0.00000000000E+00 0. -1.
<scales pt_clust_5="13000.00000" pt_clust_6="13000.00000" pt_clust_7="13000.00000" pt_clust_8="13000.00000" pt_clust_9="119.85874"></scales>
<clustering>
<clus scale="   78.448">  5  6 -1 -1</clus>
<clus scale="   90.570">  7  8 -1 -1</clus>
<clus scale="  119.859">  1  9  2 -1</clus>
<clus scale="  213.811">  2  5  1 -1</clus>
<clus scale="  119.859">  1  5  2 -1</clus>
</clustering>
</event>
<event>
 9    2  0.1325014E-004  0.2612101E+03  0.7546771E-02  0.1107026E+00
         21   -1    0    0  501  502  0.00000000000E+00  0.00000000000E+00  0.18958795261E+03  0.18958795261E+03  0.00000000000E+00 0. -1.
          2   -1    0    0  502    0 -0.00000000000E+00 -0.00000000000E+00 -0.12127151925E+04  0.12127151925E+04  0.00000000000E+00 0. -1.
         24    2    1    2    0    0  0.18497013566E+03 -0.20284562359E+03 -0.10415333370E+04  0.10800472974E+04  0.79687981670E+02 0.  0.
         23    2    1    2    0    0 -0.10539912494E+03  0.96211901681E+02 -0.43943400054E+02  0.17532131743E+03  0.91874024481E+02 0.  0.
        -13    1    3    3    0    0  0.13030752457E+02 -0.17814350620E+02 -0.28768893937E+02  0.36260182790E+02  0.00000000000E+00 0.  1.
         14    1    3    3    0    0  0.17193938320E+03 -0.18503127297E+03 -0.10127644431E+04  0.10437871146E+04  0.00000000000E+00 0. -1.
        -13    1    4    4    0    0 -0.12010956669E+03  0.81632266165E+02 -0.25213525257E+02  0.14739693601E+03  0.00000000000E+00 0. -1.
         13    1    4    4    0    0  0.14710441743E+02  0.14579635516E+02 -0.18729874797E+02  0.27924381425E+02  0.00000000000E+00 0.  1.
          1    1    1    2  501    0 -0.79571010717E+02  0.10663372191E+03  0.62349497168E+02  0.14693453029E+03  0.00000000000E+00 0. -1.
<scales pt_clust_5="13000.00000" pt_clust_6="13000.00000" pt_clust_7="13000.00000" pt_clust_8="13000.00000" pt_clust_9="133.04998"></scales>
<clustering>
<clus scale="   79.688">  5  6 -1 -1</clus>
<clus scale="   91.874">  7  8 -1 -1</clus>
<clus scale="  133.050">  1  9  2 -1</clus>
<clus scale="  257.177">  2  5  1 -1</clus>
<clus scale="  133.050">  1  5  2 -1</clus>
</clustering>
</event>
<event>
 9    2  0.1325014E-004  0.2226061E+03  0.7546771E-02  0.1143659E+00
         21   -1    0    0  501  502  0.00000000000E+00  0.00000000000E+00  0.11509197715E+04  0.11509197715E+04  0.00000000000E+00 0.  1.
         -1   -1    0    0    0  501 -0.00000000000E+00 -0.00000000000E+00 -0.14650281124E+03  0.14650281124E+03  0.00000000000E+00 0.  1.
         24    2    1    2    0    0 -0.13215728382E+03  0.65214654090E+02  0.53893965047E+03  0.56441829817E+03  0.79959800455E+02 0.  0.
         23    2    1    2    0    0  0.22190181619E+03  0.11648400751E+03  0.49554954218E+02  0.27033821646E+03  0.88420120779E+02 0.  0.
        -13    1    3    3    0    0 -0.89372935161E+02  0.11079668161E+02  0.39013270416E+03  0.40039206716E+03  0.00000000000E+00 0.  1.
         14    1    3    3    0    0 -0.42784348655E+02  0.54134985929E+02  0.14880694631E+03  0.16402623102E+03  0.00000000000E+00 0. -1.
        -11    1    4    4    0    0  0.18828066777E+03  0.13063531114E+03  0.45503526300E+02  0.23363596744E+03  0.00000000000E+00 0.  1.
         11    1    4    4    0    0  0.33621148416E+02 -0.14151303633E+02  0.40514279178E+01  0.36702249025E+02  0.00000000000E+00 0. -1.
         -2    1    1    2    0  502 -0.89744532375E+02 -0.18169866160E+03  0.41592235560E+03  0.46266606814E+03  0.00000000000E+00 0.  1.
<scales pt_clust_5="13000.00000" pt_clust_6="13000.00000" pt_clust_7="13000.00000" pt_clust_8="13000.00000" pt_clust_9="204.29235"></scales>
<clustering>
<clus scale="   79.960">  5  6 -1 -1</clus>
<clus scale="   88.420">  7  8 -1 -1</clus>
<clus scale="  167.667">  2  5  1 -1</clus>
<clus scale="  204.292">  1  9  2 -1</clus>
<clus scale="  204.292">  1  5  2 -1</clus>
</clustering>
</event>
<event>
 9    2  0.1325014E-004  0.1589596E+03  0.7546771E-02  0.1191499E+00
          2   -1    0    0  502    0 -0.00000000000E+00  0.00000000000E+00  0.40122851624E+03  0.40122851624E+03  0.00000000000E+00 0. -1.
         21   -1    0    0  501  502  0.00000000000E+00 -0.00000000000E+00 -0.27507194440E+03  0.27507194440E+03  0.00000000000E+00 0.  1.
         24    2    1    2    0    0  0.78942100474E+02 -0.95691351132E+02  0.28726327512E+03  0.32313736117E+03  0.80677599383E+02 0.  0.
         23    2    1    2    0    0 -0.16353335963E+03  0.93490162095E+02 -0.52765844146E+02  0.21569212756E+03  0.90858623493E+02 0.  0.
        -11    1    3    3    0    0  0.38355486700E+02 -0.20420385325E+02  0.32095028844E+02  0.54020610634E+02  0.00000000000E+00 0.  1.
         12    1    3    3    0    0  0.40586613774E+02 -0.75270965807E+02  0.25516824627E+03  0.26911675053E+03  0.00000000000E+00 0. -1.
        -13    1    4    4    0    0 -0.70228554387E+02  0.92102735879E+02 -0.29394388796E+02  0.11949474424E+03  0.00000000000E+00 0.  1.
         13    1    4    4    0    0 -0.93304805246E+02  0.13874262152E+01 -0.23371455350E+02  0.96197383325E+02  0.00000000000E+00 0. -1.
          1    1    1    2  501    0  0.84591259160E+02  0.22011890378E+01 -0.10834085913E+03  0.13747097191E+03  0.00000000000E+00 0. -1.
<scales pt_clust_5="13000.00000" pt_clust_6="13000.00000" pt_clust_7="13000.00000" pt_clust_8="13000.00000" pt_clust_9="84.61989"></scales>
<clustering>
<clus scale="   80.678">  5  6 -1 -1</clus>
<clus scale="   84.620">  2  9  1 -1</clus>
<clus scale="   90.859">  7  8 -1 -1</clus>
<clus scale="  153.368">  1  5  2 -1</clus>
<clus scale="   84.620">  2  5  1 -1</clus>
</clustering>
</event>
<event>
 9    2  0.1325014E-004  0.9705670E+02  0.7546771E-02  0.1291922E+00
         21   -1    0    0  501  502  0.00000000000E+00  0.00000000000E+00  0.32368627821E+02  0.32368627821E+02  0.00000000000E+00 0.  1.
          4   -1    0    0  502    0 -0.00000000000E+00 -0.00000000000E+00 -0.47761145613E+03  0.47761145613E+03  0.00000000000E+00 0. -1.
         24    2    1    2    0    0 -0.18623449720E+02 -0.34636821129E+02 -0.30599336666E+03  0.31879167231E+03  0.80309698256E+02 0.  0.
         23    2    1    2    0    0  0.25751528953E+02  0.99552621007E+01 -0.70597842407E+02  0.11788743147E+03  0.90283678813E+02 0.  0.
        -11    1    3    3    0    0 -0.45709269010E+02 -0.46260527711E+00 -0.16425550421E+03  0.17049757165E+03  0.00000000000E+00 0.  1.
         12    1    3    3    0    0  0.27085819290E+02 -0.34174215852E+02 -0.14173786245E+03  0.14829410065E+03  0.00000000000E+00 0. -1.
        -11    1    4    4    0    0  0.18668959212E+02 -0.19460721395E+02  0.12300267282E+02  0.29640281552E+02  0.00000000000E+00 0.  1.
         11    1    4    4    0    0  0.70825697405E+01  0.29415983496E+02 -0.82898109689E+02  0.88247149921E+02  0.00000000000E+00 0. -1.
          3    1    1    2  501    0 -0.71280792331E+01  0.24681559029E+02 -0.68651619246E+02  0.73300980176E+02  0.00000000000E+00 0. -1.
<scales pt_clust_5="13000.00000" pt_clust_6="13000.00000" pt_clust_7="13000.00000" pt_clust_8="13000.00000" pt_clust_9="25.69026"></scales>
<clustering>
<clus scale="   25.690">  1  9  2 -1</clus>
<clus scale="   80.310">  5  6 -1 -1</clus>
<clus scale="   87.855">  2  5  1 -1</clus>
<clus scale="   90.284">  7  8 -1 -1</clus>
<clus scale="   25.690">  1  5  2 -1</clus>
</clustering>
</event>
<event>
 9    2  0.1325014E-004  0.1279380E+03  0.7546771E-02  0.1234963E+00
          2   -1    0    0  502    0 -0.00000000000E+00  0.00000000000E+00  0.69569147513E+03  0.69569147513E+03  0.00000000000E+00 0. -1.
         21   -1    0    0  501  502  0.00000000000E+00 -0.00000000000E+00 -0.17145830275E+03  0.17145830275E+03  0.00000000000E+00 0. -1.
         24    2    1    2    0    0 -0.66577147233E+02  0.59121701896E+02  0.49629351238E+03  0.50994945007E+03  0.76244993420E+02 0.  0.
         23    2    1    2    0    0  0.47141750915E+02 -0.76464567195E+02  0.16970022300E+03  0.21306647740E+03  0.92357909188E+02 0.  0.
        -13    1    3    3    0    0  0.57185487010E+01  0.33608062223E+02  0.85182653762E+02  0.91751229679E+02  0.00000000000E+00 0.  1.
         14    1    3    3    0    0 -0.72295695934E+02  0.25513639673E+02  0.41111085862E+03  0.41819822039E+03  0.00000000000E+00 0. -1.
        -11    1    4    4    0    0  0.63803672370E+02 -0.32367312814E+02  0.58952677360E+02  0.92703666133E+02  0.00000000000E+00 0.  1.
         11    1    4    4    0    0 -0.16661921455E+02 -0.44097254381E+02  0.11074754564E+03  0.12036281127E+03  0.00000000000E+00 0. -1.
          1    1    1    2  501    0  0.19435396318E+02  0.17342865299E+02 -0.14176056301E+03  0.14413385040E+03  0.00000000000E+00 0. -1.
<scales pt_clust_5="13000.00000" pt_clust_6="13000.00000" pt_clust_7="13000.00000" pt_clust_8="13000.00000" pt_clust_9="26.04822"></scales>
<clustering>
<clus scale="   26.048">  2  9  1 -1</clus>
<clus scale="   76.245">  5  6 -1 -1</clus>
<clus scale="   92.358">  7  8 -1 -1</clus>
<clus scale="  116.839">  1  5  2 -1</clus>
<clus scale="   26.048">  2  5  1 -1</clus>
</clustering>
</event>
<event>
 9    2  0.1325014E-004  0.1735090E+03  0.7546771E-02  0.1202283E+00
         21   -1    0    0  501  502  0.00000000000E+00  0.00000000000E+00  0.97093607067E+02  0.97093607067E+02  0.00000000000E+00 0. -1.
          2   -1    0    0  502    0 -0.00000000000E+00 -0.00000000000E+00 -0.55711841550E+03  0.55711841550E+03  0.00000000000E+00 0. -1.
         23    2    1    2    0    0  0.14469080962E+02  0.11136189827E+02 -0.23596397981E+03  0.25369895535E+03  0.91382663298E+02 0.  0.
         24    2    1    2    0    0  0.72707062341E+02 -0.13695546019E+03 -0.86881257463E+02  0.19496890287E+03  0.80133670808E+02 0.  0.
        -13    1    4    4    0    0 -0.79982401415E+01 -0.46938290523E+02 -0.27808916555E+01  0.47695999004E+02  0.00000000000E+00 0.  1.
         14    1    4    4    0    0  0.80705302482E+02 -0.90017169663E+02 -0.84100365807E+02  0.14727290386E+03  0.00000000000E+00 0. -1.
        -11    1    3    3    0    0  0.14801852466E+02  0.51110252451E+02 -0.13573451927E+03  0.14579167488E+03  0.00000000000E+00 0.  1.
         11    1    3    3    0    0 -0.33277150397E+00 -0.39974062624E+02 -0.10022946053E+03  0.10790728047E+03  0.00000000000E+00 0. -1.
          1    1    1    2  501    0 -0.87176143302E+02  0.12581927036E+03 -0.13717957117E+03  0.20554416435E+03  0.00000000000E+00 0. -1.
<scales pt_clust_5="13000.00000" pt_clust_6="13000.00000" pt_clust_7="13000.00000" pt_clust_8="13000.00000" pt_clust_9="153.89602"></scales>
<clustering>
<clus scale="   80.134">  5  6 -1 -1</clus>
<clus scale="   91.383">  7  8 -1 -1</clus>
<clus scale="   93.189">  2  7  1 -1</clus>
<clus scale="  153.896">  1  9  2 -1</clus>
<clus scale="  153.896">  1  5  2 -1</clus>
</clustering>
</event>
<event>
 9    2  0.1325014E-004  0.1553172E+03  0.7546771E-02  0.1196426E+00
         21   -1    0    0  501  502  0.00000000000E+00  0.00000000000E+00  0.41115199990E+02  0.41115199990E+02  0.00000000000E+00 0.  1.
          2   -1    0    0  502    0 -0.00000000000E+00 -0.00000000000E+00 -0.12721475958E+04  0.12721475958E+04  0.00000000000E+00 0. -1.
         24    2    1    2    0    0 -0.41139341869E+02  0.12232967908E+03 -0.99725543170E+03  0.10088336517E+04  0.81055196587E+02 0.  0.
         23    2    1    2    0    0  0.53253066657E+02 -0.78973551158E+02 -0.11248405181E+03  0.17505191762E+03  0.94434109628E+02 0.  0.
        -11    1    3    3    0    0 -0.11698205545E+02  0.42149528907E+02 -0.12551998062E+03  0.13292364851E+03  0.00000000000E+00 0.  1.
         12    1    3    3    0    0 -0.29441136324E+02  0.80180150176E+02 -0.87173545108E+03  0.87591000318E+03  0.00000000000E+00 0. -1.
        -11    1    4    4    0    0  0.10566148682E+02 -0.78202173888E+02 -0.10556685083E+03  0.13180130308E+03  0.00000000000E+00 0. -1.
         11    1    4    4    0    0  0.42686917975E+02 -0.77137726995E+00 -0.69172009772E+01  0.43250614544E+02  0.00000000000E+00 0.  1.
          1    1    1    2  501    0 -0.12113724788E+02 -0.43356127925E+02 -0.12129291234E+03  0.12937722652E+03  0.00000000000E+00 0. -1.
<scales pt_clust_5="13000.00000" pt_clust_6="13000.00000" pt_clust_7="13000.00000" pt_clust_8="13000.00000" pt_clust_9="45.01664"></scales>
<clustering>
<clus scale="   45.017">  1  9  2 -1</clus>
<clus scale="   81.055">  5  6 -1 -1</clus>
<clus scale="   94.434">  7  8 -1 -1</clus>
<clus scale="  147.566">  2  5  1 -1</clus>
<clus scale="   45.017">  1  5  2 -1</clus>
</clustering>
</event>
<event>
 9    2  0.1325014E-004  0.1221623E+03  0.7546771E-02  0.1243641E+00
         21   -1    0    0  501  502  0.00000000000E+00  0.00000000000E+00  0.14468220984E+03  0.14468220984E+03  0.00000000000E+00 0. -1.
         -3   -1    0    0    0  501 -0.00000000000E+00 -0.00000000000E+00 -0.14501854664E+03  0.14501854664E+03  0.00000000000E+00 0.  1.
         24    2    1    2    0    0  0.84551644212E+02  0.28525537206E+02 -0.56652905680E+02  0.13265729558E+03  0.80160585928E+02 0.  0.
         23    2    1    2    0    0 -0.48311039670E+02 -0.32749297109E+02  0.44927579621E+02  0.11882133849E+03  0.93239208789E+02 0.  0.
        -11    1    3    3    0    0  0.82622301601E+02 -0.68962650671E+01 -0.49199378665E+02  0.96408412779E+02  0.00000000000E+00 0.  1.
         12    1    3    3    0    0  0.19293426112E+01  0.35421802273E+02 -0.74535270151E+01  0.36248882799E+02  0.00000000000E+00 0. -1.
        -11    1    4    4    0    0 -0.58541327886E+01  0.27250057644E+02  0.34861280761E+02  0.44633456158E+02  0.00000000000E+00 0.  1.
         11    1    4    4    0    0 -0.42456906881E+02 -0.59999354753E+02  0.10066298860E+02  0.74187882335E+02  0.00000000000E+00 0. -1.
         -4    1    1    2    0  502 -0.36240604542E+02  0.42237599025E+01  0.11388989252E+02  0.38222122409E+02  0.00000000000E+00 0.  1.
<scales pt_clust_5="13000.00000" pt_clust_6="13000.00000" pt_clust_7="13000.00000" pt_clust_8="13000.00000" pt_clust_9="36.48591"></scales>
<clustering>
<clus scale="   36.486">  1  9  2 -1</clus>
<clus scale="   80.161">  5  6 -1 -1</clus>
<clus scale="   93.239">  7  8 -1 -1</clus>
<clus scale="  112.498">  2  5  1 -1</clus>
<clus scale="   36.486">  1  5  2 -1</clus>
</clustering>
</event>
<event>
 9    2  0.1325014E-004  0.1197445E+03  0.7546771E-02  0.1245685E+00
          2   -1    0    0  502    0 -0.00000000000E+00  0.00000000000E+00  0.98257934409E+03  0.98257934409E+03  0.00000000000E+00 0. -1.
         21   -1    0    0  501  502  0.00000000000E+00 -0.00000000000E+00 -0.23402126817E+02  0.23402126817E+02  0.00000000000E+00 0.  1.
         23    2    1    2    0    0 -0.61661635343E+01 -0.54040610313E+02  0.32093224384E+03  0.33813436984E+03  0.91536538017E+02 0.  0.
         24    2    1    2    0    0 -0.27251090570E+02  0.10377043491E+03  0.44329242055E+03  0.46389547396E+03  0.84734382297E+02 0.  0.
        -13    1    4    4    0    0  0.10393316494E+02  0.95859031828E+02  0.34857594289E+03  0.36166581670E+03  0.00000000000E+00 0.  1.
         14    1    4    4    0    0 -0.37644407064E+02  0.79114030818E+01  0.94716477661E+02  0.10222965726E+03  0.00000000000E+00 0. -1.
        -11    1    3    3    0    0 -0.17565232987E+02 -0.76033278527E+02  0.19986927249E+03  0.21456309781E+03  0.00000000000E+00 0.  1.
         11    1    3    3    0    0  0.11399069452E+02  0.21992668213E+02  0.12106297135E+03  0.12357127203E+03  0.00000000000E+00 0. -1.
          1    1    1    2  501    0  0.33417254104E+02 -0.49729824597E+02  0.19495255288E+03  0.20395162711E+03  0.00000000000E+00 0. -1.
<scales pt_clust_5="13000.00000" pt_clust_6="13000.00000" pt_clust_7="13000.00000" pt_clust_8="13000.00000" pt_clust_9="59.91471"></scales>
<clustering>
<clus scale="   59.915">  2  9  1 -1</clus>
<clus scale="   84.734">  5  6 -1 -1</clus>
<clus scale="   91.537">  7  8 -1 -1</clus>
<clus scale="  114.629">  2  5  1 -1</clus>
<clus scale="   59.915">  2  5  1 -1</clus>
</clustering>
</event>
<event>
 9    2  0.1325014E-004  0.1046443E+03  0.7546771E-02  0.1275610E+00
          2   -1    0    0  502    0 -0.00000000000E+00  0.00000000000E+00  0.33254459931E+03  0.33254459931E+03  0.00000000000E+00 0. -1.
         21   -1    0    0  501  502  0.00000000000E+00 -0.00000000000E+00 -0.79594091890E+02  0.79594091890E+02  0.00000000000E+00 0.  1.
         24    2    1    2    0    0  0.14032279372E+02 -0.50958621221E+02  0.24767879428E+03  0.26469478622E+03  0.76973104226E+02 0.  0.
         23    2    1    2    0    0 -0.18706712741E+02  0.78448978085E+02  0.40306022267E+01  0.11953135576E+03  0.88132377655E+02 0.  0.
        -11    1    3    3    0    0 -0.15435080560E+02 -0.60156501432E+02  0.15357900331E+03  0.16566096895E+03  0.00000000000E+00 0.  1.
         12    1    3    3    0    0  0.29467359932E+02  0.91978802109E+01  0.94099790977E+02  0.99033817273E+02  0.00000000000E+00 0. -1.
        -13    1    4    4    0    0 -0.42575572111E+02  0.84691194892E+02  0.29926517078E+01  0.94837934378E+02  0.00000000000E+00 0.  1.
         13    1    4    4    0    0  0.23868859369E+02 -0.62422168067E+01  0.10379505189E+01  0.24693421381E+02  0.00000000000E+00 0. -1.
          1    1    1    2  501    0  0.46744333693E+01 -0.27490356864E+02  0.12411109132E+01  0.27912549223E+02  0.00000000000E+00 0. -1.
<scales pt_clust_5="13000.00000" pt_clust_6="13000.00000" pt_clust_7="13000.00000" pt_clust_8="13000.00000" pt_clust_9="27.88494"></scales>
<clustering>
<clus scale="   27.885">  2  9  1 -1</clus>
<clus scale="   76.973">  5  6 -1 -1</clus>
<clus scale="   88.132">  7  8 -1 -1</clus>
<clus scale="   95.436">  1  5  2 -1</clus>
<clus scale="   27.885">  2  5  1 -1</clus>
</clustering>
</event>
<event>
 9    2  0.1325014E-004  0.1437104E+03  0.7546771E-02  0.1209298E+00
          2   -1    0    0  502    0 -0.00000000000E+00  0.00000000000E+00  0.41125157947E+03  0.41125157947E+03  0.00000000000E+00 0. -1.
         21   -1    0    0  501  502  0.00000000000E+00 -0.00000000000E+00 -0.18752359891E+03  0.18752359891E+03  0.00000000000E+00 0. -1.
         24    2    1    2    0    0 -0.63615815308E+02  0.89407384091E+02  0.15721885752E+03  0.20778585150E+03  0.80103299786E+02 0.  0.
         23    2    1    2    0    0  0.12753530112E+03 -0.56599439458E+02  0.19041712341E+03  0.24775785528E+03  0.75209868946E+02 0.  0.
        -11    1    3    3    0    0 -0.35884336384E+02  0.75449959644E+02  0.15570351292E+03  0.17670304452E+03  0.00000000000E+00 0.  1.
         12    1    3    3    0    0 -0.27731478925E+02  0.13957424447E+02  0.15153446033E+01  0.31082806981E+02  0.00000000000E+00 0. -1.
        -13    1    4    4    0    0  0.11639595603E+03 -0.73234008804E+02  0.15615918832E+03  0.20807914533E+03  0.00000000000E+00 0. -1.
         13    1    4    4    0    0  0.11139345087E+02  0.16634569347E+02  0.34257935097E+02  0.39678709952E+02  0.00000000000E+00 0.  1.
          1    1    1    2  501    0 -0.63919485809E+02 -0.32807944633E+02 -0.12390800037E+03  0.14323147159E+03  0.00000000000E+00 0. -1.
<scales pt_clust_5="13000.00000" pt_clust_6="13000.00000" pt_clust_7="13000.00000" pt_clust_8="13000.00000" pt_clust_9="71.84749"></scales>
<clustering>
<clus scale="   71.847">  2  9  1 -1</clus>
<clus scale="   75.210">  7  8 -1 -1</clus>
<clus scale="   80.103">  5  6 -1 -1</clus>
<clus scale="  141.041">  2  7  1 -1</clus>
<clus scale="   71.847">  2  5  1 -1</clus>
</clustering>
</event>
<event>
 9    2  0.1325014E-004  0.1094573E+03  0.7546771E-02  0.1266594E+00
          2   -1    0    0  502    0 -0.00000000000E+00  0.00000000000E+00  0.29869565470E+03  0.29869565470E+03  0.00000000000E+00 0. -1.
         21   -1    0    0  501  502  0.00000000000E+00 -0.00000000000E+00 -0.63986912866E+02  0.63986912866E+02  0.00000000000E+00 0.  1.
         23    2    1    2    0    0  0.63217824967E+02  0.15694433551E+02  0.21162231616E+03  0.23946190286E+03  0.91187661357E+02 0.  0.
         24    2    1    2    0    0 -0.43907422580E+02 -0.26362383094E+02  0.32390209021E+02  0.99277875136E+02  0.78639264055E+02 0.  0.
        -13    1    4    4    0    0 -0.64689629853E+02 -0.16496186197E+02  0.36225698167E+02  0.75955076047E+02  0.00000000000E+00 0.  1.
         14    1    4    4    0    0  0.20782207274E+02 -0.98661968964E+01 -0.38354891459E+01  0.23322799089E+02  0.00000000000E+00 0. -1.
        -11    1    3    3    0    0  0.66327385594E+02 -0.51283337241E+01  0.20763770290E+03  0.21803448707E+03  0.00000000000E+00 0. -1.
         11    1    3    3    0    0 -0.31095606267E+01  0.20822767276E+02  0.39846132583E+01  0.21427415783E+02  0.00000000000E+00 0.  1.
          1    1    1    2  501    0 -0.19310402387E+02  0.10667949542E+02 -0.93037833514E+01  0.23942789571E+02  0.00000000000E+00 0. -1.
<scales pt_clust_5="13000.00000" pt_clust_6="13000.00000" pt_clust_7="13000.00000" pt_clust_8="13000.00000" pt_clust_9="22.06121"></scales>
<clustering>
<clus scale="   22.061">  2  9  1 -1</clus>
<clus scale="   78.639">  5  6 -1 -1</clus>
<clus scale="   91.188">  7  8 -1 -1</clus>
<clus scale="   99.246">  2  5  1 -1</clus>
<clus scale="   22.061">  2  5  1 -1</clus>
</clustering>
</event>
<event>
 9    2  0.1325014E-004  0.1079402E+03  0.7546771E-02  0.1267719E+00
         21   -1    0    0  501  502  0.00000000000E+00  0.00000000000E+00  0.53581080911E+03  0.53581080911E+03  0.00000000000E+00 0. -1.
          2   -1    0    0  502    0 -0.00000000000E+00 -0.00000000000E+00 -0.56712557518E+02  0.56712557518E+02  0.00000000000E+00 0. -1.
         23    2    1    2    0    0  0.40806030863E+02 -0.54037800918E+02  0.22423036961E+02  0.11548844841E+03  0.90827160293E+02 0.  0.
         24    2    1    2    0    0 -0.43204060282E+01  0.16284853118E+02  0.30752496383E+03  0.31891381526E+03  0.82768084641E+02 0.  0.
        -11    1    4    4    0    0  0.35970783080E+02 -0.21775221104E+01  0.18831038468E+03  0.19172751450E+03  0.00000000000E+00 0.  1.
         12    1    4    4    0    0 -0.40291189109E+02  0.18462375228E+02  0.11921457915E+03  0.12718630076E+03  0.00000000000E+00 0. -1.
        -11    1    3    3    0    0  0.22717948243E+02  0.22575052610E+02 -0.43931869271E+01  0.32327051584E+02  0.00000000000E+00 0.  1.
         11    1    3    3    0    0  0.18088082620E+02 -0.76612853528E+02  0.26816223888E+02  0.83161396827E+02  0.00000000000E+00 0. -1.
          1    1    1    2  501    0 -0.36485624834E+02  0.37752947800E+02  0.14915025080E+03  0.15812110296E+03  0.00000000000E+00 0. -1.
<scales pt_clust_5="13000.00000" pt_clust_6="13000.00000" pt_clust_7="13000.00000" pt_clust_8="13000.00000" pt_clust_9="52.50225"></scales>
<clustering>
<clus scale="   52.502">  1  9  2 -1</clus>
<clus scale="   82.768">  5  6 -1 -1</clus>
<clus scale="   90.827">  7  8 -1 -1</clus>
<clus scale="  101.252">  1  5  2 -1</clus>
<clus scale="   52.502">  1  5  2 -1</clus>
</clustering>
</event>
<event>
 9    2  0.1325014E-004  0.1380980E+03  0.7546771E-02  0.1230435E+00
         21   -1    0    0  501  502  0.00000000000E+00  0.00000000000E+00  0.38421563317E+03  0.38421563317E+03  0.00000000000E+00 0. -1.
         -3   -1    0    0    0  501 -0.00000000000E+00 -0.00000000000E+00 -0.16900012707E+03  0.16900012707E+03  0.00000000000E+00 0.  1.
         23    2    1    2    0    0  0.17120373217E+02 -0.44706831671E+02 -0.10313903655E+03  0.14503217113E+03  0.90027006084E+02 0.  0.
         24    2    1    2    0    0 -0.12124815299E+03  0.23660624959E+02  0.17086761338E+03  0.22642019444E+03  0.82519230309E+02 0.  0.
        -11    1    4    4    0    0 -0.42595779415E+02 -0.67969997195E+01  0.92461558540E+01  0.44114521727E+02  0.00000000000E+00 0.  1.
         12    1    4    4    0    0 -0.78652373577E+02  0.30457624678E+02  0.16162145753E+03  0.18230567271E+03  0.00000000000E+00 0. -1.
        -11    1    3    3    0    0 -0.36331982449E+02 -0.20760041493E+02 -0.55655197989E+02  0.69631123319E+02  0.00000000000E+00 0. -1.
         11    1    3    3    0    0  0.53452355667E+02 -0.23946790178E+02 -0.47483838562E+02  0.75401047809E+02  0.00000000000E+00 0.  1.
         -4    1    1    2    0  502  0.10412777977E+03  0.21046206712E+02  0.14748692926E+03  0.18176339467E+03  0.00000000000E+00 0.  1.
<scales pt_clust_5="13000.00000" pt_clust_6="13000.00000" pt_clust_7="13000.00000" pt_clust_8="13000.00000" pt_clust_9="110.73228"></scales>
<clustering>
<clus scale="   82.519">  5  6 -1 -1</clus>
<clus scale="   90.027">  7  8 -1 -1</clus>
<clus scale="  101.964">  2  7  1 -1</clus>
<clus scale="  110.732">  1  9  2 -1</clus>
<clus scale="  110.732">  1  5  2 -1</clus>
</clustering>
</event>
<event>
 9    2  0.1325014E-004  0.1042205E+03  0.7546771E-02  0.1275689E+00
         21   -1    0    0  501  502  0.00000000000E+00  0.00000000000E+00  0.10645566167E+03  0.10645566167E+03  0.00000000000E+00 0.  1.
          2   -1    0    0  502    0 -0.00000000000E+00 -0.00000000000E+00 -0.32726465285E+03  0.32726465285E+03  0.00000000000E+00 0. -1.
         23    2    1    2    0    0  0.11499457085E+02  0.54598622489E+02 -0.27695887355E+03  0.29652679122E+03  0.90048171453E+02 0.  0.
         24    2    1    2    0    0 -0.28626506423E+02 -0.25256533776E+02  0.30216244692E+02  0.94451886074E+02  0.80936814685E+02 0.  0.
        -11    1    4    4    0    0 -0.38881022399E+02 -0.20698459288E+02  0.53084165961E+02  0.68978901089E+02  0.00000000000E+00 0.  1.
         12    1    4    4    0    0  0.10254515976E+02 -0.45580744876E+01 -0.22867921268E+02  0.25472984985E+02  0.00000000000E+00 0. -1.
        -13    1    3    3    0    0 -0.21466644849E+02  0.12372154906E+02 -0.14608384913E+02  0.28762683600E+02  0.00000000000E+00 0.  1.
         13    1    3    3    0    0  0.32966101934E+02  0.42226467584E+02 -0.26235048864E+03  0.26776410762E+03  0.00000000000E+00 0. -1.
          1    1    1    2  501    0  0.17127049338E+02 -0.29342088714E+02  0.25933637680E+02  0.42741637222E+02  0.00000000000E+00 0. -1.
<scales pt_clust_5="13000.00000" pt_clust_6="13000.00000" pt_clust_7="13000.00000" pt_clust_8="13000.00000" pt_clust_9="33.97490"></scales>
<clustering>
<clus scale="   33.975">  1  9  2 -1</clus>
<clus scale="   80.937">  5  6 -1 -1</clus>
<clus scale="   90.048">  7  8 -1 -1</clus>
<clus scale="   96.457">  1  5  2 -1</clus>
<clus scale="   33.975">  1  5  2 -1</clus>
</clustering>
</event>
<event>
 9    2  0.1325014E-004  0.1854354E+03  0.7546771E-02  0.1163839E+00
         21   -1    0    0  501  502  0.00000000000E+00  0.00000000000E+00  0.24654999275E+03  0.24654999275E+03  0.00000000000E+00 0. -1.
          2   -1    0    0  502    0 -0.00000000000E+00 -0.00000000000E+00 -0.33396116869E+03  0.33396116869E+03  0.00000000000E+00 0. -1.
         24    2    1    2    0    0 -0.79675795210E+02  0.15424874788E+03 -0.23941898342E+03  0.30661896903E+03  0.80949576786E+02 0.  0.
         23    2    1    2    0    0  0.89623952039E+02 -0.80102441763E+02  0.84823610643E+02  0.17334192219E+03  0.91670732028E+02 0.  0.
        -13    1    3    3    0    0  0.14247341333E+02  0.37074801328E+02 -0.34795265805E+02  0.52803770235E+02  0.00000000000E+00 0.  1.
         14    1    3    3    0    0 -0.93923136543E+02  0.11717394656E+03 -0.20462371761E+03  0.25381519879E+03  0.00000000000E+00 0. -1.
        -11    1    4    4    0    0  0.55066281046E+02 -0.96823129613E+02  0.52423248726E+02  0.12310650163E+03  0.00000000000E+00 0.  1.
         11    1    4    4    0    0  0.34557670993E+02  0.16720687850E+02  0.32400361918E+02  0.50235420562E+02  0.00000000000E+00 0. -1.
          1    1    1    2  501    0 -0.99481568291E+01 -0.74146306122E+02  0.67184196832E+02  0.10055027021E+03  0.00000000000E+00 0. -1.
<scales pt_clust_5="13000.00000" pt_clust_6="13000.00000" pt_clust_7="13000.00000" pt_clust_8="13000.00000" pt_clust_9="74.81070"></scales>
<clustering>
<clus scale="   74.811">  1  9  2 -1</clus>
<clus scale="   80.950">  5  6 -1 -1</clus>
<clus scale="   91.671">  7  8 -1 -1</clus>
<clus scale="  180.376">  2  5  1 -1</clus>
<clus scale="   74.811">  1  5  2 -1</clus>
</clustering>
</event>
<event>
 9    2  0.1772691E-004  0.9864532E+02  0.7546771E-02  0.1288050E+00
         -3   -1    0    0    0  501 -0.00000000000E+00  0.00000000000E+00  0.18171877218E+03  0.18171877218E+03  0.00000000000E+00 0.  1.
         21   -1    0    0  501  502  0.00000000000E+00 -0.00000000000E+00 -0.22474269672E+03  0.22474269672E+03  0.00000000000E+00 0. -1.
         23    2    1    2    0    0  0.18742921047E+02 -0.27151949407E+02  0.13972433398E+03  0.17049305027E+03  0.91959041084E+02 0.  0.
         24    2    1    2    0    0 -0.36261810966E+02  0.38136391565E+02 -0.67640012844E+02  0.11901766960E+03  0.82587717274E+02 0.  0.
        -11    1    4    4    0    0  0.18445669583E+02  0.21005201968E+02  0.29181218729E+01  0.28106523644E+02  0.00000000000E+00 0.  1.
         12    1    4    4    0    0 -0.54707480550E+02  0.17131189597E+02 -0.70558134717E+02  0.90911145961E+02  0.00000000000E+00 0. -1.
        -13    1    3    3    0    0 -0.28605204494E+02 -0.21165973551E+02  0.18274495284E+02  0.40002666641E+02  0.00000000000E+00 0. -1.
         13    1    3    3    0    0  0.47348125541E+02 -0.59859758560E+01  0.12144983870E+03  0.13049038363E+03  0.00000000000E+00 0.  1.
         -4    1    1    2    0  502  0.17518889919E+02 -0.10984442158E+02 -0.11510824568E+03  0.11695074902E+03  0.00000000000E+00 0.  1.
<scales pt_clust_5="13000.00000" pt_clust_6="13000.00000" pt_clust_7="13000.00000" pt_clust_8="13000.00000" pt_clust_9="20.67775"></scales>
<clustering>
<clus scale="   20.678">  2  9  1 -1</clus>
<clus scale="   82.588">  5  6 -1 -1</clus>
<clus scale="   89.973">  2  5  1 -1</clus>
<clus scale="   91.959">  7  8 -1 -1</clus>
<clus scale="   20.678">  2  5  1 -1</clus>
</clustering>
</event>
<event>
 9    2  0.1325014E-004  0.2679219E+03  0.7546771E-02  0.1134029E+00
          2   -1    0    0  502    0 -0.00000000000E+00  0.00000000000E+00  0.20114410488E+03  0.20114410488E+03  0.00000000000E+00 0. -1.
         21   -1    0    0  501  502  0.00000000000E+00 -0.00000000000E+00 -0.53626569228E+03  0.53626569228E+03  0.00000000000E+00 0. -1.
         23    2    1    2    0    0 -0.70535893019E+02 -0.79180273488E+02 -0.62436112328E+02  0.13649024005E+03  0.59046503647E+02 0.  0.
         24    2    1    2    0    0  0.17005549292E+03 -0.17530750678E+03 -0.92229592278E+02  0.27345580841E+03  0.81364542985E+02 0.  0.
        -11    1    4    4    0    0  0.80646725066E+02 -0.43161494131E+02 -0.63469092727E+02  0.11133343869E+03  0.00000000000E+00 0.  1.
         12    1    4    4    0    0  0.89408767858E+02 -0.13214601265E+03 -0.28760499551E+02  0.16212236972E+03  0.00000000000E+00 0. -1.
        -11    1    3    3    0    0 -0.26269487923E+02 -0.31246167426E+02  0.67665924967E+01  0.41378687130E+02  0.00000000000E+00 0. -1.
         11    1    3    3    0    0 -0.44266405096E+02 -0.47934106061E+02 -0.69202704824E+02  0.95111552921E+02  0.00000000000E+00 0.  1.
          1    1    1    2  501    0 -0.99519599905E+02  0.25448778027E+03 -0.18045588280E+03  0.32746374869E+03  0.00000000000E+00 0. -1.
<scales pt_clust_5="13000.00000" pt_clust_6="13000.00000" pt_clust_7="13000.00000" pt_clust_8="13000.00000" pt_clust_9="255.26843"></scales>
<clustering>
<clus scale="   59.047">  7  8 -1 -1</clus>
<clus scale="   81.365">  5  6 -1 -1</clus>
<clus scale="  121.373">  1  7  2 -1</clus>
<clus scale="  255.268">  2  9  1 -1</clus>
<clus scale="  255.268">  2  5  1 -1</clus>
</clustering>
</event>
<event>
 9    2  0.1325014E-004  0.1392960E+03  0.7546771E-02  0.1215060E+00
          2   -1    0    0  502    0 -0.00000000000E+00  0.00000000000E+00  0.61716108679E+03  0.61716108679E+03  0.00000000000E+00 0. -1.
         21   -1    0    0  501  502  0.00000000000E+00 -0.00000000000E+00 -0.69538938179E+02  0.69538938179E+02  0.00000000000E+00 0.  1.
         23    2    1    2    0    0 -0.52915872294E+02  0.80054910227E+02  0.15493302439E+03  0.20101246948E+03  0.84810922936E+02 0.  0.
         24    2    1    2    0    0  0.11317743098E+03 -0.86217215125E+02  0.11158129677E+03  0.19812705730E+03  0.81002506016E+02 0.  0.
        -11    1    4    4    0    0  0.10212406090E+03 -0.10184719022E+03  0.10247946578E+03  0.17692997168E+03  0.00000000000E+00 0.  1.
         12    1    4    4    0    0  0.11053370079E+02  0.15629975100E+02  0.91018309866E+01  0.21197085626E+02  0.00000000000E+00 0. -1.
        -13    1    3    3    0    0 -0.64082578434E+02  0.26218621094E+02  0.61529029017E+02  0.92627287354E+02  0.00000000000E+00 0.  1.
         13    1    3    3    0    0  0.11166706140E+02  0.53836289134E+02  0.93403995368E+02  0.10838518213E+03  0.00000000000E+00 0. -1.
          1    1    1    2  501    0 -0.60261558688E+02  0.61623048982E+01  0.28110782746E+03  0.28756049818E+03  0.00000000000E+00 0. -1.
<scales pt_clust_5="13000.00000" pt_clust_6="13000.00000" pt_clust_7="13000.00000" pt_clust_8="13000.00000" pt_clust_9="60.57585"></scales>
<clustering>
<clus scale="   60.576">  2  9  1 -1</clus>
<clus scale="   81.003">  5  6 -1 -1</clus>
<clus scale="   84.811">  7  8 -1 -1</clus>
<clus scale="  137.010">  2  5  1 -1</clus>
<clus scale="   60.576">  2  5  1 -1</clus>
</clustering>
</event>
<event>
 9    2  0.1325014E-004  0.1488401E+03  0.7546771E-02  0.1204072E+00
          2   -1    0    0  502    0 -0.00000000000E+00  0.00000000000E+00  0.53936452090E+03  0.53936452090E+03  0.00000000000E+00 0. -1.
         21   -1    0    0  501  502  0.00000000000E+00 -0.00000000000E+00 -0.18322327916E+03  0.18322327916E+03  0.00000000000E+00 0. -1.
         23    2    1    2    0    0  0.13935401894E+03 -0.35280502988E+02  0.35106188077E+03  0.39125292020E+03  0.95760884253E+02 0.  0.
         24    2    1    2    0    0 -0.77869213091E+02 -0.57281723418E+02  0.11683245122E+03  0.17373760739E+03  0.84794601122E+02 0.  0.
        -11    1    4    4    0    0 -0.23430010665E+02 -0.13819746843E+02  0.97816414027E+02  0.10152832933E+03  0.00000000000E+00 0.  1.
         12    1    4    4    0    0 -0.54439202427E+02 -0.43461976575E+02  0.19016037195E+02  0.72209278069E+02  0.00000000000E+00 0. -1.
        -13    1    3    3    0    0  0.39989508652E+02  0.34493143046E+01  0.21325854404E+03  0.21700291513E+03  0.00000000000E+00 0. -1.
         13    1    3    3    0    0  0.99364510290E+02 -0.38729817293E+02  0.13780333673E+03  0.17425000507E+03  0.00000000000E+00 0.  1.
          1    1    1    2  501    0 -0.61484805851E+02  0.92562226406E+02 -0.11175309024E+03  0.15759727246E+03  0.00000000000E+00 0. -1.
<scales pt_clust_5="13000.00000" pt_clust_6="13000.00000" pt_clust_7="13000.00000" pt_clust_8="13000.00000" pt_clust_9="111.12222"></scales>
<clustering>
<clus scale="   84.795">  5  6 -1 -1</clus>
<clus scale="   95.761">  7  8 -1 -1</clus>
<clus scale="  111.122">  2  9  1 -1</clus>
<clus scale="  142.033">  2  5  1 -1</clus>
<clus scale="  111.122">  2  5  1 -1</clus>
</clustering>
</event>
<event>
 9    2  0.1325014E-004  0.1406204E+03  0.7546771E-02  0.1213883E+00
         -1   -1    0    0    0  501 -0.00000000000E+00  0.00000000000E+00  0.48405570378E+03  0.48405570378E+03  0.00000000000E+00 0.  1.
         21   -1    0    0  501  502  0.00000000000E+00 -0.00000000000E+00 -0.26002516124E+03  0.26002516124E+03  0.00000000000E+00 0.  1.
         24    2    1    2    0    0  0.19417940714E+02 -0.10013247177E+03  0.37898296822E+03  0.40127727367E+03  0.83616935122E+02 0.  0.
         23    2    1    2    0    0 -0.27172894931E+02  0.19032307872E+03 -0.86329555838E+02  0.22920965153E+03  0.90127862683E+02 0.  0.
        -11    1    3    3    0    0  0.16764161080E+02 -0.11512310207E+03  0.32528597130E+03  0.34546393278E+03  0.00000000000E+00 0.  1.
         12    1    3    3    0    0  0.26537796346E+01  0.14990630301E+02  0.53696996919E+02  0.55813340890E+02  0.00000000000E+00 0. -1.
        -13    1    4    4    0    0 -0.70498534155E+01  0.19194902687E+03 -0.76452506727E+02  0.20673440723E+03  0.00000000000E+00 0.  1.
         13    1    4    4    0    0 -0.20123041515E+02 -0.16259481478E+01 -0.98770491106E+01  0.22475244300E+02  0.00000000000E+00 0. -1.
         -2    1    1    2    0  502  0.77549542164E+01 -0.90190606950E+02 -0.68622869849E+02  0.11359393982E+03  0.00000000000E+00 0.  1.
<scales pt_clust_5="13000.00000" pt_clust_6="13000.00000" pt_clust_7="13000.00000" pt_clust_8="13000.00000" pt_clust_9="90.52339"></scales>
<clustering>
<clus scale="   83.617">  5  6 -1 -1</clus>
<clus scale="   90.128">  7  8 -1 -1</clus>
<clus scale="   90.523">  2  9  1 -1</clus>
<clus scale="  136.539">  1  5  2 -1</clus>
<clus scale="   90.523">  2  5  1 -1</clus>
</clustering>
</event>
<event>
 9    2  0.1325014E-004  0.1912303E+03  0.7546771E-02  0.1158397E+00
          4   -1    0    0  502    0 -0.00000000000E+00  0.00000000000E+00  0.46981662474E+03  0.46981662474E+03  0.00000000000E+00 0. -1.
         21   -1    0    0  501  502  0.00000000000E+00 -0.00000000000E+00 -0.11981604051E+03  0.11981604051E+03  0.00000000000E+00 0.  1.
         23    2    1    2    0    0  0.17218273076E+03  0.21775183144E+02  0.27029623156E+03  0.33356876892E+03  0.89927856811E+02 0.  0.
         24    2    1    2    0    0 -0.15855620474E+03  0.16691696440E+02  0.14094524891E+02  0.17879791068E+03  0.79695385329E+02 0.  0.
        -11    1    4    4    0    0 -0.16568698379E+03  0.23760545212E+02  0.92181285740E+01  0.16763565850E+03  0.00000000000E+00 0.  1.
         12    1    4    4    0    0  0.71307790515E+01 -0.70688487719E+01  0.48763963165E+01  0.11162252187E+02  0.00000000000E+00 0. -1.
        -11    1    3    3    0    0  0.30030958192E+02  0.42176820133E+02  0.67350207855E+02  0.84951710427E+02  0.00000000000E+00 0. -1.
         11    1    3    3    0    0  0.14215177257E+03 -0.20401636989E+02  0.20294602370E+03  0.24861705849E+03  0.00000000000E+00 0.  1.
          3    1    1    2  501    0 -0.13626526020E+02 -0.38466879584E+02  0.65609827785E+02  0.77265985649E+02  0.00000000000E+00 0. -1.
<scales pt_clust_5="13000.00000" pt_clust_6="13000.00000" pt_clust_7="13000.00000" pt_clust_8="13000.00000" pt_clust_9="40.80913"></scales>
<clustering>
<clus scale="   40.809">  2  9  1 -1</clus>
<clus scale="   79.695">  5  6 -1 -1</clus>
<clus scale="   89.928">  7  8 -1 -1</clus>
<clus scale="  186.637">  2  5  1 -1</clus>
<clus scale="   40.809">  2  5  1 -1</clus>
</clustering>
</event>
<event>
 9    2  0.1325014E-004  0.1454929E+03  0.7546771E-02  0.1219092E+00
         21   -1    0    0  501  502  0.00000000000E+00  0.00000000000E+00  0.12955772038E+03  0.12955772038E+03  0.00000000000E+00 0.  1.
          2   -1    0    0  502    0 -0.00000000000E+00 -0.00000000000E+00 -0.42102758308E+03  0.42102758308E+03  0.00000000000E+00 0. -1.
         23    2    1    2    0    0 -0.26412590323E+02  0.56900905767E+02 -0.23293474914E+03  0.25778703610E+03  0.90885755843E+02 0.  0.
         24    2    1    2    0    0 -0.11963582696E+03 -0.45441280616E+02 -0.26484331460E+02  0.14283588598E+03  0.57645723471E+02 0.  0.
        -11    1    4    4    0    0 -0.90324262051E+02 -0.33446187146E+02  0.72177371537E+01  0.96587864037E+02  0.00000000000E+00 0.  1.
         12    1    4    4    0    0 -0.29311564907E+02 -0.11995093469E+02 -0.33702068613E+02  0.46248021941E+02  0.00000000000E+00 0. -1.
        -13    1    3    3    0    0  0.10116757722E+02  0.70658027122E+02 -0.14817434708E+03  0.16447049193E+03  0.00000000000E+00 0. -1.
         13    1    3    3    0    0 -0.36529348045E+02 -0.13757121355E+02 -0.84760402067E+02  0.93316544166E+02  0.00000000000E+00 0.  1.
          1    1    1    2  501    0  0.14604841728E+03 -0.11459625152E+02 -0.32050782100E+02  0.14996238139E+03  0.00000000000E+00 0. -1.
<scales pt_clust_5="13000.00000" pt_clust_6="13000.00000" pt_clust_7="13000.00000" pt_clust_8="13000.00000" pt_clust_9="133.58587"></scales>
<clustering>
<clus scale="   57.646">  5  6 -1 -1</clus>
<clus scale="   90.886">  7  8 -1 -1</clus>
<clus scale="  110.434">  2  7  1 -1</clus>
<clus scale="  133.586">  1  9  2 -1</clus>
<clus scale="  133.586">  1  5  2 -1</clus>
</clustering>
</event>
<event>
 9    2  0.1325014E-004  0.3569718E+03  0.7546771E-02  0.1059789E+00
          2   -1    0    0  502    0 -0.00000000000E+00  0.00000000000E+00  0.10609413990E+04  0.10609413990E+04  0.00000000000E+00 0. -1.
         21   -1    0    0  501  502  0.00000000000E+00 -0.00000000000E+00 -0.15584939126E+03  0.15584939126E+03  0.00000000000E+00 0. -1.
         24    2    1    2    0    0 -0.11613212904E+03  0.12487197558E+03  0.31351836941E+03  0.36577585809E+03  0.80115720841E+02 0.  0.
         23    2    1    2    0    0 -0.79840729557E+02  0.79206246421E+02  0.54535551941E+03  0.56432800099E+03  0.91680306426E+02 0.  0.
        -13    1    3    3    0    0 -0.12939108842E+02  0.22366851087E+02  0.12513486838E+03  0.12777492653E+03  0.00000000000E+00 0.  1.
         14    1    3    3    0    0 -0.10319302020E+03  0.10250512450E+03  0.18838350103E+03  0.23800093157E+03  0.00000000000E+00 0. -1.
        -13    1    4    4    0    0  0.18541500002E+02  0.19376077620E+02  0.15654050338E+03  0.15882112203E+03  0.00000000000E+00 0.  1.
         13    1    4    4    0    0 -0.98382229559E+02  0.59830168801E+02  0.38881501603E+03  0.40550687896E+03  0.00000000000E+00 0. -1.
          1    1    1    2  501    0  0.19597285860E+03 -0.20407822201E+03  0.46218118956E+02  0.28668693121E+03  0.00000000000E+00 0. -1.
<scales pt_clust_5="13000.00000" pt_clust_6="13000.00000" pt_clust_7="13000.00000" pt_clust_8="13000.00000" pt_clust_9="282.93689"></scales>
<clustering>
<clus scale="   80.116">  5  6 -1 -1</clus>
<clus scale="   91.680">  7  8 -1 -1</clus>
<clus scale="  142.034">  5  7 -1 -1</clus>
<clus scale="  282.937">  2  9  1 -1</clus>
<clus scale="  282.937">  2  5  1 -1</clus>
</clustering>
</event>
<event>
 9    2  0.1325014E-004  0.9474845E+02  0.7546771E-02  0.1297921E+00
         21   -1    0    0  501  502  0.00000000000E+00  0.00000000000E+00  0.63514112162E+02  0.63514112162E+02  0.00000000000E+00 0.  1.
          2   -1    0    0  502    0 -0.00000000000E+00 -0.00000000000E+00 -0.25751810768E+03  0.25751810768E+03  0.00000000000E+00 0. -1.
         24    2    1    2    0    0  0.25572198610E+02  0.29350769585E+01 -0.11587530308E+03  0.14304340714E+03  0.79823420400E+02 0.  0.
         23    2    1    2    0    0 -0.34551819994E+02  0.19811385649E+02 -0.30657368644E+01  0.99042739582E+02  0.90629720595E+02 0.  0.
        -13    1    3    3    0    0 -0.17946460910E+02  0.26709947275E+02 -0.61778557524E+02  0.69656922932E+02  0.00000000000E+00 0.  1.
         14    1    3    3    0    0  0.43518659519E+02 -0.23774870316E+02 -0.54096745559E+02  0.73386484212E+02  0.00000000000E+00 0. -1.
        -11    1    4    4    0    0 -0.34979656536E+02 -0.31843190940E+02 -0.28000222190E+01  0.47385707814E+02  0.00000000000E+00 0. -1.
         11    1    4    4    0    0  0.42783654210E+00  0.51654576590E+02 -0.26571464537E+00  0.51657031768E+02  0.00000000000E+00 0.  1.
          1    1    1    2  501    0  0.89796213841E+01 -0.22746462608E+02 -0.75062955570E+02  0.78946073115E+02  0.00000000000E+00 0. -1.
<scales pt_clust_5="13000.00000" pt_clust_6="13000.00000" pt_clust_7="13000.00000" pt_clust_8="13000.00000" pt_clust_9="24.45477"></scales>
<clustering>
<clus scale="   24.455">  1  9  2 -1</clus>
<clus scale="   79.823">  5  6 -1 -1</clus>
<clus scale="   84.471">  2  5  1 -1</clus>
<clus scale="   90.630">  7  8 -1 -1</clus>
<clus scale="   24.455">  1  5  2 -1</clus>
</clustering>
</event>
<event>
 9    2  0.1325014E-004  0.8465329E+02  0.7546771E-02  0.1326819E+00
         -1   -1    0    0    0  501 -0.00000000000E+00  0.00000000000E+00  0.86933862577E+02  0.86933862577E+02  0.00000000000E+00 0.  1.
         21   -1    0    0  501  502  0.00000000000E+00 -0.00000000000E+00 -0.13276938206E+03  0.13276938206E+03  0.00000000000E+00 0. -1.
         23    2    1    2    0    0 -0.21928998173E+01  0.20805772767E+02  0.16184720674E+02  0.69624669289E+02  0.64404661324E+02 0.  0.
         24    2    1    2    0    0  0.10684717012E+02 -0.51688260194E+02 -0.68078198936E+02  0.11748198269E+03  0.79884514556E+02 0.  0.
        -11    1    4    4    0    0 -0.19894800193E+02 -0.56921734335E+02 -0.60769640033E+02  0.85608621436E+02  0.00000000000E+00 0.  1.
         12    1    4    4    0    0  0.30579517205E+02  0.52334741410E+01 -0.73085589032E+01  0.31873361249E+02  0.00000000000E+00 0. -1.
        -11    1    3    3    0    0 -0.18705033320E+02 -0.97880337362E+01 -0.12516381024E+02  0.24542690763E+02  0.00000000000E+00 0.  1.
         11    1    3    3    0    0  0.16512133503E+02  0.30593806503E+02  0.28701101698E+02  0.45081978526E+02  0.00000000000E+00 0. -1.
         -2    1    1    2    0  502 -0.84918171946E+01  0.30882487427E+02  0.60579587752E+01  0.32596592667E+02  0.00000000000E+00 0.  1.
<scales pt_clust_5="13000.00000" pt_clust_6="13000.00000" pt_clust_7="13000.00000" pt_clust_8="13000.00000" pt_clust_9="32.02874"></scales>
<clustering>
<clus scale="   32.029">  2  9  1 -1</clus>
<clus scale="   64.405">  7  8 -1 -1</clus>
<clus scale="   70.232">  1  7  2 -1</clus>
<clus scale="   79.885">  5  6 -1 -1</clus>
<clus scale="   32.029">  2  5  1 -1</clus>
</clustering>
</event>
<event>
 9    2  0.1325014E-004  0.3169903E+03  0.7546771E-02  0.1109067E+00
          2   -1    0    0  502    0 -0.00000000000E+00  0.00000000000E+00  0.35160147500E+03  0.35160147500E+03  0.00000000000E+00 0. -1.
         21   -1    0    0  501  502  0.00000000000E+00 -0.00000000000E+00 -0.43376604097E+03  0.43376604097E+03  0.00000000000E+00 0. -1.
         24    2    1    2    0    0 -0.23517991619E+02  0.10842630711E+03 -0.11141025855E+02  0.13703693527E+03  0.79659520254E+02 0.  0.
         23    2    1    2    0    0 -0.11476735693E+03 -0.34147780688E+03 -0.16701082972E+02  0.37194901743E+03  0.91041235604E+02 0.  0.
        -11    1    3    3    0    0  0.27305847654E+02  0.41149809141E+02  0.93595051715E+01  0.50264465037E+02  0.00000000000E+00 0.  1.
         12    1    3    3    0    0 -0.50823839273E+02  0.67276497971E+02 -0.20500531027E+02  0.86772470232E+02  0.00000000000E+00 0. -1.
        -11    1    4    4    0    0 -0.60386518972E+02 -0.60873246242E+02 -0.45921053958E+01  0.85867171921E+02  0.00000000000E+00 0.  1.
         11    1    4    4    0    0 -0.54380837962E+02 -0.28060456064E+03 -0.12108977576E+02  0.28608184551E+03  0.00000000000E+00 0. -1.
          1    1    1    2  501    0  0.13828534855E+03  0.23305149977E+03 -0.54322457143E+02  0.27638156328E+03  0.00000000000E+00 0. -1.
<scales pt_clust_5="13000.00000" pt_clust_6="13000.00000" pt_clust_7="13000.00000" pt_clust_8="13000.00000" pt_clust_9="303.63523"></scales>
<clustering>
<clus scale="   79.660">  5  6 -1 -1</clus>
<clus scale="   91.041">  7  8 -1 -1</clus>
<clus scale="  136.583">  1  5  2 -1</clus>
<clus scale="  303.635">  2  9  1 -1</clus>
<clus scale="  303.635">  2  5  1 -1</clus>
</clustering>
</event>
<event>
 9    2  0.1860888E-004  0.9265744E+02  0.7546771E-02  0.1300564E+00
         -1   -1    0    0    0  501 -0.00000000000E+00  0.00000000000E+00  0.10454070068E+03  0.10454070068E+03  0.00000000000E+00 0.  1.
         21   -1    0    0  501  502  0.00000000000E+00 -0.00000000000E+00 -0.52768037978E+03  0.52768037978E+03  0.00000000000E+00 0.  1.
         23    2    1    2    0    0 -0.14624246123E+02  0.65263652781E+01  0.70196175060E+02  0.11617013360E+03  0.91167619963E+02 0.  0.
         24    2    1    2    0    0  0.37601462091E+02  0.22639276029E+02 -0.44523449738E+03  0.45528642094E+03  0.84413036123E+02 0.  0.
        -13    1    4    4    0    0  0.58564962261E+01  0.51723552469E+02 -0.24971596453E+03  0.25508368699E+03  0.00000000000E+00 0.  1.
         14    1    4    4    0    0  0.31744965865E+02 -0.29084276440E+02 -0.19551853284E+03  0.20020273395E+03  0.00000000000E+00 0. -1.
        -11    1    3    3    0    0  0.23256758716E+02  0.55376036171E+01 -0.11188770231E+02  0.26395652277E+02  0.00000000000E+00 0.  1.
         11    1    3    3    0    0 -0.37881004839E+02  0.98876166104E+00  0.81384945291E+02  0.89774481326E+02  0.00000000000E+00 0. -1.
         -2    1    1    2    0  502 -0.22977215968E+02 -0.29165641307E+02 -0.48101356776E+02  0.60764525919E+02  0.00000000000E+00 0.  1.
<scales pt_clust_5="13000.00000" pt_clust_6="13000.00000" pt_clust_7="13000.00000" pt_clust_8="13000.00000" pt_clust_9="37.12933"></scales>
<clustering>
<clus scale="   37.129">  2  9  1 -1</clus>
<clus scale="   84.413">  5  6 -1 -1</clus>
<clus scale="   86.020">  2  5  1 -1</clus>
<clus scale="   91.168">  7  8 -1 -1</clus>
<clus scale="   37.129">  2  5  1 -1</clus>
</clustering>
</event>
<event>
 9    2  0.1325014E-004  0.1130166E+03  0.7546771E-02  0.1258899E+00
         21   -1    0    0  501  502  0.00000000000E+00  0.00000000000E+00  0.69437273081E+02  0.69437273081E+02  0.00000000000E+00 0.  1.
         -1   -1    0    0    0  501 -0.00000000000E+00 -0.00000000000E+00 -0.21092832375E+03  0.21092832375E+03  0.00000000000E+00 0.  1.
         23    2    1    2    0    0 -0.31694094067E+02 -0.64065383629E+02 -0.75199066006E+02  0.13747166203E+03  0.90192401867E+02 0.  0.
         24    2    1    2    0    0  0.44363112786E+02  0.48550370121E+02 -0.42284368423E+02  0.11162757401E+03  0.79671345238E+02 0.  0.
        -13    1    4    4    0    0  0.35390107460E+02 -0.81057389278E+01  0.58132611749E+01  0.36768964020E+02  0.00000000000E+00 0.  1.
         14    1    4    4    0    0  0.89730053266E+01  0.56656109048E+02 -0.48097629598E+02  0.74858609993E+02  0.00000000000E+00 0. -1.
        -13    1    3    3    0    0 -0.21014060773E+02 -0.24304907296E+02  0.17107315605E+02  0.36400268077E+02  0.00000000000E+00 0. -1.
         13    1    3    3    0    0 -0.10680033295E+02 -0.39760476332E+02 -0.92306381611E+02  0.10107139395E+03  0.00000000000E+00 0.  1.
         -2    1    1    2    0  502 -0.12669018719E+02  0.15515013508E+02 -0.24007616238E+02  0.31266360788E+02  0.00000000000E+00 0.  1.
<scales pt_clust_5="13000.00000" pt_clust_6="13000.00000" pt_clust_7="13000.00000" pt_clust_8="13000.00000" pt_clust_9="20.03048"></scales>
<clustering>
<clus scale="   20.030">  1  9  2 -1</clus>
<clus scale="   79.671">  5  6 -1 -1</clus>
<clus scale="   90.192">  7  8 -1 -1</clus>
<clus scale="  104.812">  1  5  2 -1</clus>
<clus scale="   20.030">  1  5  2 -1</clus>
</clustering>
</event>
<event>
 9    2  0.1325014E-004  0.2470741E+03  0.7546771E-02  0.1144739E+00
          2   -1    0    0  502    0 -0.00000000000E+00  0.00000000000E+00  0.16594051678E+04  0.16594051678E+04  0.00000000000E+00 0. -1.
         21   -1    0    0  501  502  0.00000000000E+00 -0.00000000000E+00 -0.66498273109E+02  0.66498273109E+02  0.00000000000E+00 0. -1.
         23    2    1    2    0    0 -0.16783031459E+02 -0.74613232664E+02  0.19004654183E+03  0.22449113919E+03  0.91813827286E+02 0.  0.
         24    2    1    2    0    0 -0.21701702917E+03  0.95609101015E+02  0.40306260169E+03  0.47442698630E+03  0.79900020646E+02 0.  0.
        -11    1    4    4    0    0 -0.41362484174E+02 -0.13174634100E+02  0.77772520323E+02  0.89067339682E+02  0.00000000000E+00 0.  1.
         12    1    4    4    0    0 -0.17565454500E+03  0.10878373511E+03  0.32529008137E+03  0.38535964662E+03  0.00000000000E+00 0. -1.
        -13    1    3    3    0    0  0.33995327532E+01 -0.37334493614E+02  0.90084313966E+01  0.38556102923E+02  0.00000000000E+00 0.  1.
         13    1    3    3    0    0 -0.20182564212E+02 -0.37278739050E+02  0.18103811043E+03  0.18593503627E+03  0.00000000000E+00 0. -1.
          1    1    1    2  501    0  0.23380006063E+03 -0.20995868351E+02  0.99979775116E+03  0.10269853154E+04  0.00000000000E+00 0. -1.
<scales pt_clust_5="13000.00000" pt_clust_6="13000.00000" pt_clust_7="13000.00000" pt_clust_8="13000.00000" pt_clust_9="233.79829"></scales>
<clustering>
<clus scale="   79.900">  5  6 -1 -1</clus>
<clus scale="   91.814">  7  8 -1 -1</clus>
<clus scale="  119.493">  1  7  2 -1</clus>
<clus scale="  233.798">  2  9  1 -1</clus>
<clus scale="  233.798">  2  5  1 -1</clus>
</clustering>
</event>
<event>
 9    2  0.1325014E-004  0.1007533E+03  0.7546771E-02  0.1290513E+00
         21   -1    0    0  501  502  0.00000000000E+00  0.00000000000E+00  0.42715949826E+02  0.42715949826E+02  0.00000000000E+00 0.  1.
         -1   -1    0    0    0  501 -0.00000000000E+00 -0.00000000000E+00 -0.38491912283E+03  0.38491912283E+03  0.00000000000E+00 0.  1.
         23    2    1    2    0    0  0.34657713312E+02  0.61074906315E+01 -0.21137455133E+03  0.23245794419E+03  0.90105695337E+02 0.  0.
         24    2    1    2    0    0 -0.65716742329E+02 -0.28804807339E+02 -0.61112748988E+02  0.11555216772E+03  0.66851538715E+02 0.  0.
        -11    1    4    4    0    0 -0.78668812313E+02 -0.22154429095E+02 -0.43119596529E+02  0.92406170595E+02  0.00000000000E+00 0.  1.
         12    1    4    4    0    0  0.12952069984E+02 -0.66503782436E+01 -0.17993152459E+02  0.23145997128E+02  0.00000000000E+00 0. -1.
        -13    1    3    3    0    0 -0.26510653518E+02 -0.14909961257E+02 -0.88817216275E+02  0.93880879851E+02  0.00000000000E+00 0.  1.
         13    1    3    3    0    0  0.61168366830E+02  0.21017451888E+02 -0.12255733505E+03  0.13857706434E+03  0.00000000000E+00 0. -1.
         -2    1    1    2    0  502  0.31059029017E+02  0.22697316707E+02 -0.69715872690E+02  0.79624960748E+02  0.00000000000E+00 0.  1.
<scales pt_clust_5="13000.00000" pt_clust_6="13000.00000" pt_clust_7="13000.00000" pt_clust_8="13000.00000" pt_clust_9="38.46860"></scales>
<clustering>
<clus scale="   38.469">  1  9  2 -1</clus>
<clus scale="   66.852">  5  6 -1 -1</clus>
<clus scale="   80.631">  1  5  2 -1</clus>
<clus scale="   90.106">  7  8 -1 -1</clus>
<clus scale="   38.469">  1  5  2 -1</clus>
</clustering>
</event>
<event>
 9    2  0.1665760E-004  0.3394064E+03  0.7546771E-02  0.1067412E+00
         21   -1    0    0  501  502  0.00000000000E+00  0.00000000000E+00  0.32553315208E+03  0.32553315208E+03  0.00000000000E+00 0.  1.
         -3   -1    0    0    0  501 -0.00000000000E+00 -0.00000000000E+00 -0.56446159754E+03  0.56446159754E+03  0.00000000000E+00 0.  1.
         23    2    1    2    0    0  0.14410970853E+03 -0.30430664495E+03 -0.28610083136E+03  0.45124845567E+03  0.91658828205E+02 0.  0.
         24    2    1    2    0    0 -0.16539416904E+03  0.25139426681E+03  0.13097535701E+03  0.33737723562E+03  0.78195565306E+02 0.  0.
        -13    1    4    4    0    0 -0.14251848040E+03  0.17968850964E+03  0.12663821770E+03  0.26198609874E+03  0.00000000000E+00 0.  1.
         14    1    4    4    0    0 -0.22875688641E+02  0.71705757173E+02  0.43371393066E+01  0.75391136879E+02  0.00000000000E+00 0. -1.
        -13    1    3    3    0    0  0.36769908212E+02 -0.44994179323E+02 -0.96198290523E+02  0.11238600190E+03  0.00000000000E+00 0. -1.
         13    1    3    3    0    0  0.10733980032E+03 -0.25931246562E+03 -0.18990254083E+03  0.33886245377E+03  0.00000000000E+00 0.  1.
         -4    1    1    2    0  502  0.21284460505E+02  0.52912378134E+02 -0.83802971112E+02  0.10136905833E+03  0.00000000000E+00 0.  1.
<scales pt_clust_5="13000.00000" pt_clust_6="13000.00000" pt_clust_7="13000.00000" pt_clust_8="13000.00000" pt_clust_9="57.03290"></scales>
<clustering>
<clus scale="   57.033">  1  9  2 -1</clus>
<clus scale="   78.196">  5  6 -1 -1</clus>
<clus scale="   91.659">  7  8 -1 -1</clus>
<clus scale="  336.021">  1  5  2 -1</clus>
<clus scale="   57.033">  1  5  2 -1</clus>
</clustering>
</event>
<event>
 9    2  0.1325014E-004  0.1375366E+03  0.7546771E-02  0.1227316E+00
         21   -1    0    0  501  502  0.00000000000E+00  0.00000000000E+00  0.21462931125E+02  0.21462931125E+02  0.00000000000E+00 0. -1.
          2   -1    0    0  502    0 -0.00000000000E+00 -0.00000000000E+00 -0.21106135225E+04  0.21106135225E+04  0.00000000000E+00 0. -1.
         23    2    1    2    0    0  0.90368607741E+01 -0.64333277698E+02 -0.27611758980E+03  0.29725790156E+03  0.88887013492E+02 0.  0.
         24    2    1    2    0    0 -0.11687573294E+03  0.28599099472E+02 -0.13640976330E+04  0.13717320385E+04  0.80053655747E+02 0.  0.
        -11    1    4    4    0    0 -0.53354091750E+02  0.11228085854E+02 -0.25913540987E+03  0.26480915707E+03  0.00000000000E+00 0.  1.
         12    1    4    4    0    0 -0.63521641189E+02  0.17371013618E+02 -0.11049622231E+04  0.11069228815E+04  0.00000000000E+00 0. -1.
        -13    1    3    3    0    0  0.45253381931E+02 -0.29583763045E+02 -0.19039452194E+03  0.19792205940E+03  0.00000000000E+00 0.  1.
         13    1    3    3    0    0 -0.36216521157E+02 -0.34749514653E+02 -0.85723067859E+02  0.99335842154E+02  0.00000000000E+00 0. -1.
          1    1    1    2  501    0  0.10783887216E+03  0.35734178227E+02 -0.44893536858E+03  0.46308651352E+03  0.00000000000E+00 0. -1.
<scales pt_clust_5="13000.00000" pt_clust_6="13000.00000" pt_clust_7="13000.00000" pt_clust_8="13000.00000" pt_clust_9="111.83799"></scales>
<clustering>
<clus scale="   80.054">  5  6 -1 -1</clus>
<clus scale="   88.887">  7  8 -1 -1</clus>
<clus scale="  110.097">  2  7  1 -1</clus>
<clus scale="  111.838">  1  9  2 -1</clus>
<clus scale="  111.838">  1  5  2 -1</clus>
</clustering>
</event>
<event>
 9    2  0.1325014E-004  0.9375117E+02  0.7546771E-02  0.1294671E+00
         -1   -1    0    0    0  501 -0.00000000000E+00  0.00000000000E+00  0.14877338127E+03  0.14877338127E+03  0.00000000000E+00 0.  1.
         21   -1    0    0  501  502  0.00000000000E+00 -0.00000000000E+00 -0.22604543097E+03  0.22604543097E+03  0.00000000000E+00 0. -1.
         23    2    1    2    0    0  0.96440831674E+01 -0.24933785848E+02  0.28310125230E+02  0.98333467581E+02  0.90295656812E+02 0.  0.
         24    2    1    2    0    0  0.82873688121E+02  0.20738927512E+02 -0.13554624577E+03  0.17914583375E+03  0.80139214564E+02 0.  0.
        -13    1    4    4    0    0  0.20390448483E+01  0.28388027840E+02 -0.11090271066E+02  0.30545571542E+02  0.00000000000E+00 0.  1.
         14    1    4    4    0    0  0.80834643273E+02 -0.76491003283E+01 -0.12445597471E+03  0.14860026221E+03  0.00000000000E+00 0. -1.
        -11    1    3    3    0    0  0.37294608002E+02 -0.29906905346E+02  0.45002307523E+02  0.65654538730E+02  0.00000000000E+00 0.  1.
         11    1    3    3    0    0 -0.27650524834E+02  0.49731194987E+01 -0.16692182293E+02  0.32678928851E+02  0.00000000000E+00 0. -1.
         -2    1    1    2    0  502 -0.92517771289E+02  0.41948583361E+01  0.29964070847E+02  0.97339510901E+02  0.00000000000E+00 0.  1.
<scales pt_clust_5="13000.00000" pt_clust_6="13000.00000" pt_clust_7="13000.00000" pt_clust_8="13000.00000" pt_clust_9="92.61287"></scales>
<clustering>
<clus scale="   80.139">  5  6 -1 -1</clus>
<clus scale="   90.296">  7  8 -1 -1</clus>
<clus scale="   92.613">  2  9  1 -1</clus>
<clus scale="   92.613">  2  5  1 -1</clus>
<clus scale="   92.613">  2  5  1 -1</clus>
</clustering>
</event>
<event>
 9    2  0.1325014E-004  0.3720415E+03  0.7546771E-02  0.1053915E+00
          2   -1    0    0  502    0 -0.00000000000E+00  0.00000000000E+00  0.16953477488E+04  0.16953477488E+04  0.00000000000E+00 0. -1.
         21   -1    0    0  501  502  0.00000000000E+00 -0.00000000000E+00 -0.69791740737E+02  0.69791740737E+02  0.00000000000E+00 0. -1.
         24    2    1    2    0    0  0.13086150542E+03 -0.11271719333E+03  0.55829120293E+03  0.59037727781E+03  0.83823407298E+02 0.  0.
         23    2    1    2    0    0  0.11569562247E+02 -0.15081637782E+03  0.52831705596E+03  0.55815761517E+03  0.97680996960E+02 0.  0.
        -13    1    3    3    0    0  0.51075692336E+02 -0.46333483047E+02  0.10694321758E+03  0.12724924277E+03  0.00000000000E+00 0.  1.
         14    1    3    3    0    0  0.79785813084E+02 -0.66383710287E+02  0.45134798535E+03  0.46312803504E+03  0.00000000000E+00 0. -1.
        -13    1    4    4    0    0  0.54410535030E+02 -0.84014564766E+02  0.31717922230E+03  0.33259827491E+03  0.00000000000E+00 0.  1.
         13    1    4    4    0    0 -0.42840972784E+02 -0.66801813049E+02  0.21113783366E+03  0.22555934026E+03  0.00000000000E+00 0. -1.
          1    1    1    2  501    0 -0.14243106767E+03  0.26353357115E+03  0.53894774919E+03  0.61660459658E+03  0.00000000000E+00 0. -1.
<scales pt_clust_5="13000.00000" pt_clust_6="13000.00000" pt_clust_7="13000.00000" pt_clust_8="13000.00000" pt_clust_9="299.56060"></scales>
<clustering>
<clus scale="   83.823">  5  6 -1 -1</clus>
<clus scale="   97.681">  7  8 -1 -1</clus>
<clus scale="  151.284">  5  7 -1 -1</clus>
<clus scale="  299.561">  2  9  1 -1</clus>
<clus scale="  299.561">  2  5  1 -1</clus>
</clustering>
</event>
<event>
 9    2  0.1325014E-004  0.1119937E+03  0.7546771E-02  0.1262997E+00
          4   -1    0    0  502    0 -0.00000000000E+00  0.00000000000E+00  0.20740641769E+04  0.20740641769E+04  0.00000000000E+00 0. -1.
         21   -1    0    0  501  502  0.00000000000E+00 -0.00000000000E+00 -0.31398916876E+02  0.31398916876E+02  0.00000000000E+00 0.  1.
         24    2    1    2    0    0  0.24085035681E+02 -0.54855616721E+02  0.18970410482E+04  0.18996581055E+04  0.79667756696E+02 0.  0.
         23    2    1    2    0    0  0.26145354358E+01  0.57736610717E+02  0.13932222258E+03  0.17822089332E+03  0.94929727155E+02 0.  0.
        -11    1    3    3    0    0  0.38856909012E+01 -0.26316583849E+02  0.15499980389E+03  0.15726601790E+03  0.00000000000E+00 0.  1.
         12    1    3    3    0    0  0.20199344779E+02 -0.28539032871E+02  0.17420412444E+04  0.17423920876E+04  0.00000000000E+00 0. -1.
        -13    1    4    4    0    0  0.97230185418E+01 -0.24919667339E+02  0.22593997625E+02  0.35014506116E+02  0.00000000000E+00 0. -1.
         13    1    4    4    0    0 -0.71084831060E+01  0.82656278057E+02  0.11672822495E+03  0.14320638720E+03  0.00000000000E+00 0.  1.
          3    1    1    2  501    0 -0.26699571116E+02 -0.28809939964E+01  0.63019891455E+01  0.27584094899E+02  0.00000000000E+00 0. -1.
<scales pt_clust_5="13000.00000" pt_clust_6="13000.00000" pt_clust_7="13000.00000" pt_clust_8="13000.00000" pt_clust_9="26.85456"></scales>
<clustering>
<clus scale="   26.855">  2  9  1 -1</clus>
<clus scale="   79.668">  5  6 -1 -1</clus>
<clus scale="   94.930">  7  8 -1 -1</clus>
<clus scale="   99.388">  1  5  2 -1</clus>
<clus scale="   26.855">  2  5  1 -1</clus>
</clustering>
</event>
<event>
 9    2  0.1325014E-004  0.1182311E+03  0.7546771E-02  0.1248794E+00
          2   -1    0    0  502    0 -0.00000000000E+00  0.00000000000E+00  0.19125755756E+03  0.19125755756E+03  0.00000000000E+00 0. -1.
         21   -1    0    0  501  502  0.00000000000E+00 -0.00000000000E+00 -0.15493325377E+03  0.15493325377E+03  0.00000000000E+00 0.  1.
         23    2    1    2    0    0  0.17241034462E+02  0.50304675222E+02 -0.39142024717E+02  0.11277767211E+03  0.91426974185E+02 0.  0.
         24    2    1    2    0    0 -0.57218050528E+02 -0.78751685108E+02 -0.16653295726E+02  0.12904159448E+03  0.83058218339E+02 0.  0.
        -13    1    4    4    0    0 -0.28084440631E+02 -0.87114510152E+02 -0.29435668558E+02  0.96146410584E+02  0.00000000000E+00 0.  1.
         14    1    4    4    0    0 -0.29133609896E+02  0.83628250440E+01  0.12782372833E+02  0.32895183896E+02  0.00000000000E+00 0. -1.
        -11    1    3    3    0    0  0.11468887553E+02  0.74231893842E+02 -0.11876649363E+02  0.76045803600E+02  0.00000000000E+00 0.  1.
         11    1    3    3    0    0  0.57721469093E+01 -0.23927218620E+02 -0.27265375354E+02  0.36731868508E+02  0.00000000000E+00 0. -1.
          1    1    1    2  501    0  0.39977016065E+02  0.28447009886E+02  0.92119624233E+02  0.10437154475E+03  0.00000000000E+00 0. -1.
<scales pt_clust_5="13000.00000" pt_clust_6="13000.00000" pt_clust_7="13000.00000" pt_clust_8="13000.00000" pt_clust_9="49.06523"></scales>
<clustering>
<clus scale="   49.065">  2  9  1 -1</clus>
<clus scale="   83.058">  5  6 -1 -1</clus>
<clus scale="   91.427">  7  8 -1 -1</clus>
<clus scale="  111.886">  2  5  1 -1</clus>
<clus scale="   49.065">  2  5  1 -1</clus>
</clustering>
</event>
<event>
 9    2  0.1325014E-004  0.1227403E+03  0.7546771E-02  0.1242114E+00
         21   -1    0    0  501  502  0.00000000000E+00  0.00000000000E+00  0.32870036983E+02  0.32870036983E+02  0.00000000000E+00 0. -1.
          2   -1    0    0  502    0 -0.00000000000E+00 -0.00000000000E+00 -0.12410089502E+04  0.12410089502E+04  0.00000000000E+00 0. -1.
         23    2    1    2    0    0  0.72125578906E+02 -0.86079800926E+02 -0.44187158358E+03  0.46519069567E+03  0.92412421803E+02 0.  0.
         24    2    1    2    0    0 -0.41056622438E+02  0.36332872281E+01 -0.94279812926E+02  0.13094945517E+03  0.80995244679E+02 0.  0.
        -13    1    4    4    0    0  0.11275894589E+02 -0.22489211995E+02 -0.55037682531E+02  0.60514931656E+02  0.00000000000E+00 0.  1.
         14    1    4    4    0    0 -0.52332517027E+02  0.26122499223E+02 -0.39242130395E+02  0.70434523509E+02  0.00000000000E+00 0. -1.
        -11    1    3    3    0    0 -0.90782324909E+01 -0.50675990292E+02 -0.22719024973E+03  0.23295038071E+03  0.00000000000E+00 0.  1.
         11    1    3    3    0    0  0.81203811397E+02 -0.35403810634E+02 -0.21468133384E+03  0.23224031496E+03  0.00000000000E+00 0. -1.
          1    1    1    2  501    0 -0.31068956468E+02  0.82446513697E+02 -0.67198751670E+03  0.67773883634E+03  0.00000000000E+00 0. -1.
<scales pt_clust_5="13000.00000" pt_clust_6="13000.00000" pt_clust_7="13000.00000" pt_clust_8="13000.00000" pt_clust_9="88.10627"></scales>
<clustering>
<clus scale="   80.995">  5  6 -1 -1</clus>
<clus scale="   88.106">  1  9  2 -1</clus>
<clus scale="   92.412">  7  8 -1 -1</clus>
<clus scale="  114.391">  1  5  2 -1</clus>
<clus scale="   88.106">  1  5  2 -1</clus>
</clustering>
</event>
<event>
 9    2  0.1325014E-004  0.1671866E+03  0.7546771E-02  0.1182242E+00
          2   -1    0    0  502    0 -0.00000000000E+00  0.00000000000E+00  0.13994432380E+03  0.13994432380E+03  0.00000000000E+00 0. -1.
         21   -1    0    0  501  502  0.00000000000E+00 -0.00000000000E+00 -0.65301528179E+03  0.65301528179E+03  0.00000000000E+00 0. -1.
         23    2    1    2    0    0  0.89836737367E+02 -0.10623189143E+03  0.16085838473E+02  0.16712826872E+03  0.91198957606E+02 0.  0.
         24    2    1    2    0    0 -0.44612197377E+02  0.15284751878E+03 -0.53160303274E+03  0.56083703094E+03  0.81140487467E+02 0.  0.
        -13    1    4    4    0    0 -0.21046804587E+02  0.58638593466E+00 -0.10920527117E+03  0.11121646948E+03  0.00000000000E+00 0.  1.
         14    1    4    4    0    0 -0.23565392791E+02  0.15226113285E+03 -0.42239776157E+03  0.44962056147E+03  0.00000000000E+00 0. -1.
        -11    1    3    3    0    0  0.10478641252E+03 -0.90157134042E+02  0.29576551632E+02  0.14136220667E+03  0.00000000000E+00 0. -1.
         11    1    3    3    0    0 -0.14949675152E+02 -0.16074757383E+02 -0.13490713159E+02  0.25766062051E+02  0.00000000000E+00 0.  1.
          1    1    1    2  501    0 -0.45224539989E+02 -0.46615627357E+02  0.24462362845E+01  0.64994305928E+02  0.00000000000E+00 0. -1.
<scales pt_clust_5="13000.00000" pt_clust_6="13000.00000" pt_clust_7="13000.00000" pt_clust_8="13000.00000" pt_clust_9="64.94829"></scales>
<clustering>
<clus scale="   64.948">  2  9  1 -1</clus>
<clus scale="   81.140">  5  6 -1 -1</clus>
<clus scale="   91.199">  7  8 -1 -1</clus>
<clus scale="  161.919">  2  5  1 -1</clus>
<clus scale="   64.948">  2  5  1 -1</clus>
</clustering>
</event>
<event>
 9    2  0.1325014E-004  0.2005614E+03  0.7546771E-02  0.1169347E+00
          2   -1    0    0  502    0 -0.00000000000E+00  0.00000000000E+00  0.34214743490E+03  0.34214743490E+03  0.00000000000E+00 0. -1.
         21   -1    0    0  501  502  0.00000000000E+00 -0.00000000000E+00 -0.20258477898E+03  0.20258477898E+03  0.00000000000E+00 0. -1.
         24    2    1    2    0    0 -0.95886893249E+02  0.15272775800E+00 -0.10772816478E+02  0.12605656523E+03  0.81116486850E+02 0.  0.
         23    2    1    2    0    0  0.14596643918E+03 -0.14974313335E+03  0.57650907653E+02  0.23571204871E+03  0.92235217807E+02 0.  0.
        -11    1    3    3    0    0 -0.70283498149E+02  0.11792743344E+01 -0.44878155265E+02  0.83397899374E+02  0.00000000000E+00 0.  1.
         12    1    3    3    0    0 -0.25603395099E+02 -0.10265465764E+01  0.34105338786E+02  0.42658665852E+02  0.00000000000E+00 0. -1.
        -11    1    4    4    0    0  0.23635541921E+02  0.11235550874E+02  0.97698969323E+01  0.27934339645E+02  0.00000000000E+00 0.  1.
         11    1    4    4    0    0  0.12233089726E+03 -0.16097868422E+03  0.47881010720E+02  0.20777770907E+03  0.00000000000E+00 0. -1.
          1    1    1    2  501    0 -0.50079545930E+02  0.14959040559E+03  0.92684564745E+02  0.18296359995E+03  0.00000000000E+00 0. -1.
<scales pt_clust_5="13000.00000" pt_clust_6="13000.00000" pt_clust_7="13000.00000" pt_clust_8="13000.00000" pt_clust_9="178.09430"></scales>
<clustering>
<clus scale="   81.116">  5  6 -1 -1</clus>
<clus scale="   92.235">  7  8 -1 -1</clus>
<clus scale="  125.595">  1  5  2 -1</clus>
<clus scale="  178.094">  2  9  1 -1</clus>
<clus scale="  178.094">  2  5  1 -1</clus>
</clustering>
</event>
<event>
 9    2  0.1325014E-004  0.4626619E+03  0.7546771E-02  0.1045002E+00
          2   -1    0    0  502    0 -0.00000000000E+00  0.00000000000E+00  0.14219335191E+04  0.14219335191E+04  0.00000000000E+00 0. -1.
         21   -1    0    0  501  502  0.00000000000E+00 -0.00000000000E+00 -0.32210477052E+03  0.32210477052E+03  0.00000000000E+00 0. -1.
         24    2    1    2    0    0  0.37479802158E+02 -0.23610580954E+03  0.52321358851E+03  0.57967501238E+03  0.71553978972E+02 0.  0.
         23    2    1    2    0    0  0.13474035235E+03 -0.35289564408E+03  0.14748272403E+03  0.41553943836E+03  0.90728015456E+02 0.  0.
        -11    1    3    3    0    0  0.24814946080E+02 -0.34592410657E+02  0.53268979627E+02  0.68190912991E+02  0.00000000000E+00 0.  1.
         12    1    3    3    0    0  0.12664856078E+02 -0.20151339888E+03  0.46994460888E+03  0.51148409939E+03  0.00000000000E+00 0. -1.
        -13    1    4    4    0    0 -0.11999811017E+02 -0.56427502906E+02  0.21526000569E+02  0.61574566577E+02  0.00000000000E+00 0. -1.
         13    1    4    4    0    0  0.14674016336E+03 -0.29646814117E+03  0.12595672346E+03  0.35396487179E+03  0.00000000000E+00 0.  1.
          1    1    1    2  501    0 -0.17222015450E+03  0.58900145362E+03  0.42913243600E+03  0.74882383884E+03  0.00000000000E+00 0. -1.
<scales pt_clust_5="13000.00000" pt_clust_6="13000.00000" pt_clust_7="13000.00000" pt_clust_8="13000.00000" pt_clust_9="453.67907"></scales>
<clustering>
<clus scale="   71.554">  5  6 -1 -1</clus>
<clus scale="   90.728">  7  8 -1 -1</clus>
<clus scale="  249.541">  1  5  2 -1</clus>
<clus scale="  453.679">  2  9  1 -1</clus>
<clus scale="  453.679">  2  5  1 -1</clus>
</clustering>
</event>
<event>
 9    2  0.1325014E-004  0.1084759E+03  0.7546771E-02  0.1266693E+00
         -1   -1    0    0    0  501 -0.00000000000E+00  0.00000000000E+00  0.83471703076E+02  0.83471703076E+02  0.00000000000E+00 0.  1.
         21   -1    0    0  501  502  0.00000000000E+00 -0.00000000000E+00 -0.37436895382E+03  0.37436895382E+03  0.00000000000E+00 0.  1.
         23    2    1    2    0    0 -0.26846935792E+02 -0.58099343676E+02  0.30542053001E+02  0.11421021643E+03  0.89525777504E+02 0.  0.
         24    2    1    2    0    0  0.32129399197E+02  0.36009738089E+02 -0.21603392390E+03  0.23580581808E+03  0.81269477861E+02 0.  0.
        -11    1    4    4    0    0 -0.20955676258E+02 -0.61203029816E+01 -0.91043520572E+02  0.93624361755E+02  0.00000000000E+00 0.  1.
         12    1    4    4    0    0  0.53085075455E+02  0.42130041070E+02 -0.12499040333E+03  0.14218145632E+03  0.00000000000E+00 0. -1.
        -11    1    3    3    0    0  0.35682666341E+01  0.20991267675E+02 -0.57088101845E+01  0.22044417867E+02  0.00000000000E+00 0. -1.
         11    1    3    3    0    0 -0.30415202426E+02 -0.79090611350E+02  0.36250863186E+02  0.92165798560E+02  0.00000000000E+00 0.  1.
         -2    1    1    2    0  502 -0.52824634051E+01  0.22089605587E+02 -0.10540537984E+03  0.10782462239E+03  0.00000000000E+00 0.  1.
<scales pt_clust_5="13000.00000" pt_clust_6="13000.00000" pt_clust_7="13000.00000" pt_clust_8="13000.00000" pt_clust_9="22.71244"></scales>
<clustering>
<clus scale="   22.712">  2  9  1 -1</clus>
<clus scale="   81.269">  5  6 -1 -1</clus>
<clus scale="   89.526">  7  8 -1 -1</clus>
<clus scale="  101.769">  2  5  1 -1</clus>
<clus scale="   22.712">  2  5  1 -1</clus>
</clustering>
</event>
<event>
 9    2  0.1325014E-004  0.1181528E+03  0.7546771E-02  0.1246455E+00
         21   -1    0    0  501  502  0.00000000000E+00  0.00000000000E+00  0.15963534726E+03  0.15963534726E+03  0.00000000000E+00 0. -1.
          2   -1    0    0  502    0 -0.00000000000E+00 -0.00000000000E+00 -0.21056794645E+03  0.21056794645E+03  0.00000000000E+00 0. -1.
         23    2    1    2    0    0 -0.71597839480E+02  0.64527776075E+02 -0.78980120949E+02  0.15403474074E+03  0.90546989719E+02 0.  0.
         24    2    1    2    0    0  0.68685296429E+02  0.11769705499E+02 -0.33154239682E+02  0.11831435425E+03  0.89682143710E+02 0.  0.
        -11    1    4    4    0    0  0.12562259681E+02 -0.36260028416E+02 -0.20033339939E+02  0.43288967857E+02  0.00000000000E+00 0.  1.
         12    1    4    4    0    0  0.56123036749E+02  0.48029733915E+02 -0.13120899743E+02  0.75025386396E+02  0.00000000000E+00 0. -1.
        -11    1    3    3    0    0 -0.15911755917E+02  0.18691225154E+02 -0.78140626220E+02  0.81905453666E+02  0.00000000000E+00 0.  1.
         11    1    3    3    0    0 -0.55686083562E+02  0.45836550921E+02 -0.83949472924E+00  0.72129287077E+02  0.00000000000E+00 0. -1.
          1    1    1    2  501    0  0.29125430501E+01 -0.76297481575E+02  0.61201761449E+02  0.97854198715E+02  0.00000000000E+00 0. -1.
<scales pt_clust_5="13000.00000" pt_clust_6="13000.00000" pt_clust_7="13000.00000" pt_clust_8="13000.00000" pt_clust_9="76.35305"></scales>
<clustering>
<clus scale="   76.353">  1  9  2 -1</clus>
<clus scale="   89.682">  5  6 -1 -1</clus>
<clus scale="   90.547">  7  8 -1 -1</clus>
<clus scale="  117.491">  1  5  2 -1</clus>
<clus scale="   76.353">  1  5  2 -1</clus>
</clustering>
</event>
<event>
 9    2  0.1325014E-004  0.1027468E+03  0.7546771E-02  0.1283188E+00
         21   -1    0    0  501  502  0.00000000000E+00  0.00000000000E+00  0.18286118512E+03  0.18286118512E+03  0.00000000000E+00 0. -1.
          4   -1    0    0  502    0 -0.00000000000E+00 -0.00000000000E+00 -0.34163488241E+03  0.34163488241E+03  0.00000000000E+00 0. -1.
         24    2    1    2    0    0 -0.37656443625E+02  0.14276892877E+02 -0.22696746926E+03  0.24233170512E+03  0.74756844399E+02 0.  0.
         23    2    1    2    0    0  0.61759982798E+02 -0.15577602934E+02 -0.76294179510E+02  0.13567395123E+03  0.92356169402E+02 0.  0.
        -13    1    3    3    0    0 -0.24460349796E+02 -0.21727629496E+02 -0.41009777028E+02  0.52461418276E+02  0.00000000000E+00 0.  1.
         14    1    3    3    0    0 -0.13196093829E+02  0.36004522373E+02 -0.18595769223E+03  0.18987028684E+03  0.00000000000E+00 0. -1.
        -11    1    4    4    0    0  0.38195496135E+02 -0.32576696854E+02  0.39255386636E+01  0.50354214885E+02  0.00000000000E+00 0.  1.
         11    1    4    4    0    0  0.23564486663E+02  0.16999093920E+02 -0.80219718174E+02  0.85319736343E+02  0.00000000000E+00 0. -1.
          3    1    1    2  501    0 -0.24103539173E+02  0.13007100567E+01  0.14448795148E+03  0.14649041119E+03  0.00000000000E+00 0. -1.
<scales pt_clust_5="13000.00000" pt_clust_6="13000.00000" pt_clust_7="13000.00000" pt_clust_8="13000.00000" pt_clust_9="24.13861"></scales>
<clustering>
<clus scale="   24.139">  1  9  2 -1</clus>
<clus scale="   74.757">  5  6 -1 -1</clus>
<clus scale="   87.269">  2  5  1 -1</clus>
<clus scale="   92.356">  7  8 -1 -1</clus>
<clus scale="   24.139">  1  5  2 -1</clus>
</clustering>
</event>
<event>
 9    2  0.1325014E-004  0.9512664E+02  0.7546771E-02  0.1297170E+00
          2   -1    0    0  502    0 -0.00000000000E+00  0.00000000000E+00  0.13376798762E+04  0.13376798762E+04  0.00000000000E+00 0. -1.
         21   -1    0    0  501  502  0.00000000000E+00 -0.00000000000E+00 -0.16567108543E+02  0.16567108543E+02  0.00000000000E+00 0. -1.
         23    2    1    2    0    0 -0.38195783791E+02  0.14394369258E+02  0.36741825759E+03  0.38072691107E+03  0.91053220918E+02 0.  0.
         24    2    1    2    0    0 -0.41977663212E+02 -0.41510608376E+02  0.32413512809E+03  0.33829720926E+03  0.76786494363E+02 0.  0.
        -13    1    4    4    0    0 -0.43794977088E+02 -0.50544654851E+02  0.32195488288E+03  0.32882777979E+03  0.00000000000E+00 0.  1.
         14    1    4    4    0    0  0.18173138759E+01  0.90340464749E+01  0.21802452166E+01  0.94694294779E+01  0.00000000000E+00 0. -1.
        -11    1    3    3    0    0  0.16073745287E+02  0.32301740456E+02  0.21380446890E+03  0.21682739367E+03  0.00000000000E+00 0.  1.
         11    1    3    3    0    0 -0.54269529078E+02 -0.17907371198E+02  0.15361378869E+03  0.16389951740E+03  0.00000000000E+00 0. -1.
          1    1    1    2  501    0  0.80173447003E+02  0.27116239118E+02  0.62955938197E+03  0.63522286440E+03  0.00000000000E+00 0. -1.
<scales pt_clust_5="13000.00000" pt_clust_6="13000.00000" pt_clust_7="13000.00000" pt_clust_8="13000.00000" pt_clust_9="84.63498"></scales>
<clustering>
<clus scale="   76.786">  5  6 -1 -1</clus>
<clus scale="   84.635">  2  9  1 -1</clus>
<clus scale="   84.635">  2  5  1 -1</clus>
<clus scale="   91.053">  7  8 -1 -1</clus>
<clus scale="   84.635">  2  5  1 -1</clus>
</clustering>
</event>
<event>
 9    2  0.1325014E-004  0.9249218E+02  0.7546771E-02  0.1303324E+00
          2   -1    0    0  502    0 -0.00000000000E+00  0.00000000000E+00  0.48365348206E+03  0.48365348206E+03  0.00000000000E+00 0. -1.
         21   -1    0    0  501  502  0.00000000000E+00 -0.00000000000E+00 -0.26598241671E+02  0.26598241671E+02  0.00000000000E+00 0. -1.
         24    2    1    2    0    0  0.41584603747E+01  0.10795682099E+02  0.26765427340E+03  0.27986946723E+03  0.80958440397E+02 0.  0.
         23    2    1    2    0    0 -0.32743057925E+02 -0.12823784293E+01  0.11746253963E+03  0.15239046530E+03  0.91387380761E+02 0.  0.
        -13    1    3    3    0    0 -0.19988049205E+01 -0.35060921529E+02  0.10206233867E+03  0.10793509353E+03  0.00000000000E+00 0.  1.
         14    1    3    3    0    0  0.61572652952E+01  0.45856603628E+02  0.16559193473E+03  0.17193437370E+03  0.00000000000E+00 0. -1.
        -11    1    4    4    0    0  0.16076988379E+02 -0.33046740511E+02  0.30671647292E+02  0.47867594063E+02  0.00000000000E+00 0.  1.
         11    1    4    4    0    0 -0.48820046305E+02  0.31764362082E+02  0.86790892335E+02  0.10452287124E+03  0.00000000000E+00 0. -1.
          1    1    1    2  501    0  0.28584597550E+02 -0.95133036692E+01  0.71938427355E+02  0.77991791197E+02  0.00000000000E+00 0. -1.
<scales pt_clust_5="13000.00000" pt_clust_6="13000.00000" pt_clust_7="13000.00000" pt_clust_8="13000.00000" pt_clust_9="30.12612"></scales>
<clustering>
<clus scale="   30.126">  2  9  1 -1</clus>
<clus scale="   80.958">  5  6 -1 -1</clus>
<clus scale="   82.204">  1  5  2 -1</clus>
<clus scale="   91.387">  7  8 -1 -1</clus>
<clus scale="   30.126">  2  5  1 -1</clus>
</clustering>
</event>
<event>
 9    2  0.1325014E-004  0.1227669E+03  0.7546771E-02  0.1244992E+00
         21   -1    0    0  501  502  0.00000000000E+00  0.00000000000E+00  0.46543710534E+03  0.46543710534E+03  0.00000000000E+00 0.  1.
          2   -1    0    0  502    0 -0.00000000000E+00 -0.00000000000E+00 -0.61945385970E+02  0.61945385970E+02  0.00000000000E+00 0. -1.
         24    2    1    2    0    0 -0.66812582063E+02  0.26316334229E+02  0.21930107748E+02  0.11064109013E+03  0.81265310128E+02 0.  0.
         23    2    1    2    0    0  0.70623505624E+02 -0.39920064087E+01  0.20619420798E+03  0.23991768950E+03  0.10020394538E+03 0.  0.
        -13    1    3    3    0    0 -0.64906453658E+02  0.64460710483E+01  0.45669417605E+02  0.79624715151E+02  0.00000000000E+00 0.  1.
         14    1    3    3    0    0 -0.19061284046E+01  0.19870263180E+02 -0.23739309857E+02  0.31016374979E+02  0.00000000000E+00 0. -1.
        -11    1    4    4    0    0  0.50350643923E+02 -0.42276874034E+02  0.17381339145E+03  0.18583222667E+03  0.00000000000E+00 0. -1.
         11    1    4    4    0    0  0.20272861702E+02  0.38284867625E+02  0.32380816526E+02  0.54085462830E+02  0.00000000000E+00 0.  1.
          1    1    1    2  501    0 -0.38109235613E+01 -0.22324327820E+02  0.17536740365E+03  0.17682371168E+03  0.00000000000E+00 0. -1.
<scales pt_clust_5="13000.00000" pt_clust_6="13000.00000" pt_clust_7="13000.00000" pt_clust_8="13000.00000" pt_clust_9="22.64727"></scales>
<clustering>
<clus scale="   22.647">  1  9  2 -1</clus>
<clus scale="   81.265">  5  6 -1 -1</clus>
<clus scale="  100.204">  7  8 -1 -1</clus>
<clus scale="  107.865">  2  5  1 -1</clus>
<clus scale="   22.647">  1  5  2 -1</clus>
</clustering>
</event>
<event>
 9    2  0.1325014E-004  0.9930381E+02  0.7546771E-02  0.1286273E+00
         21   -1    0    0  501  502  0.00000000000E+00  0.00000000000E+00  0.14308582412E+03  0.14308582412E+03  0.00000000000E+00 0.  1.
          2   -1    0    0  502    0 -0.00000000000E+00 -0.00000000000E+00 -0.14548729411E+03  0.14548729411E+03  0.00000000000E+00 0. -1.
         23    2    1    2    0    0  0.70011099967E+02  0.12670907465E+02 -0.30917056753E+02  0.11863332851E+03  0.89754644557E+02 0.  0.
         24    2    1    2    0    0  0.69254845334E+01 -0.26381839564E+02  0.33746780363E+02  0.91616146545E+02  0.80688966582E+02 0.  0.
        -13    1    4    4    0    0  0.22515086737E+02 -0.49184536355E+02  0.34186261837E+02  0.63990219922E+02  0.00000000000E+00 0.  1.
         14    1    4    4    0    0 -0.15589602204E+02  0.22802696791E+02 -0.43948147416E+00  0.27625926623E+02  0.00000000000E+00 0. -1.
        -11    1    3    3    0    0  0.40649688172E+02 -0.37595359925E+02 -0.22702749363E+02  0.59843320972E+02  0.00000000000E+00 0.  1.
         11    1    3    3    0    0  0.29361411795E+02  0.50266267390E+02 -0.82143073898E+01  0.58790007534E+02  0.00000000000E+00 0. -1.
          1    1    1    2  501    0 -0.76936584501E+02  0.13710932099E+02 -0.52311936044E+01  0.78323643175E+02  0.00000000000E+00 0. -1.
<scales pt_clust_5="13000.00000" pt_clust_6="13000.00000" pt_clust_7="13000.00000" pt_clust_8="13000.00000" pt_clust_9="78.14879"></scales>
<clustering>
<clus scale="   78.149">  1  9  2 -1</clus>
<clus scale="   80.689">  5  6 -1 -1</clus>
<clus scale="   89.755">  7  8 -1 -1</clus>
<clus scale="   91.192">  1  5  2 -1</clus>
<clus scale="   78.149">  1  5  2 -1</clus>
</clustering>
</event>
<event>
 9    2  0.1325014E-004  0.1458694E+03  0.7546771E-02  0.1207563E+00
         21   -1    0    0  501  502  0.00000000000E+00  0.00000000000E+00  0.59614773670E+02  0.59614773670E+02  0.00000000000E+00 0. -1.
          2   -1    0    0  502    0 -0.00000000000E+00 -0.00000000000E+00 -0.62958096607E+03  0.62958096607E+03  0.00000000000E+00 0. -1.
         23    2    1    2    0    0  0.12527532522E+03  0.12002620321E+02 -0.41550040048E+03  0.44356561204E+03  0.90949982835E+02 0.  0.
         24    2    1    2    0    0 -0.96162988609E+02  0.18390424148E+02 -0.15865773541E+03  0.20333547456E+03  0.81163477796E+02 0.  0.
        -11    1    4    4    0    0 -0.69630253588E+02  0.42383765109E+02 -0.14231423895E+03  0.16400639734E+03  0.00000000000E+00 0.  1.
         12    1    4    4    0    0 -0.26532735022E+02 -0.23993340961E+02 -0.16343496461E+02  0.39329077217E+02  0.00000000000E+00 0. -1.
        -11    1    3    3    0    0  0.53007742836E+02 -0.88452175246E+01 -0.61539919267E+02  0.81702021621E+02  0.00000000000E+00 0.  1.
         11    1    3    3    0    0  0.72267582381E+02  0.20847837845E+02 -0.35396048122E+03  0.36186359042E+03  0.00000000000E+00 0. -1.
          1    1    1    2  501    0 -0.29112336607E+02 -0.30393044469E+02  0.41919434931E+01  0.42294653150E+02  0.00000000000E+00 0. -1.
<scales pt_clust_5="13000.00000" pt_clust_6="13000.00000" pt_clust_7="13000.00000" pt_clust_8="13000.00000" pt_clust_9="42.08640"></scales>
<clustering>
<clus scale="   42.086">  1  9  2 -1</clus>
<clus scale="   81.163">  5  6 -1 -1</clus>
<clus scale="   90.950">  7  8 -1 -1</clus>
<clus scale="  139.977">  1  5  2 -1</clus>
<clus scale="   42.086">  1  5  2 -1</clus>
</clustering>
</event>
<event>
 9    2  0.1325014E-004  0.1773339E+03  0.7546771E-02  0.1190800E+00
          2   -1    0    0  502    0 -0.00000000000E+00  0.00000000000E+00  0.88373927026E+03  0.88373927026E+03  0.00000000000E+00 0. -1.
         21   -1    0    0  501  502  0.00000000000E+00 -0.00000000000E+00 -0.60400332739E+02  0.60400332739E+02  0.00000000000E+00 0. -1.
         24    2    1    2    0    0  0.23900618941E+02 -0.74949639434E+02  0.12443741714E+03  0.16753750183E+03  0.79971593061E+02 0.  0.
         23    2    1    2    0    0 -0.56217578923E+02  0.18837607885E+03  0.40125181394E+03  0.45643762656E+03  0.93200458607E+02 0.  0.
        -13    1    3    3    0    0 -0.29509608442E+02 -0.28107728015E+02  0.52149769333E+02  0.66185042162E+02  0.00000000000E+00 0.  1.
         14    1    3    3    0    0  0.53410227383E+02 -0.46841911419E+02  0.72287647811E+02  0.10135245967E+03  0.00000000000E+00 0. -1.
        -13    1    4    4    0    0 -0.76664302752E+02  0.11796906519E+03  0.22268881258E+03  0.26340923087E+03  0.00000000000E+00 0. -1.
         13    1    4    4    0    0  0.20446723829E+02  0.70407013662E+02  0.17856300136E+03  0.19302839569E+03  0.00000000000E+00 0.  1.
          1    1    1    2  501    0  0.32316959982E+02 -0.11342643942E+03  0.29764970643E+03  0.32016447461E+03  0.00000000000E+00 0. -1.
<scales pt_clust_5="13000.00000" pt_clust_6="13000.00000" pt_clust_7="13000.00000" pt_clust_8="13000.00000" pt_clust_9="150.86743"></scales>
<clustering>
<clus scale="   79.972">  5  6 -1 -1</clus>
<clus scale="   93.200">  7  8 -1 -1</clus>
<clus scale="  112.179">  1  5  2 -1</clus>
<clus scale="  150.867">  2  9  1 -1</clus>
<clus scale="  150.867">  2  5  1 -1</clus>
</clustering>
</event>
<event>
 9    2  0.1325014E-004  0.1514831E+03  0.7546771E-02  0.1200397E+00
          2   -1    0    0  502    0 -0.00000000000E+00  0.00000000000E+00  0.52344400910E+03  0.52344400910E+03  0.00000000000E+00 0. -1.
         21   -1    0    0  501  502  0.00000000000E+00 -0.00000000000E+00 -0.86230948145E+02  0.86230948145E+02  0.00000000000E+00 0. -1.
         23    2    1    2    0    0 -0.77054231883E+02 -0.11653598062E+03  0.17591020911E+03  0.24220175871E+03  0.90549990743E+02 0.  0.
         24    2    1    2    0    0 -0.14079466963E+02  0.11442380818E+03  0.73752331107E+02  0.15894260086E+03  0.80822674757E+02 0.  0.
        -11    1    4    4    0    0  0.27454991066E+02  0.59595040174E+02  0.59758179940E+02  0.88749002347E+02  0.00000000000E+00 0.  1.
         12    1    4    4    0    0 -0.41534458029E+02  0.54828768005E+02  0.13994151167E+02  0.70193598509E+02  0.00000000000E+00 0. -1.
        -13    1    3    3    0    0 -0.53418942518E+02 -0.68152835681E+02  0.16631288815E+03  0.18750565110E+03  0.00000000000E+00 0. -1.
         13    1    3    3    0    0 -0.23635289365E+02 -0.48383144941E+02  0.95973209573E+01  0.54696107606E+02  0.00000000000E+00 0.  1.
          1    1    1    2  501    0  0.91133698846E+02  0.21121724418E+01  0.18755052074E+03  0.20853059768E+03  0.00000000000E+00 0. -1.
<scales pt_clust_5="13000.00000" pt_clust_6="13000.00000" pt_clust_7="13000.00000" pt_clust_8="13000.00000" pt_clust_9="91.15822"></scales>
<clustering>
<clus scale="   80.823">  5  6 -1 -1</clus>
<clus scale="   90.550">  7  8 -1 -1</clus>
<clus scale="   91.158">  2  9  1 -1</clus>
<clus scale="  145.877">  2  5  1 -1</clus>
<clus scale="   91.158">  2  5  1 -1</clus>
</clustering>
</event>
<event>
 9    2  0.1391278E-004  0.1815604E+03  0.7546771E-02  0.1167796E+00
         -1   -1    0    0    0  501 -0.00000000000E+00  0.00000000000E+00  0.32790724254E+03  0.32790724254E+03  0.00000000000E+00 0.  1.
         21   -1    0    0  501  502  0.00000000000E+00 -0.00000000000E+00 -0.17767267067E+03  0.17767267067E+03  0.00000000000E+00 0.  1.
         24    2    1    2    0    0  0.22220451238E+02 -0.15900751288E+03  0.14461728811E+03  0.23071402921E+03  0.80855832520E+02 0.  0.
         23    2    1    2    0    0  0.74792449382E+01  0.14266586840E+03 -0.75730052220E+02  0.18673807699E+03  0.93416162837E+02 0.  0.
        -11    1    3    3    0    0  0.48498121827E+02 -0.13023393264E+03  0.12575103139E+03  0.18742002809E+03  0.00000000000E+00 0.  1.
         12    1    3    3    0    0 -0.26277670590E+02 -0.28773580233E+02  0.18866256715E+02  0.43294001126E+02  0.00000000000E+00 0. -1.
        -13    1    4    4    0    0 -0.37815039430E+02  0.87345281008E+02 -0.23056733993E+02  0.97932570189E+02  0.00000000000E+00 0. -1.
         13    1    4    4    0    0  0.45294284368E+02  0.55320587392E+02 -0.52673318227E+02  0.88805506805E+02  0.00000000000E+00 0.  1.
         -2    1    1    2    0  502 -0.29699696176E+02  0.16341644477E+02  0.81347335983E+02  0.88127807011E+02  0.00000000000E+00 0.  1.
<scales pt_clust_5="13000.00000" pt_clust_6="13000.00000" pt_clust_7="13000.00000" pt_clust_8="13000.00000" pt_clust_9="33.89871"></scales>
<clustering>
<clus scale="   33.899">  2  9  1 -1</clus>
<clus scale="   80.856">  5  6 -1 -1</clus>
<clus scale="   93.416">  7  8 -1 -1</clus>
<clus scale="  175.429">  1  5  2 -1</clus>
<clus scale="   33.899">  2  5  1 -1</clus>
</clustering>
</event>
<event>
 9    2  0.1325014E-004  0.1628032E+03  0.7546771E-02  0.1188030E+00
         21   -1    0    0  501  502  0.00000000000E+00  0.00000000000E+00  0.12662289541E+03  0.12662289541E+03  0.00000000000E+00 0. -1.
          2   -1    0    0  502    0 -0.00000000000E+00 -0.00000000000E+00 -0.25756538351E+03  0.25756538351E+03  0.00000000000E+00 0. -1.
         23    2    1    2    0    0  0.93392848891E+02  0.99446029383E+02 -0.13008378012E+03  0.21054662025E+03  0.93788871746E+02 0.  0.
         24    2    1    2    0    0 -0.10030666212E+03 -0.78646312855E+02  0.90347645940E+01  0.14959358556E+03  0.77781391593E+02 0.  0.
        -13    1    4    4    0    0 -0.28794136305E+02  0.16948077851E+01  0.28203014685E+02  0.40340856415E+02  0.00000000000E+00 0.  1.
         14    1    4    4    0    0 -0.71512525813E+02 -0.80341120640E+02 -0.19168250091E+02  0.10925272914E+03  0.00000000000E+00 0. -1.
        -11    1    3    3    0    0  0.63789576078E+02  0.10241457083E+03 -0.60723735361E+02  0.13507489171E+03  0.00000000000E+00 0. -1.
         11    1    3    3    0    0  0.29603272813E+02 -0.29685414439E+01 -0.69360044763E+02  0.75471728542E+02  0.00000000000E+00 0.  1.
          1    1    1    2  501    0  0.69138132273E+01 -0.20799716528E+02 -0.98934725736E+01  0.24048073115E+02  0.00000000000E+00 0. -1.
<scales pt_clust_5="13000.00000" pt_clust_6="13000.00000" pt_clust_7="13000.00000" pt_clust_8="13000.00000" pt_clust_9="21.91870"></scales>
<clustering>
<clus scale="   21.919">  1  9  2 -1</clus>
<clus scale="   77.781">  5  6 -1 -1</clus>
<clus scale="   93.789">  7  8 -1 -1</clus>
<clus scale="  154.138">  1  5  2 -1</clus>
<clus scale="   21.919">  1  5  2 -1</clus>
</clustering>
</event>
<event>
 9    2  0.1325014E-004  0.9533877E+02  0.7546771E-02  0.1298796E+00
         -3   -1    0    0    0  501 -0.00000000000E+00  0.00000000000E+00  0.24036852763E+02  0.24036852763E+02  0.00000000000E+00 0.  1.
         21   -1    0    0  501  502  0.00000000000E+00 -0.00000000000E+00 -0.74567850444E+03  0.74567850444E+03  0.00000000000E+00 0. -1.
         23    2    1    2    0    0  0.17830671279E+02 -0.51032964538E+01 -0.14683056230E+03  0.17490620133E+03  0.93214745435E+02 0.  0.
         24    2    1    2    0    0 -0.27460169139E+02 -0.21341974693E+02 -0.55160932064E+03  0.55833448428E+03  0.79088639811E+02 0.  0.
        -11    1    4    4    0    0 -0.38795569533E+02 -0.31797395874E+02 -0.19358817811E+03  0.19998138239E+03  0.00000000000E+00 0.  1.
         12    1    4    4    0    0  0.11335400395E+02  0.10455421181E+02 -0.35802114253E+03  0.35835310189E+03  0.00000000000E+00 0. -1.
        -13    1    3    3    0    0  0.37336956864E+02  0.29778246272E+02 -0.11251153366E+03  0.12222780987E+03  0.00000000000E+00 0.  1.
         13    1    3    3    0    0 -0.19506285585E+02 -0.34881542726E+02 -0.34319028633E+02  0.52678391458E+02  0.00000000000E+00 0. -1.
         -4    1    1    2    0  502  0.96294978599E+01  0.26445271147E+02 -0.23201768741E+02  0.36474671593E+02  0.00000000000E+00 0.  1.
<scales pt_clust_5="13000.00000" pt_clust_6="13000.00000" pt_clust_7="13000.00000" pt_clust_8="13000.00000" pt_clust_9="28.14392"></scales>
<clustering>
<clus scale="   28.144">  2  9  1 -1</clus>
<clus scale="   79.089">  5  6 -1 -1</clus>
<clus scale="   81.581">  2  5  1 -1</clus>
<clus scale="   93.215">  7  8 -1 -1</clus>
<clus scale="   28.144">  2  5  1 -1</clus>
</clustering>
</event>
<event>
 9    2  0.1325014E-004  0.1040566E+03  0.7546771E-02  0.1277994E+00
         21   -1    0    0  501  502  0.00000000000E+00  0.00000000000E+00  0.79871289082E+02  0.79871289082E+02  0.00000000000E+00 0.  1.
         -1   -1    0    0    0  501 -0.00000000000E+00 -0.00000000000E+00 -0.36126858100E+03  0.36126858100E+03  0.00000000000E+00 0.  1.
         23    2    1    2    0    0 -0.28389906076E+02  0.19742063509E+02 -0.13114412333E+03  0.16386265558E+03  0.91958974390E+02 0.  0.
         24    2    1    2    0    0  0.30754343338E+02 -0.99837408886E+02 -0.32592869858E+02  0.13492272454E+03  0.78920900811E+02 0.  0.
        -13    1    4    4    0    0  0.29622522189E+02 -0.11336389298E+03 -0.31352620437E+02  0.12129242705E+03  0.00000000000E+00 0.  1.
         14    1    4    4    0    0  0.11318211489E+01  0.13526484092E+02 -0.12402494209E+01  0.13630297489E+02  0.00000000000E+00 0. -1.
        -11    1    3    3    0    0 -0.56535231777E+02  0.28898632890E+02 -0.62424788897E+02  0.89040539552E+02  0.00000000000E+00 0. -1.
         11    1    3    3    0    0  0.28145325701E+02 -0.91565693807E+01 -0.68719334438E+02  0.74822116030E+02  0.00000000000E+00 0.  1.
         -2    1    1    2    0  502 -0.23644372625E+01  0.80095345377E+02 -0.11766029872E+03  0.14235448995E+03  0.00000000000E+00 0.  1.
<scales pt_clust_5="13000.00000" pt_clust_6="13000.00000" pt_clust_7="13000.00000" pt_clust_8="13000.00000" pt_clust_9="80.13028"></scales>
<clustering>
<clus scale="   78.921">  5  6 -1 -1</clus>
<clus scale="   80.130">  1  9  2 -1</clus>
<clus scale="   91.959">  7  8 -1 -1</clus>
<clus scale="   92.735">  1  5  2 -1</clus>
<clus scale="   80.130">  1  5  2 -1</clus>
</clustering>
</event>
<event>
 9    2  0.1325014E-004  0.1088459E+03  0.7546771E-02  0.1266886E+00
         21   -1    0    0  501  502  0.00000000000E+00  0.00000000000E+00  0.41504769292E+03  0.41504769292E+03  0.00000000000E+00 0.  1.
         -1   -1    0    0    0  501 -0.00000000000E+00 -0.00000000000E+00 -0.65431393462E+02  0.65431393462E+02  0.00000000000E+00 0.  1.
         24    2    1    2    0    0  0.75856089357E+01 -0.58971122091E+02  0.34459640886E+02  0.10638418938E+03  0.81209569612E+02 0.  0.
         23    2    1    2    0    0 -0.35853484667E+02  0.51198302054E+02  0.32484119701E+03  0.34321966722E+03  0.91494252248E+02 0.  0.
        -13    1    3    3    0    0  0.39280373630E+02 -0.27906080984E+02  0.38701061663E+02  0.61801855007E+02  0.00000000000E+00 0.  1.
         14    1    3    3    0    0 -0.31694764695E+02 -0.31065041107E+02 -0.42414207771E+01  0.44582334374E+02  0.00000000000E+00 0. -1.
        -11    1    4    4    0    0 -0.58445144735E+02  0.28123725614E+02  0.28315624960E+03  0.29048965657E+03  0.00000000000E+00 0.  1.
         11    1    4    4    0    0  0.22591660068E+02  0.23074576440E+02  0.41684947406E+02  0.52730010646E+02  0.00000000000E+00 0. -1.
         -2    1    1    2    0  502  0.28267875731E+02  0.77728200368E+01 -0.96845384352E+01  0.30875229787E+02  0.00000000000E+00 0.  1.
<scales pt_clust_5="13000.00000" pt_clust_6="13000.00000" pt_clust_7="13000.00000" pt_clust_8="13000.00000" pt_clust_9="29.31707"></scales>
<clustering>
<clus scale="   29.317">  1  9  2 -1</clus>
<clus scale="   81.210">  5  6 -1 -1</clus>
<clus scale="   91.494">  7  8 -1 -1</clus>
<clus scale="  100.356">  2  5  1 -1</clus>
<clus scale="   29.317">  1  5  2 -1</clus>
</clustering>
</event>
<event>
 9    2  0.1325014E-004  0.9768764E+02  0.7546771E-02  0.1290316E+00
         -3   -1    0    0    0  501 -0.00000000000E+00  0.00000000000E+00  0.35900143643E+03  0.35900143643E+03  0.00000000000E+00 0.  1.
         21   -1    0    0  501  502  0.00000000000E+00 -0.00000000000E+00 -0.54392089586E+02  0.54392089586E+02  0.00000000000E+00 0. -1.
         24    2    1    2    0    0  0.26318552815E+01 -0.43255127249E+02  0.19032892728E+03  0.21130411138E+03  0.80909790712E+02 0.  0.
         23    2    1    2    0    0 -0.28632360703E+02  0.73728254568E+01  0.19218419230E+02  0.97206862357E+02  0.90585075023E+02 0.  0.
        -11    1    3    3    0    0 -0.18358419010E+02 -0.61351172104E+02  0.13028375697E+03  0.14517181268E+03  0.00000000000E+00 0.  1.
         12    1    3    3    0    0  0.20990274291E+02  0.18096044855E+02  0.60045170306E+02  0.66132298700E+02  0.00000000000E+00 0. -1.
        -13    1    4    4    0    0 -0.38043659491E+02  0.42812513566E+02  0.19607883589E+02  0.60536769356E+02  0.00000000000E+00 0.  1.
         13    1    4    4    0    0  0.94112987874E+01 -0.35439688109E+02 -0.38946435928E+00  0.36670093000E+02  0.00000000000E+00 0. -1.
         -4    1    1    2    0  502  0.26000505422E+02  0.35882301793E+02  0.95062000338E+02  0.10488255228E+03  0.00000000000E+00 0.  1.
<scales pt_clust_5="13000.00000" pt_clust_6="13000.00000" pt_clust_7="13000.00000" pt_clust_8="13000.00000" pt_clust_9="44.31216"></scales>
<clustering>
<clus scale="   44.312">  2  9  1 -1</clus>
<clus scale="   80.910">  5  6 -1 -1</clus>
<clus scale="   88.790">  1  5  2 -1</clus>
<clus scale="   90.585">  7  8 -1 -1</clus>
<clus scale="   44.312">  2  5  1 -1</clus>
</clustering>
</event>
<event>
 9    2  0.1325014E-004  0.1811581E+03  0.7546771E-02  0.1168915E+00
         -1   -1    0    0    0  501 -0.00000000000E+00  0.00000000000E+00  0.24586642593E+03  0.24586642593E+03  0.00000000000E+00 0.  1.
         21   -1    0    0  501  502  0.00000000000E+00 -0.00000000000E+00 -0.28238114505E+03  0.28238114505E+03  0.00000000000E+00 0.  1.
         23    2    1    2    0    0 -0.16564602984E+02 -0.15234903745E+03  0.14808498181E+03  0.23450737257E+03  0.97877120247E+02 0.  0.
         24    2    1    2    0    0  0.41229301914E+02  0.14575940013E+03 -0.85542954070E+02  0.19144645572E+03  0.79928032355E+02 0.  0.
        -11    1    4    4    0    0  0.57769197346E+02  0.11476058076E+03 -0.88767856658E+02  0.15616338698E+03  0.00000000000E+00 0.  1.
         12    1    4    4    0    0 -0.16539895432E+02  0.30998819367E+02  0.32249025873E+01  0.35283068741E+02  0.00000000000E+00 0. -1.
        -13    1    3    3    0    0 -0.16720730582E+02 -0.50007901864E+02 -0.20962898167E+01  0.52770896439E+02  0.00000000000E+00 0. -1.
         13    1    3    3    0    0  0.15612759835E+00 -0.10234113559E+03  0.15018127163E+03  0.18173647613E+03  0.00000000000E+00 0.  1.
         -2    1    1    2    0  502 -0.24664698930E+02  0.65896373253E+01 -0.99056746865E+02  0.10229374269E+03  0.00000000000E+00 0.  1.
<scales pt_clust_5="13000.00000" pt_clust_6="13000.00000" pt_clust_7="13000.00000" pt_clust_8="13000.00000" pt_clust_9="25.52980"></scales>
<clustering>
<clus scale="   25.530">  2  9  1 -1</clus>
<clus scale="   79.928">  5  6 -1 -1</clus>
<clus scale="   97.877">  7  8 -1 -1</clus>
<clus scale="  172.124">  2  5  1 -1</clus>
<clus scale="   25.530">  2  5  1 -1</clus>
</clustering>
</event>
<event>
 9    2  0.1325014E-004  0.1419161E+03  0.7546771E-02  0.1235392E+00
         21   -1    0    0  501  502  0.00000000000E+00  0.00000000000E+00  0.10657272014E+03  0.10657272014E+03  0.00000000000E+00 0.  1.
          2   -1    0    0  502    0 -0.00000000000E+00 -0.00000000000E+00 -0.39504392228E+03  0.39504392228E+03  0.00000000000E+00 0. -1.
         24    2    1    2    0    0  0.28869595590E+02  0.85471375895E+01  0.25870444782E+02  0.88710911469E+02  0.79333717863E+02 0.  0.
         23    2    1    2    0    0  0.15771157676E+01  0.11012441194E+03 -0.12011393544E+03  0.18326613766E+03  0.83840600710E+02 0.  0.
        -11    1    3    3    0    0 -0.18292107728E+02  0.23951146916E+02  0.24891478294E+02  0.39087649397E+02  0.00000000000E+00 0.  1.
         12    1    3    3    0    0  0.47161703319E+02 -0.15404009326E+02  0.97896648717E+00  0.49623262072E+02  0.00000000000E+00 0. -1.
        -11    1    4    4    0    0 -0.25904342394E+02  0.10347477619E+03 -0.76403818301E+02  0.13120826084E+03  0.00000000000E+00 0. -1.
         11    1    4    4    0    0  0.27481458162E+02  0.66496357453E+01 -0.43710117142E+02  0.52057876818E+02  0.00000000000E+00 0.  1.
          1    1    1    2  501    0 -0.30446711358E+02 -0.11867154953E+03 -0.19422771148E+03  0.22963959329E+03  0.00000000000E+00 0. -1.
<scales pt_clust_5="13000.00000" pt_clust_6="13000.00000" pt_clust_7="13000.00000" pt_clust_8="13000.00000" pt_clust_9="114.50299"></scales>
<clustering>
<clus scale="   79.334">  5  6 -1 -1</clus>
<clus scale="   83.841">  7  8 -1 -1</clus>
<clus scale="   84.855">  2  5  1 -1</clus>
<clus scale="  114.503">  1  9  2 -1</clus>
<clus scale="  114.503">  1  5  2 -1</clus>
</clustering>
</event>
<event>
 9    2  0.1325014E-004  0.1085394E+03  0.7546771E-02  0.1268804E+00
          2   -1    0    0  502    0 -0.00000000000E+00  0.00000000000E+00  0.11057014224E+04  0.11057014224E+04  0.00000000000E+00 0. -1.
         21   -1    0    0  501  502  0.00000000000E+00 -0.00000000000E+00 -0.13682050850E+02  0.13682050850E+02  0.00000000000E+00 0.  1.
         24    2    1    2    0    0 -0.62363060083E+02  0.16795468790E+02  0.56458823057E+03  0.57335673305E+03  0.76202586546E+02 0.  0.
         23    2    1    2    0    0  0.47388456042E+02 -0.33629171384E+02  0.49561843088E+03  0.50704391279E+03  0.89885001718E+02 0.  0.
        -13    1    3    3    0    0 -0.54599785631E+02  0.12812341996E+02  0.17704826014E+03  0.18571854812E+03  0.00000000000E+00 0.  1.
         14    1    3    3    0    0 -0.77632744520E+01  0.39831267933E+01  0.38753997044E+03  0.38763818493E+03  0.00000000000E+00 0. -1.
        -13    1    4    4    0    0  0.11075327203E+02 -0.60329052293E+02  0.31223429704E+03  0.31820200136E+03  0.00000000000E+00 0.  1.
         13    1    4    4    0    0  0.36313128839E+02  0.26699880909E+02  0.18338413384E+03  0.18884191143E+03  0.00000000000E+00 0. -1.
          1    1    1    2  501    0  0.14974604041E+02  0.16833702594E+02  0.31812710082E+02  0.38982827398E+02  0.00000000000E+00 0. -1.
<scales pt_clust_5="13000.00000" pt_clust_6="13000.00000" pt_clust_7="13000.00000" pt_clust_8="13000.00000" pt_clust_9="22.53025"></scales>
<clustering>
<clus scale="   22.530">  2  9  1 -1</clus>
<clus scale="   76.203">  5  6 -1 -1</clus>
<clus scale="   89.885">  7  8 -1 -1</clus>
<clus scale="   97.511">  1  5  2 -1</clus>
<clus scale="   22.530">  2  5  1 -1</clus>
</clustering>
</event>
<event>
 9    2  0.1325014E-004  0.2118565E+03  0.7546771E-02  0.1141352E+00
         21   -1    0    0  501  502  0.00000000000E+00  0.00000000000E+00  0.45795664378E+03  0.45795664378E+03  0.00000000000E+00 0.  1.
          2   -1    0    0  502    0 -0.00000000000E+00 -0.00000000000E+00 -0.80895845415E+03  0.80895845415E+03  0.00000000000E+00 0. -1.
         23    2    1    2    0    0 -0.18868768716E+03  0.45282891220E+02 -0.74285757703E+03  0.77337142256E+03  0.92802984655E+02 0.  0.
         24    2    1    2    0    0  0.90557361663E+02 -0.52762662084E+02  0.37062747605E+03  0.39286523640E+03  0.77419853437E+02 0.  0.
        -11    1    4    4    0    0  0.48953889624E+02 -0.34874049670E+01  0.26183685778E+03  0.26639666926E+03  0.00000000000E+00 0.  1.
         12    1    4    4    0    0  0.41603472040E+02 -0.49275257117E+02  0.10879061827E+03  0.12646856713E+03  0.00000000000E+00 0. -1.
        -11    1    3    3    0    0 -0.29093540994E+02 -0.15903370599E+02 -0.51896658944E+02  0.61584206852E+02  0.00000000000E+00 0.  1.
         11    1    3    3    0    0 -0.15959414616E+03  0.61186261819E+02 -0.69096091808E+03  0.71178721570E+03  0.00000000000E+00 0. -1.
          1    1    1    2  501    0  0.98130325494E+02  0.74797708637E+01  0.21228290614E+02  0.10067843898E+03  0.00000000000E+00 0. -1.
<scales pt_clust_5="13000.00000" pt_clust_6="13000.00000" pt_clust_7="13000.00000" pt_clust_8="13000.00000" pt_clust_9="98.41498"></scales>
<clustering>
<clus scale="   77.420">  5  6 -1 -1</clus>
<clus scale="   92.803">  7  8 -1 -1</clus>
<clus scale="   98.415">  1  9  2 -1</clus>
<clus scale="  205.584">  1  5  2 -1</clus>
<clus scale="   98.415">  1  5  2 -1</clus>
</clustering>
</event>
<event>
 9    2  0.1325014E-004  0.1264190E+03  0.7546771E-02  0.1249874E+00
         -3   -1    0    0    0  501 -0.00000000000E+00  0.00000000000E+00  0.69105270617E+02  0.69105270617E+02  0.00000000000E+00 0.  1.
         21   -1    0    0  501  502  0.00000000000E+00 -0.00000000000E+00 -0.44884555604E+03  0.44884555604E+03  0.00000000000E+00 0.  1.
         23    2    1    2    0    0 -0.76561085074E+01  0.20059660692E+01 -0.22047185018E+03  0.23797051595E+03  0.89215973020E+02 0.  0.
         24    2    1    2    0    0 -0.80128687079E+02  0.49158144880E+02 -0.11554158484E+03  0.16936397361E+03  0.80605012437E+02 0.  0.
        -11    1    4    4    0    0 -0.65520336240E+02  0.66136676825E+02 -0.11361165964E+03  0.14688289107E+03  0.00000000000E+00 0.  1.
         12    1    4    4    0    0 -0.14608350839E+02 -0.16978531945E+02 -0.19299252034E+01  0.22481082548E+02  0.00000000000E+00 0. -1.
        -11    1    3    3    0    0 -0.28863636378E+02 -0.34900085776E+02 -0.90385319042E+02  0.10109713839E+03  0.00000000000E+00 0. -1.
         11    1    3    3    0    0  0.21207527870E+02  0.36906051845E+02 -0.13008653114E+03  0.13687337756E+03  0.00000000000E+00 0.  1.
         -4    1    1    2    0  502  0.87784795587E+02 -0.51164110949E+02 -0.43726850399E+02  0.11061633709E+03  0.00000000000E+00 0.  1.
<scales pt_clust_5="13000.00000" pt_clust_6="13000.00000" pt_clust_7="13000.00000" pt_clust_8="13000.00000" pt_clust_9="97.38887"></scales>
<clustering>
<clus scale="   80.605">  5  6 -1 -1</clus>
<clus scale="   89.216">  7  8 -1 -1</clus>
<clus scale="   89.566">  1  7  2 -1</clus>
<clus scale="   97.389">  2  9  1 -1</clus>
<clus scale="   97.389">  2  5  1 -1</clus>
</clustering>
</event>
<event>
 9    2  0.1325014E-004  0.1014870E+03  0.7546771E-02  0.1285111E+00
          2   -1    0    0  502    0 -0.00000000000E+00  0.00000000000E+00  0.56277707630E+03  0.56277707630E+03  0.00000000000E+00 0. -1.
         21   -1    0    0  501  502  0.00000000000E+00 -0.00000000000E+00 -0.29055579531E+02  0.29055579531E+02  0.00000000000E+00 0.  1.
         24    2    1    2    0    0 -0.51572220987E+00 -0.42880231654E+02  0.38233145200E+03  0.39190081865E+03  0.74631978617E+02 0.  0.
         23    2    1    2    0    0 -0.18397114665E+02  0.54461399112E+02  0.13388537282E+03  0.17167883064E+03  0.90795539627E+02 0.  0.
        -11    1    3    3    0    0  0.32521517594E+02 -0.10082658512E+02  0.97128298670E+02  0.10292334775E+03  0.00000000000E+00 0.  1.
         12    1    3    3    0    0 -0.33037239804E+02 -0.32797573142E+02  0.28520315333E+03  0.28897747090E+03  0.00000000000E+00 0. -1.
        -11    1    4    4    0    0 -0.82557106248E+01  0.25613111842E+02  0.13820115786E+03  0.14079683338E+03  0.00000000000E+00 0. -1.
         11    1    4    4    0    0 -0.10141404040E+02  0.28848287269E+02 -0.43157850464E+01  0.30881997261E+02  0.00000000000E+00 0.  1.
          1    1    1    2  501    0  0.18912836875E+02 -0.11581167457E+02  0.17504671953E+02  0.28253006539E+02  0.00000000000E+00 0. -1.
<scales pt_clust_5="13000.00000" pt_clust_6="13000.00000" pt_clust_7="13000.00000" pt_clust_8="13000.00000" pt_clust_9="22.17699"></scales>
<clustering>
<clus scale="   22.177">  2  9  1 -1</clus>
<clus scale="   74.632">  5  6 -1 -1</clus>
<clus scale="   87.325">  1  5  2 -1</clus>
<clus scale="   90.796">  7  8 -1 -1</clus>
<clus scale="   22.177">  2  5  1 -1</clus>
</clustering>
</event>
<event>
 9    2  0.1325014E-004  0.1197403E+03  0.7546771E-02  0.1247515E+00
          2   -1    0    0  502    0 -0.00000000000E+00  0.00000000000E+00  0.81757220616E+03  0.81757220616E+03  0.00000000000E+00 0. -1.
         21   -1    0    0  501  502  0.00000000000E+00 -0.00000000000E+00 -0.32162309659E+02  0.32162309659E+02  0.00000000000E+00 0.  1.
         23    2    1    2    0    0 -0.49312804731E+02  0.54171413400E+02  0.27996695728E+03  0.30350260833E+03  0.91466066698E+02 0.  0.
         24    2    1    2    0    0  0.15912878609E+02 -0.90300300484E+02  0.17882086808E+03  0.21592473393E+03  0.78988757984E+02 0.  0.
        -11    1    4    4    0    0  0.46349392915E+02 -0.71620589934E+02  0.12657249426E+03  0.15263804057E+03  0.00000000000E+00 0.  1.
         12    1    4    4    0    0 -0.30436514305E+02 -0.18679710550E+02  0.52248373823E+02  0.63286693360E+02  0.00000000000E+00 0. -1.
        -13    1    3    3    0    0 -0.73742618046E+02  0.40680892823E+02  0.16566914659E+03  0.18584718154E+03  0.00000000000E+00 0.  1.
         13    1    3    3    0    0  0.24429813315E+02  0.13490520577E+02  0.11429781069E+03  0.11765542679E+03  0.00000000000E+00 0. -1.
          1    1    1    2  501    0  0.33399926121E+02  0.36128887084E+02  0.32662207114E+03  0.33030717356E+03  0.00000000000E+00 0. -1.
<scales pt_clust_5="13000.00000" pt_clust_6="13000.00000" pt_clust_7="13000.00000" pt_clust_8="13000.00000" pt_clust_9="49.20217"></scales>
<clustering>
<clus scale="   49.202">  2  9  1 -1</clus>
<clus scale="   78.989">  5  6 -1 -1</clus>
<clus scale="   91.466">  7  8 -1 -1</clus>
<clus scale="  110.503">  2  5  1 -1</clus>
<clus scale="   49.202">  2  5  1 -1</clus>
</clustering>
</event>
<event>
 9    2  0.1325014E-004  0.1088029E+03  0.7546771E-02  0.1264196E+00
         21   -1    0    0  501  502  0.00000000000E+00  0.00000000000E+00  0.39016957826E+03  0.39016957826E+03  0.00000000000E+00 0. -1.
          2   -1    0    0  502    0 -0.00000000000E+00 -0.00000000000E+00 -0.15744689633E+03  0.15744689633E+03  0.00000000000E+00 0. -1.
         24    2    1    2    0    0  0.42009142094E+02 -0.59543481416E+02 -0.47199162351E+02  0.12230134903E+03  0.86137476453E+02 0.  0.
         23    2    1    2    0    0 -0.79896061851E+02 -0.32143937402E+02 -0.41457363768E+01  0.12442246722E+03  0.89705907321E+02 0.  0.
        -13    1    3    3    0    0  0.60128980167E+02 -0.17668737772E+02 -0.10067577171E+02  0.63474677317E+02  0.00000000000E+00 0.  1.
         14    1    3    3    0    0 -0.18119838073E+02 -0.41874743644E+02 -0.37131585180E+02  0.58826671715E+02  0.00000000000E+00 0. -1.
        -11    1    4    4    0    0 -0.13802398075E+02 -0.33275780910E+02 -0.36100829366E+02  0.51000526161E+02  0.00000000000E+00 0. -1.
         11    1    4    4    0    0 -0.66093663777E+02  0.11318435076E+01  0.31955092989E+02  0.73421941061E+02  0.00000000000E+00 0.  1.
          1    1    1    2  501    0  0.37886919757E+02  0.91687418818E+02  0.28406758065E+03  0.30089265833E+03  0.00000000000E+00 0. -1.
<scales pt_clust_5="13000.00000" pt_clust_6="13000.00000" pt_clust_7="13000.00000" pt_clust_8="13000.00000" pt_clust_9="99.20686"></scales>
<clustering>
<clus scale="   86.137">  5  6 -1 -1</clus>
<clus scale="   89.706">  7  8 -1 -1</clus>
<clus scale="   99.207">  1  9  2 -1</clus>
<clus scale="  105.880">  2  5  1 -1</clus>
<clus scale="   99.207">  1  5  2 -1</clus>
</clustering>
</event>
<event>
 9    2  0.1325014E-004  0.1434709E+03  0.7546771E-02  0.1209016E+00
         21   -1    0    0  501  502  0.00000000000E+00  0.00000000000E+00  0.44217629070E+03  0.44217629070E+03  0.00000000000E+00 0. -1.
          2   -1    0    0  502    0 -0.00000000000E+00 -0.00000000000E+00 -0.10528931312E+03  0.10528931312E+03  0.00000000000E+00 0. -1.
         24    2    1    2    0    0  0.12432980221E+03  0.31405855807E+02 -0.12013115002E+02  0.15081136732E+03  0.78457160817E+02 0.  0.
         23    2    1    2    0    0 -0.82107872244E+02  0.79952587504E+01  0.29901455947E+03  0.32034102916E+03  0.80019006142E+02 0.  0.
        -11    1    3    3    0    0  0.20290892599E+02 -0.14804602950E+02  0.20498056436E+02  0.32420162069E+02  0.00000000000E+00 0.  1.
         12    1    3    3    0    0  0.10403890962E+03  0.46210458757E+02 -0.32511171438E+02  0.11839120525E+03  0.00000000000E+00 0. -1.
        -11    1    4    4    0    0 -0.74836686994E+02 -0.15129042959E+02  0.27788862268E+03  0.28818657893E+03  0.00000000000E+00 0. -1.
         11    1    4    4    0    0 -0.72711852498E+01  0.23124301709E+02  0.21125936788E+02  0.32154450231E+02  0.00000000000E+00 0.  1.
          1    1    1    2  501    0 -0.42221929970E+02 -0.39401114558E+02  0.49885533115E+02  0.76313207329E+02  0.00000000000E+00 0. -1.
<scales pt_clust_5="13000.00000" pt_clust_6="13000.00000" pt_clust_7="13000.00000" pt_clust_8="13000.00000" pt_clust_9="57.75066"></scales>
<clustering>
<clus scale="   57.751">  1  9  2 -1</clus>
<clus scale="   78.457">  5  6 -1 -1</clus>
<clus scale="   80.019">  7  8 -1 -1</clus>
<clus scale="  142.606">  2  5  1 -1</clus>
<clus scale="   57.751">  1  5  2 -1</clus>
</clustering>
</event>
<event>
 9    2  0.1325014E-004  0.1199407E+03  0.7546771E-02  0.1259069E+00
          4   -1    0    0  502    0 -0.00000000000E+00  0.00000000000E+00  0.10418630347E+04  0.10418630347E+04  0.00000000000E+00 0. -1.
         21   -1    0    0  501  502  0.00000000000E+00 -0.00000000000E+00 -0.28102495215E+02  0.28102495215E+02  0.00000000000E+00 0. -1.
         24    2    1    2    0    0 -0.29721026231E+02 -0.27248255258E+02  0.60427675473E+03  0.61056393929E+03  0.77537867135E+02 0.  0.
         23    2    1    2    0    0  0.69578796201E+01 -0.64825039370E+02  0.19348849738E+03  0.22349988102E+03  0.90904897440E+02 0.  0.
        -11    1    3    3    0    0 -0.19819466555E+02 -0.23783191882E+02  0.74410930394E+02  0.80594280397E+02  0.00000000000E+00 0.  1.
         12    1    3    3    0    0 -0.99015596757E+01 -0.34650633761E+01  0.52986582434E+03  0.52996965889E+03  0.00000000000E+00 0. -1.
        -11    1    4    4    0    0  0.22475762587E+02 -0.36227053590E+02  0.18503481954E+03  0.18988271053E+03  0.00000000000E+00 0.  1.
         11    1    4    4    0    0 -0.15517882967E+02 -0.28597985780E+02  0.84536778348E+01  0.33617170484E+02  0.00000000000E+00 0. -1.
          3    1    1    2  501    0  0.22763146611E+02  0.92073294628E+02  0.21599528739E+03  0.23590170962E+03  0.00000000000E+00 0. -1.
<scales pt_clust_5="13000.00000" pt_clust_6="13000.00000" pt_clust_7="13000.00000" pt_clust_8="13000.00000" pt_clust_9="78.24365"></scales>
<clustering>
<clus scale="   77.538">  5  6 -1 -1</clus>
<clus scale="   87.395">  1  5  2 -1</clus>
<clus scale="   78.244">  2  9  1 -1</clus>
<clus scale="   90.905">  7  8 -1 -1</clus>
<clus scale="   78.244">  2  5  1 -1</clus>
</clustering>
</event>
<event>
 9    2  0.1325014E-004  0.1073311E+03  0.7546771E-02  0.1267845E+00
          2   -1    0    0  502    0 -0.00000000000E+00  0.00000000000E+00  0.58851048002E+02  0.58851048002E+02  0.00000000000E+00 0. -1.
         21   -1    0    0  501  502  0.00000000000E+00 -0.00000000000E+00 -0.60918767801E+03  0.60918767801E+03  0.00000000000E+00 0. -1.
         23    2    1    2    0    0  0.47417376080E+02  0.58616172327E+02 -0.89524779155E+02  0.14868538581E+03  0.91697299081E+02 0.  0.
         24    2    1    2    0    0 -0.62817411724E+02  0.42957519366E+02 -0.11787724656E+03  0.16136099564E+03  0.79692847684E+02 0.  0.
        -13    1    4    4    0    0 -0.21134272448E+02  0.14466583864E+02  0.70941974742E+01  0.26575687355E+02  0.00000000000E+00 0.  1.
         14    1    4    4    0    0 -0.41683139276E+02  0.28490935502E+02 -0.12497144404E+03  0.13478530829E+03  0.00000000000E+00 0. -1.
        -11    1    3    3    0    0  0.56457013215E+02  0.35387531081E+02 -0.12585135842E+02  0.67808976849E+02  0.00000000000E+00 0. -1.
         11    1    3    3    0    0 -0.90396371347E+01  0.23228641246E+02 -0.76939643313E+02  0.80876408963E+02  0.00000000000E+00 0.  1.
          1    1    1    2  501    0  0.15400035643E+02 -0.10157369169E+03 -0.34293460429E+03  0.35799234456E+03  0.00000000000E+00 0. -1.
<scales pt_clust_5="13000.00000" pt_clust_6="13000.00000" pt_clust_7="13000.00000" pt_clust_8="13000.00000" pt_clust_9="102.73449"></scales>
<clustering>
<clus scale="   79.693">  5  6 -1 -1</clus>
<clus scale="   91.697">  7  8 -1 -1</clus>
<clus scale="  102.734">  2  9  1 -1</clus>
<clus scale="  102.734">  2  5  1 -1</clus>
<clus scale="  102.734">  2  5  1 -1</clus>
</clustering>
</event>
<event>
 9    2  0.1325014E-004  0.1471074E+03  0.7546771E-02  0.1205993E+00
         21   -1    0    0  501  502  0.00000000000E+00  0.00000000000E+00  0.78421534881E+02  0.78421534881E+02  0.00000000000E+00 0. -1.
          2   -1    0    0  502    0 -0.00000000000E+00 -0.00000000000E+00 -0.42996252080E+03  0.42996252080E+03  0.00000000000E+00 0. -1.
         23    2    1    2    0    0 -0.43987145960E+02 -0.10059830232E+03 -0.15553371918E+03  0.21077183360E+03  0.90438601260E+02 0.  0.
         24    2    1    2    0    0  0.78880536772E+02  0.10237917096E+03 -0.71246261475E+02  0.16805131497E+03  0.80383959604E+02 0.  0.
        -11    1    4    4    0    0  0.20193192914E+02 -0.71624941616E+00  0.11654470943E+02  0.23326052950E+02  0.00000000000E+00 0.  1.
         12    1    4    4    0    0  0.58687343858E+02  0.10309542038E+03 -0.82900732418E+02  0.14472526202E+03  0.00000000000E+00 0. -1.
        -13    1    3    3    0    0  0.28284610069E+01 -0.30831717412E+02 -0.11188913863E+03  0.11609381695E+03  0.00000000000E+00 0.  1.
         13    1    3    3    0    0 -0.46815606967E+02 -0.69766584913E+02 -0.43644580550E+02  0.94678016654E+02  0.00000000000E+00 0. -1.
          1    1    1    2  501    0 -0.34893390812E+02 -0.17808686398E+01 -0.12476100526E+03  0.12956090710E+03  0.00000000000E+00 0. -1.
<scales pt_clust_5="13000.00000" pt_clust_6="13000.00000" pt_clust_7="13000.00000" pt_clust_8="13000.00000" pt_clust_9="34.93882"></scales>
<clustering>
<clus scale="   34.939">  1  9  2 -1</clus>
<clus scale="   80.384">  5  6 -1 -1</clus>
<clus scale="   90.439">  7  8 -1 -1</clus>
<clus scale="  141.149">  1  5  2 -1</clus>
<clus scale="   34.939">  1  5  2 -1</clus>
</clustering>
</event>
<event>
 9    2  0.1325014E-004  0.1584954E+03  0.7546771E-02  0.1191816E+00
         21   -1    0    0  501  502  0.00000000000E+00  0.00000000000E+00  0.50210036408E+03  0.50210036408E+03  0.00000000000E+00 0. -1.
          4   -1    0    0  502    0 -0.00000000000E+00 -0.00000000000E+00 -0.10003738251E+03  0.10003738251E+03  0.00000000000E+00 0. -1.
         24    2    1    2    0    0  0.11750447863E+03  0.47923002542E+02  0.91277249664E+01  0.15182307960E+03  0.82843318786E+02 0.  0.
         23    2    1    2    0    0 -0.11013921093E+03 -0.92433705392E+02  0.26934040542E+03  0.31874287260E+03  0.91532120949E+02 0.  0.
        -11    1    3    3    0    0  0.24845042084E+02 -0.56991465731E+01  0.33433240056E+02  0.42042097099E+02  0.00000000000E+00 0.  1.
         12    1    3    3    0    0  0.92659436543E+02  0.53622149115E+02 -0.24305515089E+02  0.10978098251E+03  0.00000000000E+00 0. -1.
        -11    1    4    4    0    0 -0.73043324204E+02 -0.40646814272E+01  0.96320925162E+02  0.12095275718E+03  0.00000000000E+00 0.  1.
         11    1    4    4    0    0 -0.37095886721E+02 -0.88369023965E+02  0.17301948026E+03  0.19779011542E+03  0.00000000000E+00 0. -1.
          3    1    1    2  501    0 -0.73652677011E+01  0.44510702850E+02  0.12359485119E+03  0.13157179438E+03  0.00000000000E+00 0. -1.
<scales pt_clust_5="13000.00000" pt_clust_6="13000.00000" pt_clust_7="13000.00000" pt_clust_8="13000.00000" pt_clust_9="45.11596"></scales>
<clustering>
<clus scale="   45.116">  1  9  2 -1</clus>
<clus scale="   82.843">  5  6 -1 -1</clus>
<clus scale="   91.532">  7  8 -1 -1</clus>
<clus scale="  153.641">  2  5  1 -1</clus>
<clus scale="   45.116">  1  5  2 -1</clus>
</clustering>
</event>
<event>
 9    2  0.1325014E-004  0.1415060E+03  0.7546771E-02  0.1213089E+00
         21   -1    0    0  501  502  0.00000000000E+00  0.00000000000E+00  0.17363287790E+03  0.17363287790E+03  0.00000000000E+00 0. -1.
          2   -1    0    0  502    0 -0.00000000000E+00 -0.00000000000E+00 -0.23119904106E+03  0.23119904106E+03  0.00000000000E+00 0. -1.
         24    2    1    2    0    0  0.11594802719E+02 -0.85887812415E+02 -0.55163141889E+02  0.13290333524E+03  0.84315885361E+02 0.  0.
         23    2    1    2    0    0 -0.68972405938E+02  0.14724156602E+03  0.81697668833E+01  0.18726302825E+03  0.92538776276E+02 0.  0.
        -11    1    3    3    0    0  0.35424573827E+02 -0.88337424923E+02 -0.52777416303E+02  0.10882948472E+03  0.00000000000E+00 0.  1.
         12    1    3    3    0    0 -0.23829771108E+02  0.24496125071E+01 -0.23857255864E+01  0.24073850524E+02  0.00000000000E+00 0. -1.
        -11    1    4    4    0    0  0.61273518654E+01  0.24734272036E+02 -0.29233667296E+02  0.38780613167E+02  0.00000000000E+00 0.  1.
         11    1    4    4    0    0 -0.75099757803E+02  0.12250729398E+03  0.37403434179E+02  0.14848241509E+03  0.00000000000E+00 0. -1.
          1    1    1    2  501    0  0.57377603219E+02 -0.61353753605E+02 -0.10572788161E+02  0.84665555464E+02  0.00000000000E+00 0. -1.
<scales pt_clust_5="13000.00000" pt_clust_6="13000.00000" pt_clust_7="13000.00000" pt_clust_8="13000.00000" pt_clust_9="84.00281"></scales>
<clustering>
<clus scale="   84.003">  1  9  2 -1</clus>
<clus scale="   84.316">  5  6 -1 -1</clus>
<clus scale="   92.539">  7  8 -1 -1</clus>
<clus scale="  136.271">  2  5  1 -1</clus>
<clus scale="   84.003">  1  5  2 -1</clus>
</clustering>
</event>
<event>
 9    2  0.1325014E-004  0.1487385E+03  0.7546771E-02  0.1204203E+00
          2   -1    0    0  502    0 -0.00000000000E+00  0.00000000000E+00  0.76866747733E+03  0.76866747733E+03  0.00000000000E+00 0. -1.
         21   -1    0    0  501  502  0.00000000000E+00 -0.00000000000E+00 -0.88970440188E+02  0.88970440188E+02  0.00000000000E+00 0. -1.
         23    2    1    2    0    0  0.89771298411E+02 -0.10539854765E+03  0.55522642432E+03  0.57938545286E+03  0.90793066093E+02 0.  0.
         24    2    1    2    0    0 -0.97876850574E+02 -0.12762647381E+02  0.88780791413E+02  0.15455310598E+03  0.79131982140E+02 0.  0.
        -13    1    4    4    0    0 -0.17988575532E+02  0.96314097211E+01 -0.12266804340E+02  0.23808137088E+02  0.00000000000E+00 0.  1.
         14    1    4    4    0    0 -0.79888275042E+02 -0.22394057102E+02  0.10104759575E+03  0.13074496889E+03  0.00000000000E+00 0. -1.
        -13    1    3    3    0    0  0.62259436339E+02 -0.11836762704E+03  0.41997669999E+03  0.44075793933E+03  0.00000000000E+00 0. -1.
         13    1    3    3    0    0  0.27511862072E+02  0.12969079398E+02  0.13524972433E+03  0.13862751353E+03  0.00000000000E+00 0.  1.
          1    1    1    2  501    0  0.81055521626E+01  0.11816119503E+03  0.35689821402E+02  0.12369935868E+03  0.00000000000E+00 0. -1.
<scales pt_clust_5="13000.00000" pt_clust_6="13000.00000" pt_clust_7="13000.00000" pt_clust_8="13000.00000" pt_clust_9="118.43888"></scales>
<clustering>
<clus scale="   79.132">  5  6 -1 -1</clus>
<clus scale="   90.793">  7  8 -1 -1</clus>
<clus scale="  118.439">  2  9  1 -1</clus>
<clus scale="  141.921">  2  5  1 -1</clus>
<clus scale="  118.439">  2  5  1 -1</clus>
</clustering>
</event>
<event>
 9    2  0.1325014E-004  0.1011450E+03  0.7546771E-02  0.1288987E+00
         21   -1    0    0  501  502  0.00000000000E+00  0.00000000000E+00  0.44783630750E+02  0.44783630750E+02  0.00000000000E+00 0.  1.
          2   -1    0    0  502    0 -0.00000000000E+00 -0.00000000000E+00 -0.62587159659E+03  0.62587159659E+03  0.00000000000E+00 0. -1.
         24    2    1    2    0    0  0.28533184018E+02  0.63201655557E+01 -0.23082219216E+03  0.24601784555E+03  0.79948788954E+02 0.  0.
         23    2    1    2    0    0  0.27945904644E+02  0.20476044547E+02 -0.47622983767E+02  0.11560569632E+03  0.99481085906E+02 0.  0.
        -11    1    3    3    0    0 -0.78246140334E+00  0.39984552948E+02 -0.95973428733E+02  0.10397247589E+03  0.00000000000E+00 0.  1.
         12    1    3    3    0    0  0.29315645421E+02 -0.33664387392E+02 -0.13484876342E+03  0.14204536966E+03  0.00000000000E+00 0. -1.
        -13    1    4    4    0    0  0.17823212660E+02  0.52453924776E+02  0.23162989226E+01  0.55447690436E+02  0.00000000000E+00 0.  1.
         13    1    4    4    0    0  0.10122691984E+02 -0.31977880229E+02 -0.49939282689E+02  0.60158005889E+02  0.00000000000E+00 0. -1.
          1    1    1    2  501    0 -0.56479088662E+02 -0.26796210103E+02 -0.30264278992E+03  0.30903168547E+03  0.00000000000E+00 0. -1.
<scales pt_clust_5="13000.00000" pt_clust_6="13000.00000" pt_clust_7="13000.00000" pt_clust_8="13000.00000" pt_clust_9="62.51342"></scales>
<clustering>
<clus scale="   62.513">  1  9  2 -1</clus>
<clus scale="   79.949">  5  6 -1 -1</clus>
<clus scale="   82.010">  2  5  1 -1</clus>
<clus scale="   99.481">  7  8 -1 -1</clus>
<clus scale="   62.513">  1  5  2 -1</clus>
</clustering>
</event>
<event>
 9    2  0.1325014E-004  0.1724638E+03  0.7546771E-02  0.1176698E+00
         21   -1    0    0  501  502  0.00000000000E+00  0.00000000000E+00  0.33805419062E+03  0.33805419062E+03  0.00000000000E+00 0. -1.
         -3   -1    0    0    0  501 -0.00000000000E+00 -0.00000000000E+00 -0.19907688059E+03  0.19907688059E+03  0.00000000000E+00 0.  1.
         23    2    1    2    0    0  0.89792422786E+02  0.89872712218E+02 -0.10216728620E+02  0.15675054906E+03  0.91250038334E+02 0.  0.
         24    2    1    2    0    0 -0.20589576172E+03 -0.50210127520E+02  0.10596791122E+03  0.25029745627E+03  0.80656660044E+02 0.  0.
        -11    1    4    4    0    0 -0.95405139075E+02 -0.19346343903E+02  0.50034300403E+01  0.97475411754E+02  0.00000000000E+00 0.  1.
         12    1    4    4    0    0 -0.11049062264E+03 -0.30863783617E+02  0.10096448118E+03  0.15282204452E+03  0.00000000000E+00 0. -1.
        -13    1    3    3    0    0  0.10050717901E+03  0.53367109582E+02 -0.23972537426E+02  0.11629455691E+03  0.00000000000E+00 0.  1.
         13    1    3    3    0    0 -0.10714756221E+02  0.36505602636E+02  0.13755808806E+02  0.40455992147E+02  0.00000000000E+00 0. -1.
         -4    1    1    2    0  502  0.11610333893E+03 -0.39662584698E+02  0.43226127423E+02  0.13008306588E+03  0.00000000000E+00 0.  1.
<scales pt_clust_5="13000.00000" pt_clust_6="13000.00000" pt_clust_7="13000.00000" pt_clust_8="13000.00000" pt_clust_9="122.69110"></scales>
<clustering>
<clus scale="   80.657">  5  6 -1 -1</clus>
<clus scale="   91.250">  7  8 -1 -1</clus>
<clus scale="  122.691">  1  9  2 -1</clus>
<clus scale="  167.101">  1  5  2 -1</clus>
<clus scale="  122.691">  1  5  2 -1</clus>
</clustering>
</event>
<event>
 9    2  0.1367706E-004  0.1210760E+03  0.7546771E-02  0.1242461E+00
         21   -1    0    0  501  502  0.00000000000E+00  0.00000000000E+00  0.12234164955E+03  0.12234164955E+03  0.00000000000E+00 0.  1.
          2   -1    0    0  502    0 -0.00000000000E+00 -0.00000000000E+00 -0.94826247984E+03  0.94826247984E+03  0.00000000000E+00 0. -1.
         24    2    1    2    0    0 -0.19844100830E+02 -0.80153180938E+02 -0.90297919818E+03  0.91080412652E+03  0.85874348875E+02 0.  0.
         23    2    1    2    0    0 -0.29962829129E+01  0.55747457964E+02  0.66388418072E+02  0.12471196684E+03  0.89604106150E+02 0.  0.
        -11    1    3    3    0    0  0.12140666826E+02 -0.17375886740E+02 -0.42971309546E+02  0.47915036002E+02  0.00000000000E+00 0.  1.
         12    1    3    3    0    0 -0.31984767656E+02 -0.62777294198E+02 -0.86000788863E+03  0.86288909052E+03  0.00000000000E+00 0. -1.
        -13    1    4    4    0    0 -0.32653422868E+02 -0.46892359844E+01  0.45511396109E+01  0.33300868320E+02  0.00000000000E+00 0.  1.
         13    1    4    4    0    0  0.29657139955E+02  0.60436693948E+02  0.61837278462E+02  0.91411098523E+02  0.00000000000E+00 0. -1.
          1    1    1    2  501    0  0.22840383743E+02  0.24405722974E+02  0.10669949805E+02  0.35088036027E+02  0.00000000000E+00 0. -1.
<scales pt_clust_5="13000.00000" pt_clust_6="13000.00000" pt_clust_7="13000.00000" pt_clust_8="13000.00000" pt_clust_9="33.42637"></scales>
<clustering>
<clus scale="   33.426">  1  9  2 -1</clus>
<clus scale="   85.874">  5  6 -1 -1</clus>
<clus scale="   89.604">  7  8 -1 -1</clus>
<clus scale="  118.342">  2  5  1 -1</clus>
<clus scale="   33.426">  1  5  2 -1</clus>
</clustering>
</event>
<event>
 9    2  0.1325014E-004  0.1061280E+03  0.7546771E-02  0.1272677E+00
         21   -1    0    0  501  502  0.00000000000E+00  0.00000000000E+00  0.86690688690E+02  0.86690688690E+02  0.00000000000E+00 0. -1.
          2   -1    0    0  502    0 -0.00000000000E+00 -0.00000000000E+00 -0.33687164635E+03  0.33687164635E+03  0.00000000000E+00 0. -1.
         24    2    1    2    0    0  0.27282686232E+02  0.46792122407E+02 -0.24910241883E+03  0.26731519934E+03  0.80445963482E+02 0.  0.
         23    2    1    2    0    0 -0.57251967379E+02 -0.24223607222E+02  0.21210986101E+02  0.11260863651E+03  0.91467087906E+02 0.  0.
        -11    1    3    3    0    0 -0.12492816985E+02 -0.15892244944E+02 -0.82155018754E+02  0.84605443277E+02  0.00000000000E+00 0.  1.
         12    1    3    3    0    0  0.39775503217E+02  0.62684367351E+02 -0.16694740008E+03  0.18270975606E+03  0.00000000000E+00 0. -1.
        -11    1    4    4    0    0 -0.53414945953E+02 -0.55310858749E+02  0.43014134492E+01  0.77012659377E+02  0.00000000000E+00 0.  1.
         11    1    4    4    0    0 -0.38370214261E+01  0.31087251526E+02  0.16909572652E+02  0.35595977135E+02  0.00000000000E+00 0. -1.
          1    1    1    2  501    0  0.29969281147E+02 -0.22568515185E+02 -0.22289524927E+02  0.43638499190E+02  0.00000000000E+00 0. -1.
<scales pt_clust_5="13000.00000" pt_clust_6="13000.00000" pt_clust_7="13000.00000" pt_clust_8="13000.00000" pt_clust_9="37.51661"></scales>
<clustering>
<clus scale="   37.517">  1  9  2 -1</clus>
<clus scale="   80.446">  5  6 -1 -1</clus>
<clus scale="   91.467">  7  8 -1 -1</clus>
<clus scale="   96.791">  2  5  1 -1</clus>
<clus scale="   37.517">  1  5  2 -1</clus>
</clustering>
</event>
<event>
 9    2  0.1325014E-004  0.1753885E+03  0.7546771E-02  0.1174006E+00
         -1   -1    0    0    0  501 -0.00000000000E+00  0.00000000000E+00  0.27460512866E+03  0.27460512866E+03  0.00000000000E+00 0.  1.
         21   -1    0    0  501  502  0.00000000000E+00 -0.00000000000E+00 -0.25221644402E+03  0.25221644402E+03  0.00000000000E+00 0.  1.
         23    2    1    2    0    0 -0.10416171512E+02 -0.12362196613E+03  0.59739664278E+02  0.16632820511E+03  0.93302503648E+02 0.  0.
         24    2    1    2    0    0  0.83802749756E+00  0.22456310949E+03 -0.78443664530E+02  0.25108832190E+03  0.80390574407E+02 0.  0.
        -13    1    4    4    0    0  0.32769628894E+02  0.45757913524E+02 -0.26260941415E+02  0.62106942220E+02  0.00000000000E+00 0.  1.
         14    1    4    4    0    0 -0.31931601396E+02  0.17880519597E+03 -0.52182723115E+02  0.18898137968E+03  0.00000000000E+00 0. -1.
        -11    1    3    3    0    0 -0.22043753578E+02  0.15105480186E+01  0.29872776079E+02  0.37156312759E+02  0.00000000000E+00 0. -1.
         11    1    3    3    0    0  0.11627582066E+02 -0.12513251415E+03  0.29866888199E+02  0.12917189235E+03  0.00000000000E+00 0.  1.
         -2    1    1    2    0  502  0.95781440149E+01 -0.10094114336E+03  0.41092684894E+02  0.10940504567E+03  0.00000000000E+00 0.  1.
<scales pt_clust_5="13000.00000" pt_clust_6="13000.00000" pt_clust_7="13000.00000" pt_clust_8="13000.00000" pt_clust_9="101.39460"></scales>
<clustering>
<clus scale="   80.391">  5  6 -1 -1</clus>
<clus scale="   93.303">  7  8 -1 -1</clus>
<clus scale="  101.395">  2  9  1 -1</clus>
<clus scale="  168.874">  2  5  1 -1</clus>
<clus scale="  101.395">  2  5  1 -1</clus>
</clustering>
</event>
<event>
 9    2  0.1325014E-004  0.3197067E+03  0.7546771E-02  0.1076373E+00
         21   -1    0    0  501  502  0.00000000000E+00  0.00000000000E+00  0.12433591135E+03  0.12433591135E+03  0.00000000000E+00 0. -1.
         -3   -1    0    0    0  501 -0.00000000000E+00 -0.00000000000E+00 -0.13867157402E+04  0.13867157402E+04  0.00000000000E+00 0.  1.
         23    2    1    2    0    0  0.15476664882E+03  0.27110839510E+03 -0.10745514088E+04  0.11233575110E+04  0.99090311635E+02 0.  0.
         24    2    1    2    0    0 -0.11671903077E+03 -0.25258732097E+03 -0.18776697936E+03  0.34537800645E+03  0.81276330758E+02 0.  0.
        -13    1    4    4    0    0 -0.12853185790E+03 -0.22593403740E+03 -0.16071957622E+03  0.30560989829E+03  0.00000000000E+00 0.  1.
         14    1    4    4    0    0  0.11812827132E+02 -0.26653283564E+02 -0.27047403145E+02  0.39768108158E+02  0.00000000000E+00 0. -1.
        -11    1    3    3    0    0  0.14787914282E+02  0.56509417056E+02 -0.34994648055E+03  0.35478801540E+03  0.00000000000E+00 0.  1.
         11    1    3    3    0    0  0.13997873454E+03  0.21459897804E+03 -0.72460492828E+03  0.76856949561E+03  0.00000000000E+00 0. -1.
         -4    1    1    2    0  502 -0.38047618055E+02 -0.18521074127E+02 -0.61440632958E-01  0.42316134055E+02  0.00000000000E+00 0.  1.
<scales pt_clust_5="13000.00000" pt_clust_6="13000.00000" pt_clust_7="13000.00000" pt_clust_8="13000.00000" pt_clust_9="42.31609"></scales>
<clustering>
<clus scale="   42.316">  1  9  2 -1</clus>
<clus scale="   81.276">  5  6 -1 -1</clus>
<clus scale="   99.090">  7  8 -1 -1</clus>
<clus scale="  314.642">  1  5  2 -1</clus>
<clus scale="   42.316">  1  5  2 -1</clus>
</clustering>
</event>
<event>
 9    2  0.1325014E-004  0.1262205E+03  0.7546771E-02  0.1249175E+00
          2   -1    0    0  502    0 -0.00000000000E+00  0.00000000000E+00  0.81379252016E+03  0.81379252016E+03  0.00000000000E+00 0. -1.
         21   -1    0    0  501  502  0.00000000000E+00 -0.00000000000E+00 -0.37294379716E+02  0.37294379716E+02  0.00000000000E+00 0.  1.
         23    2    1    2    0    0  0.16726059188E+02 -0.11636236193E+02  0.10016611251E+03  0.13550334031E+03  0.88953595145E+02 0.  0.
         24    2    1    2    0    0  0.78602415601E+02 -0.24646215107E+02  0.48590766608E+03  0.49956186630E+03  0.81670206599E+02 0.  0.
        -11    1    4    4    0    0  0.21747760913E+02 -0.46012529260E+02  0.15545177433E+03  0.16357069449E+03  0.00000000000E+00 0.  1.
         12    1    4    4    0    0  0.56854654689E+02  0.21366314153E+02  0.33045589175E+03  0.33599117181E+03  0.00000000000E+00 0. -1.
        -11    1    3    3    0    0 -0.18407101660E+02 -0.24919005441E+02  0.91985715012E+02  0.97062608609E+02  0.00000000000E+00 0. -1.
         11    1    3    3    0    0  0.35133160848E+02  0.13282769248E+02  0.81803975011E+01  0.38440731697E+02  0.00000000000E+00 0.  1.
          1    1    1    2  501    0 -0.95328474789E+02  0.36282451299E+02  0.19042436185E+03  0.21602169327E+03  0.00000000000E+00 0. -1.
<scales pt_clust_5="13000.00000" pt_clust_6="13000.00000" pt_clust_7="13000.00000" pt_clust_8="13000.00000" pt_clust_9="96.23713"></scales>
<clustering>
<clus scale="   81.670">  5  6 -1 -1</clus>
<clus scale="   88.954">  7  8 -1 -1</clus>
<clus scale="   91.257">  1  7  2 -1</clus>
<clus scale="   96.237">  2  9  1 -1</clus>
<clus scale="   96.237">  2  5  1 -1</clus>
</clustering>
</event>
<event>
 9    2  0.1325014E-004  0.1077775E+03  0.7546771E-02  0.1277838E+00
         -1   -1    0    0    0  501 -0.00000000000E+00  0.00000000000E+00  0.53554761686E+03  0.53554761686E+03  0.00000000000E+00 0.  1.
         21   -1    0    0  501  502  0.00000000000E+00 -0.00000000000E+00 -0.48861411743E+02  0.48861411743E+02  0.00000000000E+00 0. -1.
         24    2    1    2    0    0 -0.40805952789E+02 -0.33206378664E+02  0.27768593134E+03  0.28860522570E+03  0.58444079820E+02 0.  0.
         23    2    1    2    0    0  0.96988674714E+02  0.50695012883E+02  0.10439280637E+03  0.17578266808E+03  0.89581811884E+02 0.  0.
        -11    1    3    3    0    0 -0.32748567117E+02 -0.46845139134E+02  0.16091424718E+03  0.17076396181E+03  0.00000000000E+00 0.  1.
         12    1    3    3    0    0 -0.80573856725E+01  0.13638760471E+02  0.11677168417E+03  0.11784126389E+03  0.00000000000E+00 0. -1.
        -11    1    4    4    0    0  0.25370649405E+02 -0.25499142045E+02  0.18439384234E+02  0.40421367953E+02  0.00000000000E+00 0. -1.
         11    1    4    4    0    0  0.71618025310E+02  0.76194154928E+02  0.85953422141E+02  0.13536130013E+03  0.00000000000E+00 0.  1.
         -2    1    1    2    0  502 -0.56182721925E+02 -0.17488634220E+02  0.10460746740E+03  0.12002113483E+03  0.00000000000E+00 0.  1.
<scales pt_clust_5="13000.00000" pt_clust_6="13000.00000" pt_clust_7="13000.00000" pt_clust_8="13000.00000" pt_clust_9="58.84177"></scales>
<clustering>
<clus scale="   58.444">  5  6 -1 -1</clus>
<clus scale="   58.842">  2  9  1 -1</clus>
<clus scale="   83.707">  1  5  2 -1</clus>
<clus scale="   89.582">  7  8 -1 -1</clus>
<clus scale="   58.842">  2  5  1 -1</clus>
</clustering>
</event>
<event>
 9    2  0.1325014E-004  0.2122775E+03  0.7546771E-02  0.1141375E+00
          2   -1    0    0  502    0 -0.00000000000E+00  0.00000000000E+00  0.60936671174E+03  0.60936671174E+03  0.00000000000E+00 0. -1.
         21   -1    0    0  501  502  0.00000000000E+00 -0.00000000000E+00 -0.21403028716E+03  0.21403028716E+03  0.00000000000E+00 0. -1.
         24    2    1    2    0    0 -0.14529651682E+03 -0.12888802186E+03  0.49345223682E+03  0.53613529850E+03  0.78884398302E+02 0.  0.
         23    2    1    2    0    0  0.13321905375E+03  0.92754330249E+02 -0.83023276470E+01  0.18970161227E+03  0.97811507450E+02 0.  0.
        -11    1    3    3    0    0 -0.33908162011E+02  0.31557167009E+01  0.11859071974E+03  0.12338347056E+03  0.00000000000E+00 0.  1.
         12    1    3    3    0    0 -0.11138835481E+03 -0.13204373856E+03  0.37486151708E+03  0.41275182794E+03  0.00000000000E+00 0. -1.
        -13    1    4    4    0    0 -0.10762197947E+02  0.25625250749E+02  0.10543965293E+02  0.29726311320E+02  0.00000000000E+00 0. -1.
         13    1    4    4    0    0  0.14398125170E+03  0.67129079499E+02 -0.18846292940E+02  0.15997530095E+03  0.00000000000E+00 0.  1.
          1    1    1    2  501    0  0.12077463072E+02  0.36133691614E+02 -0.89813484587E+02  0.97560088139E+02  0.00000000000E+00 0. -1.
<scales pt_clust_5="13000.00000" pt_clust_6="13000.00000" pt_clust_7="13000.00000" pt_clust_8="13000.00000" pt_clust_9="38.09867"></scales>
<clustering>
<clus scale="   38.099">  2  9  1 -1</clus>
<clus scale="   78.884">  5  6 -1 -1</clus>
<clus scale="   97.812">  7  8 -1 -1</clus>
<clus scale="  204.248">  1  5  2 -1</clus>
<clus scale="   38.099">  2  5  1 -1</clus>
</clustering>
</event>
<event>
 9    2  0.1325014E-004  0.1675385E+03  0.7546771E-02  0.1182575E+00
         21   -1    0    0  501  502  0.00000000000E+00  0.00000000000E+00  0.10298989844E+03  0.10298989844E+03  0.00000000000E+00 0.  1.
          2   -1    0    0  502    0 -0.00000000000E+00 -0.00000000000E+00 -0.85807409690E+03  0.85807409690E+03  0.00000000000E+00 0. -1.
         24    2    1    2    0    0 -0.16701890051E+02 -0.13163681692E+03 -0.58898271992E+03  0.60897399259E+03  0.79633376072E+02 0.  0.
         23    2    1    2    0    0  0.45396254883E+02  0.15281938183E+03 -0.21990602447E+03  0.28753772323E+03  0.94364714060E+02 0.  0.
        -13    1    3    3    0    0 -0.20759952106E+02 -0.38676089690E+02 -0.77249148872E+02  0.88849572462E+02  0.00000000000E+00 0.  1.
         14    1    3    3    0    0  0.40580620552E+01 -0.92960727231E+02 -0.51173357105E+03  0.52012442012E+03  0.00000000000E+00 0. -1.
        -13    1    4    4    0    0  0.68382438845E+02  0.87110830901E+02 -0.16573713057E+03  0.19933201261E+03  0.00000000000E+00 0. -1.
         13    1    4    4    0    0 -0.22986183961E+02  0.65708550933E+02 -0.54168893898E+02  0.88205710614E+02  0.00000000000E+00 0.  1.
          1    1    1    2  501    0 -0.28694364832E+02 -0.21182564913E+02  0.53804545924E+02  0.64552279522E+02  0.00000000000E+00 0. -1.
<scales pt_clust_5="13000.00000" pt_clust_6="13000.00000" pt_clust_7="13000.00000" pt_clust_8="13000.00000" pt_clust_9="35.66606"></scales>
<clustering>
<clus scale="   35.666">  1  9  2 -1</clus>
<clus scale="   79.633">  5  6 -1 -1</clus>
<clus scale="   94.365">  7  8 -1 -1</clus>
<clus scale="  159.706">  2  5  1 -1</clus>
<clus scale="   35.666">  1  5  2 -1</clus>
</clustering>
</event>
<event>
 9    2  0.1325014E-004  0.2143669E+03  0.7546771E-02  0.1153343E+00
         21   -1    0    0  501  502  0.00000000000E+00  0.00000000000E+00  0.97773702872E+02  0.97773702872E+02  0.00000000000E+00 0. -1.
          2   -1    0    0  502    0 -0.00000000000E+00 -0.00000000000E+00 -0.85433371443E+03  0.85433371443E+03  0.00000000000E+00 0. -1.
         24    2    1    2    0    0  0.25725801316E+02 -0.12217272524E+03 -0.15934188352E+03  0.21826419143E+03  0.81617582478E+02 0.  0.
         23    2    1    2    0    0 -0.17352010606E+03  0.17350517936E+03 -0.30388339943E+03  0.40139256733E+03  0.92507287187E+02 0.  0.
        -13    1    3    3    0    0  0.30178761119E+02 -0.95134708875E+02 -0.62827077315E+02  0.11793477901E+03  0.00000000000E+00 0.  1.
         14    1    3    3    0    0 -0.44529598037E+01 -0.27038016368E+02 -0.96514806203E+02  0.10032941242E+03  0.00000000000E+00 0. -1.
        -13    1    4    4    0    0 -0.16480255425E+02  0.74824394177E+02 -0.82665000975E+02  0.11271109603E+03  0.00000000000E+00 0. -1.
         13    1    4    4    0    0 -0.15703985064E+03  0.98680785181E+02 -0.22121839846E+03  0.28868147129E+03  0.00000000000E+00 0.  1.
          1    1    1    2  501    0  0.14779430475E+03 -0.51332454114E+02 -0.29333472860E+03  0.33245065855E+03  0.00000000000E+00 0. -1.
<scales pt_clust_5="13000.00000" pt_clust_6="13000.00000" pt_clust_7="13000.00000" pt_clust_8="13000.00000" pt_clust_9="193.37937"></scales>
<clustering>
<clus scale="   81.618">  5  6 -1 -1</clus>
<clus scale="   92.507">  7  8 -1 -1</clus>
<clus scale="  149.162">  2  5  1 -1</clus>
<clus scale="  193.379">  1  9  2 -1</clus>
<clus scale="  193.379">  1  5  2 -1</clus>
</clustering>
</event>
<event>
 9    2  0.1325014E-004  0.1286913E+03  0.7546771E-02  0.1233347E+00
          2   -1    0    0  502    0 -0.00000000000E+00  0.00000000000E+00  0.31079738194E+03  0.31079738194E+03  0.00000000000E+00 0. -1.
         21   -1    0    0  501  502  0.00000000000E+00 -0.00000000000E+00 -0.13823589553E+03  0.13823589553E+03  0.00000000000E+00 0.  1.
         23    2    1    2    0    0  0.85319377728E+02 -0.24962935107E+02  0.12662126113E+03  0.18093655448E+03  0.93821898470E+02 0.  0.
         24    2    1    2    0    0 -0.96858449481E+02 -0.63129775546E+02 -0.38521336254E+02  0.14551111526E+03  0.79515177924E+02 0.  0.
        -13    1    4    4    0    0 -0.11000530034E+03 -0.49180056473E+02 -0.28256055778E+02  0.12376691297E+03  0.00000000000E+00 0.  1.
         14    1    4    4    0    0  0.13146850862E+02 -0.13949719074E+02 -0.10265280476E+02  0.21744202286E+02  0.00000000000E+00 0. -1.
        -13    1    3    3    0    0  0.86035166324E+02  0.15580375021E+02  0.97813841906E+02  0.13119582920E+03  0.00000000000E+00 0. -1.
         13    1    3    3    0    0 -0.71578859616E+00 -0.40543310128E+02  0.28807419219E+02  0.49740725281E+02  0.00000000000E+00 0.  1.
          1    1    1    2  501    0  0.11539071753E+02  0.88092710654E+02  0.84461561536E+02  0.12258560774E+03  0.00000000000E+00 0. -1.
<scales pt_clust_5="13000.00000" pt_clust_6="13000.00000" pt_clust_7="13000.00000" pt_clust_8="13000.00000" pt_clust_9="88.84528"></scales>
<clustering>
<clus scale="   79.515">  5  6 -1 -1</clus>
<clus scale="   88.845">  2  9  1 -1</clus>
<clus scale="   93.822">  7  8 -1 -1</clus>
<clus scale="  118.666">  2  5  1 -1</clus>
<clus scale="   88.845">  2  5  1 -1</clus>
</clustering>
</event>
<event>
 9    2  0.1325014E-004  0.9296401E+02  0.7546771E-02  0.1302591E+00
         -1   -1    0    0    0  501 -0.00000000000E+00  0.00000000000E+00  0.55488705101E+02  0.55488705101E+02  0.00000000000E+00 0.  1.
         21   -1    0    0  501  502  0.00000000000E+00 -0.00000000000E+00 -0.50230643648E+03  0.50230643648E+03  0.00000000000E+00 0. -1.
         23    2    1    2    0    0 -0.64582517843E+01 -0.11477599941E+02 -0.17160990573E+02  0.94554228943E+02  0.92046500732E+02 0.  0.
         24    2    1    2    0    0  0.35764855687E+02 -0.45600578213E+02 -0.18274464123E+03  0.20812842692E+03  0.81014199724E+02 0.  0.
        -13    1    4    4    0    0  0.48121586148E+01 -0.63249323284E+02 -0.12717998564E+03  0.14212101362E+03  0.00000000000E+00 0.  1.
         14    1    4    4    0    0  0.30952697072E+02  0.17648745072E+02 -0.55564655593E+02  0.66007413295E+02  0.00000000000E+00 0. -1.
        -11    1    3    3    0    0 -0.48774236089E+02 -0.13470229086E+02 -0.83425573439E+01  0.51283247174E+02  0.00000000000E+00 0.  1.
         11    1    3    3    0    0  0.42315984305E+02  0.19926291448E+01 -0.88184332292E+01  0.43270981769E+02  0.00000000000E+00 0. -1.
         -2    1    1    2    0  502 -0.29306603903E+02  0.57078178154E+02 -0.24691209958E+03  0.25511248572E+03  0.00000000000E+00 0.  1.
<scales pt_clust_5="13000.00000" pt_clust_6="13000.00000" pt_clust_7="13000.00000" pt_clust_8="13000.00000" pt_clust_9="64.16226"></scales>
<clustering>
<clus scale="   64.162">  2  9  1 -1</clus>
<clus scale="   81.014">  5  6 -1 -1</clus>
<clus scale="   82.055">  2  5  1 -1</clus>
<clus scale="   92.047">  7  8 -1 -1</clus>
<clus scale="   64.162">  2  5  1 -1</clus>
</clustering>
</event>
<event>
 9    2  0.1325014E-004  0.3948405E+03  0.7546771E-02  0.1097700E+00
          2   -1    0    0  502    0 -0.00000000000E+00  0.00000000000E+00  0.52603637648E+03  0.52603637648E+03  0.00000000000E+00 0. -1.
         21   -1    0    0  501  502  0.00000000000E+00 -0.00000000000E+00 -0.59843809804E+03  0.59843809804E+03  0.00000000000E+00 0. -1.
         24    2    1    2    0    0  0.44390105971E+02  0.13625684033E+02  0.14447930661E+03  0.17277543658E+03  0.82588986396E+02 0.  0.
         23    2    1    2    0    0  0.13526310215E+03  0.35192867868E+03 -0.35049873347E+03  0.52302788372E+03  0.92514341119E+02 0.  0.
        -13    1    3    3    0    0  0.19269684417E+02 -0.24169210205E+02  0.12730315941E+02  0.33429513957E+02  0.00000000000E+00 0.  1.
         14    1    3    3    0    0  0.25120421554E+02  0.37794894238E+02  0.13174899067E+03  0.13934592263E+03  0.00000000000E+00 0. -1.
        -11    1    4    4    0    0  0.89406198108E+02  0.23389256058E+03 -0.17044592535E+03  0.30290429449E+03  0.00000000000E+00 0. -1.
         11    1    4    4    0    0  0.45856904038E+02  0.11803611809E+03 -0.18005280812E+03  0.22012358923E+03  0.00000000000E+00 0.  1.
          1    1    1    2  501    0 -0.17965320812E+03 -0.36555436271E+03  0.13361770530E+03  0.42867115421E+03  0.00000000000E+00 0. -1.
<scales pt_clust_5="13000.00000" pt_clust_6="13000.00000" pt_clust_7="13000.00000" pt_clust_8="13000.00000" pt_clust_9="383.84923"></scales>
<clustering>
<clus scale="   82.589">  5  6 -1 -1</clus>
<clus scale="   92.514">  7  8 -1 -1</clus>
<clus scale="   94.747">  1  5  2 -1</clus>
<clus scale="  383.849">  2  9  1 -1</clus>
<clus scale="  383.849">  2  5  1 -1</clus>
</clustering>
</event>
<event>
 9    2  0.1325014E-004  0.1866937E+03  0.7546771E-02  0.1161893E+00
         21   -1    0    0  501  502  0.00000000000E+00  0.00000000000E+00  0.26879194220E+02  0.26879194220E+02  0.00000000000E+00 0.  1.
          2   -1    0    0  502    0 -0.00000000000E+00 -0.00000000000E+00 -0.19646927134E+04  0.19646927134E+04  0.00000000000E+00 0. -1.
         24    2    1    2    0    0  0.16150833228E+03 -0.10916031357E+02 -0.13561814690E+04  0.13685886706E+04  0.87193298769E+02 0.  0.
         23    2    1    2    0    0 -0.16333594027E+03  0.37803438484E+02 -0.54568717225E+03  0.57805766451E+03  0.90930985894E+02 0.  0.
        -13    1    3    3    0    0  0.35702843277E+02 -0.92319519253E+00 -0.10196604831E+03  0.10803990149E+03  0.00000000000E+00 0.  1.
         14    1    3    3    0    0  0.12580548900E+03 -0.99928361643E+01 -0.12542154207E+04  0.12605487692E+04  0.00000000000E+00 0. -1.
        -13    1    4    4    0    0 -0.86696286043E+02  0.56388321782E+02 -0.22208456809E+03  0.24498457958E+03  0.00000000000E+00 0.  1.
         13    1    4    4    0    0 -0.76639654223E+02 -0.18584883297E+02 -0.32360260416E+03  0.33307308494E+03  0.00000000000E+00 0. -1.
          1    1    1    2  501    0  0.18276079879E+01 -0.26887407128E+02 -0.35944877856E+02  0.44925572418E+02  0.00000000000E+00 0. -1.
<scales pt_clust_5="13000.00000" pt_clust_6="13000.00000" pt_clust_7="13000.00000" pt_clust_8="13000.00000" pt_clust_9="26.94945"></scales>
<clustering>
<clus scale="   26.949">  1  9  2 -1</clus>
<clus scale="   87.193">  5  6 -1 -1</clus>
<clus scale="   90.931">  7  8 -1 -1</clus>
<clus scale="  184.902">  2  5  1 -1</clus>
<clus scale="   26.949">  1  5  2 -1</clus>
</clustering>
</event>
<event>
 9    2  0.1325014E-004  0.1585443E+03  0.7546771E-02  0.1192319E+00
         -1   -1    0    0    0  501 -0.00000000000E+00  0.00000000000E+00  0.12267440832E+03  0.12267440832E+03  0.00000000000E+00 0.  1.
         21   -1    0    0  501  502  0.00000000000E+00 -0.00000000000E+00 -0.62904418014E+03  0.62904418014E+03  0.00000000000E+00 0. -1.
         24    2    1    2    0    0 -0.54407594190E+02 -0.12302034392E+03  0.51505662550E+02  0.16410621200E+03  0.78637295336E+02 0.  0.
         23    2    1    2    0    0  0.32178318245E+02  0.96625041354E+02 -0.32994235767E+03  0.35708181415E+03  0.90959440588E+02 0.  0.
        -11    1    3    3    0    0  0.47468494183E+00 -0.66647873303E+02  0.53406253368E+02  0.85407214217E+02  0.00000000000E+00 0.  1.
         12    1    3    3    0    0 -0.54882279132E+02 -0.56372470616E+02 -0.19005908178E+01  0.78698997779E+02  0.00000000000E+00 0. -1.
        -13    1    4    4    0    0  0.63572353006E+02  0.75541192272E+02 -0.23861178387E+03  0.25823148374E+03  0.00000000000E+00 0. -1.
         13    1    4    4    0    0 -0.31394034761E+02  0.21083849081E+02 -0.91330573806E+02  0.98850330411E+02  0.00000000000E+00 0.  1.
         -2    1    1    2    0  502  0.22229275945E+02  0.26395302565E+02 -0.22793307669E+03  0.23053056231E+03  0.00000000000E+00 0.  1.
<scales pt_clust_5="13000.00000" pt_clust_6="13000.00000" pt_clust_7="13000.00000" pt_clust_8="13000.00000" pt_clust_9="34.50873"></scales>
<clustering>
<clus scale="   34.509">  2  9  1 -1</clus>
<clus scale="   78.637">  5  6 -1 -1</clus>
<clus scale="   90.959">  7  8 -1 -1</clus>
<clus scale="  151.811">  1  5  2 -1</clus>
<clus scale="   34.509">  2  5  1 -1</clus>
</clustering>
</event>
<event>
 9    2  0.1325014E-004  0.4099070E+03  0.7546771E-02  0.1096524E+00
         21   -1    0    0  501  502  0.00000000000E+00  0.00000000000E+00  0.28938716933E+03  0.28938716933E+03  0.00000000000E+00 0.  1.
         -3   -1    0    0    0  501 -0.00000000000E+00 -0.00000000000E+00 -0.72390471003E+03  0.72390471003E+03  0.00000000000E+00 0.  1.
         24    2    1    2    0    0 -0.29340853260E+02 -0.19534291947E+00 -0.11108435215E+03  0.14129335924E+03  0.82238410989E+02 0.  0.
         23    2    1    2    0    0 -0.13022413577E+03 -0.37167989915E+03 -0.15298062909E+03  0.43290142788E+03  0.94320201499E+02 0.  0.
        -11    1    3    3    0    0  0.21106075311E+02 -0.86096680017E+01 -0.47289422708E+01  0.23279941863E+02  0.00000000000E+00 0.  1.
         12    1    3    3    0    0 -0.50446928571E+02  0.84143250822E+01 -0.10635540988E+03  0.11801341737E+03  0.00000000000E+00 0. -1.
        -11    1    4    4    0    0 -0.94712958590E+02 -0.35098951309E+03 -0.13208414201E+03  0.38679504055E+03  0.00000000000E+00 0.  1.
         11    1    4    4    0    0 -0.35511177179E+02 -0.20690386060E+02 -0.20896487071E+02  0.46106387322E+02  0.00000000000E+00 0. -1.
         -4    1    1    2    0  502  0.15956498903E+03  0.37187524207E+03 -0.17045255947E+03  0.43909709224E+03  0.00000000000E+00 0.  1.
<scales pt_clust_5="13000.00000" pt_clust_6="13000.00000" pt_clust_7="13000.00000" pt_clust_8="13000.00000" pt_clust_9="398.90805"></scales>
<clustering>
<clus scale="   82.238">  5  6 -1 -1</clus>
<clus scale="   87.316">  2  5  1 -1</clus>
<clus scale="   94.320">  7  8 -1 -1</clus>
<clus scale="  398.908">  1  9  2 -1</clus>
<clus scale="  398.908">  1  5  2 -1</clus>
</clustering>
</event>
<event>
 9    2  0.1325014E-004  0.1447027E+03  0.7546771E-02  0.1227405E+00
          2   -1    0    0  502    0 -0.00000000000E+00  0.00000000000E+00  0.69876136691E+02  0.69876136691E+02  0.00000000000E+00 0. -1.
         21   -1    0    0  501  502  0.00000000000E+00 -0.00000000000E+00 -0.68195774240E+03  0.68195774240E+03  0.00000000000E+00 0. -1.
         24    2    1    2    0    0 -0.23623840051E+02  0.46281145013E+02 -0.13598402269E+02  0.95337564713E+02  0.78767407591E+02 0.  0.
         23    2    1    2    0    0  0.10518686346E+03 -0.10333309825E+03 -0.38009264933E+03  0.41649238466E+03  0.85167358582E+02 0.  0.
        -13    1    3    3    0    0 -0.17255591602E+02 -0.20545469274E+02  0.71421812830E-01  0.26830520873E+02  0.00000000000E+00 0.  1.
         14    1    3    3    0    0 -0.63682484481E+01  0.66826614286E+02 -0.13669824082E+02  0.68507043840E+02  0.00000000000E+00 0. -1.
        -11    1    4    4    0    0  0.70726569542E+02 -0.11233009810E+03 -0.27158344934E+03  0.30228772475E+03  0.00000000000E+00 0. -1.
         11    1    4    4    0    0  0.34460293917E+02  0.89969998517E+01 -0.10850919999E+03  0.11420465991E+03  0.00000000000E+00 0.  1.
          1    1    1    2  501    0 -0.81563023409E+02  0.57051953237E+02 -0.21839055411E+03  0.24000392972E+03  0.00000000000E+00 0. -1.
<scales pt_clust_5="13000.00000" pt_clust_6="13000.00000" pt_clust_7="13000.00000" pt_clust_8="13000.00000" pt_clust_9="116.98452"></scales>
<clustering>
<clus scale="   78.767">  5  6 -1 -1</clus>
<clus scale="   85.167">  7  8 -1 -1</clus>
<clus scale="   94.363">  1  5  2 -1</clus>
<clus scale="  116.985">  2  9  1 -1</clus>
<clus scale="  116.985">  2  5  1 -1</clus>
</clustering>
</event>
<event>
 9    2  0.1325014E-004  0.9260149E+02  0.7546771E-02  0.1302207E+00
         21   -1    0    0  501  502  0.00000000000E+00  0.00000000000E+00  0.11954308487E+03  0.11954308487E+03  0.00000000000E+00 0.  1.
          2   -1    0    0  502    0 -0.00000000000E+00 -0.00000000000E+00 -0.44819974578E+03  0.44819974578E+03  0.00000000000E+00 0. -1.
         23    2    1    2    0    0 -0.12045112895E+02 -0.14370401462E+02 -0.38373027053E+03  0.39474538205E+03  0.90682980479E+02 0.  0.
         24    2    1    2    0    0 -0.16646850436E+02  0.36209610684E+02  0.86373103044E+02  0.12524979832E+03  0.81479724553E+02 0.  0.
        -11    1    4    4    0    0 -0.43497693920E+02  0.52560587835E+01  0.22218994013E+02  0.49125952665E+02  0.00000000000E+00 0.  1.
         12    1    4    4    0    0  0.26850843484E+02  0.30953551901E+02  0.64154109030E+02  0.76123845650E+02  0.00000000000E+00 0. -1.
        -13    1    3    3    0    0  0.37059577329E+02  0.27333223829E+01 -0.21489457932E+03  0.21808384521E+03  0.00000000000E+00 0.  1.
         13    1    3    3    0    0 -0.49104690224E+02 -0.17103723845E+02 -0.16883569121E+03  0.17666153684E+03  0.00000000000E+00 0. -1.
          1    1    1    2  501    0  0.28691963331E+02 -0.21839209222E+02 -0.31299493417E+02  0.47747650282E+02  0.00000000000E+00 0. -1.
<scales pt_clust_5="13000.00000" pt_clust_6="13000.00000" pt_clust_7="13000.00000" pt_clust_8="13000.00000" pt_clust_9="36.05802"></scales>
<clustering>
<clus scale="   36.058">  1  9  2 -1</clus>
<clus scale="   81.480">  5  6 -1 -1</clus>
<clus scale="   83.610">  1  5  2 -1</clus>
<clus scale="   90.683">  7  8 -1 -1</clus>
<clus scale="   36.058">  1  5  2 -1</clus>
</clustering>
</event>
<event>
 9    2  0.1325014E-004  0.1191984E+03  0.7546771E-02  0.1246790E+00
         21   -1    0    0  501  502  0.00000000000E+00  0.00000000000E+00  0.86481020879E+02  0.86481020879E+02  0.00000000000E+00 0. -1.
          2   -1    0    0  502    0 -0.00000000000E+00 -0.00000000000E+00 -0.35427919567E+03  0.35427919567E+03  0.00000000000E+00 0. -1.
         23    2    1    2    0    0 -0.54789988572E+02  0.19899718959E+02 -0.79689790003E+02  0.13221289924E+03  0.87930918516E+02 0.  0.
         24    2    1    2    0    0  0.12472734542E+03 -0.14483773900E+02 -0.56433923585E+02  0.15935371800E+03  0.80262876279E+02 0.  0.
        -11    1    4    4    0    0  0.18455907931E+02 -0.31288890160E+02  0.29774065593E+01  0.36448321426E+02  0.00000000000E+00 0.  1.
         12    1    4    4    0    0  0.10627143748E+03  0.16805116259E+02 -0.59411330145E+02  0.12290539657E+03  0.00000000000E+00 0. -1.
        -11    1    3    3    0    0  0.14278334083E+02 -0.20483605861E+02 -0.24758578628E+02  0.35162994027E+02  0.00000000000E+00 0.  1.
         11    1    3    3    0    0 -0.69068322655E+02  0.40383324820E+02 -0.54931211375E+02  0.97049905208E+02  0.00000000000E+00 0. -1.
          1    1    1    2  501    0 -0.69937356843E+02 -0.54159450587E+01 -0.13167446120E+03  0.14919359931E+03  0.00000000000E+00 0. -1.
<scales pt_clust_5="13000.00000" pt_clust_6="13000.00000" pt_clust_7="13000.00000" pt_clust_8="13000.00000" pt_clust_9="70.14678"></scales>
<clustering>
<clus scale="   70.147">  1  9  2 -1</clus>
<clus scale="   80.263">  5  6 -1 -1</clus>
<clus scale="   87.931">  7  8 -1 -1</clus>
<clus scale="  113.660">  1  5  2 -1</clus>
<clus scale="   70.147">  1  5  2 -1</clus>
</clustering>
</event>
<event>
 9    2  0.1325014E-004  0.1121910E+03  0.7546771E-02  0.1260115E+00
         21   -1    0    0  501  502  0.00000000000E+00  0.00000000000E+00  0.95242640569E+02  0.95242640569E+02  0.00000000000E+00 0.  1.
          2   -1    0    0  502    0 -0.00000000000E+00 -0.00000000000E+00 -0.44267583427E+03  0.44267583427E+03  0.00000000000E+00 0. -1.
         24    2    1    2    0    0 -0.58576847884E+02 -0.26512233553E+02 -0.12839071403E+03  0.16450131808E+03  0.80264329339E+02 0.  0.
         23    2    1    2    0    0  0.91526635412E+02 -0.25421887138E+02  0.14786068510E+02  0.13163495863E+03  0.89920727171E+02 0.  0.
        -11    1    3    3    0    0 -0.44714164411E+02  0.18451894472E+02 -0.34290802333E+02  0.59293237669E+02  0.00000000000E+00 0.  1.
         12    1    3    3    0    0 -0.13862683472E+02 -0.44964128025E+02 -0.94099911693E+02  0.10520808041E+03  0.00000000000E+00 0. -1.
        -13    1    4    4    0    0  0.94683939336E+02 -0.48652996359E+02  0.18024092001E+02  0.10796772812E+03  0.00000000000E+00 0.  1.
         13    1    4    4    0    0 -0.31573039234E+01  0.23231109221E+02 -0.32380234917E+01  0.23667230506E+02  0.00000000000E+00 0. -1.
          1    1    1    2  501    0 -0.32949787528E+02  0.51934120691E+02 -0.23382854819E+03  0.24178219814E+03  0.00000000000E+00 0. -1.
<scales pt_clust_5="13000.00000" pt_clust_6="13000.00000" pt_clust_7="13000.00000" pt_clust_8="13000.00000" pt_clust_9="61.50484"></scales>
<clustering>
<clus scale="   61.505">  1  9  2 -1</clus>
<clus scale="   80.264">  5  6 -1 -1</clus>
<clus scale="   89.921">  7  8 -1 -1</clus>
<clus scale="  104.611">  2  5  1 -1</clus>
<clus scale="   61.505">  1  5  2 -1</clus>
</clustering>
</event>
<event>
 9    2  0.1325014E-004  0.2693070E+03  0.7546771E-02  0.1135332E+00
          2   -1    0    0  502    0 -0.00000000000E+00  0.00000000000E+00  0.97769051229E+03  0.97769051229E+03  0.00000000000E+00 0. -1.
         21   -1    0    0  501  502  0.00000000000E+00 -0.00000000000E+00 -0.10801276088E+03  0.10801276088E+03  0.00000000000E+00 0. -1.
         24    2    1    2    0    0  0.80897461256E+02 -0.16800067674E+02  0.10967867818E+03  0.15947925263E+03  0.81102269143E+02 0.  0.
         23    2    1    2    0    0 -0.24490269100E+03 -0.14224398908E+03  0.37584218544E+03  0.47926849500E+03  0.90720788440E+02 0.  0.
        -11    1    3    3    0    0  0.29474390608E+02 -0.92204716668E+01 -0.70704522686E+01  0.31681983757E+02  0.00000000000E+00 0.  1.
         12    1    3    3    0    0  0.51423070648E+02 -0.75795960074E+01  0.11674913045E+03  0.12779726887E+03  0.00000000000E+00 0. -1.
        -11    1    4    4    0    0 -0.49168369939E+02 -0.63577785887E+02  0.63824024777E+02  0.10263123111E+03  0.00000000000E+00 0.  1.
         11    1    4    4    0    0 -0.19573432106E+03 -0.78666203190E+02  0.31201816066E+03  0.37663726389E+03  0.00000000000E+00 0. -1.
          1    1    1    2  501    0  0.16400522975E+03  0.15904405675E+03  0.38415688780E+03  0.44695552554E+03  0.00000000000E+00 0. -1.
<scales pt_clust_5="13000.00000" pt_clust_6="13000.00000" pt_clust_7="13000.00000" pt_clust_8="13000.00000" pt_clust_9="253.56671"></scales>
<clustering>
<clus scale="   81.102">  5  6 -1 -1</clus>
<clus scale="   90.721">  7  8 -1 -1</clus>
<clus scale="  115.777">  1  5  2 -1</clus>
<clus scale="  253.567">  2  9  1 -1</clus>
<clus scale="  253.567">  2  5  1 -1</clus>
</clustering>
</event>
<event>
 9    2  0.1325014E-004  0.1537521E+03  0.7546771E-02  0.1197741E+00
         21   -1    0    0  501  502  0.00000000000E+00  0.00000000000E+00  0.43616507891E+03  0.43616507891E+03  0.00000000000E+00 0.  1.
          2   -1    0    0  502    0 -0.00000000000E+00 -0.00000000000E+00 -0.15459853681E+03  0.15459853681E+03  0.00000000000E+00 0. -1.
         24    2    1    2    0    0 -0.58638091505E+02  0.10973403580E+03 -0.59615837054E+01  0.14888675493E+03  0.81558205749E+02 0.  0.
         23    2    1    2    0    0  0.14516553080E+03 -0.46847014329E+02  0.28355898635E+03  0.33483701173E+03  0.91882814477E+02 0.  0.
        -13    1    3    3    0    0 -0.52961365021E+02  0.29871441334E+02  0.21117416612E+02  0.64367340140E+02  0.00000000000E+00 0.  1.
         14    1    3    3    0    0 -0.56767264835E+01  0.79862594462E+02 -0.27079000318E+02  0.84519414787E+02  0.00000000000E+00 0. -1.
        -13    1    4    4    0    0  0.65041767689E+02 -0.55475428524E+02  0.20581225725E+03  0.22286013540E+03  0.00000000000E+00 0.  1.
         13    1    4    4    0    0  0.80123763112E+02  0.86284141945E+01  0.77746729102E+02  0.11197687633E+03  0.00000000000E+00 0. -1.
          1    1    1    2  501    0 -0.86527439296E+02 -0.62887021466E+02  0.39691394509E+01  0.10703984907E+03  0.00000000000E+00 0. -1.
<scales pt_clust_5="13000.00000" pt_clust_6="13000.00000" pt_clust_7="13000.00000" pt_clust_8="13000.00000" pt_clust_9="106.96629"></scales>
<clustering>
<clus scale="   81.558">  5  6 -1 -1</clus>
<clus scale="   91.883">  7  8 -1 -1</clus>
<clus scale="  106.966">  1  9  2 -1</clus>
<clus scale="  147.814">  2  5  1 -1</clus>
<clus scale="  106.966">  1  5  2 -1</clus>
</clustering>
</event>
<event>
 9    2  0.1325014E-004  0.1210421E+03  0.7546771E-02  0.1245488E+00
         21   -1    0    0  501  502  0.00000000000E+00  0.00000000000E+00  0.26629128424E+03  0.26629128424E+03  0.00000000000E+00 0. -1.
          2   -1    0    0  502    0 -0.00000000000E+00 -0.00000000000E+00 -0.19178808973E+03  0.19178808973E+03  0.00000000000E+00 0. -1.
         24    2    1    2    0    0 -0.52765333524E+02 -0.72827464098E+01 -0.13464922429E+03  0.17971044118E+03  0.10643406527E+03 0.  0.
         23    2    1    2    0    0  0.81939942886E+02 -0.19469541771E+01  0.88154063231E+02  0.15356129177E+03  0.95351909236E+02 0.  0.
        -11    1    3    3    0    0 -0.73718677479E+02  0.26309189590E+02 -0.10080158383E+03  0.12762278860E+03  0.00000000000E+00 0.  1.
         12    1    3    3    0    0  0.20953343955E+02 -0.33591936000E+02 -0.33847640460E+02  0.52087652585E+02  0.00000000000E+00 0. -1.
        -11    1    4    4    0    0  0.38825797765E+02  0.28228481848E+02  0.88786741887E+02  0.10093252843E+03  0.00000000000E+00 0. -1.
         11    1    4    4    0    0  0.43114145121E+02 -0.30175436025E+02 -0.63267865607E+00  0.52628763344E+02  0.00000000000E+00 0.  1.
          1    1    1    2  501    0 -0.29174609362E+02  0.92297005869E+01  0.12099835557E+03  0.12480764101E+03  0.00000000000E+00 0. -1.
<scales pt_clust_5="13000.00000" pt_clust_6="13000.00000" pt_clust_7="13000.00000" pt_clust_8="13000.00000" pt_clust_9="30.59976"></scales>
<clustering>
<clus scale="   30.600">  1  9  2 -1</clus>
<clus scale="   95.352">  7  8 -1 -1</clus>
<clus scale="  106.434">  5  6 -1 -1</clus>
<clus scale="  111.423">  1  7  2 -1</clus>
<clus scale="   30.600">  1  5  2 -1</clus>
</clustering>
</event>
<event>
 9    2  0.1325014E-004  0.1251725E+03  0.7546771E-02  0.1237621E+00
         -1   -1    0    0    0  501 -0.00000000000E+00  0.00000000000E+00  0.71606561748E+03  0.71606561748E+03  0.00000000000E+00 0.  1.
         21   -1    0    0  501  502  0.00000000000E+00 -0.00000000000E+00 -0.51510122033E+02  0.51510122033E+02  0.00000000000E+00 0. -1.
         23    2    1    2    0    0  0.19212255306E+02  0.71560670713E+02  0.39386050146E+03  0.41083143784E+03  0.90367778324E+02 0.  0.
         24    2    1    2    0    0 -0.85893693491E+02 -0.96687459454E+02  0.22639410843E+03  0.27283757863E+03  0.80373257872E+02 0.  0.
        -13    1    4    4    0    0 -0.43186545952E+02 -0.93515550368E+02  0.19209892051E+03  0.21797300561E+03  0.00000000000E+00 0.  1.
         14    1    4    4    0    0 -0.42707147539E+02 -0.31719090854E+01  0.34295187925E+02  0.54864573023E+02  0.00000000000E+00 0. -1.
        -13    1    3    3    0    0  0.38721002677E+02  0.81981497491E+02  0.35197693990E+03  0.36346670852E+03  0.00000000000E+00 0.  1.
         13    1    3    3    0    0 -0.19508747372E+02 -0.10420826778E+02  0.41883561566E+02  0.47364729327E+02  0.00000000000E+00 0. -1.
         -2    1    1    2    0  502  0.66681438185E+02  0.25126788740E+02  0.44300885545E+02  0.83906723038E+02  0.00000000000E+00 0.  1.
<scales pt_clust_5="13000.00000" pt_clust_6="13000.00000" pt_clust_7="13000.00000" pt_clust_8="13000.00000" pt_clust_9="71.25847"></scales>
<clustering>
<clus scale="   71.258">  2  9  1 -1</clus>
<clus scale="   80.373">  5  6 -1 -1</clus>
<clus scale="   90.368">  7  8 -1 -1</clus>
<clus scale="  118.160">  2  5  1 -1</clus>
<clus scale="   71.258">  2  5  1 -1</clus>
</clustering>
</event>
<event>
 9    2  0.1325014E-004  0.3749411E+03  0.7546771E-02  0.1052820E+00
         -1   -1    0    0    0  501 -0.00000000000E+00  0.00000000000E+00  0.78465547930E+03  0.78465547930E+03  0.00000000000E+00 0.  1.
         21   -1    0    0  501  502  0.00000000000E+00 -0.00000000000E+00 -0.22751917993E+03  0.22751917993E+03  0.00000000000E+00 0.  1.
         24    2    1    2    0    0 -0.21981719944E+02  0.12076310450E+03  0.14732166266E+03  0.20754501801E+03  0.79399866444E+02 0.  0.
         23    2    1    2    0    0  0.44999182364E+02  0.18038298145E+03  0.45227986146E+03  0.49963445442E+03  0.10254057030E+03 0.  0.
        -13    1    3    3    0    0 -0.40671685454E+02  0.37562998929E+02  0.31435435216E+02  0.63665936523E+02  0.00000000000E+00 0.  1.
         14    1    3    3    0    0  0.18689965510E+02  0.83200105568E+02  0.11588622744E+03  0.14387908148E+03  0.00000000000E+00 0. -1.
        -13    1    4    4    0    0  0.42846655849E+02  0.14678462804E+03  0.43639283900E+03  0.46240704241E+03  0.00000000000E+00 0.  1.
         13    1    4    4    0    0  0.21525265155E+01  0.33598353410E+02  0.15887022460E+02  0.37227412010E+02  0.00000000000E+00 0. -1.
         -2    1    1    2    0  502 -0.23017462421E+02 -0.30114608595E+03 -0.42465224750E+02  0.30499518680E+03  0.00000000000E+00 0.  1.
<scales pt_clust_5="13000.00000" pt_clust_6="13000.00000" pt_clust_7="13000.00000" pt_clust_8="13000.00000" pt_clust_9="302.02445"></scales>
<clustering>
<clus scale="   79.400">  5  6 -1 -1</clus>
<clus scale="  102.541">  7  8 -1 -1</clus>
<clus scale="  141.469">  5  7 -1 -1</clus>
<clus scale="  302.024">  2  9  1 -1</clus>
<clus scale="  302.024">  2  5  1 -1</clus>
</clustering>
</event>
<event>
 9    2  0.1325014E-004  0.9291188E+02  0.7546771E-02  0.1303764E+00
         21   -1    0    0  501  502  0.00000000000E+00  0.00000000000E+00  0.51787598081E+02  0.51787598081E+02  0.00000000000E+00 0.  1.
          2   -1    0    0  502    0 -0.00000000000E+00 -0.00000000000E+00 -0.77673695996E+03  0.77673695996E+03  0.00000000000E+00 0. -1.
         24    2    1    2    0    0 -0.40417532924E+00  0.13213354784E+02 -0.69259484388E+03  0.69724765962E+03  0.79321655158E+02 0.  0.
         23    2    1    2    0    0 -0.26730679227E+02 -0.14809031480E+02 -0.36978592589E+02  0.10370465547E+03  0.91942387565E+02 0.  0.
        -13    1    3    3    0    0 -0.15533914188E+02  0.17375725201E+02 -0.58688372276E+02  0.63146998003E+02  0.00000000000E+00 0.  1.
         14    1    3    3    0    0  0.15129738859E+02 -0.41623704173E+01 -0.63390647160E+03  0.63410066162E+03  0.00000000000E+00 0. -1.
        -11    1    4    4    0    0 -0.34161339143E+02  0.26975718433E+02 -0.42586090016E+02  0.60895496877E+02  0.00000000000E+00 0. -1.
         11    1    4    4    0    0  0.74306599165E+01 -0.41784749913E+02  0.56074974273E+01  0.42809158593E+02  0.00000000000E+00 0.  1.
          1    1    1    2  501    0  0.27134854556E+02  0.15956766958E+01  0.46240745821E+01  0.27572242956E+02  0.00000000000E+00 0. -1.
<scales pt_clust_5="13000.00000" pt_clust_6="13000.00000" pt_clust_7="13000.00000" pt_clust_8="13000.00000" pt_clust_9="27.18173"></scales>
<clustering>
<clus scale="   27.182">  1  9  2 -1</clus>
<clus scale="   79.322">  5  6 -1 -1</clus>
<clus scale="   80.443">  2  5  1 -1</clus>
<clus scale="   91.942">  7  8 -1 -1</clus>
<clus scale="   27.182">  1  5  2 -1</clus>
</clustering>
</event>
<event>
 9    2  0.1325014E-004  0.1019648E+03  0.7546771E-02  0.1276820E+00
          2   -1    0    0  502    0 -0.00000000000E+00  0.00000000000E+00  0.17989749450E+04  0.17989749450E+04  0.00000000000E+00 0. -1.
         21   -1    0    0  501  502  0.00000000000E+00 -0.00000000000E+00 -0.35961522790E+02  0.35961522790E+02  0.00000000000E+00 0.  1.
         24    2    1    2    0    0  0.57021055522E+02 -0.23191689437E+02  0.16284590744E+04  0.16316101260E+04  0.80519506060E+02 0.  0.
         23    2    1    2    0    0 -0.59765512601E+02 -0.17518008359E+02  0.12402436851E+03  0.16118738119E+03  0.81978843349E+02 0.  0.
        -13    1    3    3    0    0  0.13021109589E+02 -0.20068271542E+02  0.11277746181E+03  0.11528677596E+03  0.00000000000E+00 0.  1.
         14    1    3    3    0    0  0.43999945934E+02 -0.31234178946E+01  0.15156816126E+04  0.15163233500E+04  0.00000000000E+00 0. -1.
        -11    1    4    4    0    0 -0.50725797561E+02  0.24842834657E+02  0.50061371376E+02  0.75474590930E+02  0.00000000000E+00 0. -1.
         11    1    4    4    0    0 -0.90397150403E+01 -0.42360843015E+02  0.73962997131E+02  0.85712790257E+02  0.00000000000E+00 0.  1.
          1    1    1    2  501    0  0.27444570787E+01  0.40709697795E+02  0.10529979269E+02  0.42138960626E+02  0.00000000000E+00 0. -1.
<scales pt_clust_5="13000.00000" pt_clust_6="13000.00000" pt_clust_7="13000.00000" pt_clust_8="13000.00000" pt_clust_9="40.80210"></scales>
<clustering>
<clus scale="   40.802">  2  9  1 -1</clus>
<clus scale="   80.520">  5  6 -1 -1</clus>
<clus scale="   81.979">  7  8 -1 -1</clus>
<clus scale="  100.795">  1  5  2 -1</clus>
<clus scale="   40.802">  2  5  1 -1</clus>
</clustering>
</event>
<event>
 9    2  0.1325014E-004  0.2100698E+03  0.7546771E-02  0.1142654E+00
         21   -1    0    0  501  502  0.00000000000E+00  0.00000000000E+00  0.15691120945E+03  0.15691120945E+03  0.00000000000E+00 0. -1.
          2   -1    0    0  502    0 -0.00000000000E+00 -0.00000000000E+00 -0.71670509848E+03  0.71670509848E+03  0.00000000000E+00 0. -1.
         23    2    1    2    0    0  0.54281476530E+02  0.17837455350E+03 -0.44167858069E+03  0.48842565079E+03  0.93357847447E+02 0.  0.
         24    2    1    2    0    0 -0.13569638603E+03 -0.15326383129E+03 -0.17658689764E+03  0.28185691330E+03  0.79731273624E+02 0.  0.
        -11    1    4    4    0    0 -0.93885172933E+02 -0.58782745123E+02 -0.12279386637E+03  0.16537282255E+03  0.00000000000E+00 0.  1.
         12    1    4    4    0    0 -0.41811213101E+02 -0.94481086167E+02 -0.53793031265E+02  0.11648409075E+03  0.00000000000E+00 0. -1.
        -13    1    3    3    0    0  0.46073294760E+02  0.35263838867E+02 -0.75710645146E+02  0.95385473790E+02  0.00000000000E+00 0.  1.
         13    1    3    3    0    0  0.82081817691E+01  0.14311071463E+03 -0.36596793554E+03  0.39304017700E+03  0.00000000000E+00 0. -1.
          1    1    1    2  501    0  0.81414909504E+02 -0.25110722211E+02  0.58471589306E+02  0.10333374384E+03  0.00000000000E+00 0. -1.
<scales pt_clust_5="13000.00000" pt_clust_6="13000.00000" pt_clust_7="13000.00000" pt_clust_8="13000.00000" pt_clust_9="85.19939"></scales>
<clustering>
<clus scale="   79.731">  5  6 -1 -1</clus>
<clus scale="   85.199">  1  9  2 -1</clus>
<clus scale="   93.358">  7  8 -1 -1</clus>
<clus scale="  204.379">  1  5  2 -1</clus>
<clus scale="   85.199">  1  5  2 -1</clus>
</clustering>
</event>
<event>
 9    2  0.1325014E-004  0.1102569E+03  0.7546771E-02  0.1269980E+00
         21   -1    0    0  501  502  0.00000000000E+00  0.00000000000E+00  0.82026954578E+02  0.82026954578E+02  0.00000000000E+00 0. -1.
         -3   -1    0    0    0  501 -0.00000000000E+00 -0.00000000000E+00 -0.23141594727E+03  0.23141594727E+03  0.00000000000E+00 0.  1.
         24    2    1    2    0    0 -0.25543839495E+02  0.37891143678E+02 -0.14473750046E+03  0.17171152883E+03  0.80297438243E+02 0.  0.
         23    2    1    2    0    0  0.29159579568E+02 -0.13977483155E+02  0.18470313824E+02  0.10827162629E+03  0.10166583227E+03 0.  0.
        -13    1    3    3    0    0 -0.30381735755E+02  0.11370898596E+02 -0.14077453112E+03  0.14446389104E+03  0.00000000000E+00 0.  1.
         14    1    3    3    0    0  0.48378962605E+01  0.26520245082E+02 -0.39629693467E+01  0.27247637796E+02  0.00000000000E+00 0. -1.
        -13    1    4    4    0    0  0.51228174012E+02  0.25820069942E+02 -0.40251905997E+01  0.57508294913E+02  0.00000000000E+00 0.  1.
         13    1    4    4    0    0 -0.22068594443E+02 -0.39797553097E+02  0.22495504424E+02  0.50763331377E+02  0.00000000000E+00 0. -1.
         -4    1    1    2    0  502 -0.36157400737E+01 -0.23913660523E+02 -0.23121806057E+02  0.33459746730E+02  0.00000000000E+00 0.  1.
<scales pt_clust_5="13000.00000" pt_clust_6="13000.00000" pt_clust_7="13000.00000" pt_clust_8="13000.00000" pt_clust_9="24.18548"></scales>
<clustering>
<clus scale="   24.185">  1  9  2 -1</clus>
<clus scale="   80.297">  5  6 -1 -1</clus>
<clus scale="   90.930">  2  5  1 -1</clus>
<clus scale="  101.666">  7  8 -1 -1</clus>
<clus scale="   24.185">  1  5  2 -1</clus>
</clustering>
</event>
<event>
 9    2  0.1325014E-004  0.1334456E+03  0.7546771E-02  0.1237964E+00
          2   -1    0    0  502    0 -0.00000000000E+00  0.00000000000E+00  0.32207671778E+03  0.32207671778E+03  0.00000000000E+00 0. -1.
         21   -1    0    0  501  502  0.00000000000E+00 -0.00000000000E+00 -0.27823005384E+03  0.27823005384E+03  0.00000000000E+00 0. -1.
         23    2    1    2    0    0 -0.21356717153E+02  0.21676458911E+01  0.73484137444E+02  0.12156366110E+03  0.94429853264E+02 0.  0.
         24    2    1    2    0    0  0.11535063756E+03  0.42983789581E+02  0.18692714410E+03  0.23838141892E+03  0.82040038601E+02 0.  0.
        -11    1    4    4    0    0  0.40762395995E+02  0.36810121901E+02  0.25718786807E+02  0.60646632194E+02  0.00000000000E+00 0.  1.
         12    1    4    4    0    0  0.74588241563E+02  0.61736676797E+01  0.16120835729E+03  0.17773478672E+03  0.00000000000E+00 0. -1.
        -13    1    3    3    0    0 -0.46228472432E+02 -0.29711435025E+02  0.31799584639E+02  0.63490586845E+02  0.00000000000E+00 0.  1.
         13    1    3    3    0    0  0.24871755279E+02  0.31879080916E+02  0.41684552805E+02  0.58073074254E+02  0.00000000000E+00 0. -1.
          1    1    1    2  501    0 -0.93993920406E+02 -0.45151435472E+02 -0.21656461760E+03  0.24036169161E+03  0.00000000000E+00 0. -1.
<scales pt_clust_5="13000.00000" pt_clust_6="13000.00000" pt_clust_7="13000.00000" pt_clust_8="13000.00000" pt_clust_9="105.24812"></scales>
<clustering>
<clus scale="   82.040">  5  6 -1 -1</clus>
<clus scale="   94.430">  7  8 -1 -1</clus>
<clus scale="   96.839">  1  7  2 -1</clus>
<clus scale="  105.248">  2  9  1 -1</clus>
<clus scale="  105.248">  2  5  1 -1</clus>
</clustering>
</event>
<event>
 9    2  0.1325014E-004  0.2293449E+03  0.7546771E-02  0.1127102E+00
          2   -1    0    0  502    0 -0.00000000000E+00  0.00000000000E+00  0.26593606158E+03  0.26593606158E+03  0.00000000000E+00 0. -1.
         21   -1    0    0  501  502  0.00000000000E+00 -0.00000000000E+00 -0.22749777964E+03  0.22749777964E+03  0.00000000000E+00 0. -1.
         24    2    1    2    0    0  0.38597250137E+02 -0.96060115117E+01  0.62980236181E+02  0.11078309522E+03  0.82002200344E+02 0.  0.
         23    2    1    2    0    0  0.10133091383E+03 -0.23937860623E+02  0.11704584894E+03  0.18077903318E+03  0.90223903775E+02 0.  0.
        -11    1    3    3    0    0  0.20200169904E+02  0.94235221367E+01  0.77466638229E+02  0.80609736832E+02  0.00000000000E+00 0.  1.
         12    1    3    3    0    0  0.18397080233E+02 -0.19029533648E+02 -0.14486402048E+02  0.30173358386E+02  0.00000000000E+00 0. -1.
        -13    1    4    4    0    0  0.26685869541E+02 -0.22558574428E+02 -0.73420532909E+01  0.35706171174E+02  0.00000000000E+00 0.  1.
         13    1    4    4    0    0  0.74645044293E+02 -0.13792861954E+01  0.12438790223E+03  0.14507286200E+03  0.00000000000E+00 0. -1.
          1    1    1    2  501    0 -0.13992816397E+03  0.33543872135E+02 -0.14158780318E+03  0.20187171283E+03  0.00000000000E+00 0. -1.
<scales pt_clust_5="13000.00000" pt_clust_6="13000.00000" pt_clust_7="13000.00000" pt_clust_8="13000.00000" pt_clust_9="143.89261"></scales>
<clustering>
<clus scale="   82.002">  5  6 -1 -1</clus>
<clus scale="   90.224">  7  8 -1 -1</clus>
<clus scale="   90.753">  5  7 -1 -1</clus>
<clus scale="  143.893">  2  9  1 -1</clus>
<clus scale="  143.893">  2  5  1 -1</clus>
</clustering>
</event>
<event>
 9    2  0.1325014E-004  0.2326606E+03  0.7546771E-02  0.1158863E+00
         21   -1    0    0  501  502  0.00000000000E+00  0.00000000000E+00  0.62973015228E+02  0.62973015228E+02  0.00000000000E+00 0. -1.
          2   -1    0    0  502    0 -0.00000000000E+00 -0.00000000000E+00 -0.17419885541E+04  0.17419885541E+04  0.00000000000E+00 0. -1.
         23    2    1    2    0    0 -0.28007108494E+02  0.27973448829E+02 -0.55449584248E+02  0.11654764821E+03  0.94561017042E+02 0.  0.
         24    2    1    2    0    0 -0.11882499758E+03  0.16411394212E+03 -0.65989735122E+03  0.69487760557E+03  0.79609085670E+02 0.  0.
        -13    1    4    4    0    0  0.57683610155E+01  0.37323929322E+02 -0.15730181859E+03  0.16177209840E+03  0.00000000000E+00 0.  1.
         14    1    4    4    0    0 -0.12459335859E+03  0.12679001280E+03 -0.50259553264E+03  0.53310550717E+03  0.00000000000E+00 0. -1.
        -13    1    3    3    0    0  0.30332470893E+02 -0.90259515389E+01 -0.27847249705E+02  0.42154429278E+02  0.00000000000E+00 0.  1.
         13    1    3    3    0    0 -0.58339579387E+02  0.36999400368E+02 -0.27602334544E+02  0.74393218931E+02  0.00000000000E+00 0. -1.
          1    1    1    2  501    0  0.14683210607E+03 -0.19208739095E+03 -0.96366860341E+03  0.99353631556E+03  0.00000000000E+00 0. -1.
<scales pt_clust_5="13000.00000" pt_clust_6="13000.00000" pt_clust_7="13000.00000" pt_clust_8="13000.00000" pt_clust_9="218.61700"></scales>
<clustering>
<clus scale="   79.609">  5  6 -1 -1</clus>
<clus scale="   94.561">  7  8 -1 -1</clus>
<clus scale="  102.512">  2  7  1 -1</clus>
<clus scale="  218.617">  1  9  2 -1</clus>
<clus scale="  218.617">  1  5  2 -1</clus>
</clustering>
</event>
<event>
 9    2  0.1325014E-004  0.1405015E+03  0.7546771E-02  0.1226581E+00
         21   -1    0    0  501  502  0.00000000000E+00  0.00000000000E+00  0.11233298370E+03  0.11233298370E+03  0.00000000000E+00 0. -1.
         -1   -1    0    0    0  501 -0.00000000000E+00 -0.00000000000E+00 -0.33542479128E+03  0.33542479128E+03  0.00000000000E+00 0.  1.
         23    2    1    2    0    0  0.55085033450E+02  0.17713203143E+01 -0.14773926865E+03  0.18117005263E+03  0.89208732677E+02 0.  0.
         24    2    1    2    0    0  0.72970592787E+02 -0.33339653508E+02 -0.60550219559E+02  0.13387030928E+03  0.88423360664E+02 0.  0.
        -13    1    4    4    0    0  0.25587575130E+02  0.18619043048E+01 -0.69576891721E+02  0.74156149780E+02  0.00000000000E+00 0.  1.
         14    1    4    4    0    0  0.47383017658E+02 -0.35201557813E+02  0.90266721622E+01  0.59714159503E+02  0.00000000000E+00 0. -1.
        -13    1    3    3    0    0  0.72716418900E+02 -0.20876330309E+02 -0.11472547811E+03  0.13742428487E+03  0.00000000000E+00 0. -1.
         13    1    3    3    0    0 -0.17631385451E+02  0.22647650623E+02 -0.33013790541E+02  0.43745767767E+02  0.00000000000E+00 0.  1.
         -2    1    1    2    0  502 -0.12805562624E+03  0.31568333194E+02 -0.14802319373E+02  0.13271741306E+03  0.00000000000E+00 0.  1.
<scales pt_clust_5="13000.00000" pt_clust_6="13000.00000" pt_clust_7="13000.00000" pt_clust_8="13000.00000" pt_clust_9="109.18780"></scales>
<clustering>
<clus scale="   88.423">  5  6 -1 -1</clus>
<clus scale="   89.209">  7  8 -1 -1</clus>
<clus scale="  104.860">  2  7  1 -1</clus>
<clus scale="  109.188">  1  9  2 -1</clus>
<clus scale="  109.188">  1  5  2 -1</clus>
</clustering>
</event>
<event>
 9    2  0.1325014E-004  0.1528542E+03  0.7546771E-02  0.1197540E+00
          2   -1    0    0  502    0 -0.00000000000E+00  0.00000000000E+00  0.10216851349E+04  0.10216851349E+04  0.00000000000E+00 0. -1.
         21   -1    0    0  501  502  0.00000000000E+00 -0.00000000000E+00 -0.33928470486E+02  0.33928470486E+02  0.00000000000E+00 0. -1.
         24    2    1    2    0    0  0.10076594001E+02 -0.10266018453E+03  0.31571036566E+03  0.34512983861E+03  0.93813214840E+02 0.  0.
         23    2    1    2    0    0 -0.10726133577E+02  0.14165076915E+03  0.37873584185E+03  0.41459238177E+03  0.90917626345E+02 0.  0.
        -11    1    3    3    0    0 -0.29398218822E+02 -0.12335975608E+02  0.14071416991E+03  0.14428066114E+03  0.00000000000E+00 0.  1.
         12    1    3    3    0    0  0.39474812822E+02 -0.90324208923E+02  0.17499619574E+03  0.20084917747E+03  0.00000000000E+00 0. -1.
        -13    1    4    4    0    0 -0.39983346908E+02  0.12264168571E+03  0.25139379859E+03  0.28255706162E+03  0.00000000000E+00 0. -1.
         13    1    4    4    0    0  0.29257213332E+02  0.19009083437E+02  0.12734204326E+03  0.13203532015E+03  0.00000000000E+00 0.  1.
          1    1    1    2  501    0  0.64953957600E+00 -0.38990584618E+02  0.29331045693E+03  0.29589138503E+03  0.00000000000E+00 0. -1.
<scales pt_clust_5="13000.00000" pt_clust_6="13000.00000" pt_clust_7="13000.00000" pt_clust_8="13000.00000" pt_clust_9="38.99601"></scales>
<clustering>
<clus scale="   38.996">  2  9  1 -1</clus>
<clus scale="   90.918">  7  8 -1 -1</clus>
<clus scale="   93.813">  5  6 -1 -1</clus>
<clus scale="  151.094">  2  7  1 -1</clus>
<clus scale="   38.996">  2  5  1 -1</clus>
</clustering>
</event>
<event>
 9    2  0.1325014E-004  0.1199864E+03  0.7546771E-02  0.1247139E+00
          2   -1    0    0  502    0 -0.00000000000E+00  0.00000000000E+00  0.95050662960E+03  0.95050662960E+03  0.00000000000E+00 0. -1.
         21   -1    0    0  501  502  0.00000000000E+00 -0.00000000000E+00 -0.23750340653E+03  0.23750340653E+03  0.00000000000E+00 0. -1.
         24    2    1    2    0    0  0.15273334298E+02 -0.68457834603E+02  0.66175879479E+03  0.67031129103E+03  0.80453555209E+02 0.  0.
         23    2    1    2    0    0 -0.73952055155E+02  0.84113597543E+02  0.26128039851E+03  0.29905884942E+03  0.92869505321E+02 0.  0.
        -13    1    3    3    0    0  0.37572619037E+02 -0.55223215929E+02  0.28756738317E+03  0.29522246720E+03  0.00000000000E+00 0.  1.
         14    1    3    3    0    0 -0.22299284739E+02 -0.13234618674E+02  0.37419141162E+03  0.37508882383E+03  0.00000000000E+00 0. -1.
        -13    1    4    4    0    0  0.11785181801E+02  0.36659998592E+02  0.33296037786E+02  0.50906503897E+02  0.00000000000E+00 0.  1.
         13    1    4    4    0    0 -0.85737236956E+02  0.47453598952E+02  0.22798436072E+03  0.24815234552E+03  0.00000000000E+00 0. -1.
          1    1    1    2  501    0  0.58678720857E+02 -0.15655762940E+02 -0.21003597022E+03  0.21863989568E+03  0.00000000000E+00 0. -1.
<scales pt_clust_5="13000.00000" pt_clust_6="13000.00000" pt_clust_7="13000.00000" pt_clust_8="13000.00000" pt_clust_9="60.73134"></scales>
<clustering>
<clus scale="   60.731">  2  9  1 -1</clus>
<clus scale="   80.454">  5  6 -1 -1</clus>
<clus scale="   92.870">  7  8 -1 -1</clus>
<clus scale="  110.656">  1  5  2 -1</clus>
<clus scale="   60.731">  2  5  1 -1</clus>
</clustering>
</event>
<event>
 9    2  0.1325014E-004  0.1277480E+03  0.7546771E-02  0.1234762E+00
         -1   -1    0    0    0  501 -0.00000000000E+00  0.00000000000E+00  0.20907126933E+03  0.20907126933E+03  0.00000000000E+00 0.  1.
         21   -1    0    0  501  502  0.00000000000E+00 -0.00000000000E+00 -0.21011469215E+03  0.21011469215E+03  0.00000000000E+00 0.  1.
         24    2    1    2    0    0  0.92202556586E+02  0.32807592957E+02  0.89672392541E+02  0.15376322318E+03  0.77616629804E+02 0.  0.
         23    2    1    2    0    0 -0.74259322362E+02  0.73647242231E+02 -0.68520012166E+02  0.15520819629E+03  0.91957755975E+02 0.  0.
        -11    1    3    3    0    0  0.98486312716E+02  0.74444548323E+01  0.70088481691E+02  0.12110891365E+03  0.00000000000E+00 0.  1.
         12    1    3    3    0    0 -0.62837561295E+01  0.25363138125E+02  0.19583910850E+02  0.32654309529E+02  0.00000000000E+00 0. -1.
        -13    1    4    4    0    0 -0.72461349288E+02  0.94021879241E+02 -0.56265024246E+02  0.13136405090E+03  0.00000000000E+00 0.  1.
         13    1    4    4    0    0 -0.17979730739E+01 -0.20374637010E+02 -0.12254987920E+02  0.23844145390E+02  0.00000000000E+00 0. -1.
         -2    1    1    2    0  502 -0.17943234225E+02 -0.10645483519E+03 -0.22195803190E+02  0.11021454200E+03  0.00000000000E+00 0.  1.
<scales pt_clust_5="13000.00000" pt_clust_6="13000.00000" pt_clust_7="13000.00000" pt_clust_8="13000.00000" pt_clust_9="107.95643"></scales>
<clustering>
<clus scale="   77.617">  5  6 -1 -1</clus>
<clus scale="   91.958">  7  8 -1 -1</clus>
<clus scale="  107.956">  2  9  1 -1</clus>
<clus scale="  117.846">  1  5  2 -1</clus>
<clus scale="  107.956">  2  5  1 -1</clus>
</clustering>
</event>
<event>
 9    2  0.1325014E-004  0.1109708E+03  0.7546771E-02  0.1266594E+00
         21   -1    0    0  501  502  0.00000000000E+00  0.00000000000E+00  0.14777829913E+03  0.14777829913E+03  0.00000000000E+00 0. -1.
          4   -1    0    0  502    0 -0.00000000000E+00 -0.00000000000E+00 -0.23200206807E+03  0.23200206807E+03  0.00000000000E+00 0. -1.
         24    2    1    2    0    0  0.96356970916E+01  0.57773117975E+02 -0.16925726645E+03  0.19525247156E+03  0.77749119511E+02 0.  0.
         23    2    1    2    0    0  0.72978046360E+01 -0.40684987640E+02  0.95488027107E+01  0.10530235160E+03  0.96378832981E+02 0.  0.
        -11    1    3    3    0    0  0.58112223419E+01  0.56748374964E+02 -0.49784839114E+02  0.75714454180E+02  0.00000000000E+00 0.  1.
         12    1    3    3    0    0  0.38244747497E+01  0.10247430111E+01 -0.11947242734E+03  0.11953801738E+03  0.00000000000E+00 0. -1.
        -13    1    4    4    0    0 -0.30460700913E+02 -0.52479592501E+02 -0.94638179166E+01  0.61412749317E+02  0.00000000000E+00 0.  1.
         13    1    4    4    0    0  0.37758505549E+02  0.11794604861E+02  0.19012620627E+02  0.43889602279E+02  0.00000000000E+00 0. -1.
          3    1    1    2  501    0 -0.16933501728E+02 -0.17088130335E+02  0.75484694798E+02  0.79225544036E+02  0.00000000000E+00 0. -1.
<scales pt_clust_5="13000.00000" pt_clust_6="13000.00000" pt_clust_7="13000.00000" pt_clust_8="13000.00000" pt_clust_9="24.05718"></scales>
<clustering>
<clus scale="   24.057">  1  9  2 -1</clus>
<clus scale="   77.749">  5  6 -1 -1</clus>
<clus scale="   95.240">  2  5  1 -1</clus>
<clus scale="   96.379">  7  8 -1 -1</clus>
<clus scale="   24.057">  1  5  2 -1</clus>
</clustering>
</event>
<event>
 9    2  0.1325014E-004  0.1182224E+03  0.7546771E-02  0.1248357E+00
          2   -1    0    0  502    0 -0.00000000000E+00  0.00000000000E+00  0.44647171509E+03  0.44647171509E+03  0.00000000000E+00 0. -1.
         21   -1    0    0  501  502  0.00000000000E+00 -0.00000000000E+00 -0.19127443200E+03  0.19127443200E+03  0.00000000000E+00 0.  1.
         24    2    1    2    0    0 -0.59087836492E+01 -0.58731940583E+02 -0.18271041392E+02  0.10244581185E+03  0.81712660243E+02 0.  0.
         23    2    1    2    0    0  0.98959903376E+02  0.89779992593E+02 -0.72189875070E+02  0.17599255166E+03  0.88929694874E+02 0.  0.
        -13    1    3    3    0    0  0.36414968906E+02 -0.41214819960E+02 -0.98244674354E+01  0.55867982827E+02  0.00000000000E+00 0.  1.
         14    1    3    3    0    0 -0.42323752555E+02 -0.17517120623E+02 -0.84465739569E+01  0.46577829027E+02  0.00000000000E+00 0. -1.
        -13    1    4    4    0    0  0.10020201732E+03  0.35690159181E+02 -0.46159288581E+02  0.11595219558E+03  0.00000000000E+00 0. -1.
         13    1    4    4    0    0 -0.12421139392E+01  0.54089833412E+02 -0.26030586489E+02  0.60040356083E+02  0.00000000000E+00 0.  1.
          1    1    1    2  501    0 -0.93051119727E+02 -0.31048052010E+02  0.34565819955E+03  0.35930778357E+03  0.00000000000E+00 0. -1.
<scales pt_clust_5="13000.00000" pt_clust_6="13000.00000" pt_clust_7="13000.00000" pt_clust_8="13000.00000" pt_clust_9="98.09435"></scales>
<clustering>
<clus scale="   81.713">  5  6 -1 -1</clus>
<clus scale="   88.930">  7  8 -1 -1</clus>
<clus scale="   98.094">  2  9  1 -1</clus>
<clus scale="  112.894">  1  5  2 -1</clus>
<clus scale="   98.094">  2  5  1 -1</clus>
</clustering>
</event>
<event>
 9    2  0.1325014E-004  0.1347455E+03  0.7546771E-02  0.1222483E+00
         21   -1    0    0  501  502  0.00000000000E+00  0.00000000000E+00  0.51159090207E+02  0.51159090207E+02  0.00000000000E+00 0. -1.
         -1   -1    0    0    0  501 -0.00000000000E+00 -0.00000000000E+00 -0.77062653501E+03  0.77062653501E+03  0.00000000000E+00 0.  1.
         23    2    1    2    0    0  0.61928162021E+02  0.52356597025E+02 -0.22811426483E+03  0.25822071948E+03  0.89808193640E+02 0.  0.
         24    2    1    2    0    0 -0.39591940580E+02 -0.14413292048E+03 -0.23406231380E+03  0.28948391378E+03  0.81694241375E+02 0.  0.
        -13    1    4    4    0    0 -0.49269626079E+02 -0.39461731563E+02 -0.11048286414E+03  0.12724459746E+03  0.00000000000E+00 0.  1.
         14    1    4    4    0    0  0.96776854991E+01 -0.10467118892E+03 -0.12357944965E+03  0.16223931633E+03  0.00000000000E+00 0. -1.
        -11    1    3    3    0    0  0.48985903937E+02 -0.84133618653E+01 -0.15226420660E+03  0.16017113365E+03  0.00000000000E+00 0.  1.
         11    1    3    3    0    0  0.12942258084E+02  0.60769958890E+02 -0.75850058232E+02  0.98049585831E+02  0.00000000000E+00 0. -1.
         -2    1    1    2    0  502 -0.22336221441E+02  0.91776323455E+02 -0.25729086618E+03  0.27408099196E+03  0.00000000000E+00 0.  1.
<scales pt_clust_5="13000.00000" pt_clust_6="13000.00000" pt_clust_7="13000.00000" pt_clust_8="13000.00000" pt_clust_9="94.45533"></scales>
<clustering>
<clus scale="   81.694">  5  6 -1 -1</clus>
<clus scale="   89.808">  7  8 -1 -1</clus>
<clus scale="   94.455">  1  9  2 -1</clus>
<clus scale="  129.479">  1  5  2 -1</clus>
<clus scale="   94.455">  1  5  2 -1</clus>
</clustering>
</event>
<event>
 9    2  0.1325014E-004  0.1180536E+03  0.7546771E-02  0.1250818E+00
         21   -1    0    0  501  502  0.00000000000E+00  0.00000000000E+00  0.64095551438E+02  0.64095551438E+02  0.00000000000E+00 0.  1.
         -1   -1    0    0    0  501 -0.00000000000E+00 -0.00000000000E+00 -0.26071526582E+03  0.26071526582E+03  0.00000000000E+00 0.  1.
         24    2    1    2    0    0 -0.83834513104E+02 -0.20753702036E+02 -0.11414893448E+03  0.16240763655E+03  0.76728869608E+02 0.  0.
         23    2    1    2    0    0  0.60161294317E+02  0.86728328437E+01 -0.48448276091E+02  0.11923027886E+03  0.90410312342E+02 0.  0.
        -11    1    3    3    0    0 -0.56791840745E+02 -0.21786072807E+02 -0.12016626115E+03  0.13468435864E+03  0.00000000000E+00 0.  1.
         12    1    3    3    0    0 -0.27042672359E+02  0.10323707710E+01  0.60173266716E+01  0.27723277909E+02  0.00000000000E+00 0. -1.
        -13    1    4    4    0    0  0.21477224027E+02  0.12789182299E+01  0.26758298782E+02  0.34335307447E+02  0.00000000000E+00 0.  1.
         13    1    4    4    0    0  0.38684070290E+02  0.73939146137E+01 -0.75206574873E+02  0.84894971415E+02  0.00000000000E+00 0. -1.
         -2    1    1    2    0  502  0.23673218787E+02  0.12080869193E+02 -0.34022503814E+02  0.43172901848E+02  0.00000000000E+00 0.  1.
<scales pt_clust_5="13000.00000" pt_clust_6="13000.00000" pt_clust_7="13000.00000" pt_clust_8="13000.00000" pt_clust_9="26.57761"></scales>
<clustering>
<clus scale="   26.578">  1  9  2 -1</clus>
<clus scale="   76.729">  5  6 -1 -1</clus>
<clus scale="   90.410">  7  8 -1 -1</clus>
<clus scale="  107.935">  2  5  1 -1</clus>
<clus scale="   26.578">  1  5  2 -1</clus>
</clustering>
</event>
<event>
 9    2  0.1325014E-004  0.1052079E+03  0.7546771E-02  0.1274489E+00
          2   -1    0    0  502    0 -0.00000000000E+00  0.00000000000E+00  0.40633844291E+03  0.40633844291E+03  0.00000000000E+00 0. -1.
         21   -1    0    0  501  502  0.00000000000E+00 -0.00000000000E+00 -0.42663320471E+02  0.42663320471E+02  0.00000000000E+00 0. -1.
         24    2    1    2    0    0 -0.26029448418E+01  0.51279118343E+02  0.20025408403E+03  0.22172607455E+03  0.80152546219E+02 0.  0.
         23    2    1    2    0    0  0.31378928663E+02 -0.53030889432E+02  0.71970943706E+02  0.13138905906E+03  0.91029422195E+02 0.  0.
        -11    1    3    3    0    0 -0.38139817533E+02  0.14103504528E+02  0.11703477655E+03  0.12389791541E+03  0.00000000000E+00 0.  1.
         12    1    3    3    0    0  0.35536872691E+02  0.37175613815E+02  0.83219307484E+02  0.97828159143E+02  0.00000000000E+00 0. -1.
        -13    1    4    4    0    0  0.20693143622E+02 -0.91950483901E+01 -0.19184503925E+02  0.29678279915E+02  0.00000000000E+00 0. -1.
         13    1    4    4    0    0  0.10685785041E+02 -0.43835841042E+02  0.91155447630E+02  0.10171077915E+03  0.00000000000E+00 0.  1.
          1    1    1    2  501    0 -0.28775983821E+02  0.17517710896E+01  0.91450094699E+02  0.95886629763E+02  0.00000000000E+00 0. -1.
<scales pt_clust_5="13000.00000" pt_clust_6="13000.00000" pt_clust_7="13000.00000" pt_clust_8="13000.00000" pt_clust_9="28.82927"></scales>
<clustering>
<clus scale="   28.829">  2  9  1 -1</clus>
<clus scale="   80.153">  5  6 -1 -1</clus>
<clus scale="   91.029">  7  8 -1 -1</clus>
<clus scale="   95.952">  1  5  2 -1</clus>
<clus scale="   28.829">  2  5  1 -1</clus>
</clustering>
</event>
<event>
 9    2  0.1325014E-004  0.9590813E+02  0.7546771E-02  0.1294124E+00
          2   -1    0    0  502    0 -0.00000000000E+00  0.00000000000E+00  0.16251620010E+03  0.16251620010E+03  0.00000000000E+00 0. -1.
         21   -1    0    0  501  502  0.00000000000E+00 -0.00000000000E+00 -0.97750422142E+02  0.97750422142E+02  0.00000000000E+00 0. -1.
         23    2    1    2    0    0 -0.30635713395E+02 -0.12877007880E+02  0.10148907354E+03  0.13902977947E+03  0.89021813413E+02 0.  0.
         24    2    1    2    0    0  0.46388403916E+02 -0.21168661254E+01 -0.21738612651E+02  0.94826537227E+02  0.79769290722E+02 0.  0.
        -13    1    4    4    0    0  0.36949028543E+01 -0.36836351833E+02 -0.12182179010E+02  0.38974024797E+02  0.00000000000E+00 0.  1.
         14    1    4    4    0    0  0.42693501062E+02  0.34719485708E+02 -0.95564336409E+01  0.55852512429E+02  0.00000000000E+00 0. -1.
        -13    1    3    3    0    0 -0.54700566568E+02  0.13440479415E+02  0.78435812127E+02  0.96565910619E+02  0.00000000000E+00 0. -1.
         13    1    3    3    0    0  0.24064853172E+02 -0.26317487295E+02  0.23053261415E+02  0.42463868848E+02  0.00000000000E+00 0.  1.
          1    1    1    2  501    0 -0.15752690521E+02  0.14993874005E+02 -0.14984682936E+02  0.26410305546E+02  0.00000000000E+00 0. -1.
<scales pt_clust_5="13000.00000" pt_clust_6="13000.00000" pt_clust_7="13000.00000" pt_clust_8="13000.00000" pt_clust_9="21.74772"></scales>
<clustering>
<clus scale="   21.748">  2  9  1 -1</clus>
<clus scale="   79.769">  5  6 -1 -1</clus>
<clus scale="   87.388">  2  5  1 -1</clus>
<clus scale="   89.022">  7  8 -1 -1</clus>
<clus scale="   21.748">  2  5  1 -1</clus>
</clustering>
</event>
<event>
 9    2  0.1325014E-004  0.1049578E+03  0.7546771E-02  0.1275415E+00
         -3   -1    0    0    0  501 -0.00000000000E+00  0.00000000000E+00  0.30372116381E+03  0.30372116381E+03  0.00000000000E+00 0.  1.
         21   -1    0    0  501  502  0.00000000000E+00 -0.00000000000E+00 -0.92702921069E+02  0.92702921069E+02  0.00000000000E+00 0.  1.
         23    2    1    2    0    0  0.57116894529E+02 -0.19880492500E+02  0.15605028940E+03  0.19112188897E+03  0.92294691064E+02 0.  0.
         24    2    1    2    0    0 -0.32965420286E+02  0.25227965957E+02  0.11139474253E+03  0.14369154977E+03  0.80717430645E+02 0.  0.
        -13    1    4    4    0    0 -0.34841810423E+02 -0.22238852875E+02  0.37296693348E+02  0.55673707129E+02  0.00000000000E+00 0.  1.
         14    1    4    4    0    0  0.18763901367E+01  0.47466818832E+02  0.74098049186E+02  0.88017842641E+02  0.00000000000E+00 0. -1.
        -13    1    3    3    0    0 -0.41956890897E+01 -0.24490191980E+02  0.11389289876E+03  0.11657171911E+03  0.00000000000E+00 0.  1.
         13    1    3    3    0    0  0.61312583619E+02  0.46096994800E+01  0.42157390641E+02  0.74550169852E+02  0.00000000000E+00 0. -1.
         -4    1    1    2    0  502 -0.24151474243E+02 -0.53474734568E+01 -0.56426789188E+02  0.61610646146E+02  0.00000000000E+00 0.  1.
<scales pt_clust_5="13000.00000" pt_clust_6="13000.00000" pt_clust_7="13000.00000" pt_clust_8="13000.00000" pt_clust_9="24.73639"></scales>
<clustering>
<clus scale="   24.736">  2  9  1 -1</clus>
<clus scale="   80.717">  5  6 -1 -1</clus>
<clus scale="   92.295">  7  8 -1 -1</clus>
<clus scale="   94.937">  2  5  1 -1</clus>
<clus scale="   24.736">  2  5  1 -1</clus>
</clustering>
</event>
<event>
 9    2  0.1325014E-004  0.9311485E+02  0.7546771E-02  0.1301408E+00
         -1   -1    0    0    0  501 -0.00000000000E+00  0.00000000000E+00  0.32808372058E+02  0.32808372058E+02  0.00000000000E+00 0.  1.
         21   -1    0    0  501  502  0.00000000000E+00 -0.00000000000E+00 -0.36191122948E+03  0.36191122948E+03  0.00000000000E+00 0. -1.
         23    2    1    2    0    0  0.42303574646E+01 -0.28302169606E+02 -0.76855074951E+02  0.12209207566E+03  0.90448126921E+02 0.  0.
         24    2    1    2    0    0  0.48989025789E+01  0.10498680768E+02 -0.17718837619E+03  0.19494727051E+03  0.80464253412E+02 0.  0.
        -13    1    4    4    0    0 -0.36371739597E+02  0.11354639817E+02 -0.64216048543E+02  0.74669486252E+02  0.00000000000E+00 0.  1.
         14    1    4    4    0    0  0.41270642176E+02 -0.85595904907E+00 -0.11297232765E+03  0.12027778426E+03  0.00000000000E+00 0. -1.
        -11    1    3    3    0    0  0.47299942567E+02 -0.14265479243E+02 -0.43667654928E+02  0.65936731431E+02  0.00000000000E+00 0. -1.
         11    1    3    3    0    0 -0.43069585102E+02 -0.14036690363E+02 -0.33187420023E+02  0.56155344225E+02  0.00000000000E+00 0.  1.
         -2    1    1    2    0  502 -0.91292600435E+01  0.17803488838E+02 -0.75059406283E+02  0.77680255377E+02  0.00000000000E+00 0.  1.
<scales pt_clust_5="13000.00000" pt_clust_6="13000.00000" pt_clust_7="13000.00000" pt_clust_8="13000.00000" pt_clust_9="20.00769"></scales>
<clustering>
<clus scale="   20.008">  2  9  1 -1</clus>
<clus scale="   80.464">  5  6 -1 -1</clus>
<clus scale="   83.451">  2  5  1 -1</clus>
<clus scale="   90.448">  7  8 -1 -1</clus>
<clus scale="   20.008">  2  5  1 -1</clus>
</clustering>
</event>
<event>
 9    2  0.1325014E-004  0.1297785E+03  0.7546771E-02  0.1231255E+00
          2   -1    0    0  502    0 -0.00000000000E+00  0.00000000000E+00  0.38314822240E+03  0.38314822240E+03  0.00000000000E+00 0. -1.
         21   -1    0    0  501  502  0.00000000000E+00 -0.00000000000E+00 -0.11689854308E+03  0.11689854308E+03  0.00000000000E+00 0. -1.
         24    2    1    2    0    0  0.96720230921E+02  0.91319366584E+01  0.29963933619E+03  0.32518021014E+03  0.80748015078E+02 0.  0.
         23    2    1    2    0    0 -0.60815016773E+02  0.19546979531E+02  0.71486871697E+01  0.11358832124E+03  0.93651760899E+02 0.  0.
        -13    1    3    3    0    0  0.34808159659E+02 -0.10896316248E+02  0.28349441087E+02  0.46195546285E+02  0.00000000000E+00 0.  1.
         14    1    3    3    0    0  0.61912071262E+02  0.20028252906E+02  0.27128989510E+03  0.27898466386E+03  0.00000000000E+00 0. -1.
        -11    1    4    4    0    0  0.19235684657E+02 -0.10019339513E+02 -0.13814931423E+02  0.25714802327E+02  0.00000000000E+00 0. -1.
         11    1    4    4    0    0 -0.80050701430E+02  0.29566319044E+02  0.20963618593E+02  0.87873518911E+02  0.00000000000E+00 0.  1.
          1    1    1    2  501    0 -0.35905214148E+02 -0.28678916190E+02 -0.40538344038E+02  0.61278234098E+02  0.00000000000E+00 0. -1.
<scales pt_clust_5="13000.00000" pt_clust_6="13000.00000" pt_clust_7="13000.00000" pt_clust_8="13000.00000" pt_clust_9="45.95285"></scales>
<clustering>
<clus scale="   45.953">  2  9  1 -1</clus>
<clus scale="   80.748">  5  6 -1 -1</clus>
<clus scale="   93.652">  7  8 -1 -1</clus>
<clus scale="  120.798">  1  5  2 -1</clus>
<clus scale="   45.953">  2  5  1 -1</clus>
</clustering>
</event>
<event>
 9    2  0.1325014E-004  0.1098340E+03  0.7546771E-02  0.1265678E+00
         21   -1    0    0  501  502  0.00000000000E+00  0.00000000000E+00  0.24453180146E+03  0.24453180146E+03  0.00000000000E+00 0.  1.
         -3   -1    0    0    0  501 -0.00000000000E+00 -0.00000000000E+00 -0.11572776865E+03  0.11572776865E+03  0.00000000000E+00 0.  1.
         23    2    1    2    0    0 -0.82547447604E+02 -0.72984435417E+01 -0.12692426942E+02  0.12430800095E+03  0.91782531090E+02 0.  0.
         24    2    1    2    0    0  0.27921969873E+02 -0.47308742260E+02  0.32065242466E+02  0.10200725657E+03  0.79746768729E+02 0.  0.
        -11    1    4    4    0    0  0.30239305203E+02 -0.42913262708E+02 -0.15064768121E+02  0.54616031840E+02  0.00000000000E+00 0.  1.
         12    1    4    4    0    0 -0.23173353295E+01 -0.43954795522E+01  0.47130010587E+02  0.47391224730E+02  0.00000000000E+00 0. -1.
        -11    1    3    3    0    0 -0.83050921358E+02  0.13567646510E+02  0.19085002239E+02  0.86288897784E+02  0.00000000000E+00 0.  1.
         11    1    3    3    0    0  0.50347375459E+00 -0.20866090051E+02 -0.31777429181E+02  0.38019103161E+02  0.00000000000E+00 0. -1.
         -4    1    1    2    0  502  0.54625477730E+02  0.54607185802E+02  0.10943121728E+03  0.13394431259E+03  0.00000000000E+00 0.  1.
<scales pt_clust_5="13000.00000" pt_clust_6="13000.00000" pt_clust_7="13000.00000" pt_clust_8="13000.00000" pt_clust_9="77.23916"></scales>
<clustering>
<clus scale="   77.239">  1  9  2 -1</clus>
<clus scale="   79.747">  5  6 -1 -1</clus>
<clus scale="   91.783">  7  8 -1 -1</clus>
<clus scale="   99.995">  1  5  2 -1</clus>
<clus scale="   77.239">  1  5  2 -1</clus>
</clustering>
</event>
<event>
 9    2  0.1325014E-004  0.1048549E+03  0.7546771E-02  0.1274659E+00
         21   -1    0    0  501  502  0.00000000000E+00  0.00000000000E+00  0.17765209537E+02  0.17765209537E+02  0.00000000000E+00 0.  1.
          2   -1    0    0  502    0 -0.00000000000E+00 -0.00000000000E+00 -0.11498563464E+04  0.11498563464E+04  0.00000000000E+00 0. -1.
         24    2    1    2    0    0 -0.43924404666E+02  0.21941838269E+02 -0.77187959522E+03  0.77774403999E+03  0.81712206093E+02 0.  0.
         23    2    1    2    0    0  0.48039030911E+02 -0.44004392650E+02 -0.21077081753E+03  0.23876095009E+03  0.91314394820E+02 0.  0.
        -11    1    3    3    0    0  0.17196397212E+02 -0.12453766482E+02 -0.10094696234E+03  0.10315571522E+03  0.00000000000E+00 0.  1.
         12    1    3    3    0    0 -0.61120801878E+02  0.34395604751E+02 -0.67093263289E+03  0.67458832477E+03  0.00000000000E+00 0. -1.
        -11    1    4    4    0    0  0.28959824745E+02 -0.37604743765E+01 -0.67998552227E+01  0.29984173289E+02  0.00000000000E+00 0.  1.
         11    1    4    4    0    0  0.19079206166E+02 -0.40243918274E+02 -0.20397096231E+03  0.20877677680E+03  0.00000000000E+00 0. -1.
          1    1    1    2  501    0 -0.41146262443E+01  0.22062554382E+02 -0.14944072411E+03  0.15111656586E+03  0.00000000000E+00 0. -1.
<scales pt_clust_5="13000.00000" pt_clust_6="13000.00000" pt_clust_7="13000.00000" pt_clust_8="13000.00000" pt_clust_9="22.44297"></scales>
<clustering>
<clus scale="   22.443">  1  9  2 -1</clus>
<clus scale="   81.712">  5  6 -1 -1</clus>
<clus scale="   91.314">  7  8 -1 -1</clus>
<clus scale="   96.608">  2  5  1 -1</clus>
<clus scale="   22.443">  1  5  2 -1</clus>
</clustering>
</event>
<event>
 9    2  0.1325014E-004  0.1443814E+03  0.7546771E-02  0.1210874E+00
          2   -1    0    0  502    0 -0.00000000000E+00  0.00000000000E+00  0.16236910306E+03  0.16236910306E+03  0.00000000000E+00 0. -1.
         21   -1    0    0  501  502  0.00000000000E+00 -0.00000000000E+00 -0.36410891262E+03  0.36410891262E+03  0.00000000000E+00 0. -1.
         24    2    1    2    0    0 -0.10758639583E+03 -0.63686713848E+02  0.34417094290E+02  0.14891570563E+03  0.73215578349E+02 0.  0.
         23    2    1    2    0    0  0.11709453753E+02  0.84154253164E+02 -0.24956862235E+03  0.27861190641E+03  0.90116854699E+02 0.  0.
        -13    1    3    3    0    0  0.36124186373E+01 -0.27686377081E+02  0.46745315216E+01  0.28309650108E+02  0.00000000000E+00 0.  1.
         14    1    3    3    0    0 -0.11119881447E+03 -0.36000336767E+02  0.29742562769E+02  0.12060605552E+03  0.00000000000E+00 0. -1.
        -13    1    4    4    0    0  0.45996840704E+02  0.24288719278E+02 -0.13750968084E+03  0.14701892246E+03  0.00000000000E+00 0. -1.
         13    1    4    4    0    0 -0.34287386951E+02  0.59865533885E+02 -0.11205894151E+03  0.13159298395E+03  0.00000000000E+00 0.  1.
          1    1    1    2  501    0  0.95876942081E+02 -0.20467539316E+02  0.13411718488E+02  0.98950403644E+02  0.00000000000E+00 0. -1.
<scales pt_clust_5="13000.00000" pt_clust_6="13000.00000" pt_clust_7="13000.00000" pt_clust_8="13000.00000" pt_clust_9="98.03733"></scales>
<clustering>
<clus scale="   73.216">  5  6 -1 -1</clus>
<clus scale="   90.117">  7  8 -1 -1</clus>
<clus scale="   98.037">  2  9  1 -1</clus>
<clus scale="  134.482">  1  5  2 -1</clus>
<clus scale="   98.037">  2  5  1 -1</clus>
</clustering>
</event>
<event>
 9    2  0.1325014E-004  0.9496353E+02  0.7546771E-02  0.1296219E+00
          2   -1    0    0  502    0 -0.00000000000E+00  0.00000000000E+00  0.48518373098E+03  0.48518373098E+03  0.00000000000E+00 0. -1.
         21   -1    0    0  501  502  0.00000000000E+00 -0.00000000000E+00 -0.42503786420E+02  0.42503786420E+02  0.00000000000E+00 0.  1.
         24    2    1    2    0    0  0.10158957262E+02 -0.37288406255E+02  0.33342776927E+03  0.34524758234E+03  0.80797191416E+02 0.  0.
         23    2    1    2    0    0  0.28235424860E+02  0.10378394691E+02  0.93371979033E+02  0.13293783476E+03  0.89717284557E+02 0.  0.
        -13    1    3    3    0    0  0.14599629088E+01  0.24568581016E+02  0.61598419431E+02  0.66333339591E+02  0.00000000000E+00 0.  1.
         14    1    3    3    0    0  0.86989943531E+01 -0.61856987271E+02  0.27182934984E+03  0.27891424275E+03  0.00000000000E+00 0. -1.
        -11    1    4    4    0    0  0.45960604276E+02 -0.23280029474E+02  0.74218022694E+02  0.90347395150E+02  0.00000000000E+00 0. -1.
         11    1    4    4    0    0 -0.17725179416E+02  0.33658424165E+02  0.19153956340E+02  0.42590439609E+02  0.00000000000E+00 0.  1.
          1    1    1    2  501    0 -0.38394382122E+02  0.26910011564E+02  0.15880196260E+02  0.49502100301E+02  0.00000000000E+00 0. -1.
<scales pt_clust_5="13000.00000" pt_clust_6="13000.00000" pt_clust_7="13000.00000" pt_clust_8="13000.00000" pt_clust_9="46.88579"></scales>
<clustering>
<clus scale="   46.886">  2  9  1 -1</clus>
<clus scale="   80.797">  5  6 -1 -1</clus>
<clus scale="   86.586">  1  5  2 -1</clus>
<clus scale="   89.717">  7  8 -1 -1</clus>
<clus scale="   46.886">  2  5  1 -1</clus>
</clustering>
</event>
<event>
 9    2  0.1325014E-004  0.1383428E+03  0.7546771E-02  0.1219276E+00
         -3   -1    0    0    0  501 -0.00000000000E+00  0.00000000000E+00  0.77912076303E+03  0.77912076303E+03  0.00000000000E+00 0.  1.
         21   -1    0    0  501  502  0.00000000000E+00 -0.00000000000E+00 -0.68028425082E+02  0.68028425082E+02  0.00000000000E+00 0. -1.
         24    2    1    2    0    0 -0.10531871807E+03 -0.13297090437E+02  0.65932651648E+03  0.67283725305E+03  0.82034558388E+02 0.  0.
         23    2    1    2    0    0  0.55788448416E+02  0.70751130597E+01  0.53035657835E+02  0.12437624544E+03  0.97438499713E+02 0.  0.
        -13    1    3    3    0    0 -0.62519818257E+02 -0.48045553779E+02  0.40506333132E+03  0.41266621535E+03  0.00000000000E+00 0.  1.
         14    1    3    3    0    0 -0.42798899809E+02  0.34748463342E+02  0.25426318516E+03  0.26017103770E+03  0.00000000000E+00 0. -1.
        -11    1    4    4    0    0 -0.75936650860E+01  0.27889128665E+02 -0.11918964131E+02  0.31265459425E+02  0.00000000000E+00 0. -1.
         11    1    4    4    0    0  0.63382113502E+02 -0.20814015605E+02  0.64954621966E+02  0.93110786015E+02  0.00000000000E+00 0.  1.
         -4    1    1    2    0  502  0.49530269650E+02  0.62219773772E+01 -0.12698363605E+01  0.49935689627E+02  0.00000000000E+00 0.  1.
<scales pt_clust_5="13000.00000" pt_clust_6="13000.00000" pt_clust_7="13000.00000" pt_clust_8="13000.00000" pt_clust_9="49.91954"></scales>
<clustering>
<clus scale="   49.920">  2  9  1 -1</clus>
<clus scale="   82.035">  5  6 -1 -1</clus>
<clus scale="   97.438">  7  8 -1 -1</clus>
<clus scale="  127.961">  1  5  2 -1</clus>
<clus scale="   49.920">  2  5  1 -1</clus>
</clustering>
</event>
<event>
 9    2  0.1325014E-004  0.1104091E+03  0.7546771E-02  0.1267408E+00
         -3   -1    0    0    0  501 -0.00000000000E+00  0.00000000000E+00  0.14654725381E+03  0.14654725381E+03  0.00000000000E+00 0.  1.
         21   -1    0    0  501  502  0.00000000000E+00 -0.00000000000E+00 -0.14763589726E+03  0.14763589726E+03  0.00000000000E+00 0. -1.
         24    2    1    2    0    0  0.38271761225E+02  0.43075685766E+02  0.62532443748E+02  0.11635841038E+03  0.79427518747E+02 0.  0.
         23    2    1    2    0    0 -0.88084856623E+01 -0.32619695795E+02 -0.90185622372E+02  0.13679929905E+03  0.97154350206E+02 0.  0.
        -13    1    3    3    0    0  0.31815886505E+02  0.61262489122E+02  0.67375441118E+02  0.96461356373E+02  0.00000000000E+00 0.  1.
         14    1    3    3    0    0  0.64558747196E+01 -0.18186803356E+02 -0.48429973704E+01  0.19897054009E+02  0.00000000000E+00 0. -1.
        -13    1    4    4    0    0 -0.38851988579E+02  0.15203150032E+02 -0.18763844777E+02  0.45745979695E+02  0.00000000000E+00 0.  1.
         13    1    4    4    0    0  0.30043502916E+02 -0.47822845826E+02 -0.71421777595E+02  0.91053319353E+02  0.00000000000E+00 0. -1.
         -4    1    1    2    0  502 -0.29463275562E+02 -0.10455989971E+02  0.26564535171E+02  0.41025441643E+02  0.00000000000E+00 0.  1.
<scales pt_clust_5="13000.00000" pt_clust_6="13000.00000" pt_clust_7="13000.00000" pt_clust_8="13000.00000" pt_clust_9="31.26361"></scales>
<clustering>
<clus scale="   31.264">  2  9  1 -1</clus>
<clus scale="   79.428">  5  6 -1 -1</clus>
<clus scale="   95.184">  1  5  2 -1</clus>
<clus scale="   97.154">  7  8 -1 -1</clus>
<clus scale="   31.264">  2  5  1 -1</clus>
</clustering>
</event>
<event>
 9    2  0.1325014E-004  0.1403587E+03  0.7546771E-02  0.1243024E+00
         21   -1    0    0  501  502  0.00000000000E+00  0.00000000000E+00  0.66316803092E+02  0.66316803092E+02  0.00000000000E+00 0.  1.
          2   -1    0    0  502    0 -0.00000000000E+00 -0.00000000000E+00 -0.75380289630E+03  0.75380289630E+03  0.00000000000E+00 0. -1.
         24    2    1    2    0    0 -0.76793335000E+01 -0.24476939850E+02 -0.23294656903E+02  0.78631088375E+02  0.70584093615E+02 0.  0.
         23    2    1    2    0    0  0.95390481594E+01 -0.85744447949E+02 -0.60203444331E+03  0.61493544178E+03  0.90868161801E+02 0.  0.
        -11    1    3    3    0    0 -0.34610253547E+02  0.45017045279E+01 -0.16038792123E+02  0.38410647574E+02  0.00000000000E+00 0.  1.
         12    1    3    3    0    0  0.26930920047E+02 -0.28978644378E+02 -0.72558647792E+01  0.40220440801E+02  0.00000000000E+00 0. -1.
        -11    1    4    4    0    0  0.50128635162E+02 -0.44290535922E+02 -0.34649678719E+03  0.35289453831E+03  0.00000000000E+00 0. -1.
         11    1    4    4    0    0 -0.40589587003E+02 -0.41453912027E+02 -0.25553765612E+03  0.26204090347E+03  0.00000000000E+00 0.  1.
          1    1    1    2  501    0 -0.18597146593E+01  0.11022138780E+03 -0.62156992999E+02  0.12655316924E+03  0.00000000000E+00 0. -1.
<scales pt_clust_5="13000.00000" pt_clust_6="13000.00000" pt_clust_7="13000.00000" pt_clust_8="13000.00000" pt_clust_9="106.97446"></scales>
<clustering>
<clus scale="   70.584">  5  6 -1 -1</clus>
<clus scale="   75.101">  2  5  1 -1</clus>
<clus scale="   90.868">  7  8 -1 -1</clus>
<clus scale="  106.974">  1  9  2 -1</clus>
<clus scale="  106.974">  1  5  2 -1</clus>
</clustering>
</event>
<event>
 9    2  0.1325014E-004  0.1016062E+03  0.7546771E-02  0.1284441E+00
          2   -1    0    0  502    0 -0.00000000000E+00  0.00000000000E+00  0.87593531118E+03  0.87593531118E+03  0.00000000000E+00 0. -1.
         21   -1    0    0  501  502  0.00000000000E+00 -0.00000000000E+00 -0.16038480123E+02  0.16038480123E+02  0.00000000000E+00 0. -1.
         24    2    1    2    0    0  0.46441881141E+02 -0.16655639031E+02  0.51032748984E+03  0.51784339666E+03  0.72755604210E+02 0.  0.
         23    2    1    2    0    0 -0.36330075704E+02  0.42124508467E+02  0.29627282559E+03  0.31420184972E+03  0.88605115906E+02 0.  0.
        -11    1    3    3    0    0  0.44828604133E+02 -0.31393323847E+02  0.20571703357E+03  0.21287236183E+03  0.00000000000E+00 0.  1.
         12    1    3    3    0    0  0.16132770083E+01  0.14737684816E+02  0.30461045628E+03  0.30497103484E+03  0.00000000000E+00 0. -1.
        -11    1    4    4    0    0 -0.16816993388E+02  0.61287779653E+02  0.26563955946E+03  0.27313619085E+03  0.00000000000E+00 0.  1.
         11    1    4    4    0    0 -0.19513082316E+02 -0.19163271186E+02  0.30633266131E+02  0.41065658863E+02  0.00000000000E+00 0. -1.
          1    1    1    2  501    0 -0.10111805437E+02 -0.25468869435E+02  0.53296515623E+02  0.59928544927E+02  0.00000000000E+00 0. -1.
<scales pt_clust_5="13000.00000" pt_clust_6="13000.00000" pt_clust_7="13000.00000" pt_clust_8="13000.00000" pt_clust_9="27.40277"></scales>
<clustering>
<clus scale="   27.403">  2  9  1 -1</clus>
<clus scale="   72.756">  5  6 -1 -1</clus>
<clus scale="   88.127">  1  5  2 -1</clus>
<clus scale="   88.605">  7  8 -1 -1</clus>
<clus scale="   27.403">  2  5  1 -1</clus>
</clustering>
</event>
<event>
 9    2  0.1325014E-004  0.1595706E+03  0.7546771E-02  0.1206521E+00
          4   -1    0    0  502    0 -0.00000000000E+00  0.00000000000E+00  0.26255455740E+03  0.26255455740E+03  0.00000000000E+00 0. -1.
         21   -1    0    0  501  502  0.00000000000E+00 -0.00000000000E+00 -0.17053302266E+03  0.17053302266E+03  0.00000000000E+00 0. -1.
         23    2    1    2    0    0  0.56315340958E+02 -0.25253365742E+01 -0.16330986707E+02  0.11055826684E+03  0.93694366367E+02 0.  0.
         24    2    1    2    0    0 -0.16240345325E+03 -0.25655547457E+02  0.25510707750E+02  0.18500980226E+03  0.80899579607E+02 0.  0.
        -11    1    4    4    0    0 -0.33902839219E+02 -0.41049349748E+02  0.76020522021E+00  0.53244995388E+02  0.00000000000E+00 0.  1.
         12    1    4    4    0    0 -0.12850061403E+03  0.15393802291E+02  0.24750502529E+02  0.13176480688E+03  0.00000000000E+00 0. -1.
        -13    1    3    3    0    0  0.30334822879E+02  0.31281103116E+02  0.25782020650E+02  0.50630242742E+02  0.00000000000E+00 0.  1.
         13    1    3    3    0    0  0.25980518079E+02 -0.33806439691E+02 -0.42113007357E+02  0.59928024103E+02  0.00000000000E+00 0. -1.
          3    1    1    2  501    0  0.10608811229E+03  0.28180884031E+02  0.82841813696E+02  0.13751951095E+03  0.00000000000E+00 0. -1.
<scales pt_clust_5="13000.00000" pt_clust_6="13000.00000" pt_clust_7="13000.00000" pt_clust_8="13000.00000" pt_clust_9="137.54296"></scales>
<clustering>
<clus scale="   80.900">  5  6 -1 -1</clus>
<clus scale="   93.694">  7  8 -1 -1</clus>
<clus scale="  109.346">  1  7  2 -1</clus>
<clus scale="  137.543">  2  9  1 -1</clus>
<clus scale="  137.543">  2  5  1 -1</clus>
</clustering>
</event>
<event>
 9    2  0.1325014E-004  0.9292580E+02  0.7546771E-02  0.1302627E+00
         21   -1    0    0  501  502  0.00000000000E+00  0.00000000000E+00  0.85516685712E+02  0.85516685712E+02  0.00000000000E+00 0.  1.
          4   -1    0    0  502    0 -0.00000000000E+00 -0.00000000000E+00 -0.46810297029E+03  0.46810297029E+03  0.00000000000E+00 0. -1.
         24    2    1    2    0    0  0.60202381712E+01  0.26817055331E+02 -0.37098618482E+03  0.38025507131E+03  0.78789416864E+02 0.  0.
         23    2    1    2    0    0 -0.31075071280E+01 -0.91331659154E+00 -0.66920925903E+02  0.11221001423E+03  0.90012144863E+02 0.  0.
        -13    1    3    3    0    0  0.39553809723E+02  0.22651456491E+02 -0.15232957336E+03  0.15900280269E+03  0.00000000000E+00 0.  1.
         14    1    3    3    0    0 -0.33533571552E+02  0.41655988400E+01 -0.21865661146E+03  0.22125226862E+03  0.00000000000E+00 0. -1.
        -13    1    4    4    0    0  0.78992506788E+01  0.41480113606E+02 -0.49526046561E+02  0.65083233433E+02  0.00000000000E+00 0.  1.
         13    1    4    4    0    0 -0.11006757807E+02 -0.42393430198E+02 -0.17394879342E+02  0.47126780801E+02  0.00000000000E+00 0. -1.
          3    1    1    2  501    0 -0.29127310432E+01 -0.25903738739E+02  0.55320826141E+02  0.61154570456E+02  0.00000000000E+00 0. -1.
<scales pt_clust_5="13000.00000" pt_clust_6="13000.00000" pt_clust_7="13000.00000" pt_clust_8="13000.00000" pt_clust_9="26.06698"></scales>
<clustering>
<clus scale="   26.067">  1  9  2 -1</clus>
<clus scale="   78.789">  5  6 -1 -1</clus>
<clus scale="   82.102">  2  5  1 -1</clus>
<clus scale="   90.012">  7  8 -1 -1</clus>
<clus scale="   26.067">  1  5  2 -1</clus>
</clustering>
</event>
<event>
 9    2  0.1325014E-004  0.1560884E+03  0.7546771E-02  0.1197248E+00
         21   -1    0    0  501  502  0.00000000000E+00  0.00000000000E+00  0.34858465478E+03  0.34858465478E+03  0.00000000000E+00 0.  1.
         -1   -1    0    0    0  501 -0.00000000000E+00 -0.00000000000E+00 -0.17818671001E+03  0.17818671001E+03  0.00000000000E+00 0.  1.
         23    2    1    2    0    0  0.78582951504E+02  0.11096359229E+03  0.80531552148E+01  0.16939687583E+03  0.10070873424E+03 0.  0.
         24    2    1    2    0    0 -0.68705276085E+01 -0.82871254657E+02  0.22869978235E+03  0.25571409232E+03  0.78557352092E+02 0.  0.
        -11    1    4    4    0    0 -0.27037749929E+02 -0.25461675238E+02  0.15859194943E+03  0.16288260574E+03  0.00000000000E+00 0.  1.
         12    1    4    4    0    0  0.20167222321E+02 -0.57409579419E+02  0.70107832916E+02  0.92831486584E+02  0.00000000000E+00 0. -1.
        -11    1    3    3    0    0 -0.20725377628E+02  0.15008475834E+02 -0.14596364148E+02  0.29459284972E+02  0.00000000000E+00 0. -1.
         11    1    3    3    0    0  0.99308329132E+02  0.95955116457E+02  0.22649519363E+02  0.13993759086E+03  0.00000000000E+00 0.  1.
         -2    1    1    2    0  502 -0.71712423896E+02 -0.28092337633E+02 -0.66354992791E+02  0.10166039663E+03  0.00000000000E+00 0.  1.
<scales pt_clust_5="13000.00000" pt_clust_6="13000.00000" pt_clust_7="13000.00000" pt_clust_8="13000.00000" pt_clust_9="77.01855"></scales>
<clustering>
<clus scale="   77.019">  1  9  2 -1</clus>
<clus scale="   78.557">  5  6 -1 -1</clus>
<clus scale="  100.709">  7  8 -1 -1</clus>
<clus scale="  142.803">  1  5  2 -1</clus>
<clus scale="   77.019">  1  5  2 -1</clus>
</clustering>
</event>
<event>
 9    2  0.1325014E-004  0.1460667E+03  0.7546771E-02  0.1212075E+00
         -1   -1    0    0    0  501 -0.00000000000E+00  0.00000000000E+00  0.90978716240E+02  0.90978716240E+02  0.00000000000E+00 0.  1.
         21   -1    0    0  501  502  0.00000000000E+00 -0.00000000000E+00 -0.47676533205E+03  0.47676533205E+03  0.00000000000E+00 0.  1.
         24    2    1    2    0    0  0.93684397549E+02  0.32594831645E+02 -0.14225984701E+03  0.19043435308E+03  0.78665045395E+02 0.  0.
         23    2    1    2    0    0  0.14728564590E+02 -0.10260184680E+03 -0.55987341706E+02  0.14965779154E+03  0.92297359415E+02 0.  0.
        -13    1    3    3    0    0  0.37854668203E+02  0.54565779394E+02 -0.79950908680E+02  0.10393530673E+03  0.00000000000E+00 0.  1.
         14    1    3    3    0    0  0.55829729347E+02 -0.21970947749E+02 -0.62308938328E+02  0.86499046350E+02  0.00000000000E+00 0. -1.
        -11    1    4    4    0    0  0.40414181885E+02 -0.17529492021E+02 -0.39721577911E+02  0.59316042853E+02  0.00000000000E+00 0. -1.
         11    1    4    4    0    0 -0.25685617295E+02 -0.85072354782E+02 -0.16265763795E+02  0.90341748687E+02  0.00000000000E+00 0.  1.
         -2    1    1    2    0  502 -0.10841296214E+03  0.70007015158E+02 -0.18753942710E+03  0.22765190368E+03  0.00000000000E+00 0.  1.
<scales pt_clust_5="13000.00000" pt_clust_6="13000.00000" pt_clust_7="13000.00000" pt_clust_8="13000.00000" pt_clust_9="113.21081"></scales>
<clustering>
<clus scale="   78.665">  5  6 -1 -1</clus>
<clus scale="   92.297">  7  8 -1 -1</clus>
<clus scale="  126.599">  1  5  2 -1</clus>
<clus scale="  113.211">  2  9  1 -1</clus>
<clus scale="  113.211">  2  5  1 -1</clus>
</clustering>
</event>
<event>
 9    2  0.1325014E-004  0.2093705E+03  0.7546771E-02  0.1142654E+00
         21   -1    0    0  501  502  0.00000000000E+00  0.00000000000E+00  0.95393575100E+02  0.95393575100E+02  0.00000000000E+00 0.  1.
          2   -1    0    0  502    0 -0.00000000000E+00 -0.00000000000E+00 -0.72482321409E+03  0.72482321409E+03  0.00000000000E+00 0. -1.
         23    2    1    2    0    0  0.15445340032E+03 -0.13132537481E+03 -0.42651079801E+03  0.48042370881E+03  0.88279511953E+02 0.  0.
         24    2    1    2    0    0 -0.12198026453E+03  0.12347858954E+03 -0.22816476630E+03  0.29791906300E+03  0.81058377155E+02 0.  0.
        -11    1    4    4    0    0 -0.22073724623E+01  0.50409362910E+02 -0.48761651646E+02  0.70168903607E+02  0.00000000000E+00 0.  1.
         12    1    4    4    0    0 -0.11977289207E+03  0.73069226626E+02 -0.17940311466E+03  0.22775015939E+03  0.00000000000E+00 0. -1.
        -11    1    3    3    0    0  0.56653397922E+02 -0.10580407143E+03 -0.23552786282E+03  0.26434349470E+03  0.00000000000E+00 0. -1.
         11    1    3    3    0    0  0.97800002396E+02 -0.25521303373E+02 -0.19098293519E+03  0.21608021411E+03  0.00000000000E+00 0.  1.
          1    1    1    2  501    0 -0.32473135788E+02  0.78467852714E+01  0.25245925317E+02  0.41874017386E+02  0.00000000000E+00 0. -1.
<scales pt_clust_5="13000.00000" pt_clust_6="13000.00000" pt_clust_7="13000.00000" pt_clust_8="13000.00000" pt_clust_9="33.40773"></scales>
<clustering>
<clus scale="   33.408">  1  9  2 -1</clus>
<clus scale="   81.058">  5  6 -1 -1</clus>
<clus scale="   88.280">  7  8 -1 -1</clus>
<clus scale="  206.430">  1  5  2 -1</clus>
<clus scale="   33.408">  1  5  2 -1</clus>
</clustering>
</event>
<event>
 9    2  0.1325014E-004  0.3855000E+03  0.7546771E-02  0.1049100E+00
         21   -1    0    0  501  502  0.00000000000E+00  0.00000000000E+00  0.98145294556E+03  0.98145294556E+03  0.00000000000E+00 0. -1.
          2   -1    0    0  502    0 -0.00000000000E+00 -0.00000000000E+00 -0.18611066948E+03  0.18611066948E+03  0.00000000000E+00 0. -1.
         24    2    1    2    0    0 -0.28170591312E+03 -0.24704647086E+03  0.19478871578E+03  0.43033567127E+03  0.82800760382E+02 0.  0.
         23    2    1    2    0    0  0.30281972699E+03  0.22123285949E+03  0.50255967907E+03  0.63371496668E+03  0.91567804327E+02 0.  0.
        -13    1    3    3    0    0 -0.69673533626E+02 -0.26537135587E+02  0.61495968163E+02  0.96645615283E+02  0.00000000000E+00 0.  1.
         14    1    3    3    0    0 -0.21203237949E+03 -0.22050933527E+03  0.13329274762E+03  0.33369005599E+03  0.00000000000E+00 0. -1.
        -13    1    4    4    0    0  0.19946121896E+03  0.11121661021E+03  0.35845408956E+03  0.42502146602E+03  0.00000000000E+00 0. -1.
         13    1    4    4    0    0  0.10335850803E+03  0.11001624928E+03  0.14410558951E+03  0.20869350066E+03  0.00000000000E+00 0.  1.
          1    1    1    2  501    0 -0.21113813878E+02  0.25813611371E+02  0.97993881226E+02  0.10351297709E+03  0.00000000000E+00 0. -1.
<scales pt_clust_5="13000.00000" pt_clust_6="13000.00000" pt_clust_7="13000.00000" pt_clust_8="13000.00000" pt_clust_9="33.34870"></scales>
<clustering>
<clus scale="   33.349">  1  9  2 -1</clus>
<clus scale="   82.801">  5  6 -1 -1</clus>
<clus scale="   91.568">  7  8 -1 -1</clus>
<clus scale="  383.512">  2  5  1 -1</clus>
<clus scale="   33.349">  1  5  2 -1</clus>
</clustering>
</event>
<event>
 9    2  0.1325014E-004  0.9490886E+02  0.7546771E-02  0.1306166E+00
         21   -1    0    0  501  502  0.00000000000E+00  0.00000000000E+00  0.51310616581E+02  0.51310616581E+02  0.00000000000E+00 0.  1.
          4   -1    0    0  502    0 -0.00000000000E+00 -0.00000000000E+00 -0.35377175474E+03  0.35377175474E+03  0.00000000000E+00 0. -1.
         24    2    1    2    0    0 -0.77572799027E+01 -0.13162466881E+02 -0.21344680054E+03  0.22495686797E+03  0.69373120580E+02 0.  0.
         23    2    1    2    0    0  0.13854032964E+02  0.52390588515E+02 -0.34782820184E+02  0.11291632684E+03  0.92755292528E+02 0.  0.
        -11    1    3    3    0    0  0.28089022011E+02  0.82548845798E+01 -0.88704227429E+02  0.93410792957E+02  0.00000000000E+00 0.  1.
         12    1    3    3    0    0 -0.35846301913E+02 -0.21417351460E+02 -0.12474257311E+03  0.13154607501E+03  0.00000000000E+00 0. -1.
        -11    1    4    4    0    0  0.10925975637E+01  0.20293630264E+02 -0.64328770745E+02  0.67462700392E+02  0.00000000000E+00 0. -1.
         11    1    4    4    0    0  0.12761435401E+02  0.32096958250E+02  0.29545950560E+02  0.45453626444E+02  0.00000000000E+00 0.  1.
          3    1    1    2  501    0 -0.60967530617E+01 -0.39228121634E+02 -0.54231517438E+02  0.67209176520E+02  0.00000000000E+00 0. -1.
<scales pt_clust_5="13000.00000" pt_clust_6="13000.00000" pt_clust_7="13000.00000" pt_clust_8="13000.00000" pt_clust_9="39.69909"></scales>
<clustering>
<clus scale="   39.699">  1  9  2 -1</clus>
<clus scale="   69.373">  5  6 -1 -1</clus>
<clus scale="   72.227">  2  5  1 -1</clus>
<clus scale="   92.755">  7  8 -1 -1</clus>
<clus scale="   39.699">  1  5  2 -1</clus>
</clustering>
</event>
<event>
 9    2  0.1325014E-004  0.1958974E+03  0.7546771E-02  0.1153824E+00
         21   -1    0    0  501  502  0.00000000000E+00  0.00000000000E+00  0.43805647257E+02  0.43805647257E+02  0.00000000000E+00 0. -1.
          2   -1    0    0  502    0 -0.00000000000E+00 -0.00000000000E+00 -0.11365777163E+04  0.11365777163E+04  0.00000000000E+00 0. -1.
         23    2    1    2    0    0  0.16032340500E+03 -0.40098182461E+02 -0.59195572364E+03  0.62141490667E+03  0.91833812186E+02 0.  0.
         24    2    1    2    0    0 -0.18775190178E+03  0.89236076071E+01 -0.41789475159E+03  0.46623137005E+03  0.86053818170E+02 0.  0.
        -11    1    4    4    0    0 -0.19467443229E+02 -0.21019592102E+02 -0.11420374537E+03  0.11774251592E+03  0.00000000000E+00 0.  1.
         12    1    4    4    0    0 -0.16828445855E+03  0.29943199710E+02 -0.30369100621E+03  0.34848885413E+03  0.00000000000E+00 0. -1.
        -11    1    3    3    0    0  0.11403874906E+03 -0.58830865664E+02 -0.31743155481E+03  0.34238676819E+03  0.00000000000E+00 0. -1.
         11    1    3    3    0    0  0.46284655943E+02  0.18732683204E+02 -0.27452416882E+03  0.27902813848E+03  0.00000000000E+00 0.  1.
          1    1    1    2  501    0  0.27428496780E+02  0.31174574854E+02 -0.82921593852E+02  0.92737086863E+02  0.00000000000E+00 0. -1.
<scales pt_clust_5="13000.00000" pt_clust_6="13000.00000" pt_clust_7="13000.00000" pt_clust_8="13000.00000" pt_clust_9="41.52320"></scales>
<clustering>
<clus scale="   41.523">  1  9  2 -1</clus>
<clus scale="   86.054">  5  6 -1 -1</clus>
<clus scale="   91.834">  7  8 -1 -1</clus>
<clus scale="  193.255">  1  5  2 -1</clus>
<clus scale="   41.523">  1  5  2 -1</clus>
</clustering>
</event>
<event>
 9    2  0.1325014E-004  0.8842857E+02  0.7546771E-02  0.1308177E+00
          2   -1    0    0  502    0 -0.00000000000E+00  0.00000000000E+00  0.21836014798E+03  0.21836014798E+03  0.00000000000E+00 0. -1.
         21   -1    0    0  501  502  0.00000000000E+00 -0.00000000000E+00 -0.80744260203E+02  0.80744260203E+02  0.00000000000E+00 0. -1.
         24    2    1    2    0    0  0.21009545002E+02 -0.33639125409E+01  0.73182967099E+02  0.11054201175E+03  0.80069175086E+02 0.  0.
         23    2    1    2    0    0 -0.37264502192E+02 -0.61986717893E+02  0.36966455352E+02  0.11583458023E+03  0.82584107661E+02 0.  0.
        -11    1    3    3    0    0  0.23830443277E+02  0.35742718272E+02  0.31168001211E+02  0.53074252098E+02  0.00000000000E+00 0.  1.
         12    1    3    3    0    0 -0.28208982750E+01 -0.39106630813E+02  0.42014965887E+02  0.57467759649E+02  0.00000000000E+00 0. -1.
        -13    1    4    4    0    0 -0.63591423331E+02 -0.48600406011E+02  0.30121035905E+02  0.85516930427E+02  0.00000000000E+00 0. -1.
         13    1    4    4    0    0  0.26326921139E+02 -0.13386311882E+02  0.68454194469E+01  0.30317649808E+02  0.00000000000E+00 0.  1.
          1    1    1    2  501    0  0.16254957191E+02  0.65350630434E+02  0.27466465323E+02  0.72727816197E+02  0.00000000000E+00 0. -1.
<scales pt_clust_5="13000.00000" pt_clust_6="13000.00000" pt_clust_7="13000.00000" pt_clust_8="13000.00000" pt_clust_9="67.34188"></scales>
<clustering>
<clus scale="   67.342">  2  9  1 -1</clus>
<clus scale="   80.069">  5  6 -1 -1</clus>
<clus scale="   82.584">  7  8 -1 -1</clus>
<clus scale="   86.085">  1  5  2 -1</clus>
<clus scale="   67.342">  2  5  1 -1</clus>
</clustering>
</event>
<event>
 9    2  0.1325014E-004  0.1722189E+03  0.7546771E-02  0.1210184E+00
         21   -1    0    0  501  502  0.00000000000E+00  0.00000000000E+00  0.25846851351E+03  0.25846851351E+03  0.00000000000E+00 0. -1.
          2   -1    0    0  502    0 -0.00000000000E+00 -0.00000000000E+00 -0.38032341360E+03  0.38032341360E+03  0.00000000000E+00 0. -1.
         24    2    1    2    0    0  0.14941114298E+02 -0.23007332114E+02 -0.84743698393E+02  0.11682638648E+03  0.75593226765E+02 0.  0.
         23    2    1    2    0    0 -0.15511031935E+02 -0.14170692311E+03  0.18119040769E+03  0.24849396379E+03  0.92724549235E+02 0.  0.
        -13    1    3    3    0    0 -0.85951684822E+01  0.25216907734E+02 -0.31087831173E+02  0.40941697620E+02  0.00000000000E+00 0.  1.
         14    1    3    3    0    0  0.23536282780E+02 -0.48224239848E+02 -0.53655867220E+02  0.75884688858E+02  0.00000000000E+00 0. -1.
        -13    1    4    4    0    0 -0.40708705702E+02 -0.85186583282E+02  0.15458002125E+03  0.18113237055E+03  0.00000000000E+00 0. -1.
         13    1    4    4    0    0  0.25197673767E+02 -0.56520339825E+02  0.26610386447E+02  0.67361593242E+02  0.00000000000E+00 0.  1.
          1    1    1    2  501    0  0.56991763738E+00  0.16471425522E+03 -0.21830160939E+03  0.27347157684E+03  0.00000000000E+00 0. -1.
<scales pt_clust_5="13000.00000" pt_clust_6="13000.00000" pt_clust_7="13000.00000" pt_clust_8="13000.00000" pt_clust_9="145.12596"></scales>
<clustering>
<clus scale="   75.593">  5  6 -1 -1</clus>
<clus scale="   80.417">  2  5  1 -1</clus>
<clus scale="   92.725">  7  8 -1 -1</clus>
<clus scale="  145.126">  1  9  2 -1</clus>
<clus scale="  145.126">  1  5  2 -1</clus>
</clustering>
</event>
<event>
 9    2  0.1325014E-004  0.1254625E+03  0.7546771E-02  0.1246967E+00
         21   -1    0    0  501  502  0.00000000000E+00  0.00000000000E+00  0.24974720427E+03  0.24974720427E+03  0.00000000000E+00 0.  1.
          2   -1    0    0  502    0 -0.00000000000E+00 -0.00000000000E+00 -0.12043893803E+03  0.12043893803E+03  0.00000000000E+00 0. -1.
         24    2    1    2    0    0 -0.57494529337E+02  0.29774571089E+01  0.50009277438E+02  0.10924294820E+03  0.78221529943E+02 0.  0.
         23    2    1    2    0    0 -0.24307289985E+01 -0.85051428870E+02  0.97165466568E+02  0.15776187576E+03  0.90598165291E+02 0.  0.
        -13    1    3    3    0    0 -0.20623203191E+02 -0.18706551084E+02 -0.14844391914E+02  0.31553249193E+02  0.00000000000E+00 0.  1.
         14    1    3    3    0    0 -0.36871326146E+02  0.21684008193E+02  0.64853669353E+02  0.77689699005E+02  0.00000000000E+00 0. -1.
        -13    1    4    4    0    0 -0.13425814446E+02  0.15875904386E+02  0.28168647653E+02  0.35010991762E+02  0.00000000000E+00 0. -1.
         13    1    4    4    0    0  0.10995085447E+02 -0.10092733326E+03  0.68996818915E+02  0.12275088400E+03  0.00000000000E+00 0.  1.
          1    1    1    2  501    0  0.59925258336E+02  0.82073971761E+02 -0.17866477773E+02  0.10318131834E+03  0.00000000000E+00 0. -1.
<scales pt_clust_5="13000.00000" pt_clust_6="13000.00000" pt_clust_7="13000.00000" pt_clust_8="13000.00000" pt_clust_9="86.79176"></scales>
<clustering>
<clus scale="   78.222">  5  6 -1 -1</clus>
<clus scale="   90.598">  7  8 -1 -1</clus>
<clus scale="   97.124">  2  5  1 -1</clus>
<clus scale="   86.792">  1  9  2 -1</clus>
<clus scale="   86.792">  1  5  2 -1</clus>
</clustering>
</event>
<event>
 9    2  0.1325014E-004  0.1529506E+03  0.7546771E-02  0.1199618E+00
          4   -1    0    0  502    0 -0.00000000000E+00  0.00000000000E+00  0.18036720342E+03  0.18036720342E+03  0.00000000000E+00 0. -1.
         21   -1    0    0  501  502  0.00000000000E+00 -0.00000000000E+00 -0.29232021483E+03  0.29232021483E+03  0.00000000000E+00 0. -1.
         23    2    1    2    0    0  0.10228461750E+03  0.69361690879E+02  0.80366371218E+02  0.17417493273E+03  0.92762958276E+02 0.  0.
         24    2    1    2    0    0 -0.69305801629E+02 -0.95140457177E+02 -0.21016854967E+03  0.25300710284E+03  0.77374246915E+02 0.  0.
        -11    1    4    4    0    0 -0.39705715227E+02 -0.36419330643E+02 -0.16409327275E+03  0.17271222779E+03  0.00000000000E+00 0.  1.
         12    1    4    4    0    0 -0.29600086402E+02 -0.58721126534E+02 -0.46075276926E+02  0.80294875056E+02  0.00000000000E+00 0. -1.
        -11    1    3    3    0    0  0.11284646914E+03  0.49332714271E+02  0.42935516869E+02  0.13042814460E+03  0.00000000000E+00 0. -1.
         11    1    3    3    0    0 -0.10561851639E+02  0.20028976608E+02  0.37430854349E+02  0.43746788126E+02  0.00000000000E+00 0.  1.
          3    1    1    2  501    0 -0.32978815874E+02  0.25778766298E+02  0.17849167048E+02  0.45505382677E+02  0.00000000000E+00 0. -1.
<scales pt_clust_5="13000.00000" pt_clust_6="13000.00000" pt_clust_7="13000.00000" pt_clust_8="13000.00000" pt_clust_9="41.85868"></scales>
<clustering>
<clus scale="   41.859">  2  9  1 -1</clus>
<clus scale="   77.374">  5  6 -1 -1</clus>
<clus scale="   92.763">  7  8 -1 -1</clus>
<clus scale="  144.138">  2  5  1 -1</clus>
<clus scale="   41.859">  2  5  1 -1</clus>
</clustering>
</event>
<event>
 9    2  0.1325014E-004  0.1082513E+03  0.7546771E-02  0.1268201E+00
         21   -1    0    0  501  502  0.00000000000E+00  0.00000000000E+00  0.70761787485E+02  0.70761787485E+02  0.00000000000E+00 0.  1.
         -1   -1    0    0    0  501 -0.00000000000E+00 -0.00000000000E+00 -0.62366188338E+03  0.62366188338E+03  0.00000000000E+00 0.  1.
         23    2    1    2    0    0 -0.64376538762E+02  0.12971601588E+02 -0.50100726652E+03  0.51341619132E+03  0.90968693634E+02 0.  0.
         24    2    1    2    0    0  0.36984511596E+02 -0.12229854916E+02 -0.94736230616E+02  0.13015051965E+03  0.80291848430E+02 0.  0.
        -11    1    4    4    0    0  0.25413437348E+02  0.32327378765E+02 -0.30851842044E+02  0.51407571166E+02  0.00000000000E+00 0.  1.
         12    1    4    4    0    0  0.11571074248E+02 -0.44557233681E+02 -0.63884388572E+02  0.78742948483E+02  0.00000000000E+00 0. -1.
        -13    1    3    3    0    0 -0.75320784190E+02 -0.16492926544E+02 -0.40854854299E+03  0.41576092786E+03  0.00000000000E+00 0.  1.
         13    1    3    3    0    0  0.10944245428E+02  0.29464528131E+02 -0.92458723528E+02  0.97655263465E+02  0.00000000000E+00 0. -1.
         -2    1    1    2    0  502  0.27392027166E+02 -0.74174667120E+00  0.42843401234E+02  0.50856959894E+02  0.00000000000E+00 0.  1.
<scales pt_clust_5="13000.00000" pt_clust_6="13000.00000" pt_clust_7="13000.00000" pt_clust_8="13000.00000" pt_clust_9="27.40207"></scales>
<clustering>
<clus scale="   27.402">  1  9  2 -1</clus>
<clus scale="   80.292">  5  6 -1 -1</clus>
<clus scale="   90.969">  7  8 -1 -1</clus>
<clus scale="   99.448">  1  5  2 -1</clus>
<clus scale="   27.402">  1  5  2 -1</clus>
</clustering>
</event>
<event>
 9    2  0.1325014E-004  0.2209888E+03  0.7546771E-02  0.1135183E+00
         21   -1    0    0  501  502  0.00000000000E+00  0.00000000000E+00  0.11988629344E+04  0.11988629344E+04  0.00000000000E+00 0. -1.
         -1   -1    0    0    0  501 -0.00000000000E+00 -0.00000000000E+00 -0.13373626057E+03  0.13373626057E+03  0.00000000000E+00 0.  1.
         24    2    1    2    0    0 -0.66802976642E+01 -0.19261838822E+03  0.37641921447E+01  0.20922740001E+03  0.81335514473E+02 0.  0.
         23    2    1    2    0    0 -0.92566012773E+02  0.20488258163E+03  0.89864781292E+03  0.93238408852E+03  0.10595686805E+03 0.  0.
        -11    1    3    3    0    0 -0.63185902546E+01 -0.16507358326E+03 -0.27599101672E+02  0.16748409742E+03  0.00000000000E+00 0.  1.
         12    1    3    3    0    0 -0.36170740956E+00 -0.27544804960E+02  0.31363293817E+02  0.41743302595E+02  0.00000000000E+00 0. -1.
        -11    1    4    4    0    0 -0.11227493885E+03  0.16654945365E+03  0.79809440082E+03  0.82298180722E+03  0.00000000000E+00 0. -1.
         11    1    4    4    0    0  0.19708926075E+02  0.38333127980E+02  0.10055341210E+03  0.10940228130E+03  0.00000000000E+00 0.  1.
         -2    1    1    2    0  502  0.99246310437E+02 -0.12264193409E+02  0.16271466874E+03  0.19098770641E+03  0.00000000000E+00 0.  1.
<scales pt_clust_5="13000.00000" pt_clust_6="13000.00000" pt_clust_7="13000.00000" pt_clust_8="13000.00000" pt_clust_9="100.00120"></scales>
<clustering>
<clus scale="   81.336">  5  6 -1 -1</clus>
<clus scale="  100.001">  1  9  2 -1</clus>
<clus scale="  105.957">  7  8 -1 -1</clus>
<clus scale="  210.297">  2  5  1 -1</clus>
<clus scale="  100.001">  1  5  2 -1</clus>
</clustering>
</event>
<event>
 9    2  0.1325014E-004  0.1471743E+03  0.7546771E-02  0.1208566E+00
         21   -1    0    0  501  502  0.00000000000E+00  0.00000000000E+00  0.26484296119E+03  0.26484296119E+03  0.00000000000E+00 0. -1.
          2   -1    0    0  502    0 -0.00000000000E+00 -0.00000000000E+00 -0.15453853936E+03  0.15453853936E+03  0.00000000000E+00 0. -1.
         24    2    1    2    0    0 -0.65444597783E+02  0.69997921942E+02 -0.47497104350E+02  0.13352066477E+03  0.79931774307E+02 0.  0.
         23    2    1    2    0    0  0.90680407263E+02 -0.10458433539E+03  0.64569834567E+02  0.18326836825E+03  0.10127789391E+03 0.  0.
        -11    1    3    3    0    0 -0.37973534327E+01  0.23645736433E+02 -0.50967310227E+02  0.56313474909E+02  0.00000000000E+00 0.  1.
         12    1    3    3    0    0 -0.61647244351E+02  0.46352185509E+02  0.34702058769E+01  0.77207189862E+02  0.00000000000E+00 0. -1.
        -13    1    4    4    0    0  0.75301482170E+02 -0.10595758039E+02  0.23910703886E+02  0.79713895061E+02  0.00000000000E+00 0.  1.
         13    1    4    4    0    0  0.15378925092E+02 -0.93988577348E+02  0.40659130681E+02  0.10355447319E+03  0.00000000000E+00 0. -1.
          1    1    1    2  501    0 -0.25235809479E+02  0.34586413445E+02  0.93231691608E+02  0.10259246754E+03  0.00000000000E+00 0. -1.
<scales pt_clust_5="13000.00000" pt_clust_6="13000.00000" pt_clust_7="13000.00000" pt_clust_8="13000.00000" pt_clust_9="42.81432"></scales>
<clustering>
<clus scale="   42.814">  1  9  2 -1</clus>
<clus scale="   79.932">  5  6 -1 -1</clus>
<clus scale="  101.278">  7  8 -1 -1</clus>
<clus scale="  133.387">  2  5  1 -1</clus>
<clus scale="   42.814">  1  5  2 -1</clus>
</clustering>
</event>
<event>
 9    2  0.1325014E-004  0.1341444E+03  0.7546771E-02  0.1234342E+00
         21   -1    0    0  501  502  0.00000000000E+00  0.00000000000E+00  0.74652197041E+02  0.74652197041E+02  0.00000000000E+00 0.  1.
         -1   -1    0    0    0  501 -0.00000000000E+00 -0.00000000000E+00 -0.43352890224E+03  0.43352890224E+03  0.00000000000E+00 0.  1.
         23    2    1    2    0    0 -0.45061323102E+02  0.31013922228E+02 -0.96135016590E+02  0.14064299554E+03  0.86868432511E+02 0.  0.
         24    2    1    2    0    0  0.39138577898E+02  0.85890435348E+02 -0.19856398298E+03  0.23404471203E+03  0.80251334762E+02 0.  0.
        -13    1    4    4    0    0  0.31814828607E+02  0.22715543418E+02 -0.18830185015E+02  0.43390725965E+02  0.00000000000E+00 0.  1.
         14    1    4    4    0    0  0.73237492907E+01  0.63174891930E+02 -0.17973379796E+03  0.19065398607E+03  0.00000000000E+00 0. -1.
        -13    1    3    3    0    0 -0.13916321092E+02 -0.23074282602E+02 -0.11293052133E+01  0.26969646653E+02  0.00000000000E+00 0. -1.
         13    1    3    3    0    0 -0.31145002010E+02  0.54088204830E+02 -0.95005711376E+02  0.11367334888E+03  0.00000000000E+00 0.  1.
         -2    1    1    2    0  502  0.59227452040E+01 -0.11690435758E+03 -0.64177705636E+02  0.13349339172E+03  0.00000000000E+00 0.  1.
<scales pt_clust_5="13000.00000" pt_clust_6="13000.00000" pt_clust_7="13000.00000" pt_clust_8="13000.00000" pt_clust_9="107.49159"></scales>
<clustering>
<clus scale="   80.251">  5  6 -1 -1</clus>
<clus scale="   86.868">  7  8 -1 -1</clus>
<clus scale="  102.657">  2  7  1 -1</clus>
<clus scale="  107.492">  1  9  2 -1</clus>
<clus scale="  107.492">  1  5  2 -1</clus>
</clustering>
</event>
<event>
 9    2  0.1325014E-004  0.1129469E+03  0.7546771E-02  0.1258987E+00
         21   -1    0    0  501  502  0.00000000000E+00  0.00000000000E+00  0.19982626797E+03  0.19982626797E+03  0.00000000000E+00 0. -1.
          2   -1    0    0  502    0 -0.00000000000E+00 -0.00000000000E+00 -0.27427513430E+03  0.27427513430E+03  0.00000000000E+00 0. -1.
         23    2    1    2    0    0  0.51854447985E+02 -0.19364073625E+02 -0.45803328763E+02  0.11439487000E+03  0.89019044216E+02 0.  0.
         24    2    1    2    0    0  0.35747969480E+00 -0.76918352976E+02  0.12731227836E+03  0.16913048074E+03  0.80499332163E+02 0.  0.
        -11    1    4    4    0    0  0.20759480564E+02  0.42803319668E+01  0.53389728112E+02  0.57443366396E+02  0.00000000000E+00 0.  1.
         12    1    4    4    0    0 -0.20402000869E+02 -0.81198684943E+02  0.73922550249E+02  0.11168711435E+03  0.00000000000E+00 0. -1.
        -13    1    3    3    0    0  0.70443046406E+02 -0.86037921846E+01 -0.86658358366E+01  0.71493669214E+02  0.00000000000E+00 0. -1.
         13    1    3    3    0    0 -0.18588598421E+02 -0.10760281440E+02 -0.37137492926E+02  0.42901200785E+02  0.00000000000E+00 0.  1.
          1    1    1    2  501    0 -0.52211927680E+02  0.96282426600E+02 -0.15595781593E+03  0.19057605152E+03  0.00000000000E+00 0. -1.
<scales pt_clust_5="13000.00000" pt_clust_6="13000.00000" pt_clust_7="13000.00000" pt_clust_8="13000.00000" pt_clust_9="79.22662"></scales>
<clustering>
<clus scale="   80.499">  5  6 -1 -1</clus>
<clus scale="   89.019">  7  8 -1 -1</clus>
<clus scale="  104.825">  2  7  1 -1</clus>
<clus scale="   79.227">  1  9  2 -1</clus>
<clus scale="   79.227">  1  5  2 -1</clus>
</clustering>
</event>
<event>
 9    2  0.1325014E-004  0.1531050E+03  0.7546771E-02  0.1198499E+00
          2   -1    0    0  502    0 -0.00000000000E+00  0.00000000000E+00  0.13704337426E+04  0.13704337426E+04  0.00000000000E+00 0. -1.
         21   -1    0    0  501  502  0.00000000000E+00 -0.00000000000E+00 -0.27341201288E+02  0.27341201288E+02  0.00000000000E+00 0. -1.
         24    2    1    2    0    0  0.87534671395E+02  0.48564095208E+02  0.46149486163E+03  0.47913307389E+03  0.81056802014E+02 0.  0.
         23    2    1    2    0    0 -0.13813844382E+03 -0.86964795993E+02  0.54755554372E+03  0.57861318854E+03  0.91274547939E+02 0.  0.
        -11    1    3    3    0    0  0.55922589825E+01  0.43462919250E+02  0.21183861882E+03  0.21632359819E+03  0.00000000000E+00 0.  1.
         12    1    3    3    0    0  0.81942412412E+02  0.51011759579E+01  0.24965624281E+03  0.26280947570E+03  0.00000000000E+00 0. -1.
        -11    1    4    4    0    0 -0.12392212237E+03 -0.47155006188E+02  0.30755673565E+03  0.33492003921E+03  0.00000000000E+00 0.  1.
         11    1    4    4    0    0 -0.14216321452E+02 -0.39809789805E+02  0.23999880807E+03  0.24369314933E+03  0.00000000000E+00 0. -1.
          1    1    1    2  501    0  0.50603772424E+02  0.38400700785E+02  0.33404213599E+03  0.34002868147E+03  0.00000000000E+00 0. -1.
<scales pt_clust_5="13000.00000" pt_clust_6="13000.00000" pt_clust_7="13000.00000" pt_clust_8="13000.00000" pt_clust_9="63.52448"></scales>
<clustering>
<clus scale="   63.524">  2  9  1 -1</clus>
<clus scale="   81.057">  5  6 -1 -1</clus>
<clus scale="   91.275">  7  8 -1 -1</clus>
<clus scale="  147.242">  1  5  2 -1</clus>
<clus scale="   63.524">  2  5  1 -1</clus>
</clustering>
</event>
<event>
 9    2  0.1325014E-004  0.1023134E+03  0.7546771E-02  0.1280967E+00
          2   -1    0    0  502    0 -0.00000000000E+00  0.00000000000E+00  0.12865635522E+04  0.12865635522E+04  0.00000000000E+00 0. -1.
         21   -1    0    0  501  502  0.00000000000E+00 -0.00000000000E+00 -0.27686947427E+02  0.27686947427E+02  0.00000000000E+00 0. -1.
         24    2    1    2    0    0  0.39480835473E+02  0.21889466197E+02  0.10635674309E+04  0.10675515621E+04  0.80329152048E+02 0.  0.
         23    2    1    2    0    0 -0.29266634709E+02 -0.40234825864E+02  0.19961515163E+03  0.22526476936E+03  0.91774889987E+02 0.  0.
        -13    1    3    3    0    0  0.12422777155E+02  0.30949831961E+02  0.15550671068E+03  0.15904261868E+03  0.00000000000E+00 0.  1.
         14    1    3    3    0    0  0.27058058318E+02 -0.90603657635E+01  0.90806072021E+03  0.90850894346E+03  0.00000000000E+00 0. -1.
        -11    1    4    4    0    0  0.26288499803E+02  0.11197947926E+02  0.59434066323E+02  0.65946095407E+02  0.00000000000E+00 0. -1.
         11    1    4    4    0    0 -0.55555134512E+02 -0.51432773790E+02  0.14018108531E+03  0.15931867395E+03  0.00000000000E+00 0.  1.
          1    1    1    2  501    0 -0.10214200764E+02  0.18345359667E+02 -0.43059777631E+01  0.21434168122E+02  0.00000000000E+00 0. -1.
<scales pt_clust_5="13000.00000" pt_clust_6="13000.00000" pt_clust_7="13000.00000" pt_clust_8="13000.00000" pt_clust_9="20.99719"></scales>
<clustering>
<clus scale="   20.997">  2  9  1 -1</clus>
<clus scale="   80.329">  5  6 -1 -1</clus>
<clus scale="   91.775">  7  8 -1 -1</clus>
<clus scale="   92.186">  1  5  2 -1</clus>
<clus scale="   20.997">  2  5  1 -1</clus>
</clustering>
</event>
<event>
 9    2  0.1325014E-004  0.1403978E+03  0.7546771E-02  0.1224333E+00
          2   -1    0    0  502    0 -0.00000000000E+00  0.00000000000E+00  0.75917357669E+03  0.75917357669E+03  0.00000000000E+00 0. -1.
         21   -1    0    0  501  502  0.00000000000E+00 -0.00000000000E+00 -0.50187715599E+02  0.50187715599E+02  0.00000000000E+00 0.  1.
         24    2    1    2    0    0  0.33590933253E+02  0.67633060730E+02  0.34326341606E+03  0.36049643034E+03  0.80158104893E+02 0.  0.
         23    2    1    2    0    0 -0.11262042484E+03  0.15793947202E+02  0.19072138064E+03  0.23950608203E+03  0.89753604021E+02 0.  0.
        -13    1    3    3    0    0 -0.25064738977E+02  0.16915461826E+02  0.13290000851E+03  0.13629668466E+03  0.00000000000E+00 0.  1.
         14    1    3    3    0    0  0.58655672230E+02  0.50717598904E+02  0.21036340755E+03  0.22419974568E+03  0.00000000000E+00 0. -1.
        -11    1    4    4    0    0 -0.73350724354E+02  0.50977429725E+02  0.14174524912E+03  0.16754325636E+03  0.00000000000E+00 0.  1.
         11    1    4    4    0    0 -0.39269700490E+02 -0.35183482523E+02  0.48976131522E+02  0.71962825666E+02  0.00000000000E+00 0. -1.
          1    1    1    2  501    0  0.79029491591E+02 -0.83427007932E+02  0.17500106439E+03  0.20935877992E+03  0.00000000000E+00 0. -1.
<scales pt_clust_5="13000.00000" pt_clust_6="13000.00000" pt_clust_7="13000.00000" pt_clust_8="13000.00000" pt_clust_9="107.96220"></scales>
<clustering>
<clus scale="   80.158">  5  6 -1 -1</clus>
<clus scale="   89.754">  7  8 -1 -1</clus>
<clus scale="  110.127">  1  5  2 -1</clus>
<clus scale="  107.962">  2  9  1 -1</clus>
<clus scale="  107.962">  2  5  1 -1</clus>
</clustering>
</event>
<event>
 9    2  0.1325014E-004  0.1072120E+03  0.7546771E-02  0.1267709E+00
         21   -1    0    0  501  502  0.00000000000E+00  0.00000000000E+00  0.42841656111E+02  0.42841656111E+02  0.00000000000E+00 0. -1.
          2   -1    0    0  502    0 -0.00000000000E+00 -0.00000000000E+00 -0.79333766891E+03  0.79333766891E+03  0.00000000000E+00 0. -1.
         24    2    1    2    0    0  0.34048066983E+02 -0.67312687701E+02 -0.44362369761E+03  0.45707912223E+03  0.80181482342E+02 0.  0.
         23    2    1    2    0    0  0.60301722685E+02  0.59688848701E+02 -0.21969741536E+03  0.25041660285E+03  0.85102668883E+02 0.  0.
        -13    1    3    3    0    0 -0.38054166398E+01 -0.66573372325E+02 -0.20783760259E+03  0.21827268301E+03  0.00000000000E+00 0.  1.
         14    1    3    3    0    0  0.37853483623E+02 -0.73931537585E+00 -0.23578609502E+03  0.23880643923E+03  0.00000000000E+00 0. -1.
        -13    1    4    4    0    0  0.27815400454E+02 -0.51924730318E+01 -0.12597625021E+02  0.30973511825E+02  0.00000000000E+00 0.  1.
         13    1    4    4    0    0  0.32486322231E+02  0.64881321732E+02 -0.20709979034E+03  0.21944309103E+03  0.00000000000E+00 0. -1.
          1    1    1    2  501    0 -0.94349789668E+02  0.76238390003E+01 -0.87174899834E+02  0.12868359994E+03  0.00000000000E+00 0. -1.
<scales pt_clust_5="13000.00000" pt_clust_6="13000.00000" pt_clust_7="13000.00000" pt_clust_8="13000.00000" pt_clust_9="94.65731"></scales>
<clustering>
<clus scale="   80.181">  5  6 -1 -1</clus>
<clus scale="   85.103">  7  8 -1 -1</clus>
<clus scale="   94.657">  1  9  2 -1</clus>
<clus scale="  103.349">  2  5  1 -1</clus>
<clus scale="   94.657">  1  5  2 -1</clus>
</clustering>
</event>
<event>
 9    2  0.1325014E-004  0.1063054E+03  0.7546771E-02  0.1272557E+00
          2   -1    0    0  502    0 -0.00000000000E+00  0.00000000000E+00  0.51783406971E+03  0.51783406971E+03  0.00000000000E+00 0. -1.
         21   -1    0    0  501  502  0.00000000000E+00 -0.00000000000E+00 -0.10784143657E+03  0.10784143657E+03  0.00000000000E+00 0.  1.
         24    2    1    2    0    0 -0.34507898462E+02 -0.22777513589E+02  0.37920386264E+02  0.97150868760E+02  0.79314093482E+02 0.  0.
         23    2    1    2    0    0  0.99383924461E+02 -0.37426727444E+01 -0.14588711620E+02  0.13556291437E+03  0.90957689089E+02 0.  0.
        -13    1    3    3    0    0 -0.81919808948E+01 -0.50352073248E+02  0.25707228787E+02  0.57125313507E+02  0.00000000000E+00 0.  1.
         14    1    3    3    0    0 -0.26315917567E+02  0.27574559659E+02  0.12213157477E+02  0.40025555253E+02  0.00000000000E+00 0. -1.
        -11    1    4    4    0    0  0.10479381964E+03 -0.28923830449E+02 -0.81658619504E+01  0.10901841085E+03  0.00000000000E+00 0.  1.
         11    1    4    4    0    0 -0.54098951789E+01  0.25181157704E+02 -0.64228496698E+01  0.26544503519E+02  0.00000000000E+00 0. -1.
          1    1    1    2  501    0 -0.64876025999E+02  0.26520186333E+02  0.38666095850E+03  0.39296172315E+03  0.00000000000E+00 0. -1.
<scales pt_clust_5="13000.00000" pt_clust_6="13000.00000" pt_clust_7="13000.00000" pt_clust_8="13000.00000" pt_clust_9="70.08726"></scales>
<clustering>
<clus scale="   70.087">  2  9  1 -1</clus>
<clus scale="   79.314">  5  6 -1 -1</clus>
<clus scale="   90.958">  7  8 -1 -1</clus>
<clus scale="   96.531">  1  5  2 -1</clus>
<clus scale="   70.087">  2  5  1 -1</clus>
</clustering>
</event>
<event>
 9    2  0.1325014E-004  0.1192578E+03  0.7546771E-02  0.1266992E+00
          2   -1    0    0  502    0 -0.00000000000E+00  0.00000000000E+00  0.16790283732E+03  0.16790283732E+03  0.00000000000E+00 0. -1.
         21   -1    0    0  501  502  0.00000000000E+00 -0.00000000000E+00 -0.15080143671E+03  0.15080143671E+03  0.00000000000E+00 0.  1.
         23    2    1    2    0    0  0.67080735388E+01 -0.16827178930E+02  0.72375731122E+02  0.10505187172E+03  0.73956048397E+02 0.  0.
         24    2    1    2    0    0 -0.85362882293E+02  0.37696834887E+02 -0.41006296090E+02  0.13103461799E+03  0.82344895154E+02 0.  0.
        -13    1    4    4    0    0 -0.68630692928E+02  0.10944817820E+01 -0.55488321961E+02  0.88262810833E+02  0.00000000000E+00 0.  1.
         14    1    4    4    0    0 -0.16732189366E+02  0.36602353105E+02  0.14482025872E+02  0.42771807153E+02  0.00000000000E+00 0. -1.
        -11    1    3    3    0    0  0.33797992163E+02 -0.27202637813E+01  0.95997329229E+01  0.35240019601E+02  0.00000000000E+00 0. -1.
         11    1    3    3    0    0 -0.27089918624E+02 -0.14106915149E+02  0.62775998199E+02  0.69811852116E+02  0.00000000000E+00 0.  1.
          1    1    1    2  501    0  0.78654808755E+02 -0.20869655957E+02 -0.14268034420E+02  0.82617784321E+02  0.00000000000E+00 0. -1.
<scales pt_clust_5="13000.00000" pt_clust_6="13000.00000" pt_clust_7="13000.00000" pt_clust_8="13000.00000" pt_clust_9="86.26561"></scales>
<clustering>
<clus scale="   73.956">  7  8 -1 -1</clus>
<clus scale="   76.142">  1  7  2 -1</clus>
<clus scale="   82.345">  5  6 -1 -1</clus>
<clus scale="   86.266">  2  9  1 -1</clus>
<clus scale="   86.266">  2  5  1 -1</clus>
</clustering>
</event>
<event>
 9    2  0.1325014E-004  0.3819698E+03  0.7546771E-02  0.1101223E+00
          2   -1    0    0  502    0 -0.00000000000E+00  0.00000000000E+00  0.15583463524E+03  0.15583463524E+03  0.00000000000E+00 0. -1.
         21   -1    0    0  501  502  0.00000000000E+00 -0.00000000000E+00 -0.13288165322E+04  0.13288165322E+04  0.00000000000E+00 0. -1.
         23    2    1    2    0    0 -0.76480160646E+01 -0.31644809826E+02 -0.31400753599E+02  0.10053046891E+03  0.89780185536E+02 0.  0.
         24    2    1    2    0    0 -0.13855258837E+03 -0.32449872769E+03 -0.34846638627E+03  0.50250635315E+03  0.81163837835E+02 0.  0.
        -11    1    4    4    0    0 -0.37489413191E+02 -0.25584446723E+02 -0.57843835725E+02  0.73525025311E+02  0.00000000000E+00 0.  1.
         12    1    4    4    0    0 -0.10106317518E+03 -0.29891428097E+03 -0.29062255055E+03  0.42898132784E+03  0.00000000000E+00 0. -1.
        -11    1    3    3    0    0 -0.39899895525E+02 -0.43645598915E+02 -0.99118935715E+01  0.59959866592E+02  0.00000000000E+00 0. -1.
         11    1    3    3    0    0  0.32251879461E+02  0.12000789089E+02 -0.21488860028E+02  0.40570602322E+02  0.00000000000E+00 0.  1.
          1    1    1    2  501    0  0.14620060444E+03  0.35614353752E+03 -0.79311475707E+03  0.88161434536E+03  0.00000000000E+00 0. -1.
<scales pt_clust_5="13000.00000" pt_clust_6="13000.00000" pt_clust_7="13000.00000" pt_clust_8="13000.00000" pt_clust_9="373.24701"></scales>
<clustering>
<clus scale="   81.164">  5  6 -1 -1</clus>
<clus scale="   89.780">  7  8 -1 -1</clus>
<clus scale="   95.501">  1  7  2 -1</clus>
<clus scale="  373.247">  2  9  1 -1</clus>
<clus scale="  373.247">  2  5  1 -1</clus>
</clustering>
</event>
<event>
 9    2  0.1325014E-004  0.8987678E+02  0.7546771E-02  0.1308389E+00
         -1   -1    0    0    0  501 -0.00000000000E+00  0.00000000000E+00  0.28833517071E+03  0.28833517071E+03  0.00000000000E+00 0.  1.
         21   -1    0    0  501  502  0.00000000000E+00 -0.00000000000E+00 -0.50474740379E+02  0.50474740379E+02  0.00000000000E+00 0.  1.
         23    2    1    2    0    0 -0.42082473269E+01  0.51083909982E+01  0.19638764331E+03  0.21573488188E+03  0.89048457658E+02 0.  0.
         24    2    1    2    0    0 -0.28808270484E+01 -0.31288861585E+02  0.41193096342E+02  0.95950312756E+02  0.80760753513E+02 0.  0.
        -11    1    4    4    0    0 -0.31872028103E+02 -0.43085093218E+02  0.35099452917E+02  0.64063429724E+02  0.00000000000E+00 0.  1.
         12    1    4    4    0    0  0.28991201054E+02  0.11796231633E+02  0.60936434251E+01  0.31886883032E+02  0.00000000000E+00 0. -1.
        -13    1    3    3    0    0 -0.17900226389E+02 -0.38568062195E+02  0.11076221970E+03  0.11864309014E+03  0.00000000000E+00 0.  1.
         13    1    3    3    0    0  0.13691979062E+02  0.43676453193E+02  0.85625423613E+02  0.97091791739E+02  0.00000000000E+00 0. -1.
         -2    1    1    2    0  502  0.70890743753E+01  0.26180470587E+02  0.27969067833E+00  0.27124716451E+02  0.00000000000E+00 0.  1.
<scales pt_clust_5="13000.00000" pt_clust_6="13000.00000" pt_clust_7="13000.00000" pt_clust_8="13000.00000" pt_clust_9="27.12327"></scales>
<clustering>
<clus scale="   27.123">  2  9  1 -1</clus>
<clus scale="   80.761">  5  6 -1 -1</clus>
<clus scale="   81.673">  2  5  1 -1</clus>
<clus scale="   89.048">  7  8 -1 -1</clus>
<clus scale="   27.123">  2  5  1 -1</clus>
</clustering>
</event>
<event>
 9    2  0.1325014E-004  0.1102663E+03  0.7546771E-02  0.1263979E+00
         -1   -1    0    0    0  501 -0.00000000000E+00  0.00000000000E+00  0.33283152471E+03  0.33283152471E+03  0.00000000000E+00 0.  1.
         21   -1    0    0  501  502  0.00000000000E+00 -0.00000000000E+00 -0.17907391302E+03  0.17907391302E+03  0.00000000000E+00 0. -1.
         24    2    1    2    0    0 -0.34672671162E+02 -0.52152801093E+02  0.79175339403E+02  0.12898286088E+03  0.80285336423E+02 0.  0.
         23    2    1    2    0    0  0.13156036281E+02  0.70013070534E+02 -0.13161733072E+03  0.17483550114E+03  0.90384840408E+02 0.  0.
        -13    1    3    3    0    0 -0.34617363925E+02 -0.56922012990E+02  0.19920459784E+02  0.69536337018E+02  0.00000000000E+00 0.  1.
         14    1    3    3    0    0 -0.55307237614E-01  0.47692118965E+01  0.59254879618E+02  0.59446523864E+02  0.00000000000E+00 0. -1.
        -13    1    4    4    0    0  0.26416914198E+02  0.26126653508E+02 -0.18420188752E+01  0.37200113075E+02  0.00000000000E+00 0.  1.
         13    1    4    4    0    0 -0.13260877917E+02  0.43886417026E+02 -0.12977531184E+03  0.13763538806E+03  0.00000000000E+00 0. -1.
         -2    1    1    2    0  502  0.21516634881E+02 -0.17860269441E+02  0.20619960300E+03  0.20808707572E+03  0.00000000000E+00 0.  1.
<scales pt_clust_5="13000.00000" pt_clust_6="13000.00000" pt_clust_7="13000.00000" pt_clust_8="13000.00000" pt_clust_9="27.96347"></scales>
<clustering>
<clus scale="   27.963">  2  9  1 -1</clus>
<clus scale="   80.285">  5  6 -1 -1</clus>
<clus scale="   90.385">  7  8 -1 -1</clus>
<clus scale="  102.152">  1  5  2 -1</clus>
<clus scale="   27.963">  2  5  1 -1</clus>
</clustering>
</event>
<event>
 9    2  0.1325014E-004  0.1018721E+03  0.7546771E-02  0.1282043E+00
         21   -1    0    0  501  502  0.00000000000E+00  0.00000000000E+00  0.97273301757E+02  0.97273301757E+02  0.00000000000E+00 0. -1.
          2   -1    0    0  502    0 -0.00000000000E+00 -0.00000000000E+00 -0.34355053740E+03  0.34355053740E+03  0.00000000000E+00 0. -1.
         23    2    1    2    0    0  0.42283290212E+01  0.49807617727E+02 -0.21268863099E+03  0.23711020056E+03  0.92120116717E+02 0.  0.
         24    2    1    2    0    0 -0.73946766835E+02 -0.14458101003E+01 -0.44766862957E+02  0.11813047164E+03  0.80501687056E+02 0.  0.
        -11    1    4    4    0    0 -0.57460124049E+02 -0.26955296185E+02 -0.57076022671E+02  0.85357637105E+02  0.00000000000E+00 0.  1.
         12    1    4    4    0    0 -0.16486642785E+02  0.25509486085E+02  0.12309159714E+02  0.32772834536E+02  0.00000000000E+00 0. -1.
        -13    1    3    3    0    0 -0.83603355221E+01  0.70622083223E+02 -0.19341600999E+03  0.20607553656E+03  0.00000000000E+00 0. -1.
         13    1    3    3    0    0  0.12588664543E+02 -0.20814465496E+02 -0.19272621001E+02  0.31034663993E+02  0.00000000000E+00 0.  1.
          1    1    1    2  501    0  0.69718437813E+02 -0.48361807627E+02  0.11178258307E+02  0.85583166960E+02  0.00000000000E+00 0. -1.
<scales pt_clust_5="13000.00000" pt_clust_6="13000.00000" pt_clust_7="13000.00000" pt_clust_8="13000.00000" pt_clust_9="84.85001"></scales>
<clustering>
<clus scale="   80.502">  5  6 -1 -1</clus>
<clus scale="   84.850">  1  9  2 -1</clus>
<clus scale="   91.500">  1  5  2 -1</clus>
<clus scale="   92.120">  7  8 -1 -1</clus>
<clus scale="   84.850">  1  5  2 -1</clus>
</clustering>
</event>
<event>
 9    2  0.1325014E-004  0.2124805E+03  0.7546771E-02  0.1139949E+00
          4   -1    0    0  502    0 -0.00000000000E+00  0.00000000000E+00  0.63295528241E+03  0.63295528241E+03  0.00000000000E+00 0. -1.
         21   -1    0    0  501  502  0.00000000000E+00 -0.00000000000E+00 -0.31186103723E+03  0.31186103723E+03  0.00000000000E+00 0.  1.
         24    2    1    2    0    0  0.50558825632E+02  0.18317887499E+03  0.53329127262E+03  0.57271373368E+03  0.86549085557E+02 0.  0.
         23    2    1    2    0    0 -0.36822558492E+02 -0.20843020005E+03 -0.91036085573E+02  0.24757833817E+03  0.90600306554E+02 0.  0.
        -11    1    3    3    0    0  0.31084290682E+02  0.76622989171E+01  0.91265949642E+02  0.96718237763E+02  0.00000000000E+00 0.  1.
         12    1    3    3    0    0  0.19474534950E+02  0.17551657607E+03  0.44202532298E+03  0.47599549592E+03  0.00000000000E+00 0. -1.
        -11    1    4    4    0    0 -0.28283508428E+02 -0.13891520550E+03 -0.10467888660E+03  0.17622446047E+03  0.00000000000E+00 0.  1.
         11    1    4    4    0    0 -0.85390500645E+01 -0.69514994551E+02  0.13642801024E+02  0.71353877703E+02  0.00000000000E+00 0. -1.
          3    1    1    2  501    0 -0.13736267140E+02  0.25251325068E+02 -0.12116094186E+03  0.12452424778E+03  0.00000000000E+00 0. -1.
<scales pt_clust_5="13000.00000" pt_clust_6="13000.00000" pt_clust_7="13000.00000" pt_clust_8="13000.00000" pt_clust_9="28.74569"></scales>
<clustering>
<clus scale="   28.746">  2  9  1 -1</clus>
<clus scale="   86.549">  5  6 -1 -1</clus>
<clus scale="   90.600">  7  8 -1 -1</clus>
<clus scale="  210.785">  1  5  2 -1</clus>
<clus scale="   28.746">  2  5  1 -1</clus>
</clustering>
</event>
<event>
 9    2  0.1325014E-004  0.9277773E+02  0.7546771E-02  0.1302165E+00
         -1   -1    0    0    0  501 -0.00000000000E+00  0.00000000000E+00  0.13344788884E+03  0.13344788884E+03  0.00000000000E+00 0.  1.
         21   -1    0    0  501  502  0.00000000000E+00 -0.00000000000E+00 -0.15130332948E+03  0.15130332948E+03  0.00000000000E+00 0. -1.
         24    2    1    2    0    0  0.13110315541E+02 -0.25466396773E+02  0.87637360108E+02  0.12117776239E+03  0.78634124093E+02 0.  0.
         23    2    1    2    0    0 -0.29304209292E+02  0.25539313411E+01 -0.95936210091E+02  0.13393308327E+03  0.88707694935E+02 0.  0.
        -11    1    3    3    0    0  0.44550872440E+02 -0.33411584171E+01  0.54081379779E+02  0.70147980823E+02  0.00000000000E+00 0.  1.
         12    1    3    3    0    0 -0.31440556899E+02 -0.22125238356E+02  0.33555980329E+02  0.51029781562E+02  0.00000000000E+00 0. -1.
        -11    1    4    4    0    0 -0.53855559200E+02  0.14369890826E+02 -0.31620749120E+02  0.64084216419E+02  0.00000000000E+00 0. -1.
         11    1    4    4    0    0  0.24551349908E+02 -0.11815959485E+02 -0.64315460971E+02  0.69848866854E+02  0.00000000000E+00 0.  1.
         -2    1    1    2    0  502  0.16193893751E+02  0.22912465432E+02 -0.95565906574E+01  0.29640372670E+02  0.00000000000E+00 0.  1.
<scales pt_clust_5="13000.00000" pt_clust_6="13000.00000" pt_clust_7="13000.00000" pt_clust_8="13000.00000" pt_clust_9="28.05750"></scales>
<clustering>
<clus scale="   28.057">  2  9  1 -1</clus>
<clus scale="   78.634">  5  6 -1 -1</clus>
<clus scale="   83.198">  1  5  2 -1</clus>
<clus scale="   88.708">  7  8 -1 -1</clus>
<clus scale="   28.057">  2  5  1 -1</clus>
</clustering>
</event>
<event>
 9    2  0.1325014E-004  0.1464342E+03  0.7546771E-02  0.1206898E+00
         21   -1    0    0  501  502  0.00000000000E+00  0.00000000000E+00  0.15294268133E+03  0.15294268133E+03  0.00000000000E+00 0. -1.
          2   -1    0    0  502    0 -0.00000000000E+00 -0.00000000000E+00 -0.44097734368E+03  0.44097734368E+03  0.00000000000E+00 0. -1.
         23    2    1    2    0    0 -0.58240408538E+02  0.10424618825E+03 -0.38279433574E+03  0.41104609379E+03  0.90377955242E+02 0.  0.
         24    2    1    2    0    0  0.48677624207E+02 -0.73399802971E+02  0.53684129482E+02  0.13062312609E+03  0.80145948973E+02 0.  0.
        -11    1    4    4    0    0  0.66989781346E+02 -0.63596319336E+02  0.25897861802E+02  0.95931339425E+02  0.00000000000E+00 0.  1.
         12    1    4    4    0    0 -0.18312157139E+02 -0.98034836348E+01  0.27786267680E+02  0.34691786666E+02  0.00000000000E+00 0. -1.
        -11    1    3    3    0    0 -0.39268193226E+02  0.96394355346E+02 -0.37484562788E+03  0.38902841475E+03  0.00000000000E+00 0. -1.
         11    1    3    3    0    0 -0.18972215312E+02  0.78518329025E+01 -0.79487078653E+01  0.22017679045E+02  0.00000000000E+00 0.  1.
          1    1    1    2  501    0  0.95627843309E+01 -0.30846385277E+02  0.41075543912E+02  0.52250805128E+02  0.00000000000E+00 0. -1.
<scales pt_clust_5="13000.00000" pt_clust_6="13000.00000" pt_clust_7="13000.00000" pt_clust_8="13000.00000" pt_clust_9="32.29468"></scales>
<clustering>
<clus scale="   32.295">  1  9  2 -1</clus>
<clus scale="   80.146">  5  6 -1 -1</clus>
<clus scale="   90.378">  7  8 -1 -1</clus>
<clus scale="  140.350">  1  5  2 -1</clus>
<clus scale="   32.295">  1  5  2 -1</clus>
</clustering>
</event>
<event>
 9    2  0.1325014E-004  0.9046602E+02  0.7546771E-02  0.1308712E+00
          2   -1    0    0  502    0 -0.00000000000E+00  0.00000000000E+00  0.48096905877E+03  0.48096905877E+03  0.00000000000E+00 0. -1.
         21   -1    0    0  501  502  0.00000000000E+00 -0.00000000000E+00 -0.82380221481E+02  0.82380221481E+02  0.00000000000E+00 0. -1.
         24    2    1    2    0    0  0.12634026499E+02  0.35303751492E+01  0.36388304012E+03  0.37230751938E+03  0.77652687790E+02 0.  0.
         23    2    1    2    0    0 -0.42761506538E+02  0.31858695575E+01  0.86245891866E+02  0.13096552299E+03  0.88740735521E+02 0.  0.
        -11    1    3    3    0    0  0.52521994132E+01 -0.36323800141E+02  0.20960891843E+03  0.21279779778E+03  0.00000000000E+00 0.  1.
         12    1    3    3    0    0  0.73818270861E+01  0.39854175290E+02  0.15427412170E+03  0.15950972160E+03  0.00000000000E+00 0. -1.
        -11    1    4    4    0    0 -0.44387908532E+02 -0.20412546963E+02  0.94111707344E+02  0.10603759690E+03  0.00000000000E+00 0. -1.
         11    1    4    4    0    0  0.16264019931E+01  0.23598416520E+02 -0.78658154786E+01  0.24927926084E+02  0.00000000000E+00 0.  1.
          1    1    1    2  501    0  0.30127480039E+02 -0.67162447067E+01 -0.51540094703E+02  0.60076237886E+02  0.00000000000E+00 0. -1.
<scales pt_clust_5="13000.00000" pt_clust_6="13000.00000" pt_clust_7="13000.00000" pt_clust_8="13000.00000" pt_clust_9="30.86702"></scales>
<clustering>
<clus scale="   30.867">  2  9  1 -1</clus>
<clus scale="   77.653">  5  6 -1 -1</clus>
<clus scale="   79.619">  1  5  2 -1</clus>
<clus scale="   88.741">  7  8 -1 -1</clus>
<clus scale="   30.867">  2  5  1 -1</clus>
</clustering>
</event>
<event>
 9    2  0.1325014E-004  0.2540598E+03  0.7546771E-02  0.1146907E+00
         21   -1    0    0  501  502  0.00000000000E+00  0.00000000000E+00  0.19081510831E+03  0.19081510831E+03  0.00000000000E+00 0. -1.
          2   -1    0    0  502    0 -0.00000000000E+00 -0.00000000000E+00 -0.71327441283E+03  0.71327441283E+03  0.00000000000E+00 0. -1.
         24    2    1    2    0    0  0.29648850902E+02  0.54510728641E+02 -0.32027821746E+03  0.33685239497E+03  0.83910222965E+02 0.  0.
         23    2    1    2    0    0 -0.22206455484E+02  0.19924872833E+03 -0.22183247373E+03  0.31260910680E+03  0.91222940344E+02 0.  0.
        -11    1    3    3    0    0 -0.23233674057E+02 -0.58896931425E+01 -0.80452019259E+02  0.83946527613E+02  0.00000000000E+00 0.  1.
         12    1    3    3    0    0  0.52882524959E+02  0.60400421784E+02 -0.23982619820E+03  0.25290586735E+03  0.00000000000E+00 0. -1.
        -11    1    4    4    0    0 -0.42219100130E+02  0.13980437493E+03 -0.10454455076E+03  0.17960311456E+03  0.00000000000E+00 0. -1.
         11    1    4    4    0    0  0.20012644647E+02  0.59444353401E+02 -0.11728792297E+03  0.13300599224E+03  0.00000000000E+00 0.  1.
          1    1    1    2  501    0 -0.74423954179E+01 -0.25375945697E+03  0.19651386667E+02  0.25462801938E+03  0.00000000000E+00 0. -1.
<scales pt_clust_5="13000.00000" pt_clust_6="13000.00000" pt_clust_7="13000.00000" pt_clust_8="13000.00000" pt_clust_9="237.11762"></scales>
<clustering>
<clus scale="   83.910">  5  6 -1 -1</clus>
<clus scale="   91.223">  7  8 -1 -1</clus>
<clus scale="  104.362">  2  5  1 -1</clus>
<clus scale="  237.118">  1  9  2 -1</clus>
<clus scale="  237.118">  1  5  2 -1</clus>
</clustering>
</event>
<event>
 9    2  0.1325014E-004  0.1173118E+03  0.7546771E-02  0.1251501E+00
          2   -1    0    0  502    0 -0.00000000000E+00  0.00000000000E+00  0.74295512459E+02  0.74295512459E+02  0.00000000000E+00 0. -1.
         21   -1    0    0  501  502  0.00000000000E+00 -0.00000000000E+00 -0.53536372760E+03  0.53536372760E+03  0.00000000000E+00 0.  1.
         23    2    1    2    0    0  0.53835904228E+02 -0.38573373269E+02 -0.91769064665E+02  0.14646109739E+03  0.92968177943E+02 0.  0.
         24    2    1    2    0    0 -0.47362443854E+01  0.11663351724E+03 -0.33637454650E+03  0.36527882782E+03  0.81578043398E+02 0.  0.
        -13    1    4    4    0    0 -0.70436213356E+00  0.10784782506E+03 -0.33859835044E+03  0.35535966628E+03  0.00000000000E+00 0.  1.
         14    1    4    4    0    0 -0.40318822519E+01  0.87856921831E+01  0.22238039443E+01  0.99191615377E+01  0.00000000000E+00 0. -1.
        -11    1    3    3    0    0  0.63621488262E+02 -0.82780085740E+01 -0.18809902418E+02  0.66858295099E+02  0.00000000000E+00 0.  1.
         11    1    3    3    0    0 -0.97855840341E+01 -0.30295364695E+02 -0.72959162247E+02  0.79602802292E+02  0.00000000000E+00 0. -1.
          1    1    1    2  501    0 -0.49099659842E+02 -0.78060143974E+02 -0.32924603978E+02  0.97919314851E+02  0.00000000000E+00 0. -1.
<scales pt_clust_5="13000.00000" pt_clust_6="13000.00000" pt_clust_7="13000.00000" pt_clust_8="13000.00000" pt_clust_9="92.21806"></scales>
<clustering>
<clus scale="   81.578">  5  6 -1 -1</clus>
<clus scale="   92.218">  2  9  1 -1</clus>
<clus scale="   92.968">  7  8 -1 -1</clus>
<clus scale="  108.508">  2  5  1 -1</clus>
<clus scale="   92.218">  2  5  1 -1</clus>
</clustering>
</event>
<event>
 9    2  0.1325014E-004  0.1810662E+03  0.7546771E-02  0.1168024E+00
         21   -1    0    0  501  502  0.00000000000E+00  0.00000000000E+00  0.24887551423E+03  0.24887551423E+03  0.00000000000E+00 0.  1.
          2   -1    0    0  502    0 -0.00000000000E+00 -0.00000000000E+00 -0.64434181105E+03  0.64434181105E+03  0.00000000000E+00 0. -1.
         23    2    1    2    0    0 -0.93832421883E+02 -0.98144322819E+02 -0.35956858782E+03  0.39477642428E+03  0.90122274292E+02 0.  0.
         24    2    1    2    0    0  0.12155758107E+03  0.24545748792E+03 -0.13827042666E+03  0.31691947972E+03  0.79332350583E+02 0.  0.
        -11    1    4    4    0    0  0.18260055785E+02  0.12564870379E+03 -0.62523965156E+02  0.14152834564E+03  0.00000000000E+00 0.  1.
         12    1    4    4    0    0  0.10329752528E+03  0.11980878413E+03 -0.75746461506E+02  0.17539113408E+03  0.00000000000E+00 0. -1.
        -13    1    3    3    0    0 -0.22137894179E+02  0.46101603610E+01 -0.12617505786E+02  0.25894813950E+02  0.00000000000E+00 0.  1.
         13    1    3    3    0    0 -0.71694527704E+02 -0.10275448318E+03 -0.34695108203E+03  0.36888161033E+03  0.00000000000E+00 0. -1.
          1    1    1    2  501    0 -0.27725159186E+02 -0.14731316510E+03  0.10237271766E+03  0.18152142128E+03  0.00000000000E+00 0. -1.
<scales pt_clust_5="13000.00000" pt_clust_6="13000.00000" pt_clust_7="13000.00000" pt_clust_8="13000.00000" pt_clust_9="149.89948"></scales>
<clustering>
<clus scale="   79.332">  5  6 -1 -1</clus>
<clus scale="   90.122">  7  8 -1 -1</clus>
<clus scale="  149.899">  1  9  2 -1</clus>
<clus scale="  175.945">  1  5  2 -1</clus>
<clus scale="  149.899">  1  5  2 -1</clus>
</clustering>
</event>
<event>
 9    2  0.1325014E-004  0.1392041E+03  0.7546771E-02  0.1215412E+00
          2   -1    0    0  502    0 -0.00000000000E+00  0.00000000000E+00  0.10418440005E+04  0.10418440005E+04  0.00000000000E+00 0. -1.
         21   -1    0    0  501  502  0.00000000000E+00 -0.00000000000E+00 -0.21404158789E+03  0.21404158789E+03  0.00000000000E+00 0. -1.
         24    2    1    2    0    0  0.15938717084E+02  0.94219203094E+02  0.62097350493E+03  0.63330472691E+03  0.79595743401E+02 0.  0.
         23    2    1    2    0    0  0.47331654224E+02 -0.17942088720E+03  0.37318383724E+03  0.42525770156E+03  0.84532810830E+02 0.  0.
        -13    1    3    3    0    0  0.47900678107E+02  0.56411869073E+02  0.40752846735E+03  0.41419346402E+03  0.00000000000E+00 0.  1.
         14    1    3    3    0    0 -0.31961961023E+02  0.37807334022E+02  0.21344503758E+03  0.21911126289E+03  0.00000000000E+00 0. -1.
        -11    1    4    4    0    0  0.71631590592E+02 -0.12072013404E+03  0.25591464868E+03  0.29188481109E+03  0.00000000000E+00 0. -1.
         11    1    4    4    0    0 -0.24299936368E+02 -0.58700753155E+02  0.11726918855E+03  0.13337289047E+03  0.00000000000E+00 0.  1.
          1    1    1    2  501    0 -0.63270371309E+02  0.85201684104E+02 -0.16635492954E+03  0.19732315993E+03  0.00000000000E+00 0. -1.
<scales pt_clust_5="13000.00000" pt_clust_6="13000.00000" pt_clust_7="13000.00000" pt_clust_8="13000.00000" pt_clust_9="106.12477"></scales>
<clustering>
<clus scale="   79.596">  5  6 -1 -1</clus>
<clus scale="   84.533">  7  8 -1 -1</clus>
<clus scale="  106.125">  2  9  1 -1</clus>
<clus scale="  136.263">  1  5  2 -1</clus>
<clus scale="  106.125">  2  5  1 -1</clus>
</clustering>
</event>
<event>
 9    2  0.1325014E-004  0.1054032E+03  0.7546771E-02  0.1278131E+00
         21   -1    0    0  501  502  0.00000000000E+00  0.00000000000E+00  0.81807632647E+02  0.81807632647E+02  0.00000000000E+00 0. -1.
          2   -1    0    0  502    0 -0.00000000000E+00 -0.00000000000E+00 -0.25485789487E+03  0.25485789487E+03  0.00000000000E+00 0. -1.
         23    2    1    2    0    0  0.97736493146E+01 -0.34493987152E+02 -0.18312568733E+03  0.21049269962E+03  0.97400204644E+02 0.  0.
         24    2    1    2    0    0 -0.18300254892E+01  0.59543241449E+02  0.11296563318E+02  0.99865842532E+02  0.79352552362E+02 0.  0.
        -11    1    4    4    0    0  0.29573745897E+02  0.23096831657E+02 -0.19951667423E+02  0.42498695415E+02  0.00000000000E+00 0.  1.
         12    1    4    4    0    0 -0.31403771386E+02  0.36446409792E+02  0.31248230741E+02  0.57367147118E+02  0.00000000000E+00 0. -1.
        -11    1    3    3    0    0  0.53166903688E+01  0.33868920444E+02 -0.75401055356E+02  0.82829282970E+02  0.00000000000E+00 0.  1.
         11    1    3    3    0    0  0.44569589458E+01 -0.68362907596E+02 -0.10772463197E+03  0.12766341665E+03  0.00000000000E+00 0. -1.
          1    1    1    2  501    0 -0.79436238254E+01 -0.25049254297E+02 -0.12211382130E+01  0.26306985363E+02  0.00000000000E+00 0. -1.
<scales pt_clust_5="13000.00000" pt_clust_6="13000.00000" pt_clust_7="13000.00000" pt_clust_8="13000.00000" pt_clust_9="26.27863"></scales>
<clustering>
<clus scale="   26.279">  1  9  2 -1</clus>
<clus scale="   79.353">  5  6 -1 -1</clus>
<clus scale="   88.994">  1  5  2 -1</clus>
<clus scale="   97.400">  7  8 -1 -1</clus>
<clus scale="   26.279">  1  5  2 -1</clus>
</clustering>
</event>
<event>
 9    2  0.1325014E-004  0.1278151E+03  0.7546771E-02  0.1246814E+00
         21   -1    0    0  501  502  0.00000000000E+00  0.00000000000E+00  0.29073226366E+03  0.29073226366E+03  0.00000000000E+00 0. -1.
          4   -1    0    0  502    0 -0.00000000000E+00 -0.00000000000E+00 -0.33880547138E+03  0.33880547138E+03  0.00000000000E+00 0. -1.
         23    2    1    2    0    0 -0.86640719802E+00 -0.18572784934E+02 -0.21810253536E+03  0.23676771826E+03  0.90247091236E+02 0.  0.
         24    2    1    2    0    0 -0.16807293223E+02  0.11421988110E+03 -0.52072248156E+02  0.15030386108E+03  0.80938651366E+02 0.  0.
        -11    1    4    4    0    0 -0.26331524155E+02  0.16876311524E+02  0.11866186747E+02  0.33450940837E+02  0.00000000000E+00 0.  1.
         12    1    4    4    0    0  0.95242309321E+01  0.97343569574E+02 -0.63938434902E+02  0.11685292025E+03  0.00000000000E+00 0. -1.
        -11    1    3    3    0    0 -0.10739384281E+02  0.32665191884E+02 -0.12906102948E+03  0.13356308796E+03  0.00000000000E+00 0.  1.
         11    1    3    3    0    0  0.98729770827E+01 -0.51237976818E+02 -0.89041505879E+02  0.10320463029E+03  0.00000000000E+00 0. -1.
          3    1    1    2  501    0  0.17673700421E+02 -0.95647096164E+02  0.22210157580E+03  0.24246615570E+03  0.00000000000E+00 0. -1.
<scales pt_clust_5="13000.00000" pt_clust_6="13000.00000" pt_clust_7="13000.00000" pt_clust_8="13000.00000" pt_clust_9="98.92242"></scales>
<clustering>
<clus scale="   80.939">  5  6 -1 -1</clus>
<clus scale="   90.247">  7  8 -1 -1</clus>
<clus scale="   92.142">  2  7  1 -1</clus>
<clus scale="   98.922">  1  9  2 -1</clus>
<clus scale="   98.922">  1  5  2 -1</clus>
</clustering>
</event>
<event>
 9    2  0.1325014E-004  0.2121054E+03  0.7546771E-02  0.1140848E+00
          2   -1    0    0  502    0 -0.00000000000E+00  0.00000000000E+00  0.24764454454E+03  0.24764454454E+03  0.00000000000E+00 0. -1.
         21   -1    0    0  501  502  0.00000000000E+00 -0.00000000000E+00 -0.30377017618E+03  0.30377017618E+03  0.00000000000E+00 0. -1.
         24    2    1    2    0    0 -0.18447822003E+03  0.62526234418E+02  0.12240866872E+03  0.24354222463E+03  0.79919893291E+02 0.  0.
         23    2    1    2    0    0  0.17253832719E+03 -0.44546622374E+02 -0.19588313773E+03  0.28018116806E+03  0.91528178011E+02 0.  0.
        -11    1    3    3    0    0 -0.37928813375E+02  0.47258053837E+02  0.53700895379E+02  0.80967306372E+02  0.00000000000E+00 0.  1.
         12    1    3    3    0    0 -0.14654940666E+03  0.15268180581E+02  0.68707773345E+02  0.16257491826E+03  0.00000000000E+00 0. -1.
        -11    1    4    4    0    0  0.11727363002E+03 -0.38021682583E+02 -0.68181054844E+02  0.14088083221E+03  0.00000000000E+00 0.  1.
         11    1    4    4    0    0  0.55264697173E+02 -0.65249397914E+01 -0.12770208289E+03  0.13930033585E+03  0.00000000000E+00 0. -1.
          1    1    1    2  501    0  0.11939892839E+02 -0.17979612044E+02  0.17348837367E+02  0.27691328033E+02  0.00000000000E+00 0. -1.
<scales pt_clust_5="13000.00000" pt_clust_6="13000.00000" pt_clust_7="13000.00000" pt_clust_8="13000.00000" pt_clust_9="21.58305"></scales>
<clustering>
<clus scale="   21.583">  2  9  1 -1</clus>
<clus scale="   79.920">  5  6 -1 -1</clus>
<clus scale="   91.528">  7  8 -1 -1</clus>
<clus scale="  207.361">  1  5  2 -1</clus>
<clus scale="   21.583">  2  5  1 -1</clus>
</clustering>
</event>
<event>
 9    2  0.1325014E-004  0.1698157E+03  0.7546771E-02  0.1197969E+00
          4   -1    0    0  502    0 -0.00000000000E+00  0.00000000000E+00  0.19529180855E+03  0.19529180855E+03  0.00000000000E+00 0. -1.
         21   -1    0    0  501  502  0.00000000000E+00 -0.00000000000E+00 -0.26588344082E+03  0.26588344082E+03  0.00000000000E+00 0. -1.
         23    2    1    2    0    0 -0.22637251333E+02 -0.55587400513E+02 -0.73871393383E+02  0.13180943313E+03  0.91183000924E+02 0.  0.
         24    2    1    2    0    0  0.14160993102E+03 -0.43880202897E+02 -0.25461773087E+02  0.17164968381E+03  0.82682932289E+02 0.  0.
        -11    1    4    4    0    0  0.70417299389E+02 -0.19498917162E+02 -0.54328038386E+02  0.91051301905E+02  0.00000000000E+00 0.  1.
         12    1    4    4    0    0  0.71192631633E+02 -0.24381285735E+02  0.28866265299E+02  0.80598381902E+02  0.00000000000E+00 0. -1.
        -13    1    3    3    0    0 -0.51498196739E+02 -0.66646052869E+01 -0.41163884240E+02  0.66264218072E+02  0.00000000000E+00 0.  1.
         13    1    3    3    0    0  0.28860945406E+02 -0.48922795226E+02 -0.32707509143E+02  0.65545215056E+02  0.00000000000E+00 0. -1.
          3    1    1    2  501    0 -0.11897267969E+03  0.99467603410E+02  0.28741534200E+02  0.15771613243E+03  0.00000000000E+00 0. -1.
<scales pt_clust_5="13000.00000" pt_clust_6="13000.00000" pt_clust_7="13000.00000" pt_clust_8="13000.00000" pt_clust_9="148.32710"></scales>
<clustering>
<clus scale="   82.683">  5  6 -1 -1</clus>
<clus scale="   91.183">  7  8 -1 -1</clus>
<clus scale="  109.164">  1  7  2 -1</clus>
<clus scale="  148.327">  2  9  1 -1</clus>
<clus scale="  148.327">  2  5  1 -1</clus>
</clustering>
</event>
<event>
 9    2  0.1325014E-004  0.1507778E+03  0.7546771E-02  0.1201690E+00
         21   -1    0    0  501  502  0.00000000000E+00  0.00000000000E+00  0.72165604576E+02  0.72165604576E+02  0.00000000000E+00 0. -1.
          2   -1    0    0  502    0 -0.00000000000E+00 -0.00000000000E+00 -0.89164413780E+03  0.89164413780E+03  0.00000000000E+00 0. -1.
         24    2    1    2    0    0 -0.51442336610E+02  0.10716701290E+03 -0.79927659237E+02  0.16455969324E+03  0.80996168294E+02 0.  0.
         23    2    1    2    0    0 -0.95173547828E+02 -0.53374029903E+02 -0.30727578527E+03  0.33962884106E+03  0.94987105398E+02 0.  0.
        -13    1    3    3    0    0 -0.24759245049E+02 -0.34221343673E+01  0.89318446042E+00  0.25010577713E+02  0.00000000000E+00 0.  1.
         14    1    3    3    0    0 -0.26683091561E+02  0.11058914727E+03 -0.80820843697E+02  0.13954911553E+03  0.00000000000E+00 0. -1.
        -13    1    4    4    0    0 -0.40535104528E+02  0.20203290781E+02 -0.55152836671E+02  0.71365979643E+02  0.00000000000E+00 0.  1.
         13    1    4    4    0    0 -0.54638443300E+02 -0.73577320684E+02 -0.25212294860E+03  0.26826286142E+03  0.00000000000E+00 0. -1.
          1    1    1    2  501    0  0.14661588444E+03 -0.53792982995E+02 -0.43227508871E+03  0.45962120807E+03  0.00000000000E+00 0. -1.
<scales pt_clust_5="13000.00000" pt_clust_6="13000.00000" pt_clust_7="13000.00000" pt_clust_8="13000.00000" pt_clust_9="117.09578"></scales>
<clustering>
<clus scale="   80.996">  5  6 -1 -1</clus>
<clus scale="   94.987">  7  8 -1 -1</clus>
<clus scale="  143.845">  2  5  1 -1</clus>
<clus scale="  117.096">  1  9  2 -1</clus>
<clus scale="  117.096">  1  5  2 -1</clus>
</clustering>
</event>
<event>
 9    2  0.1325014E-004  0.1550814E+03  0.7546771E-02  0.1210118E+00
         21   -1    0    0  501  502  0.00000000000E+00  0.00000000000E+00  0.14893566333E+03  0.14893566333E+03  0.00000000000E+00 0. -1.
          2   -1    0    0  502    0 -0.00000000000E+00 -0.00000000000E+00 -0.66173914677E+03  0.66173914677E+03  0.00000000000E+00 0. -1.
         24    2    1    2    0    0 -0.21711833366E+02  0.62430637212E+02 -0.48424665015E+03  0.49664650213E+03  0.88283303809E+02 0.  0.
         23    2    1    2    0    0 -0.43227690484E+02  0.61932226147E+02 -0.10037276032E+03  0.15641869241E+03  0.93208811070E+02 0.  0.
        -11    1    3    3    0    0  0.15624408467E+02  0.47971593045E+02 -0.11956560860E+03  0.12977415243E+03  0.00000000000E+00 0.  1.
         12    1    3    3    0    0 -0.37336241833E+02  0.14459044167E+02 -0.36468104154E+03  0.36687234970E+03  0.00000000000E+00 0. -1.
        -13    1    4    4    0    0 -0.19319151757E+02  0.62670753474E+02 -0.14350438129E+02  0.67132615323E+02  0.00000000000E+00 0.  1.
         13    1    4    4    0    0 -0.23908538727E+02 -0.73852732640E+00 -0.86022322190E+02  0.89286077087E+02  0.00000000000E+00 0. -1.
          1    1    1    2  501    0  0.64939523850E+02 -0.12436286336E+03  0.71815927028E+02  0.15760961556E+03  0.00000000000E+00 0. -1.
<scales pt_clust_5="13000.00000" pt_clust_6="13000.00000" pt_clust_7="13000.00000" pt_clust_8="13000.00000" pt_clust_9="123.94502"></scales>
<clustering>
<clus scale="   88.283">  5  6 -1 -1</clus>
<clus scale="   93.209">  7  8 -1 -1</clus>
<clus scale="  110.286">  2  5  1 -1</clus>
<clus scale="  123.945">  1  9  2 -1</clus>
<clus scale="  123.945">  1  5  2 -1</clus>
</clustering>
</event>
<event>
 9    2  0.1325014E-004  0.1106092E+03  0.7546771E-02  0.1269340E+00
          2   -1    0    0  502    0 -0.00000000000E+00  0.00000000000E+00  0.16448977798E+03  0.16448977798E+03  0.00000000000E+00 0. -1.
         21   -1    0    0  501  502  0.00000000000E+00 -0.00000000000E+00 -0.13902960206E+03  0.13902960206E+03  0.00000000000E+00 0.  1.
         23    2    1    2    0    0  0.74935377618E+01  0.71171385319E+01  0.32938172254E+02  0.96953130633E+02  0.90599004294E+02 0.  0.
         24    2    1    2    0    0  0.82958684327E+02  0.80807297260E+01 -0.30124666333E+02  0.11209164254E+03  0.68626520431E+02 0.  0.
        -11    1    4    4    0    0  0.13005702633E+02  0.25816571976E+02 -0.27467895541E+02  0.39876421292E+02  0.00000000000E+00 0.  1.
         12    1    4    4    0    0  0.69952981694E+02 -0.17735842250E+02 -0.26567707921E+01  0.72215221244E+02  0.00000000000E+00 0. -1.
        -13    1    3    3    0    0  0.11471992318E+02 -0.26478384467E+02  0.51003969521E+02  0.58601334103E+02  0.00000000000E+00 0.  1.
         13    1    3    3    0    0 -0.39784545564E+01  0.33595522999E+02 -0.18065797267E+02  0.38351796530E+02  0.00000000000E+00 0. -1.
          1    1    1    2  501    0 -0.90452222088E+02 -0.15197868258E+02  0.22646670000E+02  0.94474606866E+02  0.00000000000E+00 0. -1.
<scales pt_clust_5="13000.00000" pt_clust_6="13000.00000" pt_clust_7="13000.00000" pt_clust_8="13000.00000" pt_clust_9="86.74557"></scales>
<clustering>
<clus scale="   68.627">  5  6 -1 -1</clus>
<clus scale="   90.599">  7  8 -1 -1</clus>
<clus scale="   91.187">  1  7  2 -1</clus>
<clus scale="   86.746">  2  9  1 -1</clus>
<clus scale="   86.746">  2  5  1 -1</clus>
</clustering>
</event>
<event>
 9    2  0.1325014E-004  0.2182282E+03  0.7546771E-02  0.1135937E+00
         21   -1    0    0  501  502  0.00000000000E+00  0.00000000000E+00  0.69680701282E+02  0.69680701282E+02  0.00000000000E+00 0.  1.
          2   -1    0    0  502    0 -0.00000000000E+00 -0.00000000000E+00 -0.88893588492E+03  0.88893588492E+03  0.00000000000E+00 0. -1.
         24    2    1    2    0    0 -0.19369898814E+03  0.31983026169E+02 -0.44613993229E+03  0.49426603527E+03  0.81950365869E+02 0.  0.
         23    2    1    2    0    0  0.18874682251E+03 -0.78932347266E+02 -0.26962139897E+03  0.35059757218E+03  0.91472839577E+02 0.  0.
        -11    1    3    3    0    0 -0.26057637790E+02 -0.11525607279E+02 -0.13685173057E+03  0.13978639515E+03  0.00000000000E+00 0.  1.
         12    1    3    3    0    0 -0.16764135035E+03  0.43508633447E+02 -0.30928820173E+03  0.35447964012E+03  0.00000000000E+00 0. -1.
        -11    1    4    4    0    0  0.12908971469E+03 -0.78735361503E+01 -0.13357998899E+03  0.18592945024E+03  0.00000000000E+00 0.  1.
         11    1    4    4    0    0  0.59657107823E+02 -0.71058811116E+02 -0.13604140998E+03  0.16466812193E+03  0.00000000000E+00 0. -1.
          1    1    1    2  501    0  0.49521656328E+01  0.46949321097E+02 -0.10349385238E+03  0.11375297875E+03  0.00000000000E+00 0. -1.
<scales pt_clust_5="13000.00000" pt_clust_6="13000.00000" pt_clust_7="13000.00000" pt_clust_8="13000.00000" pt_clust_9="47.20980"></scales>
<clustering>
<clus scale="   47.210">  1  9  2 -1</clus>
<clus scale="   81.950">  5  6 -1 -1</clus>
<clus scale="   91.473">  7  8 -1 -1</clus>
<clus scale="  214.411">  2  5  1 -1</clus>
<clus scale="   47.210">  1  5  2 -1</clus>
</clustering>
</event>
<event>
 9    2  0.1325014E-004  0.1466047E+03  0.7546771E-02  0.1226858E+00
         21   -1    0    0  501  502  0.00000000000E+00  0.00000000000E+00  0.87444189348E+02  0.87444189348E+02  0.00000000000E+00 0. -1.
          2   -1    0    0  502    0 -0.00000000000E+00 -0.00000000000E+00 -0.40702692942E+03  0.40702692942E+03  0.00000000000E+00 0. -1.
         24    2    1    2    0    0  0.40512792854E+02  0.57750882577E+01 -0.13573472306E+03  0.16384844085E+03  0.82144741140E+02 0.  0.
         23    2    1    2    0    0 -0.60022821681E+02 -0.10656004233E+03 -0.49960298345E+02  0.16190940220E+03  0.93599366270E+02 0.  0.
        -11    1    3    3    0    0  0.60184993667E+02 -0.25435349820E+01 -0.59467253698E+02  0.84646661454E+02  0.00000000000E+00 0.  1.
         12    1    3    3    0    0 -0.19672200813E+02  0.83186232397E+01 -0.76267469358E+02  0.79201779397E+02  0.00000000000E+00 0. -1.
        -11    1    4    4    0    0 -0.28780381697E+02 -0.46810532429E+02 -0.72361286778E+02  0.90860839426E+02  0.00000000000E+00 0.  1.
         11    1    4    4    0    0 -0.31242439984E+02 -0.59749509900E+02  0.22400988433E+02  0.71048562774E+02  0.00000000000E+00 0. -1.
          1    1    1    2  501    0  0.19510028827E+02  0.10078495407E+03 -0.13388771867E+03  0.16871327571E+03  0.00000000000E+00 0. -1.
<scales pt_clust_5="13000.00000" pt_clust_6="13000.00000" pt_clust_7="13000.00000" pt_clust_8="13000.00000" pt_clust_9="112.83661"></scales>
<clustering>
<clus scale="   82.145">  5  6 -1 -1</clus>
<clus scale="   91.774">  2  5  1 -1</clus>
<clus scale="   93.599">  7  8 -1 -1</clus>
<clus scale="  112.837">  1  9  2 -1</clus>
<clus scale="  112.837">  1  5  2 -1</clus>
</clustering>
</event>
<event>
 9    2  0.1325014E-004  0.9946012E+02  0.7546771E-02  0.1286889E+00
         21   -1    0    0  501  502  0.00000000000E+00  0.00000000000E+00  0.90096422378E+02  0.90096422378E+02  0.00000000000E+00 0. -1.
          2   -1    0    0  502    0 -0.00000000000E+00 -0.00000000000E+00 -0.46950400300E+03  0.46950400300E+03  0.00000000000E+00 0. -1.
         24    2    1    2    0    0  0.34886850113E+02  0.18459696348E+02 -0.33625048551E+03  0.34800710893E+03  0.80540090387E+02 0.  0.
         23    2    1    2    0    0  0.76369348741E+01 -0.84851859223E+02 -0.75433154427E+01  0.12508012160E+03  0.91268693553E+02 0.  0.
        -13    1    3    3    0    0 -0.11184593454E+02  0.31364191003E+02 -0.70303130300E+02  0.77790344761E+02  0.00000000000E+00 0.  1.
         14    1    3    3    0    0  0.46071443567E+02 -0.12904494655E+02 -0.26594735521E+03  0.27021676417E+03  0.00000000000E+00 0. -1.
        -11    1    4    4    0    0 -0.32761609194E+02 -0.51797527298E+02  0.21980522723E+02  0.65111060891E+02  0.00000000000E+00 0.  1.
         11    1    4    4    0    0  0.40398544068E+02 -0.33054331925E+02 -0.29523838166E+02  0.59969060706E+02  0.00000000000E+00 0. -1.
          1    1    1    2  501    0 -0.42523784987E+02  0.66392162875E+02 -0.35613779667E+02  0.86513194849E+02  0.00000000000E+00 0. -1.
<scales pt_clust_5="13000.00000" pt_clust_6="13000.00000" pt_clust_7="13000.00000" pt_clust_8="13000.00000" pt_clust_9="78.84283"></scales>
<clustering>
<clus scale="   78.843">  1  9  2 -1</clus>
<clus scale="   80.540">  5  6 -1 -1</clus>
<clus scale="   89.716">  2  5  1 -1</clus>
<clus scale="   91.269">  7  8 -1 -1</clus>
<clus scale="   78.843">  1  5  2 -1</clus>
</clustering>
</event>
<event>
 9    2  0.1325014E-004  0.1169420E+03  0.7546771E-02  0.1250378E+00
         21   -1    0    0  501  502  0.00000000000E+00  0.00000000000E+00  0.99280303907E+02  0.99280303907E+02  0.00000000000E+00 0.  1.
         -3   -1    0    0    0  501 -0.00000000000E+00 -0.00000000000E+00 -0.44938672392E+03  0.44938672392E+03  0.00000000000E+00 0.  1.
         23    2    1    2    0    0 -0.35705184183E+02 -0.72413864625E+02 -0.38745119796E+03  0.40582635253E+03  0.89766194291E+02 0.  0.
         24    2    1    2    0    0  0.22377685188E+02  0.37212258990E+02  0.64046761591E+01  0.94116295700E+02  0.83254694919E+02 0.  0.
        -11    1    4    4    0    0  0.42714603361E+02 -0.32378808498E+01  0.19382674111E+02  0.47018180190E+02  0.00000000000E+00 0.  1.
         12    1    4    4    0    0 -0.20336918172E+02  0.40450139839E+02 -0.12977997952E+02  0.47098115510E+02  0.00000000000E+00 0. -1.
        -13    1    3    3    0    0 -0.61681794122E+02 -0.36689962461E+02 -0.18113563430E+03  0.19483561041E+03  0.00000000000E+00 0.  1.
         13    1    3    3    0    0  0.25976609940E+02 -0.35723902164E+02 -0.20631556366E+03  0.21099074212E+03  0.00000000000E+00 0. -1.
         -4    1    1    2    0  502  0.13327498994E+02  0.35201605635E+02  0.30940101788E+02  0.48724379600E+02  0.00000000000E+00 0.  1.
<scales pt_clust_5="13000.00000" pt_clust_6="13000.00000" pt_clust_7="13000.00000" pt_clust_8="13000.00000" pt_clust_9="37.64008"></scales>
<clustering>
<clus scale="   37.640">  1  9  2 -1</clus>
<clus scale="   83.255">  5  6 -1 -1</clus>
<clus scale="   89.766">  7  8 -1 -1</clus>
<clus scale="  112.021">  1  5  2 -1</clus>
<clus scale="   37.640">  1  5  2 -1</clus>
</clustering>
</event>
<event>
 9    2  0.1325014E-004  0.1009020E+03  0.7546771E-02  0.1283656E+00
         -1   -1    0    0    0  501 -0.00000000000E+00  0.00000000000E+00  0.96896541236E+02  0.96896541236E+02  0.00000000000E+00 0.  1.
         21   -1    0    0  501  502  0.00000000000E+00 -0.00000000000E+00 -0.24192440964E+03  0.24192440964E+03  0.00000000000E+00 0.  1.
         24    2    1    2    0    0 -0.61500515526E+01  0.37453519835E+02  0.49293363379E+01  0.89623810043E+02  0.81040358389E+02 0.  0.
         23    2    1    2    0    0  0.71284842895E+02 -0.36066401100E+02 -0.13623382380E+03  0.18261789237E+03  0.91691470435E+02 0.  0.
        -13    1    3    3    0    0 -0.38805751080E+02  0.22613649365E+02  0.21869498921E+02  0.49955364452E+02  0.00000000000E+00 0.  1.
         14    1    3    3    0    0  0.32655699528E+02  0.14839870471E+02 -0.16940162584E+02  0.39668445591E+02  0.00000000000E+00 0. -1.
        -11    1    4    4    0    0  0.93595523901E+02 -0.26315365281E+02 -0.10705768599E+03  0.14461662655E+03  0.00000000000E+00 0.  1.
         11    1    4    4    0    0 -0.22310681006E+02 -0.97510358190E+01 -0.29176137804E+02  0.38001265816E+02  0.00000000000E+00 0. -1.
         -2    1    1    2    0  502 -0.65134791343E+02 -0.13871187354E+01 -0.13723380941E+02  0.66579248464E+02  0.00000000000E+00 0.  1.
<scales pt_clust_5="13000.00000" pt_clust_6="13000.00000" pt_clust_7="13000.00000" pt_clust_8="13000.00000" pt_clust_9="65.14959"></scales>
<clustering>
<clus scale="   65.150">  2  9  1 -1</clus>
<clus scale="   81.040">  5  6 -1 -1</clus>
<clus scale="   91.331">  1  5  2 -1</clus>
<clus scale="   91.691">  7  8 -1 -1</clus>
<clus scale="   65.150">  2  5  1 -1</clus>
</clustering>
</event>
<event>
 9    2  0.1325014E-004  0.1031234E+03  0.7546771E-02  0.1283201E+00
         21   -1    0    0  501  502  0.00000000000E+00  0.00000000000E+00  0.22818159728E+02  0.22818159728E+02  0.00000000000E+00 0. -1.
          2   -1    0    0  502    0 -0.00000000000E+00 -0.00000000000E+00 -0.62223472485E+03  0.62223472485E+03  0.00000000000E+00 0. -1.
         24    2    1    2    0    0 -0.47453256535E+01  0.23519492906E+02 -0.17033220146E+03  0.18800114775E+03  0.75866250986E+02 0.  0.
         23    2    1    2    0    0  0.23026389903E+02 -0.59318766349E+02 -0.27224431703E+03  0.29514254772E+03  0.94568624017E+02 0.  0.
        -13    1    3    3    0    0 -0.36403001502E+02  0.13080803410E+02 -0.13023147751E+03  0.13585478891E+03  0.00000000000E+00 0.  1.
         14    1    3    3    0    0  0.31657675849E+02  0.10438689496E+02 -0.40100723950E+02  0.52146358836E+02  0.00000000000E+00 0. -1.
        -13    1    4    4    0    0 -0.25750577089E+02 -0.45494969449E+02 -0.74560637081E+02  0.91061369787E+02  0.00000000000E+00 0. -1.
         13    1    4    4    0    0  0.48776966992E+02 -0.13823796899E+02 -0.19768367995E+03  0.20408117793E+03  0.00000000000E+00 0.  1.
          1    1    1    2  501    0 -0.18281064250E+02  0.35799273442E+02 -0.15684004663E+03  0.16190918911E+03  0.00000000000E+00 0. -1.
<scales pt_clust_5="13000.00000" pt_clust_6="13000.00000" pt_clust_7="13000.00000" pt_clust_8="13000.00000" pt_clust_9="40.19685"></scales>
<clustering>
<clus scale="   40.197">  1  9  2 -1</clus>
<clus scale="   75.866">  5  6 -1 -1</clus>
<clus scale="   86.295">  2  5  1 -1</clus>
<clus scale="   94.569">  7  8 -1 -1</clus>
<clus scale="   40.197">  1  5  2 -1</clus>
</clustering>
</event>
<event>
 9    2  0.1325014E-004  0.1073632E+03  0.7546771E-02  0.1269340E+00
         21   -1    0    0  501  502  0.00000000000E+00  0.00000000000E+00  0.70829290843E+02  0.70829290843E+02  0.00000000000E+00 0.  1.
          2   -1    0    0  502    0 -0.00000000000E+00 -0.00000000000E+00 -0.46067965382E+03  0.46067965382E+03  0.00000000000E+00 0. -1.
         23    2    1    2    0    0  0.19796627488E+02 -0.57468526488E+02 -0.37641572534E+03  0.39187693303E+03  0.90466537257E+02 0.  0.
         24    2    1    2    0    0 -0.12387810232E+02  0.32812968281E+02  0.26278038826E+02  0.92304601015E+02  0.81237031668E+02 0.  0.
        -13    1    4    4    0    0  0.66540271400E+01 -0.21985238530E+02  0.25454458235E+02  0.34286385555E+02  0.00000000000E+00 0.  1.
         14    1    4    4    0    0 -0.19041837372E+02  0.54798206810E+02  0.82358059149E+00  0.58018215460E+02  0.00000000000E+00 0. -1.
        -13    1    3    3    0    0  0.55388281096E+02 -0.33691924207E+02 -0.25594927035E+03  0.26403226400E+03  0.00000000000E+00 0.  1.
         13    1    3    3    0    0 -0.35591653608E+02 -0.23776602281E+02 -0.12046645499E+03  0.12784466903E+03  0.00000000000E+00 0. -1.
          1    1    1    2  501    0 -0.74088172559E+01  0.24655558208E+02 -0.39712676466E+02  0.47327410617E+02  0.00000000000E+00 0. -1.
<scales pt_clust_5="13000.00000" pt_clust_6="13000.00000" pt_clust_7="13000.00000" pt_clust_8="13000.00000" pt_clust_9="25.74467"></scales>
<clustering>
<clus scale="   25.745">  1  9  2 -1</clus>
<clus scale="   81.237">  5  6 -1 -1</clus>
<clus scale="   90.467">  7  8 -1 -1</clus>
<clus scale="   99.710">  1  5  2 -1</clus>
<clus scale="   25.745">  1  5  2 -1</clus>
</clustering>
</event>
<event>
 9    2  0.1325014E-004  0.2058662E+03  0.7546771E-02  0.1175802E+00
         21   -1    0    0  501  502  0.00000000000E+00  0.00000000000E+00  0.37853891860E+02  0.37853891860E+02  0.00000000000E+00 0.  1.
          2   -1    0    0  502    0 -0.00000000000E+00 -0.00000000000E+00 -0.16976120023E+04  0.16976120023E+04  0.00000000000E+00 0. -1.
         23    2    1    2    0    0  0.37714277800E+02 -0.12016162892E+02 -0.24195565340E+03  0.26190502605E+03  0.92113785816E+02 0.  0.
         24    2    1    2    0    0 -0.12647255784E+03 -0.15093699839E+03 -0.64588924700E+03  0.67965799692E+03  0.77361411682E+02 0.  0.
        -13    1    4    4    0    0 -0.12897992387E+03 -0.13810218556E+03 -0.63537000386E+03  0.66287485713E+03  0.00000000000E+00 0.  1.
         14    1    4    4    0    0  0.25073660301E+01 -0.12834812831E+02 -0.10519243143E+02  0.16783139787E+02  0.00000000000E+00 0. -1.
        -13    1    3    3    0    0 -0.20925868138E+02  0.23465828392E+02 -0.85387932001E+02  0.90992505136E+02  0.00000000000E+00 0.  1.
         13    1    3    3    0    0  0.58640145938E+02 -0.35481991285E+02 -0.15656772140E+03  0.17091252091E+03  0.00000000000E+00 0. -1.
          1    1    1    2  501    0  0.88758280041E+02  0.16295316128E+03 -0.77191321004E+03  0.79390287119E+03  0.00000000000E+00 0. -1.
<scales pt_clust_5="13000.00000" pt_clust_6="13000.00000" pt_clust_7="13000.00000" pt_clust_8="13000.00000" pt_clust_9="190.77770"></scales>
<clustering>
<clus scale="   77.361">  5  6 -1 -1</clus>
<clus scale="   92.114">  7  8 -1 -1</clus>
<clus scale="  100.258">  2  7  1 -1</clus>
<clus scale="  190.778">  1  9  2 -1</clus>
<clus scale="  190.778">  1  5  2 -1</clus>
</clustering>
</event>
<event>
 9    2  0.1366426E-004  0.1417777E+03  0.7546771E-02  0.1234582E+00
          2   -1    0    0  502    0 -0.00000000000E+00  0.00000000000E+00  0.45850078261E+03  0.45850078261E+03  0.00000000000E+00 0. -1.
         21   -1    0    0  501  502  0.00000000000E+00 -0.00000000000E+00 -0.51759953383E+03  0.51759953383E+03  0.00000000000E+00 0.  1.
         24    2    1    2    0    0  0.15658904373E+02  0.28283361830E+02  0.34486081526E+03  0.35554994663E+03  0.80259783235E+02 0.  0.
         23    2    1    2    0    0  0.10722616941E+03 -0.22799108031E+02 -0.46307490657E+03  0.48407531043E+03  0.88731540855E+02 0.  0.
        -13    1    3    3    0    0 -0.31626574320E+02  0.17209776558E+02  0.11078393561E+03  0.11648818396E+03  0.00000000000E+00 0.  1.
         14    1    3    3    0    0  0.47285478693E+02  0.11073585272E+02  0.23407687965E+03  0.23906176267E+03  0.00000000000E+00 0. -1.
        -11    1    4    4    0    0  0.83860035774E+02 -0.54270068307E+02 -0.29361028361E+03  0.31013665465E+03  0.00000000000E+00 0.  1.
         11    1    4    4    0    0  0.23366133641E+02  0.31470960276E+02 -0.16946462296E+03  0.17393865578E+03  0.00000000000E+00 0. -1.
          1    1    1    2  501    0 -0.12288507379E+03 -0.54842537995E+01  0.59115340091E+02  0.13647505938E+03  0.00000000000E+00 0. -1.
<scales pt_clust_5="13000.00000" pt_clust_6="13000.00000" pt_clust_7="13000.00000" pt_clust_8="13000.00000" pt_clust_9="110.57866"></scales>
<clustering>
<clus scale="   80.260">  5  6 -1 -1</clus>
<clus scale="   86.526">  1  5  2 -1</clus>
<clus scale="   88.732">  7  8 -1 -1</clus>
<clus scale="  110.579">  2  9  1 -1</clus>
<clus scale="  110.579">  2  5  1 -1</clus>
</clustering>
</event>
<event>
 9    2  0.1325014E-004  0.3300880E+03  0.7546771E-02  0.1071522E+00
         21   -1    0    0  501  502  0.00000000000E+00  0.00000000000E+00  0.96348571041E+03  0.96348571041E+03  0.00000000000E+00 0. -1.
          2   -1    0    0  502    0 -0.00000000000E+00 -0.00000000000E+00 -0.18729514946E+03  0.18729514946E+03  0.00000000000E+00 0. -1.
         24    2    1    2    0    0 -0.33089632300E+03  0.20214166697E+02  0.14516128650E+03  0.36989342420E+03  0.76474551686E+02 0.  0.
         23    2    1    2    0    0  0.27980459823E+03 -0.12752772473E+03  0.34471507092E+03  0.47088358534E+03  0.91372518040E+02 0.  0.
        -11    1    3    3    0    0 -0.19149208094E+03 -0.20970077158E+02  0.10349943740E+03  0.21868034832E+03  0.00000000000E+00 0.  1.
         12    1    3    3    0    0 -0.13940424206E+03  0.41184243855E+02  0.41661849106E+02  0.15121307588E+03  0.00000000000E+00 0. -1.
        -13    1    4    4    0    0  0.20629208042E+03 -0.69344830650E+02  0.28915367777E+03  0.36190465229E+03  0.00000000000E+00 0.  1.
         13    1    4    4    0    0  0.73512517814E+02 -0.58182894081E+02  0.55561393147E+02  0.10897893304E+03  0.00000000000E+00 0. -1.
          1    1    1    2  501    0  0.51091724764E+02  0.10731355803E+03  0.28631420353E+03  0.31000385033E+03  0.00000000000E+00 0. -1.
<scales pt_clust_5="13000.00000" pt_clust_6="13000.00000" pt_clust_7="13000.00000" pt_clust_8="13000.00000" pt_clust_9="118.85522"></scales>
<clustering>
<clus scale="   76.475">  5  6 -1 -1</clus>
<clus scale="   91.373">  7  8 -1 -1</clus>
<clus scale="  118.855">  1  9  2 -1</clus>
<clus scale="  326.278">  2  5  1 -1</clus>
<clus scale="  118.855">  1  5  2 -1</clus>
</clustering>
</event>
<event>
 9    2  0.1325014E-004  0.1005402E+03  0.7546771E-02  0.1283943E+00
          2   -1    0    0  502    0 -0.00000000000E+00  0.00000000000E+00  0.17071808095E+03  0.17071808095E+03  0.00000000000E+00 0. -1.
         21   -1    0    0  501  502  0.00000000000E+00 -0.00000000000E+00 -0.18987559904E+03  0.18987559904E+03  0.00000000000E+00 0.  1.
         24    2    1    2    0    0 -0.37811051090E+02 -0.34373648152E+02  0.90775583771E+02  0.13390207645E+03  0.84132848507E+02 0.  0.
         23    2    1    2    0    0 -0.16504594436E+02 -0.37111708661E+02 -0.86902689481E+02  0.13400532903E+03  0.93571738316E+02 0.  0.
        -13    1    3    3    0    0  0.87078143724E+01 -0.48825083508E+02  0.49209760660E+02  0.69866410777E+02  0.00000000000E+00 0.  1.
         14    1    3    3    0    0 -0.46518865462E+02  0.14451435356E+02  0.41565823111E+02  0.64035665676E+02  0.00000000000E+00 0. -1.
        -11    1    4    4    0    0 -0.27710478999E+02 -0.17846977009E+02  0.10101741145E+02  0.34473619027E+02  0.00000000000E+00 0. -1.
         11    1    4    4    0    0  0.11205884563E+02 -0.19264731652E+02 -0.97004430626E+02  0.99531710000E+02  0.00000000000E+00 0.  1.
          1    1    1    2  501    0  0.54315645525E+02  0.71485356813E+02 -0.23030412386E+02  0.92686274508E+02  0.00000000000E+00 0. -1.
<scales pt_clust_5="13000.00000" pt_clust_6="13000.00000" pt_clust_7="13000.00000" pt_clust_8="13000.00000" pt_clust_9="89.77943"></scales>
<clustering>
<clus scale="   84.133">  5  6 -1 -1</clus>
<clus scale="   89.779">  2  9  1 -1</clus>
<clus scale="   91.820">  1  5  2 -1</clus>
<clus scale="   93.572">  7  8 -1 -1</clus>
<clus scale="   89.779">  2  5  1 -1</clus>
</clustering>
</event>
<event>
 9    2  0.1325014E-004  0.9279021E+02  0.7546771E-02  0.1302781E+00
          2   -1    0    0  502    0 -0.00000000000E+00  0.00000000000E+00  0.33563380200E+03  0.33563380200E+03  0.00000000000E+00 0. -1.
         21   -1    0    0  501  502  0.00000000000E+00 -0.00000000000E+00 -0.97529400588E+02  0.97529400588E+02  0.00000000000E+00 0. -1.
         24    2    1    2    0    0  0.14563479358E+02 -0.14250542895E+02  0.26054849781E+03  0.27358541492E+03  0.80921484427E+02 0.  0.
         23    2    1    2    0    0  0.30287632490E+01 -0.28010942912E+02  0.19110670426E+02  0.97752883062E+02  0.91633084053E+02 0.  0.
        -11    1    3    3    0    0  0.26425327198E+02  0.24372272297E+02  0.17903090806E+03  0.18260441292E+03  0.00000000000E+00 0.  1.
         12    1    3    3    0    0 -0.11861847840E+02 -0.38622815192E+02  0.81517589749E+02  0.90981002006E+02  0.00000000000E+00 0. -1.
        -11    1    4    4    0    0 -0.25884940931E+02  0.83267140989E+01 -0.22581774886E+02  0.35345450792E+02  0.00000000000E+00 0.  1.
         11    1    4    4    0    0  0.28913704180E+02 -0.36337657011E+02  0.41692445312E+02  0.62407432270E+02  0.00000000000E+00 0. -1.
          1    1    1    2  501    0 -0.17592242607E+02  0.42261485807E+02 -0.41554766829E+02  0.61824904600E+02  0.00000000000E+00 0. -1.
<scales pt_clust_5="13000.00000" pt_clust_6="13000.00000" pt_clust_7="13000.00000" pt_clust_8="13000.00000" pt_clust_9="45.77685"></scales>
<clustering>
<clus scale="   45.777">  2  9  1 -1</clus>
<clus scale="   80.921">  5  6 -1 -1</clus>
<clus scale="   82.229">  1  5  2 -1</clus>
<clus scale="   91.633">  7  8 -1 -1</clus>
<clus scale="   45.777">  2  5  1 -1</clus>
</clustering>
</event>
<event>
 9    2  0.1325014E-004  0.1098649E+03  0.7546771E-02  0.1265751E+00
         -1   -1    0    0    0  501 -0.00000000000E+00  0.00000000000E+00  0.11395959031E+03  0.11395959031E+03  0.00000000000E+00 0.  1.
         21   -1    0    0  501  502  0.00000000000E+00 -0.00000000000E+00 -0.18611777769E+03  0.18611777769E+03  0.00000000000E+00 0. -1.
         24    2    1    2    0    0 -0.61629620227E+02 -0.26157829448E+02  0.42548119381E+02  0.11127173249E+03  0.78029570410E+02 0.  0.
         23    2    1    2    0    0  0.45989218534E+02 -0.11171277732E+00 -0.12058383067E+03  0.15767275416E+03  0.90582650006E+02 0.  0.
        -13    1    3    3    0    0 -0.35443848110E+02 -0.35555213889E+02  0.60151378231E+02  0.78349396339E+02  0.00000000000E+00 0.  1.
         14    1    3    3    0    0 -0.26185772118E+02  0.93973844416E+01 -0.17603258850E+02  0.32922336155E+02  0.00000000000E+00 0. -1.
        -13    1    4    4    0    0  0.26696503781E+02  0.18937485002E+02 -0.12586461713E+03  0.13005088811E+03  0.00000000000E+00 0. -1.
         13    1    4    4    0    0  0.19292714754E+02 -0.19049197779E+02  0.52807864536E+01  0.27621866051E+02  0.00000000000E+00 0.  1.
         -2    1    1    2    0  502  0.15640401693E+02  0.26269542225E+02  0.58775239050E+01  0.31132881349E+02  0.00000000000E+00 0.  1.
<scales pt_clust_5="13000.00000" pt_clust_6="13000.00000" pt_clust_7="13000.00000" pt_clust_8="13000.00000" pt_clust_9="30.57306"></scales>
<clustering>
<clus scale="   30.573">  2  9  1 -1</clus>
<clus scale="   78.030">  5  6 -1 -1</clus>
<clus scale="   90.583">  7  8 -1 -1</clus>
<clus scale="   99.768">  1  5  2 -1</clus>
<clus scale="   30.573">  2  5  1 -1</clus>
</clustering>
</event>
<event>
 9    2  0.1325014E-004  0.1741392E+03  0.7546771E-02  0.1200340E+00
          2   -1    0    0  502    0 -0.00000000000E+00  0.00000000000E+00  0.43504364052E+03  0.43504364052E+03  0.00000000000E+00 0. -1.
         21   -1    0    0  501  502  0.00000000000E+00 -0.00000000000E+00 -0.17591332940E+03  0.17591332940E+03  0.00000000000E+00 0. -1.
         24    2    1    2    0    0  0.41264404007E+02 -0.34105951791E+02  0.44992570432E+02  0.10615143246E+03  0.79861306234E+02 0.  0.
         23    2    1    2    0    0  0.13248676395E+03 -0.43074863948E+02 -0.54487587545E+02  0.17570689927E+03  0.92172830757E+02 0.  0.
        -11    1    3    3    0    0  0.65176109572E+02 -0.30180307806E+02  0.35597270897E+02  0.80161973114E+02  0.00000000000E+00 0.  1.
         12    1    3    3    0    0 -0.23911705564E+02 -0.39256439850E+01  0.93952995345E+01  0.25989459345E+02  0.00000000000E+00 0. -1.
        -13    1    4    4    0    0  0.23640611723E+02 -0.33527377742E+02  0.17774483281E+02  0.44709012926E+02  0.00000000000E+00 0.  1.
         13    1    4    4    0    0  0.10884615223E+03 -0.95474862060E+01 -0.72262070826E+02  0.13099788635E+03  0.00000000000E+00 0. -1.
          1    1    1    2  501    0 -0.17375116796E+03  0.77180815739E+02  0.26862532824E+03  0.32909863819E+03  0.00000000000E+00 0. -1.
<scales pt_clust_5="13000.00000" pt_clust_6="13000.00000" pt_clust_7="13000.00000" pt_clust_8="13000.00000" pt_clust_9="147.74519"></scales>
<clustering>
<clus scale="   79.861">  5  6 -1 -1</clus>
<clus scale="   92.173">  7  8 -1 -1</clus>
<clus scale="   96.145">  1  5  2 -1</clus>
<clus scale="  147.745">  2  9  1 -1</clus>
<clus scale="  147.745">  2  5  1 -1</clus>
</clustering>
</event>
<event>
 9    2  0.1325014E-004  0.1122503E+03  0.7546771E-02  0.1260304E+00
         21   -1    0    0  501  502  0.00000000000E+00  0.00000000000E+00  0.13992800275E+03  0.13992800275E+03  0.00000000000E+00 0.  1.
          2   -1    0    0  502    0 -0.00000000000E+00 -0.00000000000E+00 -0.20995705448E+03  0.20995705448E+03  0.00000000000E+00 0. -1.
         23    2    1    2    0    0  0.25725904056E+02 -0.65482250744E+02 -0.16136570466E+03  0.19802341145E+03  0.90689765341E+02 0.  0.
         24    2    1    2    0    0 -0.26279079751E+02  0.39750533901E+02  0.58764858616E+02  0.11034840645E+03  0.80329118130E+02 0.  0.
        -13    1    4    4    0    0 -0.54956827723E+02  0.20934318697E+02  0.41267298786E+02  0.71843500484E+02  0.00000000000E+00 0.  1.
         14    1    4    4    0    0  0.28677747972E+02  0.18816215204E+02  0.17497559830E+02  0.38504905964E+02  0.00000000000E+00 0. -1.
        -13    1    3    3    0    0 -0.10380724018E+02  0.17110670525E+02 -0.11346171346E+02  0.23005870580E+02  0.00000000000E+00 0.  1.
         13    1    3    3    0    0  0.36106628073E+02 -0.82592921268E+02 -0.15001953332E+03  0.17501754087E+03  0.00000000000E+00 0. -1.
          1    1    1    2  501    0  0.55317569544E+00  0.25731716843E+02  0.32571794321E+02  0.41513239338E+02  0.00000000000E+00 0. -1.
<scales pt_clust_5="13000.00000" pt_clust_6="13000.00000" pt_clust_7="13000.00000" pt_clust_8="13000.00000" pt_clust_9="25.73766"></scales>
<clustering>
<clus scale="   25.738">  1  9  2 -1</clus>
<clus scale="   80.329">  5  6 -1 -1</clus>
<clus scale="   90.690">  7  8 -1 -1</clus>
<clus scale="  104.059">  1  5  2 -1</clus>
<clus scale="   25.738">  1  5  2 -1</clus>
</clustering>
</event>
<event>
 9    2  0.1325014E-004  0.1334985E+03  0.7546771E-02  0.1224413E+00
         -1   -1    0    0    0  501 -0.00000000000E+00  0.00000000000E+00  0.29535971076E+03  0.29535971076E+03  0.00000000000E+00 0.  1.
         21   -1    0    0  501  502  0.00000000000E+00 -0.00000000000E+00 -0.84005487492E+02  0.84005487492E+02  0.00000000000E+00 0.  1.
         24    2    1    2    0    0 -0.96154882619E+02 -0.51499899996E+02  0.16879100684E+03  0.21669615642E+03  0.81048251488E+02 0.  0.
         23    2    1    2    0    0  0.59915044502E+02  0.53602859965E+02  0.28501099233E+02  0.12373972836E+03  0.89644456395E+02 0.  0.
        -11    1    3    3    0    0 -0.25558169353E+02 -0.26973508022E+02  0.12426496399E+03  0.12970185593E+03  0.00000000000E+00 0.  1.
         12    1    3    3    0    0 -0.70596713266E+02 -0.24526391975E+02  0.44526042845E+02  0.86994300495E+02  0.00000000000E+00 0. -1.
        -11    1    4    4    0    0  0.82079678446E+02  0.35932447286E+02  0.32076320106E+02  0.95168822065E+02  0.00000000000E+00 0. -1.
         11    1    4    4    0    0 -0.22164633943E+02  0.17670412680E+02 -0.35752208737E+01  0.28570906293E+02  0.00000000000E+00 0.  1.
         -2    1    1    2    0  502  0.36239838117E+02 -0.21029599690E+01  0.14062117204E+02  0.38929313474E+02  0.00000000000E+00 0.  1.
<scales pt_clust_5="13000.00000" pt_clust_6="13000.00000" pt_clust_7="13000.00000" pt_clust_8="13000.00000" pt_clust_9="36.30080"></scales>
<clustering>
<clus scale="   36.301">  2  9  1 -1</clus>
<clus scale="   81.048">  5  6 -1 -1</clus>
<clus scale="   89.644">  7  8 -1 -1</clus>
<clus scale="  127.885">  1  5  2 -1</clus>
<clus scale="   36.301">  2  5  1 -1</clus>
</clustering>
</event>
<event>
 9    2  0.1325014E-004  0.1557970E+03  0.7546771E-02  0.1207776E+00
         -3   -1    0    0    0  501 -0.00000000000E+00  0.00000000000E+00  0.55804386961E+03  0.55804386961E+03  0.00000000000E+00 0.  1.
         21   -1    0    0  501  502  0.00000000000E+00 -0.00000000000E+00 -0.20716593257E+03  0.20716593257E+03  0.00000000000E+00 0.  1.
         23    2    1    2    0    0  0.55332423084E+02 -0.37591039388E+02  0.35029043366E+03  0.36848660868E+03  0.92758986482E+02 0.  0.
         24    2    1    2    0    0  0.67437415875E+02 -0.93320557591E+02 -0.11233536398E+03  0.18468109025E+03  0.90726730158E+02 0.  0.
        -11    1    4    4    0    0  0.44938013739E+02  0.53229266480E+01 -0.30795549577E+02  0.54736866011E+02  0.00000000000E+00 0.  1.
         12    1    4    4    0    0  0.22499402135E+02 -0.98643484239E+02 -0.81539814405E+02  0.12994422424E+03  0.00000000000E+00 0. -1.
        -13    1    3    3    0    0  0.49277233987E+02  0.12927603181E+02  0.25911006983E+03  0.26407081816E+03  0.00000000000E+00 0.  1.
         13    1    3    3    0    0  0.60551890971E+01 -0.50518642569E+02  0.91180363829E+02  0.10441579052E+03  0.00000000000E+00 0. -1.
         -4    1    1    2    0  502 -0.12276983896E+03  0.13091159698E+03  0.11292286736E+03  0.21204210326E+03  0.00000000000E+00 0.  1.
<scales pt_clust_5="13000.00000" pt_clust_6="13000.00000" pt_clust_7="13000.00000" pt_clust_8="13000.00000" pt_clust_9="126.65453"></scales>
<clustering>
<clus scale="   90.727">  5  6 -1 -1</clus>
<clus scale="   92.759">  7  8 -1 -1</clus>
<clus scale="  114.363">  1  7  2 -1</clus>
<clus scale="  126.655">  2  9  1 -1</clus>
<clus scale="  126.655">  2  5  1 -1</clus>
</clustering>
</event>
<event>
 9    2  0.1325014E-004  0.3518964E+03  0.7546771E-02  0.1105855E+00
          2   -1    0    0  502    0 -0.00000000000E+00  0.00000000000E+00  0.75931795884E+03  0.75931795884E+03  0.00000000000E+00 0. -1.
         21   -1    0    0  501  502  0.00000000000E+00 -0.00000000000E+00 -0.40959747951E+03  0.40959747951E+03  0.00000000000E+00 0. -1.
         24    2    1    2    0    0 -0.39439298196E+02 -0.63312790094E+02  0.40071050520E+03  0.41511105451E+03  0.78640390161E+02 0.  0.
         23    2    1    2    0    0 -0.12865335772E+03 -0.25877092417E+03  0.15142889487E+03  0.33791199460E+03  0.87975725293E+02 0.  0.
        -11    1    3    3    0    0 -0.16302436403E+02  0.16618246820E+02  0.59291142934E+02  0.63697528919E+02  0.00000000000E+00 0.  1.
         12    1    3    3    0    0 -0.23136861793E+02 -0.79931036914E+02  0.34141936226E+03  0.35141352559E+03  0.00000000000E+00 0. -1.
        -13    1    4    4    0    0 -0.30921436764E+02 -0.14500180180E+02  0.38888813857E+02  0.51756451965E+02  0.00000000000E+00 0.  1.
         13    1    4    4    0    0 -0.97731920959E+02 -0.24427074399E+03  0.11254008101E+03  0.28615554263E+03  0.00000000000E+00 0. -1.
          1    1    1    2  501    0  0.16809265592E+03  0.32208371427E+03 -0.20241892074E+03  0.41589238926E+03  0.00000000000E+00 0. -1.
<scales pt_clust_5="13000.00000" pt_clust_6="13000.00000" pt_clust_7="13000.00000" pt_clust_8="13000.00000" pt_clust_9="340.72178"></scales>
<clustering>
<clus scale="   78.640">  5  6 -1 -1</clus>
<clus scale="   87.976">  7  8 -1 -1</clus>
<clus scale="  108.389">  1  5  2 -1</clus>
<clus scale="  340.722">  2  9  1 -1</clus>
<clus scale="  340.722">  2  5  1 -1</clus>
</clustering>
</event>
<event>
 9    2  0.1325014E-004  0.2269841E+03  0.7546771E-02  0.1129586E+00
         21   -1    0    0  501  502  0.00000000000E+00  0.00000000000E+00  0.15620165520E+03  0.15620165520E+03  0.00000000000E+00 0. -1.
          2   -1    0    0  502    0 -0.00000000000E+00 -0.00000000000E+00 -0.86584564101E+03  0.86584564101E+03  0.00000000000E+00 0. -1.
         23    2    1    2    0    0 -0.18789630184E+03 -0.56408987887E+02 -0.50103243113E+03  0.54572302427E+03  0.91066613063E+02 0.  0.
         24    2    1    2    0    0  0.24074044402E+03  0.13621820073E+03 -0.51468224561E+02  0.29232416319E+03  0.79328926945E+02 0.  0.
        -13    1    4    4    0    0  0.11964739865E+03  0.35465787989E+02  0.52354619889E+01  0.12490289101E+03  0.00000000000E+00 0.  1.
         14    1    4    4    0    0  0.12109304537E+03  0.10075241274E+03 -0.56703686550E+02  0.16742127218E+03  0.00000000000E+00 0. -1.
        -13    1    3    3    0    0 -0.15990225009E+03 -0.16750506485E+02 -0.31760244176E+03  0.35597839831E+03  0.00000000000E+00 0. -1.
         13    1    3    3    0    0 -0.27994051752E+02 -0.39658481402E+02 -0.18342998937E+03  0.18974462596E+03  0.00000000000E+00 0.  1.
          1    1    1    2  501    0 -0.52844142174E+02 -0.79809212842E+02 -0.15714333012E+03  0.18400010875E+03  0.00000000000E+00 0. -1.
<scales pt_clust_5="13000.00000" pt_clust_6="13000.00000" pt_clust_7="13000.00000" pt_clust_8="13000.00000" pt_clust_9="95.71846"></scales>
<clustering>
<clus scale="   79.329">  5  6 -1 -1</clus>
<clus scale="   91.067">  7  8 -1 -1</clus>
<clus scale="   95.718">  1  9  2 -1</clus>
<clus scale="  222.535">  1  5  2 -1</clus>
<clus scale="   95.718">  1  5  2 -1</clus>
</clustering>
</event>
<event>
 9    2  0.1325014E-004  0.1468875E+03  0.7546771E-02  0.1226964E+00
          2   -1    0    0  502    0 -0.00000000000E+00  0.00000000000E+00  0.20767324709E+03  0.20767324709E+03  0.00000000000E+00 0. -1.
         21   -1    0    0  501  502  0.00000000000E+00 -0.00000000000E+00 -0.22571041208E+03  0.22571041208E+03  0.00000000000E+00 0. -1.
         23    2    1    2    0    0 -0.49146970660E-02  0.14613779662E+01 -0.10581653861E+03  0.13959188632E+03  0.91030869677E+02 0.  0.
         24    2    1    2    0    0 -0.84827142144E+02  0.87783064531E+02  0.87890913427E+02  0.17066151326E+03  0.80616555262E+02 0.  0.
        -11    1    4    4    0    0 -0.22959359961E+02 -0.14207753083E+02  0.15995142564E+02  0.31382113427E+02  0.00000000000E+00 0.  1.
         12    1    4    4    0    0 -0.61867782183E+02  0.10199081761E+03  0.71895770862E+02  0.13927939983E+03  0.00000000000E+00 0. -1.
        -13    1    3    3    0    0  0.16834717553E+02 -0.35792993336E+02 -0.19537186700E+02  0.44116298022E+02  0.00000000000E+00 0.  1.
         13    1    3    3    0    0 -0.16839632250E+02  0.37254371302E+02 -0.86279351907E+02  0.95475588299E+02  0.00000000000E+00 0. -1.
          1    1    1    2  501    0  0.84832056841E+02 -0.89244442497E+02 -0.11153981493E+00  0.12313025959E+03  0.00000000000E+00 0. -1.
<scales pt_clust_5="13000.00000" pt_clust_6="13000.00000" pt_clust_7="13000.00000" pt_clust_8="13000.00000" pt_clust_9="122.78806"></scales>
<clustering>
<clus scale="   80.617">  5  6 -1 -1</clus>
<clus scale="   91.031">  7  8 -1 -1</clus>
<clus scale="   91.043">  1  7  2 -1</clus>
<clus scale="  122.788">  2  9  1 -1</clus>
<clus scale="  122.788">  2  5  1 -1</clus>
</clustering>
</event>
<event>
 9    2  0.1325014E-004  0.1089028E+03  0.7546771E-02  0.1266821E+00
          2   -1    0    0  502    0 -0.00000000000E+00  0.00000000000E+00  0.47397153096E+03  0.47397153096E+03  0.00000000000E+00 0. -1.
         21   -1    0    0  501  502  0.00000000000E+00 -0.00000000000E+00 -0.48430216852E+02  0.48430216852E+02  0.00000000000E+00 0. -1.
         24    2    1    2    0    0 -0.50174382766E+02  0.17670824167E+02  0.24539846398E+03  0.26368718621E+03  0.80503411956E+02 0.  0.
         23    2    1    2    0    0  0.83885903624E+02 -0.22450891452E+02  0.71078400950E+02  0.14445884071E+03  0.90968842047E+02 0.  0.
        -13    1    3    3    0    0 -0.38702465147E+02  0.44495374693E+02  0.10630269876E+03  0.12156472738E+03  0.00000000000E+00 0.  1.
         14    1    3    3    0    0 -0.11471917619E+02 -0.26824550526E+02  0.13909576522E+03  0.14212245884E+03  0.00000000000E+00 0. -1.
        -11    1    4    4    0    0  0.19967359035E+02 -0.51735140588E+02  0.31171558824E+02  0.63615141892E+02  0.00000000000E+00 0.  1.
         11    1    4    4    0    0  0.63918544589E+02  0.29284249136E+02  0.39906842127E+02  0.80843698816E+02  0.00000000000E+00 0. -1.
          1    1    1    2  501    0 -0.33711520857E+02  0.47800672853E+01  0.10906444918E+03  0.11425572089E+03  0.00000000000E+00 0. -1.
<scales pt_clust_5="13000.00000" pt_clust_6="13000.00000" pt_clust_7="13000.00000" pt_clust_8="13000.00000" pt_clust_9="34.04874"></scales>
<clustering>
<clus scale="   34.049">  2  9  1 -1</clus>
<clus scale="   80.503">  5  6 -1 -1</clus>
<clus scale="   90.969">  7  8 -1 -1</clus>
<clus scale="  100.326">  1  5  2 -1</clus>
<clus scale="   34.049">  2  5  1 -1</clus>
</clustering>
</event>
<event>
 9    2  0.1325014E-004  0.2653497E+03  0.7546771E-02  0.1104652E+00
         21   -1    0    0  501  502  0.00000000000E+00  0.00000000000E+00  0.17971303373E+03  0.17971303373E+03  0.00000000000E+00 0. -1.
          2   -1    0    0  502    0 -0.00000000000E+00 -0.00000000000E+00 -0.68599242286E+03  0.68599242286E+03  0.00000000000E+00 0. -1.
         24    2    1    2    0    0  0.24473979565E+03 -0.17824401035E+03 -0.41567536401E+03  0.51995428088E+03  0.76798119471E+02 0.  0.
         23    2    1    2    0    0 -0.12201127828E+03  0.13016161992E+03 -0.70448919037E+02  0.21240788361E+03  0.91242859999E+02 0.  0.
        -13    1    3    3    0    0  0.65630060257E+02 -0.23717629651E+02 -0.14194294570E+03  0.15816962603E+03  0.00000000000E+00 0.  1.
         14    1    3    3    0    0  0.17910973539E+03 -0.15452638070E+03 -0.27373241831E+03  0.36178465484E+03  0.00000000000E+00 0. -1.
        -11    1    4    4    0    0 -0.77334840154E+02  0.11574294306E+03 -0.15386612844E+02  0.14004947063E+03  0.00000000000E+00 0.  1.
         11    1    4    4    0    0 -0.44676438125E+02  0.14418676859E+02 -0.55062306193E+02  0.72358412981E+02  0.00000000000E+00 0. -1.
          1    1    1    2  501    0 -0.12272851737E+03  0.48082390435E+02 -0.20155106090E+02  0.13334329210E+03  0.00000000000E+00 0. -1.
<scales pt_clust_5="13000.00000" pt_clust_6="13000.00000" pt_clust_7="13000.00000" pt_clust_8="13000.00000" pt_clust_9="131.81125"></scales>
<clustering>
<clus scale="   76.798">  5  6 -1 -1</clus>
<clus scale="   91.243">  7  8 -1 -1</clus>
<clus scale="  131.811">  1  9  2 -1</clus>
<clus scale="  260.736">  2  5  1 -1</clus>
<clus scale="  131.811">  1  5  2 -1</clus>
</clustering>
</event>
<event>
 9    2  0.1325014E-004  0.2384811E+03  0.7546771E-02  0.1136854E+00
         -1   -1    0    0    0  501 -0.00000000000E+00  0.00000000000E+00  0.32597257184E+03  0.32597257184E+03  0.00000000000E+00 0.  1.
         21   -1    0    0  501  502  0.00000000000E+00 -0.00000000000E+00 -0.46008984212E+03  0.46008984212E+03  0.00000000000E+00 0.  1.
         23    2    1    2    0    0  0.97136759603E+02  0.95103569878E+02 -0.22590751939E+03  0.27722001673E+03  0.85653320351E+02 0.  0.
         24    2    1    2    0    0 -0.17146815067E+01  0.17930354594E+03  0.74438389425E+01  0.20632139779E+03  0.10178608318E+03 0.  0.
        -11    1    4    4    0    0  0.18257447509E+02  0.11902302840E+03  0.49459662180E+02  0.13017708655E+03  0.00000000000E+00 0.  1.
         12    1    4    4    0    0 -0.19972129015E+02  0.60280517538E+02 -0.42015823238E+02  0.76144311241E+02  0.00000000000E+00 0. -1.
        -13    1    3    3    0    0  0.11053960862E+03  0.66790921431E+02 -0.18712213588E+03  0.22736474220E+03  0.00000000000E+00 0.  1.
         13    1    3    3    0    0 -0.13402849020E+02  0.28312648446E+02 -0.38785383513E+02  0.49855274527E+02  0.00000000000E+00 0. -1.
         -2    1    1    2    0  502 -0.95422078097E+02 -0.27440711581E+03  0.84346410169E+02  0.30252099945E+03  0.00000000000E+00 0.  1.
<scales pt_clust_5="13000.00000" pt_clust_6="13000.00000" pt_clust_7="13000.00000" pt_clust_8="13000.00000" pt_clust_9="215.66849"></scales>
<clustering>
<clus scale="   85.653">  7  8 -1 -1</clus>
<clus scale="  101.786">  5  6 -1 -1</clus>
<clus scale="  160.676">  1  7  2 -1</clus>
<clus scale="  215.668">  2  9  1 -1</clus>
<clus scale="  215.668">  2  5  1 -1</clus>
</clustering>
</event>
<event>
 9    2  0.1325014E-004  0.1580028E+03  0.7546771E-02  0.1192497E+00
         21   -1    0    0  501  502  0.00000000000E+00  0.00000000000E+00  0.25471069706E+03  0.25471069706E+03  0.00000000000E+00 0.  1.
          2   -1    0    0  502    0 -0.00000000000E+00 -0.00000000000E+00 -0.50829701088E+03  0.50829701088E+03  0.00000000000E+00 0. -1.
         23    2    1    2    0    0  0.10612691672E+03 -0.73125200687E+02 -0.45468087657E+03  0.48114100598E+03  0.90287046115E+02 0.  0.
         24    2    1    2    0    0 -0.13273118114E+03  0.57729753970E+02  0.17931302590E+03  0.24419387338E+03  0.80791061379E+02 0.  0.
        -13    1    4    4    0    0 -0.13468036752E+03  0.30920361873E+02  0.14130339203E+03  0.19763987141E+03  0.00000000000E+00 0.  1.
         14    1    4    4    0    0  0.19491863781E+01  0.26809392097E+02  0.38009633870E+02  0.46554001966E+02  0.00000000000E+00 0. -1.
        -11    1    3    3    0    0  0.11186110036E+02 -0.40021819357E+02 -0.24617991246E+03  0.24966262111E+03  0.00000000000E+00 0. -1.
         11    1    3    3    0    0  0.94940806682E+02 -0.33103381330E+02 -0.20850096411E+03  0.23147838487E+03  0.00000000000E+00 0.  1.
          1    1    1    2  501    0  0.26604264425E+02  0.15395446718E+02  0.21781536846E+02  0.37672828571E+02  0.00000000000E+00 0. -1.
<scales pt_clust_5="13000.00000" pt_clust_6="13000.00000" pt_clust_7="13000.00000" pt_clust_8="13000.00000" pt_clust_9="30.73771"></scales>
<clustering>
<clus scale="   30.738">  1  9  2 -1</clus>
<clus scale="   80.791">  5  6 -1 -1</clus>
<clus scale="   90.287">  7  8 -1 -1</clus>
<clus scale="  152.775">  1  5  2 -1</clus>
<clus scale="   30.738">  1  5  2 -1</clus>
</clustering>
</event>
<event>
 9    2  0.1325014E-004  0.1738054E+03  0.7546771E-02  0.1175414E+00
         21   -1    0    0  501  502  0.00000000000E+00  0.00000000000E+00  0.14447285186E+03  0.14447285186E+03  0.00000000000E+00 0. -1.
          2   -1    0    0  502    0 -0.00000000000E+00 -0.00000000000E+00 -0.64778716355E+03  0.64778716355E+03  0.00000000000E+00 0. -1.
         23    2    1    2    0    0 -0.13431833097E+03 -0.28800924112E+02 -0.42178288524E+03  0.45315093884E+03  0.92596240898E+02 0.  0.
         24    2    1    2    0    0  0.20831830261E+03  0.58251276867E+02 -0.88191840992E+01  0.23126479406E+03  0.81338186037E+02 0.  0.
        -13    1    4    4    0    0  0.40570709660E+02  0.44521276789E+02 -0.17523945168E+02  0.62731293813E+02  0.00000000000E+00 0.  1.
         14    1    4    4    0    0  0.16774759295E+03  0.13730000078E+02  0.87047610692E+01  0.16853350025E+03  0.00000000000E+00 0. -1.
        -11    1    3    3    0    0 -0.14514308762E+02 -0.42496147988E+02 -0.10540545900E+03  0.11457267798E+03  0.00000000000E+00 0.  1.
         11    1    3    3    0    0 -0.11980402220E+03  0.13695223876E+02 -0.31637742623E+03  0.33857826085E+03  0.00000000000E+00 0. -1.
          1    1    1    2  501    0 -0.73999971641E+02 -0.29450352754E+02 -0.72712242354E+02  0.10784428250E+03  0.00000000000E+00 0. -1.
<scales pt_clust_5="13000.00000" pt_clust_6="13000.00000" pt_clust_7="13000.00000" pt_clust_8="13000.00000" pt_clust_9="79.64500"></scales>
<clustering>
<clus scale="   79.645">  1  9  2 -1</clus>
<clus scale="   81.338">  5  6 -1 -1</clus>
<clus scale="   92.596">  7  8 -1 -1</clus>
<clus scale="  168.078">  1  5  2 -1</clus>
<clus scale="   79.645">  1  5  2 -1</clus>
</clustering>
</event>
<event>
 9    2  0.1325014E-004  0.1045381E+03  0.7546771E-02  0.1275696E+00
         21   -1    0    0  501  502  0.00000000000E+00  0.00000000000E+00  0.13103387581E+03  0.13103387581E+03  0.00000000000E+00 0.  1.
          2   -1    0    0  502    0 -0.00000000000E+00 -0.00000000000E+00 -0.19414030715E+03  0.19414030715E+03  0.00000000000E+00 0. -1.
         23    2    1    2    0    0  0.38704949087E+02 -0.42874895162E+02 -0.14164505692E+03  0.17684478288E+03  0.88737958977E+02 0.  0.
         24    2    1    2    0    0 -0.40908694745E+02  0.17251243619E+02  0.82997845555E+02  0.12222743356E+03  0.77972921168E+02 0.  0.
        -11    1    4    4    0    0 -0.24208792142E+02  0.46153128564E+02  0.67891012125E+02  0.85588354469E+02  0.00000000000E+00 0.  1.
         12    1    4    4    0    0 -0.16699902604E+02 -0.28901884945E+02  0.15106833430E+02  0.36639079091E+02  0.00000000000E+00 0. -1.
        -11    1    3    3    0    0  0.13467828420E+02 -0.64470841929E+02 -0.61593362117E+02  0.90175462950E+02  0.00000000000E+00 0. -1.
         11    1    3    3    0    0  0.25237120667E+02  0.21595946767E+02 -0.80051694806E+02  0.86669319933E+02  0.00000000000E+00 0.  1.
          1    1    1    2  501    0  0.22037456581E+01  0.25623651542E+02 -0.44592199797E+01  0.26101966518E+02  0.00000000000E+00 0. -1.
<scales pt_clust_5="13000.00000" pt_clust_6="13000.00000" pt_clust_7="13000.00000" pt_clust_8="13000.00000" pt_clust_9="25.71824"></scales>
<clustering>
<clus scale="   25.718">  1  9  2 -1</clus>
<clus scale="   77.973">  5  6 -1 -1</clus>
<clus scale="   88.738">  7  8 -1 -1</clus>
<clus scale="   95.570">  1  5  2 -1</clus>
<clus scale="   25.718">  1  5  2 -1</clus>
</clustering>
</event>
<event>
 9    2  0.1325014E-004  0.1335921E+03  0.7546771E-02  0.1224930E+00
         21   -1    0    0  501  502  0.00000000000E+00  0.00000000000E+00  0.59097074573E+02  0.59097074573E+02  0.00000000000E+00 0. -1.
         -1   -1    0    0    0  501 -0.00000000000E+00 -0.00000000000E+00 -0.66844434917E+03  0.66844434917E+03  0.00000000000E+00 0.  1.
         23    2    1    2    0    0 -0.68750737508E+02 -0.69183519650E+02 -0.54247356974E+03  0.55873870698E+03  0.91642487441E+02 0.  0.
         24    2    1    2    0    0  0.81892002485E+02  0.53005943095E+02 -0.74250787457E+02  0.14669325779E+03  0.80559309639E+02 0.  0.
        -11    1    4    4    0    0  0.67014055415E+02  0.64341703614E+02 -0.84310621653E+02  0.12545524848E+03  0.00000000000E+00 0.  1.
         12    1    4    4    0    0  0.14877947070E+02 -0.11335760519E+02  0.10059834197E+02  0.21238009314E+02  0.00000000000E+00 0. -1.
        -13    1    3    3    0    0 -0.53624256966E+02  0.47998288061E+01 -0.15804074673E+03  0.16695950682E+03  0.00000000000E+00 0.  1.
         13    1    3    3    0    0 -0.15126480542E+02 -0.73983348456E+02 -0.38443282301E+03  0.39177920015E+03  0.00000000000E+00 0. -1.
         -2    1    1    2    0  502 -0.13141264977E+02  0.16177576555E+02  0.73770826026E+01  0.22109458974E+02  0.00000000000E+00 0.  1.
<scales pt_clust_5="13000.00000" pt_clust_6="13000.00000" pt_clust_7="13000.00000" pt_clust_8="13000.00000" pt_clust_9="20.84243"></scales>
<clustering>
<clus scale="   20.842">  1  9  2 -1</clus>
<clus scale="   80.559">  5  6 -1 -1</clus>
<clus scale="   91.642">  7  8 -1 -1</clus>
<clus scale="  126.247">  1  5  2 -1</clus>
<clus scale="   20.842">  1  5  2 -1</clus>
</clustering>
</event>
<event>
 9    2  0.1325014E-004  0.1913317E+03  0.7546771E-02  0.1158469E+00
          2   -1    0    0  502    0 -0.00000000000E+00  0.00000000000E+00  0.25546408293E+03  0.25546408293E+03  0.00000000000E+00 0. -1.
         21   -1    0    0  501  502  0.00000000000E+00 -0.00000000000E+00 -0.36848917531E+03  0.36848917531E+03  0.00000000000E+00 0. -1.
         23    2    1    2    0    0 -0.18482274467E+03 -0.13363214365E+02  0.89511043192E+02  0.22483853620E+03  0.90565545666E+02 0.  0.
         24    2    1    2    0    0  0.10594573691E+03 -0.67532388371E+02 -0.23824843664E+03  0.28061978821E+03  0.78740239538E+02 0.  0.
        -13    1    4    4    0    0 -0.42316905043E+01 -0.23477962807E+02 -0.16142451302E+02  0.28804525271E+02  0.00000000000E+00 0.  1.
         14    1    4    4    0    0  0.11017742741E+03 -0.44054425565E+02 -0.22210598534E+03  0.25181526294E+03  0.00000000000E+00 0. -1.
        -13    1    3    3    0    0 -0.14266797872E+03 -0.44259579602E+02  0.44499917191E+02  0.15586309752E+03  0.00000000000E+00 0.  1.
         13    1    3    3    0    0 -0.42154765948E+02  0.30896365237E+02  0.45011126001E+02  0.68975438678E+02  0.00000000000E+00 0. -1.
          1    1    1    2  501    0  0.78877007764E+02  0.80895602736E+02  0.35712301075E+02  0.11849493383E+03  0.00000000000E+00 0. -1.
<scales pt_clust_5="13000.00000" pt_clust_6="13000.00000" pt_clust_7="13000.00000" pt_clust_8="13000.00000" pt_clust_9="112.98537"></scales>
<clustering>
<clus scale="   78.740">  5  6 -1 -1</clus>
<clus scale="   90.566">  7  8 -1 -1</clus>
<clus scale="  112.985">  2  9  1 -1</clus>
<clus scale="  186.026">  2  5  1 -1</clus>
<clus scale="  112.985">  2  5  1 -1</clus>
</clustering>
</event>
<event>
 9    2  0.1325014E-004  0.1257979E+03  0.7546771E-02  0.1239697E+00
         21   -1    0    0  501  502  0.00000000000E+00  0.00000000000E+00  0.33816096428E+03  0.33816096428E+03  0.00000000000E+00 0.  1.
         -1   -1    0    0    0  501 -0.00000000000E+00 -0.00000000000E+00 -0.94370750278E+02  0.94370750278E+02  0.00000000000E+00 0.  1.
         24    2    1    2    0    0 -0.34135601086E+02 -0.70588429554E+02  0.14801638893E+03  0.18536695889E+03  0.79398314900E+02 0.  0.
         23    2    1    2    0    0  0.49735507330E+02 -0.43014399751E+02  0.34156948366E+02  0.11698949152E+03  0.90531678040E+02 0.  0.
        -11    1    3    3    0    0 -0.59137574368E+02 -0.47628383741E+02  0.86445914996E+02  0.11505916678E+03  0.00000000000E+00 0.  1.
         12    1    3    3    0    0  0.25001973283E+02 -0.22960045813E+02  0.61570473932E+02  0.70307792114E+02  0.00000000000E+00 0. -1.
        -13    1    4    4    0    0  0.32650527838E+02 -0.27574830846E+02  0.65431414571E+02  0.78151764388E+02  0.00000000000E+00 0.  1.
         13    1    4    4    0    0  0.17084979492E+02 -0.15439568906E+02 -0.31274466205E+02  0.38837727130E+02  0.00000000000E+00 0. -1.
         -2    1    1    2    0  502 -0.15599906244E+02  0.11360282931E+03  0.61616876711E+02  0.13017526415E+03  0.00000000000E+00 0.  1.
<scales pt_clust_5="13000.00000" pt_clust_6="13000.00000" pt_clust_7="13000.00000" pt_clust_8="13000.00000" pt_clust_9="87.34492"></scales>
<clustering>
<clus scale="   79.398">  5  6 -1 -1</clus>
<clus scale="   90.532">  7  8 -1 -1</clus>
<clus scale="  111.589">  2  5  1 -1</clus>
<clus scale="   87.345">  1  9  2 -1</clus>
<clus scale="   87.345">  1  5  2 -1</clus>
</clustering>
</event>
<event>
 9    2  0.1325014E-004  0.1622760E+03  0.7546771E-02  0.1211256E+00
         21   -1    0    0  501  502  0.00000000000E+00  0.00000000000E+00  0.40503718936E+02  0.40503718936E+02  0.00000000000E+00 0. -1.
          2   -1    0    0  502    0 -0.00000000000E+00 -0.00000000000E+00 -0.11829490709E+04  0.11829490709E+04  0.00000000000E+00 0. -1.
         24    2    1    2    0    0 -0.14088583684E+02 -0.50238664949E+02 -0.12493657473E+03  0.15632020433E+03  0.78130960134E+02 0.  0.
         23    2    1    2    0    0  0.14182625754E+03  0.61642810319E+02 -0.73907803160E+03  0.76058626279E+03  0.91326901662E+02 0.  0.
        -13    1    3    3    0    0  0.86292263210E+01 -0.61958060427E+02 -0.60617856966E+02  0.87107918021E+02  0.00000000000E+00 0.  1.
         14    1    3    3    0    0 -0.22717810006E+02  0.11719395478E+02 -0.64318717765E+02  0.69212286313E+02  0.00000000000E+00 0. -1.
        -13    1    4    4    0    0  0.14293736456E+03  0.36096121629E+02 -0.68609761719E+03  0.70175776483E+03  0.00000000000E+00 0. -1.
         13    1    4    4    0    0 -0.11111070206E+01  0.25546688690E+02 -0.52980414404E+02  0.58828497961E+02  0.00000000000E+00 0.  1.
          1    1    1    2  501    0 -0.12773767385E+03 -0.11404145370E+02 -0.27843074566E+03  0.30654632274E+03  0.00000000000E+00 0. -1.
<scales pt_clust_5="13000.00000" pt_clust_6="13000.00000" pt_clust_7="13000.00000" pt_clust_8="13000.00000" pt_clust_9="134.13757"></scales>
<clustering>
<clus scale="   78.131">  5  6 -1 -1</clus>
<clus scale="   91.327">  7  8 -1 -1</clus>
<clus scale="   93.951">  2  5  1 -1</clus>
<clus scale="  134.138">  1  9  2 -1</clus>
<clus scale="  134.138">  1  5  2 -1</clus>
</clustering>
</event>
<event>
 9    2  0.1325014E-004  0.1196303E+03  0.7546771E-02  0.1245004E+00
         21   -1    0    0  501  502  0.00000000000E+00  0.00000000000E+00  0.11654788425E+03  0.11654788425E+03  0.00000000000E+00 0. -1.
          2   -1    0    0  502    0 -0.00000000000E+00 -0.00000000000E+00 -0.48248394350E+03  0.48248394350E+03  0.00000000000E+00 0. -1.
         23    2    1    2    0    0  0.79413747838E+02  0.30399946672E+02 -0.36841832664E+03  0.38859027452E+03  0.89664028153E+02 0.  0.
         24    2    1    2    0    0 -0.27334546048E+02  0.36308720246E+01  0.73465420058E+02  0.11605433034E+03  0.85504847861E+02 0.  0.
        -13    1    4    4    0    0 -0.28876586790E+02  0.40176798732E+02  0.25291332259E+02  0.55566931789E+02  0.00000000000E+00 0.  1.
         14    1    4    4    0    0  0.15420407422E+01 -0.36545926707E+02  0.48174087799E+02  0.60487398554E+02  0.00000000000E+00 0. -1.
        -13    1    3    3    0    0  0.32301722687E+02 -0.29427233320E+02 -0.18298465987E+03  0.18812960717E+03  0.00000000000E+00 0. -1.
         13    1    3    3    0    0  0.47112025150E+02  0.59827179993E+02 -0.18543366677E+03  0.20046066735E+03  0.00000000000E+00 0.  1.
          1    1    1    2  501    0 -0.52079201790E+02 -0.34030818697E+02 -0.70983152671E+02  0.94387222882E+02  0.00000000000E+00 0. -1.
<scales pt_clust_5="13000.00000" pt_clust_6="13000.00000" pt_clust_7="13000.00000" pt_clust_8="13000.00000" pt_clust_9="62.21209"></scales>
<clustering>
<clus scale="   62.212">  1  9  2 -1</clus>
<clus scale="   85.505">  5  6 -1 -1</clus>
<clus scale="   89.664">  7  8 -1 -1</clus>
<clus scale="  116.545">  1  5  2 -1</clus>
<clus scale="   62.212">  1  5  2 -1</clus>
</clustering>
</event>
<event>
 9    2  0.1325014E-004  0.1499065E+03  0.7546771E-02  0.1202457E+00
          4   -1    0    0  502    0 -0.00000000000E+00  0.00000000000E+00  0.85719555411E+03  0.85719555411E+03  0.00000000000E+00 0. -1.
         21   -1    0    0  501  502  0.00000000000E+00 -0.00000000000E+00 -0.42766769775E+02  0.42766769775E+02  0.00000000000E+00 0. -1.
         23    2    1    2    0    0 -0.50854662132E+02  0.13464461643E+03  0.34829499756E+03  0.38744561431E+03  0.89940698945E+02 0.  0.
         24    2    1    2    0    0  0.68183852537E+01 -0.97222754432E+02  0.17414445812E+03  0.21486362713E+03  0.79632478397E+02 0.  0.
        -11    1    4    4    0    0  0.28000401670E+02 -0.32776046421E+01  0.27204222894E+02  0.39176969372E+02  0.00000000000E+00 0.  1.
         12    1    4    4    0    0 -0.21182016416E+02 -0.93945149790E+02  0.14694023522E+03  0.17568665776E+03  0.00000000000E+00 0. -1.
        -13    1    3    3    0    0  0.22202616909E+02  0.28835323105E+02  0.12039612952E+03  0.12577623010E+03  0.00000000000E+00 0.  1.
         13    1    3    3    0    0 -0.73057279041E+02  0.10580929333E+03  0.22789886804E+03  0.26166938420E+03  0.00000000000E+00 0. -1.
          3    1    1    2  501    0  0.44036276878E+02 -0.37421861999E+02  0.29198932865E+03  0.29765308244E+03  0.00000000000E+00 0. -1.
<scales pt_clust_5="13000.00000" pt_clust_6="13000.00000" pt_clust_7="13000.00000" pt_clust_8="13000.00000" pt_clust_9="57.78921"></scales>
<clustering>
<clus scale="   57.789">  2  9  1 -1</clus>
<clus scale="   79.632">  5  6 -1 -1</clus>
<clus scale="   89.941">  7  8 -1 -1</clus>
<clus scale="  143.958">  2  5  1 -1</clus>
<clus scale="   57.789">  2  5  1 -1</clus>
</clustering>
</event>
<event>
 9    2  0.1325014E-004  0.2902234E+03  0.7546771E-02  0.1127156E+00
         21   -1    0    0  501  502  0.00000000000E+00  0.00000000000E+00  0.80707637510E+02  0.80707637510E+02  0.00000000000E+00 0. -1.
          2   -1    0    0  502    0 -0.00000000000E+00 -0.00000000000E+00 -0.15742963550E+04  0.15742963550E+04  0.00000000000E+00 0. -1.
         23    2    1    2    0    0 -0.59798950229E+02  0.32114221783E+02 -0.14136740518E+03  0.18099579092E+03  0.90374196508E+02 0.  0.
         24    2    1    2    0    0 -0.21474030473E+03 -0.15604056332E+03 -0.53157138553E+03  0.59982524422E+03  0.82220008577E+02 0.  0.
        -11    1    4    4    0    0 -0.27241455691E+02 -0.47505755945E+02 -0.16689970140E+03  0.17565421738E+03  0.00000000000E+00 0.  1.
         12    1    4    4    0    0 -0.18749884904E+03 -0.10853480738E+03 -0.36467168413E+03  0.42417102684E+03  0.00000000000E+00 0. -1.
        -11    1    3    3    0    0 -0.30399693838E+02  0.44988776212E+02 -0.24080639741E+02  0.59397041853E+02  0.00000000000E+00 0. -1.
         11    1    3    3    0    0 -0.29399256390E+02 -0.12874554428E+02 -0.11728676544E+03  0.12159874907E+03  0.00000000000E+00 0.  1.
          1    1    1    2  501    0  0.27453925496E+03  0.12392634154E+03 -0.82064992683E+03  0.87418295742E+03  0.00000000000E+00 0. -1.
<scales pt_clust_5="13000.00000" pt_clust_6="13000.00000" pt_clust_7="13000.00000" pt_clust_8="13000.00000" pt_clust_9="278.33358"></scales>
<clustering>
<clus scale="   82.220">  5  6 -1 -1</clus>
<clus scale="   90.374">  7  8 -1 -1</clus>
<clus scale="  113.025">  2  7  1 -1</clus>
<clus scale="  278.334">  1  9  2 -1</clus>
<clus scale="  278.334">  1  5  2 -1</clus>
</clustering>
</event>
<event>
 9    2  0.1325014E-004  0.1175827E+03  0.7546771E-02  0.1249582E+00
          2   -1    0    0  502    0 -0.00000000000E+00  0.00000000000E+00  0.64796837847E+03  0.64796837847E+03  0.00000000000E+00 0. -1.
         21   -1    0    0  501  502  0.00000000000E+00 -0.00000000000E+00 -0.33778750446E+02  0.33778750446E+02  0.00000000000E+00 0. -1.
         24    2    1    2    0    0 -0.28206931953E+02 -0.57877786908E+02  0.22841540656E+03  0.25052229668E+03  0.80264275695E+02 0.  0.
         23    2    1    2    0    0 -0.53656782716E+01  0.10352682439E+03  0.27852688615E+03  0.30992790023E+03  0.87928852857E+02 0.  0.
        -13    1    3    3    0    0 -0.48240499981E+02 -0.48081698045E+02  0.21243685475E+03  0.22308835196E+03  0.00000000000E+00 0.  1.
         14    1    3    3    0    0  0.20033568029E+02 -0.97960888627E+01  0.15978551816E+02  0.27433944723E+02  0.00000000000E+00 0. -1.
        -11    1    4    4    0    0  0.11249084302E+02  0.25980350326E+02  0.10145288981E+02  0.30074031808E+02  0.00000000000E+00 0.  1.
         11    1    4    4    0    0 -0.16614762573E+02  0.77546474063E+02  0.26838159716E+03  0.27985386842E+03  0.00000000000E+00 0. -1.
          1    1    1    2  501    0  0.33572610224E+02 -0.45649037482E+02  0.10724733532E+03  0.12129693200E+03  0.00000000000E+00 0. -1.
<scales pt_clust_5="13000.00000" pt_clust_6="13000.00000" pt_clust_7="13000.00000" pt_clust_8="13000.00000" pt_clust_9="56.66529"></scales>
<clustering>
<clus scale="   56.665">  2  9  1 -1</clus>
<clus scale="   80.264">  5  6 -1 -1</clus>
<clus scale="   87.929">  7  8 -1 -1</clus>
<clus scale="  111.967">  1  5  2 -1</clus>
<clus scale="   56.665">  2  5  1 -1</clus>
</clustering>
</event>
<event>
 9    2  0.1325014E-004  0.1441524E+03  0.7546771E-02  0.1231862E+00
         21   -1    0    0  501  502  0.00000000000E+00  0.00000000000E+00  0.26670327175E+03  0.26670327175E+03  0.00000000000E+00 0. -1.
          4   -1    0    0  502    0 -0.00000000000E+00 -0.00000000000E+00 -0.14564563385E+03  0.14564563385E+03  0.00000000000E+00 0. -1.
         24    2    1    2    0    0  0.13295662067E+01 -0.32959892223E+02 -0.38063119523E+02  0.95007939855E+02  0.80557962524E+02 0.  0.
         23    2    1    2    0    0  0.42003464634E+02 -0.90117923639E+02  0.12073868727E+03  0.18132962935E+03  0.91744605689E+02 0.  0.
        -11    1    3    3    0    0 -0.19146967232E+02  0.14317943124E+02  0.86867873819E+01  0.25437573086E+02  0.00000000000E+00 0.  1.
         12    1    3    3    0    0  0.20476533439E+02 -0.47277835347E+02 -0.46749906905E+02  0.69570366769E+02  0.00000000000E+00 0. -1.
        -11    1    4    4    0    0  0.41180228409E+02 -0.12746423205E+00  0.18559092057E+02  0.45169318756E+02  0.00000000000E+00 0.  1.
         11    1    4    4    0    0  0.82323622508E+00 -0.89990459407E+02  0.10217959521E+03  0.13616031059E+03  0.00000000000E+00 0. -1.
          3    1    1    2  501    0 -0.43333030840E+02  0.12307781586E+03  0.38382070154E+02  0.13601133640E+03  0.00000000000E+00 0. -1.
<scales pt_clust_5="13000.00000" pt_clust_6="13000.00000" pt_clust_7="13000.00000" pt_clust_8="13000.00000" pt_clust_9="111.18834"></scales>
<clustering>
<clus scale="   80.558">  5  6 -1 -1</clus>
<clus scale="   87.050">  2  5  1 -1</clus>
<clus scale="   91.745">  7  8 -1 -1</clus>
<clus scale="  111.188">  1  9  2 -1</clus>
<clus scale="  111.188">  1  5  2 -1</clus>
</clustering>
</event>
<event>
 9    2  0.1325014E-004  0.2216671E+03  0.7546771E-02  0.1167611E+00
         -1   -1    0    0    0  501 -0.00000000000E+00  0.00000000000E+00  0.18630831189E+03  0.18630831189E+03  0.00000000000E+00 0.  1.
         21   -1    0    0  501  502  0.00000000000E+00 -0.00000000000E+00 -0.44275029163E+03  0.44275029163E+03  0.00000000000E+00 0.  1.
         24    2    1    2    0    0  0.24138736055E+02  0.47483074299E+02 -0.40708676532E+02  0.10501781290E+03  0.80834545572E+02 0.  0.
         23    2    1    2    0    0  0.82812584247E+02 -0.21059911337E+03 -0.15237028231E+02  0.24431917295E+03  0.90828302725E+02 0.  0.
        -13    1    3    3    0    0  0.36239019860E+02  0.56364510768E+02 -0.53144802659E+02  0.85525403736E+02  0.00000000000E+00 0.  1.
         14    1    3    3    0    0 -0.12100283806E+02 -0.88814364687E+01  0.12436126127E+02  0.19492409163E+02  0.00000000000E+00 0. -1.
        -13    1    4    4    0    0  0.33901953905E+00 -0.12271671539E+03  0.91855852496E+00  0.12272062142E+03  0.00000000000E+00 0.  1.
         13    1    4    4    0    0  0.82473564708E+02 -0.87882397981E+02 -0.16155586756E+02  0.12159855153E+03  0.00000000000E+00 0. -1.
         -2    1    1    2    0  502 -0.10695132030E+03  0.16311603907E+03 -0.20049627497E+03  0.27972161767E+03  0.00000000000E+00 0.  1.
<scales pt_clust_5="13000.00000" pt_clust_6="13000.00000" pt_clust_7="13000.00000" pt_clust_8="13000.00000" pt_clust_9="202.20420"></scales>
<clustering>
<clus scale="   80.835">  5  6 -1 -1</clus>
<clus scale="   90.828">  7  8 -1 -1</clus>
<clus scale="   96.807">  1  5  2 -1</clus>
<clus scale="  202.204">  2  9  1 -1</clus>
<clus scale="  202.204">  2  5  1 -1</clus>
</clustering>
</event>
<event>
 9    2  0.1325014E-004  0.2034260E+03  0.7546771E-02  0.1185867E+00
          4   -1    0    0  502    0 -0.00000000000E+00  0.00000000000E+00  0.28148169061E+03  0.28148169061E+03  0.00000000000E+00 0. -1.
         21   -1    0    0  501  502  0.00000000000E+00 -0.00000000000E+00 -0.21336443541E+03  0.21336443541E+03  0.00000000000E+00 0.  1.
         24    2    1    2    0    0  0.89748583366E+01  0.20636244485E+02  0.71508018856E+02  0.10947753364E+03  0.79784277535E+02 0.  0.
         23    2    1    2    0    0  0.17417561610E+03 -0.35710264486E+02  0.10700561889E+02  0.20105937442E+03  0.93263078355E+02 0.  0.
        -13    1    3    3    0    0  0.84708849695E+01 -0.30147504422E+02  0.20081262925E+02  0.37200605314E+02  0.00000000000E+00 0.  1.
         14    1    3    3    0    0  0.50397336715E+00  0.50783748907E+02  0.51426755931E+02  0.72276928323E+02  0.00000000000E+00 0. -1.
        -11    1    4    4    0    0  0.13839342751E+03  0.14331609461E+02  0.10651294275E+02  0.13954062447E+03  0.00000000000E+00 0.  1.
         11    1    4    4    0    0  0.35782188595E+02 -0.50041873947E+02  0.49267614274E-01  0.61518749955E+02  0.00000000000E+00 0. -1.
          3    1    1    2  501    0 -0.18315047444E+03  0.15074020001E+02 -0.14091325547E+02  0.18430921795E+03  0.00000000000E+00 0. -1.
<scales pt_clust_5="13000.00000" pt_clust_6="13000.00000" pt_clust_7="13000.00000" pt_clust_8="13000.00000" pt_clust_9="180.78756"></scales>
<clustering>
<clus scale="   79.784">  5  6 -1 -1</clus>
<clus scale="   82.897">  1  5  2 -1</clus>
<clus scale="   93.263">  7  8 -1 -1</clus>
<clus scale="  180.788">  2  9  1 -1</clus>
<clus scale="  180.788">  2  5  1 -1</clus>
</clustering>
</event>
<event>
 9    2  0.1325014E-004  0.1128255E+03  0.7546771E-02  0.1258400E+00
         21   -1    0    0  501  502  0.00000000000E+00  0.00000000000E+00  0.85944673685E+02  0.85944673685E+02  0.00000000000E+00 0.  1.
          2   -1    0    0  502    0 -0.00000000000E+00 -0.00000000000E+00 -0.20775573621E+03  0.20775573621E+03  0.00000000000E+00 0. -1.
         24    2    1    2    0    0 -0.44623942397E+02 -0.55228061011E+02 -0.93773257274E+02  0.14320638568E+03  0.81689718832E+02 0.  0.
         23    2    1    2    0    0  0.12701562718E+02  0.66703879164E+02 -0.13118002228E+02  0.11343551306E+03  0.89915496159E+02 0.  0.
        -11    1    3    3    0    0 -0.54932320698E+02 -0.23317825114E+02 -0.91956384378E+02  0.10962325234E+03  0.00000000000E+00 0.  1.
         12    1    3    3    0    0  0.10308378301E+02 -0.31910235898E+02 -0.18168728959E+01  0.33583133346E+02  0.00000000000E+00 0. -1.
        -13    1    4    4    0    0  0.45921227656E+02  0.49902571954E+02 -0.27967048825E+02  0.73356537930E+02  0.00000000000E+00 0.  1.
         13    1    4    4    0    0 -0.33219664938E+02  0.16801307209E+02  0.14849046598E+02  0.40078975129E+02  0.00000000000E+00 0. -1.
          1    1    1    2  501    0  0.31922379679E+02 -0.11475818152E+02 -0.14919803025E+02  0.37058511154E+02  0.00000000000E+00 0. -1.
<scales pt_clust_5="13000.00000" pt_clust_6="13000.00000" pt_clust_7="13000.00000" pt_clust_8="13000.00000" pt_clust_9="33.92245"></scales>
<clustering>
<clus scale="   33.922">  1  9  2 -1</clus>
<clus scale="   81.690">  5  6 -1 -1</clus>
<clus scale="   89.915">  7  8 -1 -1</clus>
<clus scale="  106.386">  2  5  1 -1</clus>
<clus scale="   33.922">  1  5  2 -1</clus>
</clustering>
</event>
<event>
 9    2  0.1325014E-004  0.1731297E+03  0.7546771E-02  0.1199425E+00
         21   -1    0    0  501  502  0.00000000000E+00  0.00000000000E+00  0.15497031854E+03  0.15497031854E+03  0.00000000000E+00 0. -1.
          2   -1    0    0  502    0 -0.00000000000E+00 -0.00000000000E+00 -0.31835471727E+03  0.31835471727E+03  0.00000000000E+00 0. -1.
         24    2    1    2    0    0 -0.98062583471E+01  0.58555413573E+02 -0.77370918619E+02  0.12628050557E+03  0.80222240545E+02 0.  0.
         23    2    1    2    0    0 -0.10446674285E+02 -0.17184552497E+03  0.13979549795E+02  0.19458654701E+03  0.89601780165E+02 0.  0.
        -13    1    3    3    0    0  0.12550276608E+02 -0.16733206459E+02 -0.12128074584E+02  0.24178499425E+02  0.00000000000E+00 0.  1.
         14    1    3    3    0    0 -0.22356534955E+02  0.75288620032E+02 -0.65242844034E+02  0.10210200615E+03  0.00000000000E+00 0. -1.
        -13    1    4    4    0    0 -0.35098431673E+02 -0.49021568919E+02 -0.22111496021E+02  0.64217850957E+02  0.00000000000E+00 0.  1.
         13    1    4    4    0    0  0.24651757389E+02 -0.12282395605E+03  0.36091045816E+02  0.13036869605E+03  0.00000000000E+00 0. -1.
          1    1    1    2  501    0  0.20252932632E+02  0.11329011140E+03 -0.99993029903E+02  0.15245798323E+03  0.00000000000E+00 0. -1.
<scales pt_clust_5="13000.00000" pt_clust_6="13000.00000" pt_clust_7="13000.00000" pt_clust_8="13000.00000" pt_clust_9="148.13997"></scales>
<clustering>
<clus scale="   80.222">  5  6 -1 -1</clus>
<clus scale="   89.602">  7  8 -1 -1</clus>
<clus scale="   99.802">  2  5  1 -1</clus>
<clus scale="  148.140">  1  9  2 -1</clus>
<clus scale="  148.140">  1  5  2 -1</clus>
</clustering>
</event>
<event>
 9    2  0.1325014E-004  0.2189212E+03  0.7546771E-02  0.1159184E+00
         21   -1    0    0  501  502  0.00000000000E+00  0.00000000000E+00  0.10037196035E+03  0.10037196035E+03  0.00000000000E+00 0. -1.
          2   -1    0    0  502    0 -0.00000000000E+00 -0.00000000000E+00 -0.76054534883E+03  0.76054534883E+03  0.00000000000E+00 0. -1.
         24    2    1    2    0    0 -0.75034523979E+02 -0.53107559282E+02 -0.17262189981E+03  0.21145846224E+03  0.80410001341E+02 0.  0.
         23    2    1    2    0    0  0.10004332379E+03  0.21428771119E+03 -0.21782819790E+03  0.33425235110E+03  0.91365314060E+02 0.  0.
        -13    1    3    3    0    0 -0.50026310178E+02 -0.61398304745E+02 -0.70627376689E+02  0.10611602082E+03  0.00000000000E+00 0.  1.
         14    1    3    3    0    0 -0.25008213800E+02  0.82907454629E+01 -0.10199452312E+03  0.10534244142E+03  0.00000000000E+00 0. -1.
        -11    1    4    4    0    0  0.11570681838E+03  0.18525223347E+03 -0.17320953099E+03  0.27876154586E+03  0.00000000000E+00 0. -1.
         11    1    4    4    0    0 -0.15663494589E+02  0.29035477720E+02 -0.44618666911E+02  0.55490805239E+02  0.00000000000E+00 0.  1.
          1    1    1    2  501    0 -0.25008799815E+02 -0.16118015191E+03 -0.26972329076E+03  0.31520649584E+03  0.00000000000E+00 0. -1.
<scales pt_clust_5="13000.00000" pt_clust_6="13000.00000" pt_clust_7="13000.00000" pt_clust_8="13000.00000" pt_clust_9="198.94454"></scales>
<clustering>
<clus scale="   80.410">  5  6 -1 -1</clus>
<clus scale="   91.365">  7  8 -1 -1</clus>
<clus scale="  122.133">  2  5  1 -1</clus>
<clus scale="  198.945">  1  9  2 -1</clus>
<clus scale="  198.945">  1  5  2 -1</clus>
</clustering>
</event>
<event>
 9    2  0.1325014E-004  0.1014960E+03  0.7546771E-02  0.1280439E+00
         21   -1    0    0  501  502  0.00000000000E+00  0.00000000000E+00  0.14424881741E+03  0.14424881741E+03  0.00000000000E+00 0. -1.
         -3   -1    0    0    0  501 -0.00000000000E+00 -0.00000000000E+00 -0.93680681027E+02  0.93680681027E+02  0.00000000000E+00 0.  1.
         23    2    1    2    0    0 -0.20842963595E+01 -0.62216907324E+02 -0.45496459793E+01  0.10812712068E+03  0.88292055696E+02 0.  0.
         24    2    1    2    0    0  0.49104671960E+01  0.32891050219E+02  0.45336399407E+02  0.98759365841E+02  0.81191682809E+02 0.  0.
        -11    1    4    4    0    0 -0.26507948176E+02 -0.79007843894E+01 -0.33929110446E+01  0.27867643529E+02  0.00000000000E+00 0.  1.
         12    1    4    4    0    0  0.31418415372E+02  0.40791834609E+02  0.48729310452E+02  0.70891722312E+02  0.00000000000E+00 0. -1.
        -11    1    3    3    0    0  0.20379384797E+02 -0.77524350018E+02  0.19326893278E+01  0.80181540634E+02  0.00000000000E+00 0.  1.
         11    1    3    3    0    0 -0.22463681156E+02  0.15307442694E+02 -0.64823353071E+01  0.27945580043E+02  0.00000000000E+00 0. -1.
         -4    1    1    2    0  502 -0.28261708364E+01  0.29325857104E+02  0.97813829531E+01  0.31043011919E+02  0.00000000000E+00 0.  1.
<scales pt_clust_5="13000.00000" pt_clust_6="13000.00000" pt_clust_7="13000.00000" pt_clust_8="13000.00000" pt_clust_9="29.46172"></scales>
<clustering>
<clus scale="   29.462">  1  9  2 -1</clus>
<clus scale="   81.192">  5  6 -1 -1</clus>
<clus scale="   88.292">  7  8 -1 -1</clus>
<clus scale="   95.384">  1  5  2 -1</clus>
<clus scale="   29.462">  1  5  2 -1</clus>
</clustering>
</event>
<event>
 9    2  0.1325014E-004  0.1367065E+03  0.7546771E-02  0.1220545E+00
          2   -1    0    0  502    0 -0.00000000000E+00  0.00000000000E+00  0.10183607265E+04  0.10183607265E+04  0.00000000000E+00 0. -1.
         21   -1    0    0  501  502  0.00000000000E+00 -0.00000000000E+00 -0.70932959051E+02  0.70932959051E+02  0.00000000000E+00 0. -1.
         23    2    1    2    0    0  0.93534331405E+02  0.23442214689E+02  0.71536328935E+03  0.72769399376E+03  0.92172144531E+02 0.  0.
         24    2    1    2    0    0 -0.11828109688E+03  0.10427577081E+02  0.26954860857E+03  0.30534468986E+03  0.80497049633E+02 0.  0.
        -11    1    4    4    0    0 -0.64474179136E+02 -0.32940054806E+02  0.11278397241E+03  0.13402310032E+03  0.00000000000E+00 0.  1.
         12    1    4    4    0    0 -0.53806917740E+02  0.43367631887E+02  0.15676463616E+03  0.17132158954E+03  0.00000000000E+00 0. -1.
        -13    1    3    3    0    0  0.94638481562E+02  0.49819132678E+02  0.58099696284E+03  0.59075871471E+03  0.00000000000E+00 0. -1.
         13    1    3    3    0    0 -0.11041501568E+01 -0.26376917989E+02  0.13436632651E+03  0.13693527905E+03  0.00000000000E+00 0.  1.
          1    1    1    2  501    0  0.24746765471E+02 -0.33869791770E+02 -0.37484130522E+02  0.56255001882E+02  0.00000000000E+00 0. -1.
<scales pt_clust_5="13000.00000" pt_clust_6="13000.00000" pt_clust_7="13000.00000" pt_clust_8="13000.00000" pt_clust_9="41.94717"></scales>
<clustering>
<clus scale="   41.947">  2  9  1 -1</clus>
<clus scale="   80.497">  5  6 -1 -1</clus>
<clus scale="   92.172">  7  8 -1 -1</clus>
<clus scale="  129.123">  2  5  1 -1</clus>
<clus scale="   41.947">  2  5  1 -1</clus>
</clustering>
</event>
<event>
 9    2  0.1325014E-004  0.1073469E+03  0.7546771E-02  0.1272687E+00
         21   -1    0    0  501  502  0.00000000000E+00  0.00000000000E+00  0.33317147380E+02  0.33317147380E+02  0.00000000000E+00 0.  1.
          2   -1    0    0  502    0 -0.00000000000E+00 -0.00000000000E+00 -0.53948758105E+03  0.53948758105E+03  0.00000000000E+00 0. -1.
         23    2    1    2    0    0  0.43982715125E+02 -0.35934361750E+02 -0.18212518165E+03  0.20859611265E+03  0.84362306984E+02 0.  0.
         24    2    1    2    0    0 -0.78037336476E+02  0.26322220310E+02 -0.13210940637E+03  0.16903823036E+03  0.65866098293E+02 0.  0.
        -13    1    4    4    0    0 -0.29837069764E+02  0.22880886712E+02 -0.11834270042E+02  0.39418722154E+02  0.00000000000E+00 0.  1.
         14    1    4    4    0    0 -0.48200266712E+02  0.34413335976E+01 -0.12027513633E+03  0.12961950820E+03  0.00000000000E+00 0. -1.
        -13    1    3    3    0    0 -0.17265712007E+02  0.14253182918E+02 -0.35961389667E+02  0.42361298153E+02  0.00000000000E+00 0. -1.
         13    1    3    3    0    0  0.61248427132E+02 -0.50187544667E+02 -0.14616379198E+03  0.16623481450E+03  0.00000000000E+00 0.  1.
          1    1    1    2  501    0  0.34054621351E+02  0.96121414400E+01 -0.19193584566E+03  0.19517038542E+03  0.00000000000E+00 0. -1.
<scales pt_clust_5="13000.00000" pt_clust_6="13000.00000" pt_clust_7="13000.00000" pt_clust_8="13000.00000" pt_clust_9="35.38519"></scales>
<clustering>
<clus scale="   35.385">  1  9  2 -1</clus>
<clus scale="   65.866">  5  6 -1 -1</clus>
<clus scale="   84.362">  7  8 -1 -1</clus>
<clus scale="   93.513">  1  5  2 -1</clus>
<clus scale="   35.385">  1  5  2 -1</clus>
</clustering>
</event>
<event>
 9    2  0.1325014E-004  0.1007801E+03  0.7546771E-02  0.1285039E+00
         21   -1    0    0  501  502  0.00000000000E+00  0.00000000000E+00  0.11055149937E+03  0.11055149937E+03  0.00000000000E+00 0. -1.
          2   -1    0    0  502    0 -0.00000000000E+00 -0.00000000000E+00 -0.28198359689E+03  0.28198359689E+03  0.00000000000E+00 0. -1.
         23    2    1    2    0    0 -0.31431815396E+02 -0.30618429525E+02 -0.21038270211E+03  0.23414544830E+03  0.92939562981E+02 0.  0.
         24    2    1    2    0    0  0.20425160347E+02 -0.16149956392E+02  0.62319830802E+02  0.10496166736E+03  0.80344147493E+02 0.  0.
        -13    1    4    4    0    0  0.34885478976E+02 -0.28920261970E+02  0.63458938792E+01  0.45756404633E+02  0.00000000000E+00 0.  1.
         14    1    4    4    0    0 -0.14460318629E+02  0.12770305579E+02  0.55973936923E+02  0.59205262723E+02  0.00000000000E+00 0. -1.
        -13    1    3    3    0    0 -0.20682021567E+02  0.27070008370E+02 -0.13143140343E+03  0.13577461168E+03  0.00000000000E+00 0.  1.
         13    1    3    3    0    0 -0.10749793829E+02 -0.57688437896E+02 -0.78951298682E+02  0.98370836622E+02  0.00000000000E+00 0. -1.
          1    1    1    2  501    0  0.11006655049E+02  0.46768385917E+02 -0.23369226208E+02  0.53427980593E+02  0.00000000000E+00 0. -1.
<scales pt_clust_5="13000.00000" pt_clust_6="13000.00000" pt_clust_7="13000.00000" pt_clust_8="13000.00000" pt_clust_9="48.04613"></scales>
<clustering>
<clus scale="   48.046">  1  9  2 -1</clus>
<clus scale="   80.344">  5  6 -1 -1</clus>
<clus scale="   89.298">  1  5  2 -1</clus>
<clus scale="   92.940">  7  8 -1 -1</clus>
<clus scale="   48.046">  1  5  2 -1</clus>
</clustering>
</event>
<event>
 9    2  0.1325014E-004  0.1228978E+03  0.7546771E-02  0.1241131E+00
         21   -1    0    0  501  502  0.00000000000E+00  0.00000000000E+00  0.65041278096E+02  0.65041278096E+02  0.00000000000E+00 0. -1.
          2   -1    0    0  502    0 -0.00000000000E+00 -0.00000000000E+00 -0.74114264027E+03  0.74114264027E+03  0.00000000000E+00 0. -1.
         24    2    1    2    0    0 -0.45115899315E+02  0.62525879116E+02 -0.51596531438E+03  0.52793658477E+03  0.80943819862E+02 0.  0.
         23    2    1    2    0    0  0.61484754372E+02 -0.12054477603E+03 -0.90453428505E+02  0.18610722698E+03  0.90236684104E+02 0.  0.
        -11    1    3    3    0    0 -0.51666241044E+02  0.52337637223E+01 -0.19304490048E+03  0.19990779462E+03  0.00000000000E+00 0.  1.
         12    1    3    3    0    0  0.65503417287E+01  0.57292115394E+02 -0.32292041389E+03  0.32802879016E+03  0.00000000000E+00 0. -1.
        -11    1    4    4    0    0 -0.22121136495E+02 -0.43871832720E+02 -0.29923403990E+02  0.57528188677E+02  0.00000000000E+00 0.  1.
         11    1    4    4    0    0  0.83605890867E+02 -0.76672943308E+02 -0.60530024514E+02  0.12857903830E+03  0.00000000000E+00 0. -1.
          1    1    1    2  501    0 -0.16368855057E+02  0.58018896912E+02 -0.69682619290E+02  0.92140106609E+02  0.00000000000E+00 0. -1.
<scales pt_clust_5="13000.00000" pt_clust_6="13000.00000" pt_clust_7="13000.00000" pt_clust_8="13000.00000" pt_clust_9="60.28376"></scales>
<clustering>
<clus scale="   60.284">  1  9  2 -1</clus>
<clus scale="   80.944">  5  6 -1 -1</clus>
<clus scale="   90.237">  7  8 -1 -1</clus>
<clus scale="  116.246">  2  5  1 -1</clus>
<clus scale="   60.284">  1  5  2 -1</clus>
</clustering>
</event>
<event>
 9    2  0.1325014E-004  0.1197878E+03  0.7546771E-02  0.1247035E+00
          2   -1    0    0  502    0 -0.00000000000E+00  0.00000000000E+00  0.75423262945E+03  0.75423262945E+03  0.00000000000E+00 0. -1.
         21   -1    0    0  501  502  0.00000000000E+00 -0.00000000000E+00 -0.35257797895E+02  0.35257797895E+02  0.00000000000E+00 0. -1.
         24    2    1    2    0    0  0.79940388626E+02 -0.33219068351E+01  0.55590100092E+03  0.56740655589E+03  0.80763704933E+02 0.  0.
         23    2    1    2    0    0 -0.65299130900E+02  0.20829619628E+02  0.16295454787E+03  0.19926062315E+03  0.91938902073E+02 0.  0.
        -13    1    3    3    0    0  0.27902597785E+02 -0.84533199558E+01  0.43635880508E+02  0.52479554582E+02  0.00000000000E+00 0.  1.
         14    1    3    3    0    0  0.52037790841E+02  0.51314131207E+01  0.51226512042E+03  0.51492700130E+03  0.00000000000E+00 0. -1.
        -13    1    4    4    0    0  0.77659290463E+01  0.37763453026E+02  0.42659844431E+02  0.57500003176E+02  0.00000000000E+00 0. -1.
         13    1    4    4    0    0 -0.73065059946E+02 -0.16933833398E+02  0.12029470344E+03  0.14176061997E+03  0.00000000000E+00 0.  1.
          1    1    1    2  501    0 -0.14641257726E+02 -0.17507712793E+02  0.11928275472E+00  0.22823248310E+02  0.00000000000E+00 0. -1.
<scales pt_clust_5="13000.00000" pt_clust_6="13000.00000" pt_clust_7="13000.00000" pt_clust_8="13000.00000" pt_clust_9="22.82294"></scales>
<clustering>
<clus scale="   22.823">  2  9  1 -1</clus>
<clus scale="   80.764">  5  6 -1 -1</clus>
<clus scale="   91.939">  7  8 -1 -1</clus>
<clus scale="  111.441">  1  5  2 -1</clus>
<clus scale="   22.823">  2  5  1 -1</clus>
</clustering>
</event>
<event>
 9    2  0.1325014E-004  0.1175849E+03  0.7546771E-02  0.1252394E+00
         -1   -1    0    0    0  501 -0.00000000000E+00  0.00000000000E+00  0.39542986690E+03  0.39542986690E+03  0.00000000000E+00 0.  1.
         21   -1    0    0  501  502  0.00000000000E+00 -0.00000000000E+00 -0.98152061312E+02  0.98152061312E+02  0.00000000000E+00 0.  1.
         24    2    1    2    0    0 -0.83227926730E+02 -0.58983386286E+02  0.22769936122E+03  0.26207730706E+03  0.80197182819E+02 0.  0.
         23    2    1    2    0    0  0.37336070373E+02 -0.21931261691E+02  0.88036363048E+02  0.13666824891E+03  0.95146448437E+02 0.  0.
        -13    1    3    3    0    0 -0.98344692715E+02 -0.51500273241E+02  0.17996712861E+03  0.21145241571E+03  0.00000000000E+00 0.  1.
         14    1    3    3    0    0  0.15116765985E+02 -0.74831130441E+01  0.47732232612E+02  0.50624891356E+02  0.00000000000E+00 0. -1.
        -13    1    4    4    0    0 -0.17765727852E+01 -0.53799730733E+02  0.50205880258E+02  0.73608407470E+02  0.00000000000E+00 0.  1.
         13    1    4    4    0    0  0.39112643159E+02  0.31868469041E+02  0.37830482790E+02  0.63059841437E+02  0.00000000000E+00 0. -1.
         -2    1    1    2    0  502  0.45891856357E+02  0.80914647977E+02 -0.18457918684E+02  0.94836372238E+02  0.00000000000E+00 0.  1.
<scales pt_clust_5="13000.00000" pt_clust_6="13000.00000" pt_clust_7="13000.00000" pt_clust_8="13000.00000" pt_clust_9="93.02281"></scales>
<clustering>
<clus scale="   80.197">  5  6 -1 -1</clus>
<clus scale="   93.023">  2  9  1 -1</clus>
<clus scale="   95.146">  7  8 -1 -1</clus>
<clus scale="  105.853">  1  5  2 -1</clus>
<clus scale="   93.023">  2  5  1 -1</clus>
</clustering>
</event>
<event>
 9    2  0.1325014E-004  0.1040105E+03  0.7546771E-02  0.1277253E+00
         21   -1    0    0  501  502  0.00000000000E+00  0.00000000000E+00  0.10620466085E+03  0.10620466085E+03  0.00000000000E+00 0. -1.
          4   -1    0    0  502    0 -0.00000000000E+00 -0.00000000000E+00 -0.26342478734E+03  0.26342478734E+03  0.00000000000E+00 0. -1.
         23    2    1    2    0    0  0.11346663287E+01 -0.67613529473E+02 -0.18088033533E+03  0.21373330218E+03  0.91604322582E+02 0.  0.
         24    2    1    2    0    0 -0.13412759146E+02 -0.39412839553E+01  0.11635078199E+02  0.82306427608E+02  0.80271646014E+02 0.  0.
        -13    1    4    4    0    0 -0.82009354918E+00 -0.37675524162E+02  0.23479416352E+02  0.44400457954E+02  0.00000000000E+00 0.  1.
         14    1    4    4    0    0 -0.12592665597E+02  0.33734240206E+02 -0.11844338153E+02  0.37905969654E+02  0.00000000000E+00 0. -1.
        -13    1    3    3    0    0  0.76410709342E+00 -0.89321190839E+02 -0.12377788629E+03  0.15264279913E+03  0.00000000000E+00 0. -1.
         13    1    3    3    0    0  0.37055923527E+00  0.21707661365E+02 -0.57102449043E+02  0.61090503049E+02  0.00000000000E+00 0.  1.
          3    1    1    2  501    0  0.12278092817E+02  0.71554813429E+02  0.12025130644E+02  0.73589718406E+02  0.00000000000E+00 0. -1.
<scales pt_clust_5="13000.00000" pt_clust_6="13000.00000" pt_clust_7="13000.00000" pt_clust_8="13000.00000" pt_clust_9="72.60057"></scales>
<clustering>
<clus scale="   72.601">  1  9  2 -1</clus>
<clus scale="   80.272">  5  6 -1 -1</clus>
<clus scale="   91.604">  7  8 -1 -1</clus>
<clus scale="   94.183">  1  5  2 -1</clus>
<clus scale="   72.601">  1  5  2 -1</clus>
</clustering>
</event>
<event>
 9    2  0.1325014E-004  0.9142688E+02  0.7546771E-02  0.1330054E+00
         21   -1    0    0  501  502  0.00000000000E+00  0.00000000000E+00  0.56205784362E+02  0.56205784362E+02  0.00000000000E+00 0. -1.
          2   -1    0    0  502    0 -0.00000000000E+00 -0.00000000000E+00 -0.19928163507E+03  0.19928163507E+03  0.00000000000E+00 0. -1.
         23    2    1    2    0    0  0.58273803259E-01  0.29731467557E+02 -0.10418133022E+03  0.14147916777E+03  0.90987041868E+02 0.  0.
         24    2    1    2    0    0 -0.60809283389E+01  0.18824812174E+02 -0.79115034178E+01  0.56095109666E+02  0.51891407760E+02 0.  0.
        -13    1    4    4    0    0 -0.23877969599E+02  0.12937362013E+02 -0.20054942212E+02  0.33759938909E+02  0.00000000000E+00 0.  1.
         14    1    4    4    0    0  0.17797041260E+02  0.58874501609E+01  0.12143438794E+02  0.22335170757E+02  0.00000000000E+00 0. -1.
        -13    1    3    3    0    0 -0.31249085239E+02 -0.79696920077E+01 -0.81166428392E+02  0.87338481878E+02  0.00000000000E+00 0.  1.
         13    1    3    3    0    0  0.31307359042E+02  0.37701159565E+02 -0.23014901828E+02  0.54140685892E+02  0.00000000000E+00 0. -1.
          1    1    1    2  501    0  0.60226545356E+01 -0.48556279731E+02 -0.30983017071E+02  0.57913141996E+02  0.00000000000E+00 0. -1.
<scales pt_clust_5="13000.00000" pt_clust_6="13000.00000" pt_clust_7="13000.00000" pt_clust_8="13000.00000" pt_clust_9="48.92836"></scales>
<clustering>
<clus scale="   48.928">  1  9  2 -1</clus>
<clus scale="   51.891">  5  6 -1 -1</clus>
<clus scale="   52.659">  1  5  2 -1</clus>
<clus scale="   90.987">  7  8 -1 -1</clus>
<clus scale="   48.928">  1  5  2 -1</clus>
</clustering>
</event>
<event>
 9    2  0.1325014E-004  0.2569795E+03  0.7546771E-02  0.1150344E+00
         21   -1    0    0  501  502  0.00000000000E+00  0.00000000000E+00  0.10456000919E+03  0.10456000919E+03  0.00000000000E+00 0. -1.
          2   -1    0    0  502    0 -0.00000000000E+00 -0.00000000000E+00 -0.10316927851E+04  0.10316927851E+04  0.00000000000E+00 0. -1.
         23    2    1    2    0    0 -0.10195678834E+02  0.11924076464E+02 -0.55325622130E+02  0.10816110855E+03  0.91606579853E+02 0.  0.
         24    2    1    2    0    0 -0.63935402057E+02 -0.23881916149E+03 -0.24336694697E+03  0.35584627645E+03  0.79226094542E+02 0.  0.
        -13    1    4    4    0    0 -0.66659938455E+02 -0.14186644902E+03 -0.18568552102E+03  0.24299948450E+03  0.00000000000E+00 0.  1.
         14    1    4    4    0    0  0.27245363982E+01 -0.96952712466E+02 -0.57681425951E+02  0.11284679195E+03  0.00000000000E+00 0. -1.
        -13    1    3    3    0    0 -0.39784758246E+02 -0.71340058529E+01 -0.60323009676E+02  0.72612578281E+02  0.00000000000E+00 0.  1.
         13    1    3    3    0    0  0.29589079412E+02  0.19058082316E+02  0.49973875462E+01  0.35548530270E+02  0.00000000000E+00 0. -1.
          1    1    1    2  501    0  0.74131080890E+02  0.22689508503E+03 -0.62844020687E+03  0.67224540933E+03  0.00000000000E+00 0. -1.
<scales pt_clust_5="13000.00000" pt_clust_6="13000.00000" pt_clust_7="13000.00000" pt_clust_8="13000.00000" pt_clust_9="244.46221"></scales>
<clustering>
<clus scale="   79.226">  5  6 -1 -1</clus>
<clus scale="   91.607">  7  8 -1 -1</clus>
<clus scale="   92.940">  2  7  1 -1</clus>
<clus scale="  244.462">  1  9  2 -1</clus>
<clus scale="  244.462">  1  5  2 -1</clus>
</clustering>
</event>
<event>
 9    2  0.1325014E-004  0.1299038E+03  0.7546771E-02  0.1230001E+00
         21   -1    0    0  501  502  0.00000000000E+00  0.00000000000E+00  0.10605266444E+03  0.10605266444E+03  0.00000000000E+00 0. -1.
         -1   -1    0    0    0  501 -0.00000000000E+00 -0.00000000000E+00 -0.40742583983E+03  0.40742583983E+03  0.00000000000E+00 0.  1.
         24    2    1    2    0    0  0.44652875906E+02 -0.77006767790E+02 -0.31439134820E+03  0.33702939995E+03  0.82601301423E+02 0.  0.
         23    2    1    2    0    0 -0.72244644006E+02  0.87990599016E+02  0.12346029900E+02  0.14674385241E+03  0.91758921432E+02 0.  0.
        -13    1    3    3    0    0 -0.93479164727E+01 -0.63913763976E+02 -0.19307250333E+03  0.20359112041E+03  0.00000000000E+00 0.  1.
         14    1    3    3    0    0  0.54000792379E+02 -0.13093003814E+02 -0.12131884488E+03  0.13343827955E+03  0.00000000000E+00 0. -1.
        -13    1    4    4    0    0  0.60902117182E+01  0.64011781450E+02  0.54229029399E+01  0.64529115285E+02  0.00000000000E+00 0.  1.
         13    1    4    4    0    0 -0.78334855724E+02  0.23978817566E+02  0.69231269599E+01  0.82214737123E+02  0.00000000000E+00 0. -1.
         -2    1    1    2    0  502  0.27591768100E+02 -0.10983831226E+02  0.67214291313E+00  0.29705251916E+02  0.00000000000E+00 0.  1.
<scales pt_clust_5="13000.00000" pt_clust_6="13000.00000" pt_clust_7="13000.00000" pt_clust_8="13000.00000" pt_clust_9="29.69765"></scales>
<clustering>
<clus scale="   29.698">  1  9  2 -1</clus>
<clus scale="   82.601">  5  6 -1 -1</clus>
<clus scale="   91.759">  7  8 -1 -1</clus>
<clus scale="  123.605">  2  5  1 -1</clus>
<clus scale="   29.698">  1  5  2 -1</clus>
</clustering>
</event>
<event>
 9    2  0.1325014E-004  0.1053401E+03  0.7546771E-02  0.1273682E+00
         21   -1    0    0  501  502  0.00000000000E+00  0.00000000000E+00  0.34642520318E+02  0.34642520318E+02  0.00000000000E+00 0. -1.
          2   -1    0    0  502    0 -0.00000000000E+00 -0.00000000000E+00 -0.90165028940E+03  0.90165028940E+03  0.00000000000E+00 0. -1.
         24    2    1    2    0    0 -0.47806896389E+02  0.49231109616E+01 -0.54945490967E+03  0.55727674955E+03  0.79667694036E+02 0.  0.
         23    2    1    2    0    0  0.84743481139E+02  0.47822380363E+02 -0.26399161320E+03  0.29525923809E+03  0.89543331288E+02 0.  0.
        -13    1    3    3    0    0 -0.22555923688E+02  0.53376417549E+00 -0.31817484447E+02  0.39005216499E+02  0.00000000000E+00 0.  1.
         14    1    3    3    0    0 -0.25250972701E+02  0.43893467861E+01 -0.51763742522E+03  0.51827153305E+03  0.00000000000E+00 0. -1.
        -13    1    4    4    0    0 -0.20905643609E+01  0.38562934108E+02 -0.43862435139E+02  0.58441283035E+02  0.00000000000E+00 0. -1.
         13    1    4    4    0    0  0.86834045500E+02  0.92594462554E+01 -0.22012917806E+03  0.23681795505E+03  0.00000000000E+00 0.  1.
          1    1    1    2  501    0 -0.36936584751E+02 -0.52745491325E+02 -0.53561246220E+02  0.83756822079E+02  0.00000000000E+00 0. -1.
<scales pt_clust_5="13000.00000" pt_clust_6="13000.00000" pt_clust_7="13000.00000" pt_clust_8="13000.00000" pt_clust_9="64.39253"></scales>
<clustering>
<clus scale="   64.393">  1  9  2 -1</clus>
<clus scale="   79.668">  5  6 -1 -1</clus>
<clus scale="   89.543">  7  8 -1 -1</clus>
<clus scale="   97.085">  2  5  1 -1</clus>
<clus scale="   64.393">  1  5  2 -1</clus>
</clustering>
</event>
<event>
 9    2  0.1325014E-004  0.1583435E+03  0.7546771E-02  0.1202926E+00
          2   -1    0    0  502    0 -0.00000000000E+00  0.00000000000E+00  0.15420876540E+03  0.15420876540E+03  0.00000000000E+00 0. -1.
         21   -1    0    0  501  502  0.00000000000E+00 -0.00000000000E+00 -0.57307302147E+03  0.57307302147E+03  0.00000000000E+00 0. -1.
         23    2    1    2    0    0  0.58358351701E+02  0.53325404832E+02  0.70144085342E+02  0.13979043659E+03  0.91497964131E+02 0.  0.
         24    2    1    2    0    0 -0.24828071410E+02 -0.17260748998E+03 -0.22772089078E+03  0.29831384876E+03  0.82003472716E+02 0.  0.
        -11    1    4    4    0    0  0.28230750139E+02 -0.71104850742E+02 -0.11076288294E+03  0.13461534567E+03  0.00000000000E+00 0.  1.
         12    1    4    4    0    0 -0.53058821549E+02 -0.10150263923E+03 -0.11695800784E+03  0.16369850309E+03  0.00000000000E+00 0. -1.
        -11    1    3    3    0    0  0.78397749278E+02  0.52851049058E+02  0.73122338173E+02  0.11952538148E+03  0.00000000000E+00 0. -1.
         11    1    3    3    0    0 -0.20039397578E+02  0.47435577426E+00 -0.29782528304E+01  0.20265055110E+02  0.00000000000E+00 0.  1.
          1    1    1    2  501    0 -0.33530280291E+02  0.11928208514E+03 -0.26128745062E+03  0.28917750152E+03  0.00000000000E+00 0. -1.
<scales pt_clust_5="13000.00000" pt_clust_6="13000.00000" pt_clust_7="13000.00000" pt_clust_8="13000.00000" pt_clust_9="135.45509"></scales>
<clustering>
<clus scale="   82.003">  5  6 -1 -1</clus>
<clus scale="   91.498">  7  8 -1 -1</clus>
<clus scale="  120.918">  1  7  2 -1</clus>
<clus scale="  135.455">  2  9  1 -1</clus>
<clus scale="  135.455">  2  5  1 -1</clus>
</clustering>
</event>
<event>
 9    2  0.1325014E-004  0.2910287E+03  0.7546771E-02  0.1138763E+00
          4   -1    0    0  502    0 -0.00000000000E+00  0.00000000000E+00  0.38234590377E+03  0.38234590377E+03  0.00000000000E+00 0. -1.
         21   -1    0    0  501  502  0.00000000000E+00 -0.00000000000E+00 -0.57221883919E+03  0.57221883919E+03  0.00000000000E+00 0. -1.
         24    2    1    2    0    0 -0.20567217666E+02 -0.14512547470E+02  0.23064395697E+03  0.24560683002E+03  0.80575775441E+02 0.  0.
         23    2    1    2    0    0 -0.11551493850E+03 -0.23989045756E+03 -0.22836978857E+03  0.36231724640E+03  0.90718763569E+02 0.  0.
        -11    1    3    3    0    0 -0.10399231365E+02  0.28365425445E+02  0.41109646585E+02  0.51017099251E+02  0.00000000000E+00 0.  1.
         12    1    3    3    0    0 -0.10167986301E+02 -0.42877972914E+02  0.18953431038E+03  0.19458973076E+03  0.00000000000E+00 0. -1.
        -11    1    4    4    0    0 -0.98863188074E+02 -0.21818100713E+03 -0.15835552995E+03  0.28714692353E+03  0.00000000000E+00 0. -1.
         11    1    4    4    0    0 -0.16651750429E+02 -0.21709450434E+02 -0.70014258623E+02  0.75170322874E+02  0.00000000000E+00 0.  1.
          3    1    1    2  501    0  0.13608215617E+03  0.25440300503E+03 -0.19214710382E+03  0.34664066655E+03  0.00000000000E+00 0. -1.
<scales pt_clust_5="13000.00000" pt_clust_6="13000.00000" pt_clust_7="13000.00000" pt_clust_8="13000.00000" pt_clust_9="276.52825"></scales>
<clustering>
<clus scale="   80.576">  5  6 -1 -1</clus>
<clus scale="   84.416">  1  5  2 -1</clus>
<clus scale="   90.719">  7  8 -1 -1</clus>
<clus scale="  276.528">  2  9  1 -1</clus>
<clus scale="  276.528">  2  5  1 -1</clus>
</clustering>
</event>
<event>
 9    2  0.1325014E-004  0.4537254E+03  0.7546771E-02  0.1053469E+00
          2   -1    0    0  502    0 -0.00000000000E+00  0.00000000000E+00  0.28329595434E+04  0.28329595434E+04  0.00000000000E+00 0. -1.
         21   -1    0    0  501  502  0.00000000000E+00 -0.00000000000E+00 -0.15733380469E+03  0.15733380469E+03  0.00000000000E+00 0. -1.
         23    2    1    2    0    0 -0.10613481792E+03  0.16169435040E+03  0.60217397876E+02  0.21627000229E+03  0.75742434349E+02 0.  0.
         24    2    1    2    0    0 -0.38797678386E+03 -0.72373113029E+02  0.14536484949E+04  0.15083968218E+04  0.80019829913E+02 0.  0.
        -11    1    4    4    0    0 -0.89818285808E+02  0.67629909266E+01  0.24599726852E+03  0.26196892685E+03  0.00000000000E+00 0.  1.
         12    1    4    4    0    0 -0.29815849805E+03 -0.79136103956E+02  0.12076512263E+04  0.12464278950E+04  0.00000000000E+00 0. -1.
        -11    1    3    3    0    0 -0.41062358756E+02  0.18110433568E+02  0.34360804409E+02  0.56522296399E+02  0.00000000000E+00 0.  1.
         11    1    3    3    0    0 -0.65072459161E+02  0.14358391683E+03  0.25856593467E+02  0.15974770590E+03  0.00000000000E+00 0. -1.
          1    1    1    2  501    0  0.49411160178E+03 -0.89321237368E+02  0.11617598460E+04  0.12656265240E+04  0.00000000000E+00 0. -1.
<scales pt_clust_5="13000.00000" pt_clust_6="13000.00000" pt_clust_7="13000.00000" pt_clust_8="13000.00000" pt_clust_9="446.61344"></scales>
<clustering>
<clus scale="   75.742">  7  8 -1 -1</clus>
<clus scale="   80.020">  5  6 -1 -1</clus>
<clus scale="  207.718">  1  7  2 -1</clus>
<clus scale="  446.613">  2  9  1 -1</clus>
<clus scale="  446.613">  2  5  1 -1</clus>
</clustering>
</event>
<event>
 9    2  0.1325014E-004  0.2430587E+03  0.7546771E-02  0.1118448E+00
          2   -1    0    0  502    0 -0.00000000000E+00  0.00000000000E+00  0.68040596928E+03  0.68040596928E+03  0.00000000000E+00 0. -1.
         21   -1    0    0  501  502  0.00000000000E+00 -0.00000000000E+00 -0.20892110671E+03  0.20892110671E+03  0.00000000000E+00 0.  1.
         24    2    1    2    0    0  0.72602771859E+02  0.20920737010E+03  0.51720035691E+03  0.56827117290E+03  0.79981438953E+02 0.  0.
         23    2    1    2    0    0 -0.39529213733E+02 -0.24769258601E+03 -0.36270814653E+02  0.26944026530E+03  0.91478460107E+02 0.  0.
        -13    1    3    3    0    0  0.56992711659E+02  0.16480064189E+03  0.30891743856E+03  0.35473568272E+03  0.00000000000E+00 0.  1.
         14    1    3    3    0    0  0.15610060200E+02  0.44406728212E+02  0.20828291835E+03  0.21353549018E+03  0.00000000000E+00 0. -1.
        -11    1    4    4    0    0 -0.26533014915E+02 -0.12876595896E+02  0.70131423121E+01  0.30314876998E+02  0.00000000000E+00 0. -1.
         11    1    4    4    0    0 -0.12996198818E+02 -0.23481599012E+03 -0.43283956965E+02  0.23912538830E+03  0.00000000000E+00 0.  1.
          1    1    1    2  501    0 -0.33073558126E+02  0.38485215907E+02 -0.94446796799E+01  0.51615637793E+02  0.00000000000E+00 0. -1.
<scales pt_clust_5="13000.00000" pt_clust_6="13000.00000" pt_clust_7="13000.00000" pt_clust_8="13000.00000" pt_clust_9="50.74418"></scales>
<clustering>
<clus scale="   50.744">  2  9  1 -1</clus>
<clus scale="   79.981">  5  6 -1 -1</clus>
<clus scale="   91.478">  7  8 -1 -1</clus>
<clus scale="  238.969">  1  5  2 -1</clus>
<clus scale="   50.744">  2  5  1 -1</clus>
</clustering>
</event>
<event>
 9    2  0.1325014E-004  0.3039048E+03  0.7546771E-02  0.1083305E+00
         21   -1    0    0  501  502  0.00000000000E+00  0.00000000000E+00  0.91039591076E+02  0.91039591076E+02  0.00000000000E+00 0.  1.
          2   -1    0    0  502    0 -0.00000000000E+00 -0.00000000000E+00 -0.85474542189E+03  0.85474542189E+03  0.00000000000E+00 0. -1.
         24    2    1    2    0    0  0.12860918970E+02 -0.54328742232E+02 -0.14569360521E+03  0.17522812285E+03  0.79757463415E+02 0.  0.
         23    2    1    2    0    0  0.69121246523E+02 -0.16275693637E+03 -0.15314479979E+03  0.25099073369E+03  0.90969509383E+02 0.  0.
        -13    1    3    3    0    0  0.37317197140E+02 -0.99881984903E+01 -0.29912837765E+02  0.48858112680E+02  0.00000000000E+00 0.  1.
         14    1    3    3    0    0 -0.24456278170E+02 -0.44340543741E+02 -0.11578076744E+03  0.12637001017E+03  0.00000000000E+00 0. -1.
        -13    1    4    4    0    0  0.16285934072E+02 -0.56600601872E+02 -0.20641464873E+01  0.58933186589E+02  0.00000000000E+00 0.  1.
         13    1    4    4    0    0  0.52835312451E+02 -0.10615633450E+03 -0.15108065330E+03  0.19205754710E+03  0.00000000000E+00 0. -1.
          1    1    1    2  501    0 -0.81982165493E+02  0.21708567861E+03 -0.46486742582E+03  0.51956615642E+03  0.00000000000E+00 0. -1.
<scales pt_clust_5="13000.00000" pt_clust_6="13000.00000" pt_clust_7="13000.00000" pt_clust_8="13000.00000" pt_clust_9="232.05026"></scales>
<clustering>
<clus scale="   79.757">  5  6 -1 -1</clus>
<clus scale="   90.970">  7  8 -1 -1</clus>
<clus scale="   97.287">  5  7 -1 -1</clus>
<clus scale="  232.050">  1  9  2 -1</clus>
<clus scale="  232.050">  1  5  2 -1</clus>
</clustering>
</event>
<event>
 9    2  0.1325014E-004  0.2973517E+03  0.7546771E-02  0.1123316E+00
         21   -1    0    0  501  502  0.00000000000E+00  0.00000000000E+00  0.94844864619E+02  0.94844864619E+02  0.00000000000E+00 0.  1.
          2   -1    0    0  502    0 -0.00000000000E+00 -0.00000000000E+00 -0.16026149946E+04  0.16026149946E+04  0.00000000000E+00 0. -1.
         23    2    1    2    0    0 -0.28744996258E+02 -0.65085534302E+02 -0.29886651431E+03  0.32043643097E+03  0.91081893567E+02 0.  0.
         24    2    1    2    0    0  0.21439909573E+03  0.21724829997E+03 -0.29376588157E+03  0.43092722580E+03  0.78968884179E+02 0.  0.
        -13    1    4    4    0    0  0.94720054024E+02  0.11385428130E+03 -0.91196087145E+02  0.17392933138E+03  0.00000000000E+00 0.  1.
         14    1    4    4    0    0  0.11967904170E+03  0.10339401868E+03 -0.20256979442E+03  0.25699789442E+03  0.00000000000E+00 0. -1.
        -11    1    3    3    0    0  0.13182708470E+02  0.15978283718E+02 -0.29635561792E+02  0.36157376507E+02  0.00000000000E+00 0. -1.
         11    1    3    3    0    0 -0.41927704729E+02 -0.81063818020E+02 -0.26923095252E+03  0.28427905447E+03  0.00000000000E+00 0.  1.
          1    1    1    2  501    0 -0.18565409947E+03 -0.15216276567E+03 -0.91513773413E+03  0.94609620248E+03  0.00000000000E+00 0. -1.
<scales pt_clust_5="13000.00000" pt_clust_6="13000.00000" pt_clust_7="13000.00000" pt_clust_8="13000.00000" pt_clust_9="286.67412"></scales>
<clustering>
<clus scale="   78.969">  5  6 -1 -1</clus>
<clus scale="   91.082">  7  8 -1 -1</clus>
<clus scale="  115.578">  2  7  1 -1</clus>
<clus scale="  286.674">  1  9  2 -1</clus>
<clus scale="  286.674">  1  5  2 -1</clus>
</clustering>
</event>
<event>
 9    2  0.1325014E-004  0.1607216E+03  0.7546771E-02  0.1189171E+00
          2   -1    0    0  502    0 -0.00000000000E+00  0.00000000000E+00  0.10574962246E+04  0.10574962246E+04  0.00000000000E+00 0. -1.
         21   -1    0    0  501  502  0.00000000000E+00 -0.00000000000E+00 -0.12433821327E+03  0.12433821327E+03  0.00000000000E+00 0. -1.
         24    2    1    2    0    0  0.13185761633E+03 -0.18727969280E+02  0.94938610127E+03  0.96218710311E+03  0.82054154589E+02 0.  0.
         23    2    1    2    0    0 -0.12498113288E+03  0.44508780044E+02  0.32796350555E+02  0.16383217562E+03  0.90355221666E+02 0.  0.
        -13    1    3    3    0    0  0.79574870879E+02 -0.13935711173E+02  0.30015471135E+03  0.31083631524E+03  0.00000000000E+00 0.  1.
         14    1    3    3    0    0  0.52282745451E+02 -0.47922581068E+01  0.64923138992E+03  0.65135078788E+03  0.00000000000E+00 0. -1.
        -11    1    4    4    0    0 -0.92088618131E+02 -0.12067145059E+02  0.58533126347E+01  0.93060146400E+02  0.00000000000E+00 0.  1.
         11    1    4    4    0    0 -0.32892514748E+02  0.56575925103E+02  0.26943037920E+02  0.70772029221E+02  0.00000000000E+00 0. -1.
          1    1    1    2  501    0 -0.68764834518E+01 -0.25780810764E+02 -0.49024440471E+02  0.55815159158E+02  0.00000000000E+00 0. -1.
<scales pt_clust_5="13000.00000" pt_clust_6="13000.00000" pt_clust_7="13000.00000" pt_clust_8="13000.00000" pt_clust_9="26.68213"></scales>
<clustering>
<clus scale="   26.682">  2  9  1 -1</clus>
<clus scale="   82.054">  5  6 -1 -1</clus>
<clus scale="   90.355">  7  8 -1 -1</clus>
<clus scale="  156.206">  1  5  2 -1</clus>
<clus scale="   26.682">  2  5  1 -1</clus>
</clustering>
</event>
<event>
 9    2  0.1325014E-004  0.1417074E+03  0.7546771E-02  0.1213727E+00
          4   -1    0    0  502    0 -0.00000000000E+00  0.00000000000E+00  0.16949739070E+03  0.16949739070E+03  0.00000000000E+00 0. -1.
         21   -1    0    0  501  502  0.00000000000E+00 -0.00000000000E+00 -0.23408506858E+03  0.23408506858E+03  0.00000000000E+00 0. -1.
         24    2    1    2    0    0  0.13733282962E+03 -0.34003780014E+02  0.41512425256E+02  0.16819899350E+03  0.80938599051E+02 0.  0.
         23    2    1    2    0    0 -0.43034283253E+02  0.50164103526E+02 -0.54732703529E+02  0.12679257461E+03  0.93339709248E+02 0.  0.
        -13    1    3    3    0    0  0.53304898466E+02 -0.20535810748E+02 -0.22825293839E+02  0.61515248210E+02  0.00000000000E+00 0.  1.
         14    1    3    3    0    0  0.84027931157E+02 -0.13467969266E+02  0.64337719095E+02  0.10668374529E+03  0.00000000000E+00 0. -1.
        -13    1    4    4    0    0 -0.78872023254E+01  0.71877727201E+02 -0.27765455549E+02  0.77456672727E+02  0.00000000000E+00 0. -1.
         13    1    4    4    0    0 -0.35147080927E+02 -0.21713623675E+02 -0.26967247980E+02  0.49335901881E+02  0.00000000000E+00 0.  1.
          3    1    1    2  501    0 -0.94298546370E+02 -0.16160323512E+02 -0.51367399606E+02  0.10859089117E+03  0.00000000000E+00 0. -1.
<scales pt_clust_5="13000.00000" pt_clust_6="13000.00000" pt_clust_7="13000.00000" pt_clust_8="13000.00000" pt_clust_9="95.67326"></scales>
<clustering>
<clus scale="   80.939">  5  6 -1 -1</clus>
<clus scale="   93.340">  7  8 -1 -1</clus>
<clus scale="   95.673">  2  9  1 -1</clus>
<clus scale="  133.865">  1  5  2 -1</clus>
<clus scale="   95.673">  2  5  1 -1</clus>
</clustering>
</event>
<event>
 9    2  0.1325014E-004  0.1008131E+03  0.7546771E-02  0.1285749E+00
         -1   -1    0    0    0  501 -0.00000000000E+00  0.00000000000E+00  0.51181499039E+03  0.51181499039E+03  0.00000000000E+00 0.  1.
         21   -1    0    0  501  502  0.00000000000E+00 -0.00000000000E+00 -0.38162473817E+02  0.38162473817E+02  0.00000000000E+00 0.  1.
         23    2    1    2    0    0  0.45258922055E+02  0.23108394811E+01  0.29013117171E+03  0.30763518462E+03  0.91703871291E+02 0.  0.
         24    2    1    2    0    0 -0.28900742863E+02 -0.18833194656E+02  0.34492613226E+02  0.91510780561E+02  0.77424417549E+02 0.  0.
        -11    1    4    4    0    0  0.20231574288E+02  0.13338469106E+02  0.18084284891E+01  0.24300242177E+02  0.00000000000E+00 0.  1.
         12    1    4    4    0    0 -0.49132317152E+02 -0.32171663762E+02  0.32684184737E+02  0.67210538384E+02  0.00000000000E+00 0. -1.
        -13    1    3    3    0    0  0.43730199533E+02  0.36881081717E+02  0.10769002667E+03  0.12194132352E+03  0.00000000000E+00 0. -1.
         13    1    3    3    0    0  0.15287225222E+01 -0.34570242236E+02  0.18244114505E+03  0.18569386109E+03  0.00000000000E+00 0.  1.
         -2    1    1    2    0  502 -0.16358179191E+02  0.16522355175E+02  0.14902873163E+03  0.15083149903E+03  0.00000000000E+00 0.  1.
<scales pt_clust_5="13000.00000" pt_clust_6="13000.00000" pt_clust_7="13000.00000" pt_clust_8="13000.00000" pt_clust_9="23.25035"></scales>
<clustering>
<clus scale="   23.250">  2  9  1 -1</clus>
<clus scale="   77.424">  5  6 -1 -1</clus>
<clus scale="   88.024">  2  5  1 -1</clus>
<clus scale="   91.704">  7  8 -1 -1</clus>
<clus scale="   23.250">  2  5  1 -1</clus>
</clustering>
</event>
<event>
 9    2  0.1325014E-004  0.9728531E+02  0.7546771E-02  0.1291706E+00
         -3   -1    0    0    0  501 -0.00000000000E+00  0.00000000000E+00  0.45709680407E+03  0.45709680407E+03  0.00000000000E+00 0.  1.
         21   -1    0    0  501  502  0.00000000000E+00 -0.00000000000E+00 -0.91960679718E+02  0.91960679718E+02  0.00000000000E+00 0.  1.
         24    2    1    2    0    0 -0.88870301048E+01  0.23739313725E+02  0.35648902119E+03  0.36704904815E+03  0.83654331629E+02 0.  0.
         23    2    1    2    0    0 -0.10627838618E+02 -0.33411629766E+02  0.66510738192E+02  0.12018138609E+03  0.93758195959E+02 0.  0.
        -11    1    3    3    0    0  0.34148373637E+02  0.25660400384E+02  0.21265625001E+03  0.21690377645E+03  0.00000000000E+00 0.  1.
         12    1    3    3    0    0 -0.43035403742E+02 -0.19210866589E+01  0.14383277117E+03  0.15014527170E+03  0.00000000000E+00 0. -1.
        -13    1    4    4    0    0 -0.43197085129E+02 -0.57050921743E+01  0.30760808439E+01  0.43680642322E+02  0.00000000000E+00 0. -1.
         13    1    4    4    0    0  0.32569246511E+02 -0.27706537591E+02  0.63434657348E+02  0.76500743764E+02  0.00000000000E+00 0.  1.
         -4    1    1    2    0  502  0.19514868722E+02  0.96723160407E+01 -0.57863635023E+02  0.61827049557E+02  0.00000000000E+00 0.  1.
<scales pt_clust_5="13000.00000" pt_clust_6="13000.00000" pt_clust_7="13000.00000" pt_clust_8="13000.00000" pt_clust_9="21.78035"></scales>
<clustering>
<clus scale="   21.780">  2  9  1 -1</clus>
<clus scale="   83.654">  5  6 -1 -1</clus>
<clus scale="   87.589">  1  5  2 -1</clus>
<clus scale="   93.758">  7  8 -1 -1</clus>
<clus scale="   21.780">  2  5  1 -1</clus>
</clustering>
</event>
<event>
 9    2  0.1325014E-004  0.1561054E+03  0.7546771E-02  0.1194953E+00
         21   -1    0    0  501  502  0.00000000000E+00  0.00000000000E+00  0.60381743453E+02  0.60381743453E+02  0.00000000000E+00 0. -1.
          2   -1    0    0  502    0 -0.00000000000E+00 -0.00000000000E+00 -0.93562623039E+03  0.93562623039E+03  0.00000000000E+00 0. -1.
         24    2    1    2    0    0 -0.21880357249E+02  0.14819834386E+03 -0.62142372807E+03  0.64412735815E+03  0.79316483474E+02 0.  0.
         23    2    1    2    0    0 -0.58177538498E+02 -0.84874785762E+02 -0.17911764425E+03  0.22539071485E+03  0.90163676804E+02 0.  0.
        -13    1    3    3    0    0 -0.90194463063E+01  0.15448997483E+03 -0.55453710530E+03  0.57572554563E+03  0.00000000000E+00 0.  1.
         14    1    3    3    0    0 -0.12860910943E+02 -0.62916309676E+01 -0.66886622768E+02  0.68401812518E+02  0.00000000000E+00 0. -1.
        -11    1    4    4    0    0 -0.39494688281E+02 -0.60954621375E+02 -0.39832053347E+02  0.82836518174E+02  0.00000000000E+00 0. -1.
         11    1    4    4    0    0 -0.18682850218E+02 -0.23920164387E+02 -0.13928559090E+03  0.14255419668E+03  0.00000000000E+00 0.  1.
          1    1    1    2  501    0  0.80057895748E+02 -0.63323558101E+02 -0.74703114616E+02  0.12648990084E+03  0.00000000000E+00 0. -1.
<scales pt_clust_5="13000.00000" pt_clust_6="13000.00000" pt_clust_7="13000.00000" pt_clust_8="13000.00000" pt_clust_9="102.07419"></scales>
<clustering>
<clus scale="   79.316">  5  6 -1 -1</clus>
<clus scale="   90.164">  7  8 -1 -1</clus>
<clus scale="  102.074">  1  9  2 -1</clus>
<clus scale="  150.102">  2  5  1 -1</clus>
<clus scale="  102.074">  1  5  2 -1</clus>
</clustering>
</event>
<event>
 9    2  0.1325014E-004  0.1260186E+03  0.7546771E-02  0.1238020E+00
         -3   -1    0    0    0  501 -0.00000000000E+00  0.00000000000E+00  0.28146972525E+03  0.28146972525E+03  0.00000000000E+00 0.  1.
         21   -1    0    0  501  502  0.00000000000E+00 -0.00000000000E+00 -0.21697479048E+03  0.21697479048E+03  0.00000000000E+00 0.  1.
         23    2    1    2    0    0  0.55708591373E+02 -0.69805509983E+02  0.18736806619E+03  0.22843698601E+03  0.95396058484E+02 0.  0.
         24    2    1    2    0    0 -0.98034241732E+02 -0.31622304855E+02 -0.69501969046E+02  0.14782920400E+03  0.80076632909E+02 0.  0.
        -13    1    4    4    0    0 -0.96839361297E+02 -0.36968938385E+02 -0.83302688602E+02  0.13298083407E+03  0.00000000000E+00 0.  1.
         14    1    4    4    0    0 -0.11948804357E+01  0.53466335306E+01  0.13800719556E+02  0.14848369931E+02  0.00000000000E+00 0. -1.
        -13    1    3    3    0    0  0.13420857860E+01 -0.51388552520E+02  0.15329487799E+03  0.16168458227E+03  0.00000000000E+00 0.  1.
         13    1    3    3    0    0  0.54366505587E+02 -0.18416957463E+02  0.34073188198E+02  0.66752403746E+02  0.00000000000E+00 0. -1.
         -4    1    1    2    0  502  0.42325650360E+02  0.10142781484E+03 -0.53371162371E+02  0.12217832571E+03  0.00000000000E+00 0.  1.
<scales pt_clust_5="13000.00000" pt_clust_6="13000.00000" pt_clust_7="13000.00000" pt_clust_8="13000.00000" pt_clust_9="109.90479"></scales>
<clustering>
<clus scale="   80.077">  5  6 -1 -1</clus>
<clus scale="   95.396">  7  8 -1 -1</clus>
<clus scale="  109.905">  2  9  1 -1</clus>
<clus scale="  114.859">  2  5  1 -1</clus>
<clus scale="  109.905">  2  5  1 -1</clus>
</clustering>
</event>
<event>
 9    2  0.1325014E-004  0.1826455E+03  0.7546771E-02  0.1169713E+00
         -1   -1    0    0    0  501 -0.00000000000E+00  0.00000000000E+00  0.82536631240E+02  0.82536631240E+02  0.00000000000E+00 0.  1.
         21   -1    0    0  501  502  0.00000000000E+00 -0.00000000000E+00 -0.12882636468E+04  0.12882636468E+04  0.00000000000E+00 0.  1.
         24    2    1    2    0    0 -0.61649580651E+02  0.12978453869E+03 -0.30503391936E+03  0.34675871808E+03  0.80939602963E+02 0.  0.
         23    2    1    2    0    0  0.15032973605E+03  0.12704220187E+02 -0.94009731731E+02  0.20008448166E+03  0.91845214288E+02 0.  0.
        -11    1    3    3    0    0 -0.67909596757E+02  0.13730319358E+03 -0.27044153346E+03  0.31080943248E+03  0.00000000000E+00 0.  1.
         12    1    3    3    0    0  0.62600161056E+01 -0.75186548881E+01 -0.34592385898E+02  0.35949285599E+02  0.00000000000E+00 0. -1.
        -11    1    4    4    0    0  0.43638642265E+02  0.13334929352E+01 -0.80982139893E+02  0.92001175448E+02  0.00000000000E+00 0. -1.
         11    1    4    4    0    0  0.10669109379E+03  0.11370727251E+02 -0.13027591838E+02  0.10808330621E+03  0.00000000000E+00 0.  1.
         -2    1    1    2    0  502 -0.88680155403E+02 -0.14248875888E+03 -0.80668336449E+03  0.82395707832E+03  0.00000000000E+00 0.  1.
<scales pt_clust_5="13000.00000" pt_clust_6="13000.00000" pt_clust_7="13000.00000" pt_clust_8="13000.00000" pt_clust_9="157.87284"></scales>
<clustering>
<clus scale="   80.940">  5  6 -1 -1</clus>
<clus scale="   91.845">  7  8 -1 -1</clus>
<clus scale="  164.912">  1  5  2 -1</clus>
<clus scale="  157.873">  2  9  1 -1</clus>
<clus scale="  157.873">  2  5  1 -1</clus>
</clustering>
</event>
<event>
 9    2  0.1325014E-004  0.1978910E+03  0.7546771E-02  0.1153109E+00
         21   -1    0    0  501  502  0.00000000000E+00  0.00000000000E+00  0.12576122192E+03  0.12576122192E+03  0.00000000000E+00 0. -1.
          2   -1    0    0  502    0 -0.00000000000E+00 -0.00000000000E+00 -0.61072727392E+03  0.61072727392E+03  0.00000000000E+00 0. -1.
         24    2    1    2    0    0  0.16120822767E+03 -0.13700543792E+03 -0.32394829901E+03  0.39517152696E+03  0.80370719800E+02 0.  0.
         23    2    1    2    0    0 -0.12666841728E+03  0.84993689779E+01 -0.47107675481E+02  0.16615329110E+03  0.96284245060E+02 0.  0.
        -11    1    3    3    0    0  0.75598333883E+02 -0.58767808907E+02 -0.78928510708E+02  0.12409058487E+03  0.00000000000E+00 0.  1.
         12    1    3    3    0    0  0.85609893787E+02 -0.78237629010E+02 -0.24501978830E+03  0.27108094210E+03  0.00000000000E+00 0. -1.
        -11    1    4    4    0    0 -0.45926101497E+02  0.43310628643E+02  0.60342486890E+01  0.63414742051E+02  0.00000000000E+00 0.  1.
         11    1    4    4    0    0 -0.80742315779E+02 -0.34811259665E+02 -0.53141924170E+02  0.10273854905E+03  0.00000000000E+00 0. -1.
          1    1    1    2  501    0 -0.34539810394E+02  0.12850606894E+03 -0.11391007751E+03  0.17516367778E+03  0.00000000000E+00 0. -1.
<scales pt_clust_5="13000.00000" pt_clust_6="13000.00000" pt_clust_7="13000.00000" pt_clust_8="13000.00000" pt_clust_9="133.06693"></scales>
<clustering>
<clus scale="   80.371">  5  6 -1 -1</clus>
<clus scale="   96.284">  7  8 -1 -1</clus>
<clus scale="  133.067">  1  9  2 -1</clus>
<clus scale="  190.656">  2  5  1 -1</clus>
<clus scale="  133.067">  1  5  2 -1</clus>
</clustering>
</event>
<event>
 9    2  0.1325014E-004  0.1021103E+03  0.7546771E-02  0.1285438E+00
          4   -1    0    0  502    0 -0.00000000000E+00  0.00000000000E+00  0.24153006091E+03  0.24153006091E+03  0.00000000000E+00 0. -1.
         21   -1    0    0  501  502  0.00000000000E+00 -0.00000000000E+00 -0.83022089590E+02  0.83022089590E+02  0.00000000000E+00 0.  1.
         23    2    1    2    0    0  0.21341047835E+02  0.32100644724E+02  0.18162836395E+03  0.20917240855E+03  0.96324151654E+02 0.  0.
         24    2    1    2    0    0 -0.45608953023E+01 -0.12737358087E+02 -0.35500067212E+02  0.86923341423E+02  0.78181650373E+02 0.  0.
        -11    1    4    4    0    0  0.22389149733E+02 -0.30535683001E+02 -0.39097027773E+02  0.54426827418E+02  0.00000000000E+00 0.  1.
         12    1    4    4    0    0 -0.26950045035E+02  0.17798324915E+02  0.35969605612E+01  0.32496514004E+02  0.00000000000E+00 0. -1.
        -13    1    3    3    0    0  0.44426322309E+02 -0.11814609912E+02  0.47228550280E+02  0.65907655723E+02  0.00000000000E+00 0.  1.
         13    1    3    3    0    0 -0.23085274474E+02  0.43915254636E+02  0.13439981367E+03  0.14326475283E+03  0.00000000000E+00 0. -1.
          3    1    1    2  501    0 -0.16780152533E+02 -0.19363286638E+02  0.12379674582E+02  0.28456400531E+02  0.00000000000E+00 0. -1.
<scales pt_clust_5="13000.00000" pt_clust_6="13000.00000" pt_clust_7="13000.00000" pt_clust_8="13000.00000" pt_clust_9="25.62246"></scales>
<clustering>
<clus scale="   25.622">  2  9  1 -1</clus>
<clus scale="   78.182">  5  6 -1 -1</clus>
<clus scale="   85.209">  2  5  1 -1</clus>
<clus scale="   96.324">  7  8 -1 -1</clus>
<clus scale="   25.622">  2  5  1 -1</clus>
</clustering>
</event>
<event>
 9    2  0.1325014E-004  0.1184521E+03  0.7546771E-02  0.1263437E+00
          2   -1    0    0  502    0 -0.00000000000E+00  0.00000000000E+00  0.96271552402E+03  0.96271552402E+03  0.00000000000E+00 0. -1.
         21   -1    0    0  501  502  0.00000000000E+00 -0.00000000000E+00 -0.64456319738E+02  0.64456319738E+02  0.00000000000E+00 0.  1.
         24    2    1    2    0    0  0.26746753465E+02  0.13570889102E+02  0.83349616470E+03  0.83765604833E+03  0.77796149556E+02 0.  0.
         23    2    1    2    0    0 -0.91606530893E+01 -0.37059108546E+02  0.90106480349E+02  0.15074393232E+03  0.11466150287E+03 0.  0.
        -11    1    3    3    0    0  0.20538661890E+01  0.28329146893E+02  0.11064025704E+03  0.11422795370E+03  0.00000000000E+00 0.  1.
         12    1    3    3    0    0  0.24692887276E+02 -0.14758257791E+02  0.72285590766E+03  0.72342809463E+03  0.00000000000E+00 0. -1.
        -13    1    4    4    0    0 -0.63223784387E+01 -0.78768813269E+02  0.57588154662E+02  0.97779823942E+02  0.00000000000E+00 0.  1.
         13    1    4    4    0    0 -0.28382746506E+01  0.41709704723E+02  0.32518325687E+02  0.52964108381E+02  0.00000000000E+00 0. -1.
          1    1    1    2  501    0 -0.17586100376E+02  0.23488219444E+02 -0.25343440763E+02  0.38771863107E+02  0.00000000000E+00 0. -1.
<scales pt_clust_5="13000.00000" pt_clust_6="13000.00000" pt_clust_7="13000.00000" pt_clust_8="13000.00000" pt_clust_9="29.34225"></scales>
<clustering>
<clus scale="   29.342">  2  9  1 -1</clus>
<clus scale="   77.796">  5  6 -1 -1</clus>
<clus scale="   83.282">  1  5  2 -1</clus>
<clus scale="  114.662">  7  8 -1 -1</clus>
<clus scale="   29.342">  2  5  1 -1</clus>
</clustering>
</event>
<event>
 9    2  0.1325014E-004  0.1098017E+03  0.7546771E-02  0.1266591E+00
         21   -1    0    0  501  502  0.00000000000E+00  0.00000000000E+00  0.44549424207E+02  0.44549424207E+02  0.00000000000E+00 0. -1.
          2   -1    0    0  502    0 -0.00000000000E+00 -0.00000000000E+00 -0.94864847176E+03  0.94864847176E+03  0.00000000000E+00 0. -1.
         24    2    1    2    0    0  0.93680154444E+01  0.74131853237E+02 -0.60265088675E+03  0.61208278562E+03  0.76641723448E+02 0.  0.
         23    2    1    2    0    0 -0.60776907474E+02 -0.16039139717E+02 -0.27940721750E+03  0.30047119721E+03  0.90903579017E+02 0.  0.
        -13    1    3    3    0    0  0.28186630935E+02  0.10796882606E+02 -0.84355717382E+02  0.89593224590E+02  0.00000000000E+00 0.  1.
         14    1    3    3    0    0 -0.18818615491E+02  0.63334970631E+02 -0.51829516937E+03  0.52248956103E+03  0.00000000000E+00 0. -1.
        -11    1    4    4    0    0 -0.23164286677E+02 -0.52945782870E+02 -0.14979100261E+03  0.16055274698E+03  0.00000000000E+00 0.  1.
         11    1    4    4    0    0 -0.37612620797E+02  0.36906643153E+02 -0.12961621489E+03  0.13991845023E+03  0.00000000000E+00 0. -1.
          1    1    1    2  501    0  0.51408892030E+02 -0.58092713520E+02 -0.22040943299E+02  0.80643913133E+02  0.00000000000E+00 0. -1.
<scales pt_clust_5="13000.00000" pt_clust_6="13000.00000" pt_clust_7="13000.00000" pt_clust_8="13000.00000" pt_clust_9="77.57343"></scales>
<clustering>
<clus scale="   76.642">  5  6 -1 -1</clus>
<clus scale="   77.573">  1  9  2 -1</clus>
<clus scale="   90.904">  7  8 -1 -1</clus>
<clus scale="   98.320">  2  5  1 -1</clus>
<clus scale="   77.573">  1  5  2 -1</clus>
</clustering>
</event>
<event>
 9    2  0.1325014E-004  0.1092329E+03  0.7546771E-02  0.1265607E+00
         21   -1    0    0  501  502  0.00000000000E+00  0.00000000000E+00  0.14848979873E+03  0.14848979873E+03  0.00000000000E+00 0.  1.
          2   -1    0    0  502    0 -0.00000000000E+00 -0.00000000000E+00 -0.31933747234E+03  0.31933747234E+03  0.00000000000E+00 0. -1.
         24    2    1    2    0    0 -0.37274498639E+02 -0.53559021484E+02 -0.27137449184E+03  0.29060304726E+03  0.80920079243E+02 0.  0.
         23    2    1    2    0    0 -0.73399619193E+01  0.40100655629E+02  0.61633624369E+02  0.11652613297E+03  0.90098270738E+02 0.  0.
        -13    1    3    3    0    0 -0.14926549024E+02  0.20960849283E+02 -0.56696402095E+02  0.62262678058E+02  0.00000000000E+00 0.  1.
         14    1    3    3    0    0 -0.22347949615E+02 -0.74519870767E+02 -0.21467808975E+03  0.22834036920E+03  0.00000000000E+00 0. -1.
        -13    1    4    4    0    0 -0.26974183346E+02 -0.75602914284E+01 -0.86930701706E+01  0.29331451425E+02  0.00000000000E+00 0. -1.
         13    1    4    4    0    0  0.19634221427E+02  0.47660947057E+02  0.70326694539E+02  0.87194681548E+02  0.00000000000E+00 0.  1.
          1    1    1    2  501    0  0.44614460558E+02  0.13458365855E+02  0.38893193866E+02  0.60698090839E+02  0.00000000000E+00 0. -1.
<scales pt_clust_5="13000.00000" pt_clust_6="13000.00000" pt_clust_7="13000.00000" pt_clust_8="13000.00000" pt_clust_9="46.60019"></scales>
<clustering>
<clus scale="   46.600">  1  9  2 -1</clus>
<clus scale="   80.920">  5  6 -1 -1</clus>
<clus scale="   90.098">  7  8 -1 -1</clus>
<clus scale="  101.795">  2  5  1 -1</clus>
<clus scale="   46.600">  1  5  2 -1</clus>
</clustering>
</event>
<event>
 9    2  0.1325014E-004  0.1363472E+03  0.7546771E-02  0.1220710E+00
          2   -1    0    0  502    0 -0.00000000000E+00  0.00000000000E+00  0.15309169263E+04  0.15309169263E+04  0.00000000000E+00 0. -1.
         21   -1    0    0  501  502  0.00000000000E+00 -0.00000000000E+00 -0.10785890701E+03  0.10785890701E+03  0.00000000000E+00 0. -1.
         24    2    1    2    0    0 -0.10487248832E+03  0.26343816789E+01  0.10441463379E+04  0.10524918612E+04  0.80575207878E+02 0.  0.
         23    2    1    2    0    0  0.22450395872E+02 -0.47362508274E+02 -0.71009866567E+02  0.12669349578E+03  0.90893417029E+02 0.  0.
        -11    1    3    3    0    0 -0.65290997157E+02 -0.14436406132E+02  0.31236477995E+03  0.31944182551E+03  0.00000000000E+00 0.  1.
         12    1    3    3    0    0 -0.39581491166E+02  0.17070787811E+02  0.73178155793E+03  0.73305003565E+03  0.00000000000E+00 0. -1.
        -11    1    4    4    0    0  0.53708877867E+02 -0.36057178298E+02 -0.67131879000E+02  0.93227961721E+02  0.00000000000E+00 0. -1.
         11    1    4    4    0    0 -0.31258481995E+02 -0.11305329976E+02 -0.38779875665E+01  0.33465534063E+02  0.00000000000E+00 0.  1.
          1    1    1    2  501    0  0.82422092451E+02  0.44728126595E+02  0.44992154799E+03  0.45959047638E+03  0.00000000000E+00 0. -1.
<scales pt_clust_5="13000.00000" pt_clust_6="13000.00000" pt_clust_7="13000.00000" pt_clust_8="13000.00000" pt_clust_9="93.77641"></scales>
<clustering>
<clus scale="   80.575">  5  6 -1 -1</clus>
<clus scale="   90.893">  7  8 -1 -1</clus>
<clus scale="   93.776">  2  9  1 -1</clus>
<clus scale="  129.697">  1  5  2 -1</clus>
<clus scale="   93.776">  2  5  1 -1</clus>
</clustering>
</event>
<event>
 9    2  0.1325014E-004  0.2134272E+03  0.7546771E-02  0.1161864E+00
         21   -1    0    0  501  502  0.00000000000E+00  0.00000000000E+00  0.20656357403E+03  0.20656357403E+03  0.00000000000E+00 0. -1.
          2   -1    0    0  502    0 -0.00000000000E+00 -0.00000000000E+00 -0.36660216901E+03  0.36660216901E+03  0.00000000000E+00 0. -1.
         24    2    1    2    0    0 -0.26061261675E+02 -0.83658555869E+02 -0.87031697998E+02  0.15136585895E+03  0.87516646804E+02 0.  0.
         23    2    1    2    0    0  0.11025272540E+03 -0.12236808458E+03 -0.63593573777E+02  0.19903590632E+03  0.91877841719E+02 0.  0.
        -13    1    3    3    0    0  0.77355346884E+01 -0.84230720964E+02 -0.80837195229E+02  0.11700130334E+03  0.00000000000E+00 0.  1.
         14    1    3    3    0    0 -0.33796796364E+02  0.57216509511E+00 -0.61945027689E+01  0.34364555604E+02  0.00000000000E+00 0. -1.
        -11    1    4    4    0    0  0.12446311994E+03 -0.95950576668E+02 -0.43968407504E+02  0.16318946733E+03  0.00000000000E+00 0. -1.
         11    1    4    4    0    0 -0.14210394544E+02 -0.26417507907E+02 -0.19625166272E+02  0.35846438991E+02  0.00000000000E+00 0.  1.
          1    1    1    2  501    0 -0.84191463724E+02  0.20602664044E+03 -0.94133232060E+01  0.22276397777E+03  0.00000000000E+00 0. -1.
<scales pt_clust_5="13000.00000" pt_clust_6="13000.00000" pt_clust_7="13000.00000" pt_clust_8="13000.00000" pt_clust_9="192.63862"></scales>
<clustering>
<clus scale="   87.517">  5  6 -1 -1</clus>
<clus scale="   91.878">  7  8 -1 -1</clus>
<clus scale="  123.843">  2  5  1 -1</clus>
<clus scale="  192.639">  1  9  2 -1</clus>
<clus scale="  192.639">  1  5  2 -1</clus>
</clustering>
</event>
<event>
 9    2  0.1325014E-004  0.1520366E+03  0.7546771E-02  0.1200302E+00
          4   -1    0    0  502    0 -0.00000000000E+00  0.00000000000E+00  0.14561617636E+03  0.14561617636E+03  0.00000000000E+00 0. -1.
         21   -1    0    0  501  502  0.00000000000E+00 -0.00000000000E+00 -0.26657618169E+03  0.26657618169E+03  0.00000000000E+00 0. -1.
         23    2    1    2    0    0 -0.70967007567E+01 -0.14291280113E+03  0.19633288233E+02  0.17119684748E+03  0.91915519317E+02 0.  0.
         24    2    1    2    0    0  0.36495799123E+02  0.76892293948E+02 -0.11732350730E+03  0.16507122390E+03  0.78989463683E+02 0.  0.
        -11    1    4    4    0    0  0.64258145388E+01  0.38918331366E+02 -0.14396786322E+01  0.39471512301E+02  0.00000000000E+00 0.  1.
         12    1    4    4    0    0  0.30069984584E+02  0.37973962583E+02 -0.11588382867E+03  0.12559971160E+03  0.00000000000E+00 0. -1.
        -13    1    3    3    0    0 -0.23173503566E+02 -0.13069911326E+03  0.43734021694E+02  0.13975669619E+03  0.00000000000E+00 0. -1.
         13    1    3    3    0    0  0.16076802809E+02 -0.12213687865E+02 -0.24100733461E+02  0.31440151291E+02  0.00000000000E+00 0.  1.
          3    1    1    2  501    0 -0.29399098366E+02  0.66020507179E+02 -0.23269786260E+02  0.75924286665E+02  0.00000000000E+00 0. -1.
<scales pt_clust_5="13000.00000" pt_clust_6="13000.00000" pt_clust_7="13000.00000" pt_clust_8="13000.00000" pt_clust_9="72.27043"></scales>
<clustering>
<clus scale="   72.270">  2  9  1 -1</clus>
<clus scale="   78.989">  5  6 -1 -1</clus>
<clus scale="   91.916">  7  8 -1 -1</clus>
<clus scale="  144.589">  2  5  1 -1</clus>
<clus scale="   72.270">  2  5  1 -1</clus>
</clustering>
</event>
<event>
 9    2  0.1325014E-004  0.1281471E+03  0.7546771E-02  0.1233416E+00
         21   -1    0    0  501  502  0.00000000000E+00  0.00000000000E+00  0.32573205338E+02  0.32573205338E+02  0.00000000000E+00 0. -1.
          2   -1    0    0  502    0 -0.00000000000E+00 -0.00000000000E+00 -0.10053517099E+04  0.10053517099E+04  0.00000000000E+00 0. -1.
         24    2    1    2    0    0  0.11085391239E+03  0.24902683994E+02 -0.69559850313E+03  0.70914338859E+03  0.78219783130E+02 0.  0.
         23    2    1    2    0    0 -0.34630340871E+02 -0.27373938009E+02 -0.15101253795E+03  0.18135571888E+03  0.90202644986E+02 0.  0.
        -11    1    3    3    0    0  0.48409597801E+02 -0.23818395554E+02 -0.19533161008E+03  0.20264560943E+03  0.00000000000E+00 0.  1.
         12    1    3    3    0    0  0.62444314587E+02  0.48721079548E+02 -0.50026689305E+03  0.50649777916E+03  0.00000000000E+00 0. -1.
        -13    1    4    4    0    0 -0.39608525940E+02  0.21101425796E+02 -0.39995128853E+02  0.60114189920E+02  0.00000000000E+00 0.  1.
         13    1    4    4    0    0  0.49781850692E+01 -0.48475363805E+02 -0.11101740909E+03  0.12124152896E+03  0.00000000000E+00 0. -1.
          1    1    1    2  501    0 -0.76223571517E+02  0.24712540154E+01 -0.12616746348E+03  0.14742580775E+03  0.00000000000E+00 0. -1.
<scales pt_clust_5="13000.00000" pt_clust_6="13000.00000" pt_clust_7="13000.00000" pt_clust_8="13000.00000" pt_clust_9="76.26362"></scales>
<clustering>
<clus scale="   76.264">  1  9  2 -1</clus>
<clus scale="   78.220">  5  6 -1 -1</clus>
<clus scale="   90.203">  7  8 -1 -1</clus>
<clus scale="  120.015">  2  5  1 -1</clus>
<clus scale="   76.264">  1  5  2 -1</clus>
</clustering>
</event>
<event>
 9    2  0.1325014E-004  0.9871692E+02  0.7546771E-02  0.1292515E+00
          4   -1    0    0  502    0 -0.00000000000E+00  0.00000000000E+00  0.36633634860E+03  0.36633634860E+03  0.00000000000E+00 0. -1.
         21   -1    0    0  501  502  0.00000000000E+00 -0.00000000000E+00 -0.71790152022E+02  0.71790152022E+02  0.00000000000E+00 0.  1.
         23    2    1    2    0    0 -0.28410592062E+02 -0.82489410525E+01  0.10053961993E+03  0.14061858267E+03  0.93755873669E+02 0.  0.
         24    2    1    2    0    0  0.15890044926E+02  0.43722766791E+02 -0.99132757667E+01  0.90147211395E+02  0.76577234361E+02 0.  0.
        -11    1    4    4    0    0  0.16803324900E+02  0.42117310113E+02 -0.39720900915E+02  0.60282414586E+02  0.00000000000E+00 0.  1.
         12    1    4    4    0    0 -0.91327997415E+00  0.16054566777E+01  0.29807625148E+02  0.29864796809E+02  0.00000000000E+00 0. -1.
        -11    1    3    3    0    0 -0.59818198443E+02 -0.79836256512E+01  0.39955478029E+02  0.72376759861E+02  0.00000000000E+00 0.  1.
         11    1    3    3    0    0  0.31407606381E+02 -0.26531540130E+00  0.60584141899E+02  0.68241822810E+02  0.00000000000E+00 0. -1.
          3    1    1    2  501    0  0.12520547136E+02 -0.35473825738E+02  0.20391985241E+03  0.20736070655E+03  0.00000000000E+00 0. -1.
<scales pt_clust_5="13000.00000" pt_clust_6="13000.00000" pt_clust_7="13000.00000" pt_clust_8="13000.00000" pt_clust_9="37.61858"></scales>
<clustering>
<clus scale="   37.619">  2  9  1 -1</clus>
<clus scale="   76.577">  5  6 -1 -1</clus>
<clus scale="   82.577">  2  5  1 -1</clus>
<clus scale="   93.756">  7  8 -1 -1</clus>
<clus scale="   37.619">  2  5  1 -1</clus>
</clustering>
</event>
<event>
 9    2  0.1325014E-004  0.2310503E+03  0.7546771E-02  0.1141101E+00
         -1   -1    0    0    0  501 -0.00000000000E+00  0.00000000000E+00  0.68615608229E+03  0.68615608229E+03  0.00000000000E+00 0.  1.
         21   -1    0    0  501  502  0.00000000000E+00 -0.00000000000E+00 -0.20045857459E+03  0.20045857459E+03  0.00000000000E+00 0.  1.
         23    2    1    2    0    0 -0.13263373697E+03  0.38718408090E+01  0.36980080349E+03  0.40271015350E+03  0.88408903023E+02 0.  0.
         24    2    1    2    0    0 -0.92045129890E+02 -0.13682734855E+03  0.12515261233E+03  0.22267006443E+03  0.82004585086E+02 0.  0.
        -13    1    4    4    0    0 -0.65338807845E+02 -0.27434681458E+02  0.39000553821E+02  0.80887976583E+02  0.00000000000E+00 0.  1.
         14    1    4    4    0    0 -0.26706322045E+02 -0.10939266709E+03  0.86152058512E+02  0.14178208785E+03  0.00000000000E+00 0. -1.
        -13    1    3    3    0    0 -0.10581325700E+03  0.39253884422E+02  0.23318505705E+03  0.25906096509E+03  0.00000000000E+00 0.  1.
         13    1    3    3    0    0 -0.26820479970E+02 -0.35382043613E+02  0.13661574644E+03  0.14364918841E+03  0.00000000000E+00 0. -1.
         -2    1    1    2    0  502  0.22467886686E+03  0.13295550774E+03 -0.92559081259E+01  0.26123443894E+03  0.00000000000E+00 0.  1.
<scales pt_clust_5="13000.00000" pt_clust_6="13000.00000" pt_clust_7="13000.00000" pt_clust_8="13000.00000" pt_clust_9="216.00804"></scales>
<clustering>
<clus scale="   82.005">  5  6 -1 -1</clus>
<clus scale="   88.409">  7  8 -1 -1</clus>
<clus scale="  159.445">  1  7  2 -1</clus>
<clus scale="  216.008">  2  9  1 -1</clus>
<clus scale="  216.008">  2  5  1 -1</clus>
</clustering>
</event>
<event>
 9    2  0.1325014E-004  0.8833371E+02  0.7546771E-02  0.1310441E+00
         21   -1    0    0  501  502  0.00000000000E+00  0.00000000000E+00  0.13003786742E+03  0.13003786742E+03  0.00000000000E+00 0.  1.
          2   -1    0    0  502    0 -0.00000000000E+00 -0.00000000000E+00 -0.30844376363E+03  0.30844376363E+03  0.00000000000E+00 0. -1.
         24    2    1    2    0    0 -0.14446326596E+02 -0.14630854651E+01 -0.27244350291E+03  0.28481651169E+03  0.81756627160E+02 0.  0.
         23    2    1    2    0    0 -0.33655007507E+01  0.25344448753E+02  0.62955378698E+02  0.11061067007E+03  0.87279281324E+02 0.  0.
        -11    1    3    3    0    0 -0.24912466540E+02  0.35143907234E+02 -0.17435479207E+03  0.17959765790E+03  0.00000000000E+00 0.  1.
         12    1    3    3    0    0  0.10466139944E+02 -0.36606992700E+02 -0.98088710837E+02  0.10521885379E+03  0.00000000000E+00 0. -1.
        -11    1    4    4    0    0  0.31286615218E+02 -0.13329595329E+02  0.78665300795E+01  0.34905768849E+02  0.00000000000E+00 0. -1.
         11    1    4    4    0    0 -0.34652115969E+02  0.38674044081E+02  0.55088848619E+02  0.75704901221E+02  0.00000000000E+00 0.  1.
          1    1    1    2  501    0  0.17811827347E+02 -0.23881363288E+02  0.31082227999E+02  0.43054449286E+02  0.00000000000E+00 0. -1.
<scales pt_clust_5="13000.00000" pt_clust_6="13000.00000" pt_clust_7="13000.00000" pt_clust_8="13000.00000" pt_clust_9="29.79229"></scales>
<clustering>
<clus scale="   29.792">  1  9  2 -1</clus>
<clus scale="   81.757">  5  6 -1 -1</clus>
<clus scale="   82.881">  2  5  1 -1</clus>
<clus scale="   87.279">  7  8 -1 -1</clus>
<clus scale="   29.792">  1  5  2 -1</clus>
</clustering>
</event>
<event>
 9    2  0.1325014E-004  0.8679162E+02  0.7546771E-02  0.1315251E+00
         21   -1    0    0  501  502  0.00000000000E+00  0.00000000000E+00  0.12633945992E+03  0.12633945992E+03  0.00000000000E+00 0.  1.
          2   -1    0    0  502    0 -0.00000000000E+00 -0.00000000000E+00 -0.16244920624E+03  0.16244920624E+03  0.00000000000E+00 0. -1.
         23    2    1    2    0    0 -0.64159100211E+01  0.33697353807E+02 -0.11327848250E+03  0.14321613128E+03  0.80636034785E+02 0.  0.
         24    2    1    2    0    0 -0.17789558366E+02 -0.19999159658E+02  0.86198403467E+02  0.11633078196E+03  0.73391084582E+02 0.  0.
        -11    1    4    4    0    0 -0.33178552642E+02 -0.37181162812E+02  0.76521688712E+02  0.91317161952E+02  0.00000000000E+00 0.  1.
         12    1    4    4    0    0  0.15388994276E+02  0.17182003154E+02  0.96767147547E+01  0.25013620004E+02  0.00000000000E+00 0. -1.
        -13    1    3    3    0    0  0.40118422690E+01 -0.24075492208E+02 -0.14733204778E+02  0.28509498882E+02  0.00000000000E+00 0.  1.
         13    1    3    3    0    0 -0.10427752290E+02  0.57772846015E+02 -0.98545277719E+02  0.11470663239E+03  0.00000000000E+00 0. -1.
          1    1    1    2  501    0  0.24205468387E+02 -0.13698194149E+02 -0.90296672970E+01  0.29241752927E+02  0.00000000000E+00 0. -1.
<scales pt_clust_5="13000.00000" pt_clust_6="13000.00000" pt_clust_7="13000.00000" pt_clust_8="13000.00000" pt_clust_9="27.81269"></scales>
<clustering>
<clus scale="   27.813">  1  9  2 -1</clus>
<clus scale="   73.391">  5  6 -1 -1</clus>
<clus scale="   80.105">  1  5  2 -1</clus>
<clus scale="   80.636">  7  8 -1 -1</clus>
<clus scale="   27.813">  1  5  2 -1</clus>
</clustering>
</event>
<event>
 9    2  0.1325014E-004  0.1215289E+03  0.7546771E-02  0.1244246E+00
         21   -1    0    0  501  502  0.00000000000E+00  0.00000000000E+00  0.42918851581E+02  0.42918851581E+02  0.00000000000E+00 0. -1.
          2   -1    0    0  502    0 -0.00000000000E+00 -0.00000000000E+00 -0.48114374308E+03  0.48114374308E+03  0.00000000000E+00 0. -1.
         24    2    1    2    0    0  0.64976682522E+02  0.43652490649E+01 -0.12203534068E+03  0.15902987839E+03  0.78465617780E+02 0.  0.
         23    2    1    2    0    0 -0.96076816057E+02 -0.30008253040E+02 -0.19536613576E+03  0.23766286276E+03  0.90468002623E+02 0.  0.
        -13    1    3    3    0    0  0.23287442377E+02  0.34779323444E+02 -0.87325857191E+02  0.96838585522E+02  0.00000000000E+00 0.  1.
         14    1    3    3    0    0  0.41689240144E+02 -0.30414074379E+02 -0.34709483494E+02  0.62191292868E+02  0.00000000000E+00 0. -1.
        -11    1    4    4    0    0 -0.59441437313E+02 -0.63543535528E+01 -0.30469271501E+02  0.67097233808E+02  0.00000000000E+00 0. -1.
         11    1    4    4    0    0 -0.36635378745E+02 -0.23653899487E+02 -0.16489686426E+03  0.17056562895E+03  0.00000000000E+00 0.  1.
          1    1    1    2  501    0  0.31100133536E+02  0.25643003975E+02 -0.12082341505E+03  0.12736985351E+03  0.00000000000E+00 0. -1.
<scales pt_clust_5="13000.00000" pt_clust_6="13000.00000" pt_clust_7="13000.00000" pt_clust_8="13000.00000" pt_clust_9="40.30860"></scales>
<clustering>
<clus scale="   40.309">  1  9  2 -1</clus>
<clus scale="   78.466">  5  6 -1 -1</clus>
<clus scale="   90.468">  7  8 -1 -1</clus>
<clus scale="  112.879">  2  5  1 -1</clus>
<clus scale="   40.309">  1  5  2 -1</clus>
</clustering>
</event>
<event>
 9    2  0.1325014E-004  0.1045647E+03  0.7546771E-02  0.1271045E+00
         21   -1    0    0  501  502  0.00000000000E+00  0.00000000000E+00  0.30071924142E+02  0.30071924142E+02  0.00000000000E+00 0. -1.
          2   -1    0    0  502    0 -0.00000000000E+00 -0.00000000000E+00 -0.76376658241E+03  0.76376658241E+03  0.00000000000E+00 0. -1.
         24    2    1    2    0    0  0.14741877024E+02  0.22735652758E+02 -0.22691186433E+03  0.24539909036E+03  0.89428667281E+02 0.  0.
         23    2    1    2    0    0 -0.86093292895E+02 -0.47873618736E+02 -0.29875185221E+03  0.32708039877E+03  0.89582250496E+02 0.  0.
        -13    1    3    3    0    0  0.38098562626E+02 -0.20141919758E+02 -0.84596631292E+02  0.94940968142E+02  0.00000000000E+00 0.  1.
         14    1    3    3    0    0 -0.23356685601E+02  0.42877572516E+02 -0.14231523304E+03  0.15045812222E+03  0.00000000000E+00 0. -1.
        -11    1    4    4    0    0 -0.58003499896E+02 -0.40011868559E+02 -0.28718161494E+03  0.29570024617E+03  0.00000000000E+00 0.  1.
         11    1    4    4    0    0 -0.28089792999E+02 -0.78617501778E+01 -0.11570237279E+02  0.31380152601E+02  0.00000000000E+00 0. -1.
          1    1    1    2  501    0  0.71351415870E+02  0.25137965978E+02 -0.20803094172E+03  0.22135901742E+03  0.00000000000E+00 0. -1.
<scales pt_clust_5="13000.00000" pt_clust_6="13000.00000" pt_clust_7="13000.00000" pt_clust_8="13000.00000" pt_clust_9="75.65017"></scales>
<clustering>
<clus scale="   75.650">  1  9  2 -1</clus>
<clus scale="   89.429">  5  6 -1 -1</clus>
<clus scale="   89.582">  7  8 -1 -1</clus>
<clus scale="  104.433">  2  5  1 -1</clus>
<clus scale="   75.650">  1  5  2 -1</clus>
</clustering>
</event>
<event>
 9    2  0.1325014E-004  0.1418735E+03  0.7546771E-02  0.1213208E+00
         21   -1    0    0  501  502  0.00000000000E+00  0.00000000000E+00  0.54600575486E+02  0.54600575486E+02  0.00000000000E+00 0. -1.
          2   -1    0    0  502    0 -0.00000000000E+00 -0.00000000000E+00 -0.54533347029E+03  0.54533347029E+03  0.00000000000E+00 0. -1.
         23    2    1    2    0    0 -0.15791450262E+02 -0.10947192409E+03 -0.25004141914E+03  0.28822573707E+03  0.91213442872E+02 0.  0.
         24    2    1    2    0    0 -0.34210027281E+02  0.10712752522E+03 -0.21498769832E+03  0.25543817336E+03  0.79889407007E+02 0.  0.
        -13    1    4    4    0    0  0.10189786066E+02  0.87924008479E+02 -0.15363737643E+03  0.17731019837E+03  0.00000000000E+00 0.  1.
         14    1    4    4    0    0 -0.44399813347E+02  0.19203516741E+02 -0.61350321887E+02  0.78127974990E+02  0.00000000000E+00 0. -1.
        -13    1    3    3    0    0 -0.22393442372E+02 -0.41053317873E+02 -0.19394829015E+03  0.19950634181E+03  0.00000000000E+00 0.  1.
         13    1    3    3    0    0  0.66019921098E+01 -0.68418606215E+02 -0.56093128991E+02  0.88719395265E+02  0.00000000000E+00 0. -1.
          1    1    1    2  501    0  0.50001477543E+02  0.23443988686E+01 -0.25703777348E+02  0.56270135352E+02  0.00000000000E+00 0. -1.
<scales pt_clust_5="13000.00000" pt_clust_6="13000.00000" pt_clust_7="13000.00000" pt_clust_8="13000.00000" pt_clust_9="50.05641"></scales>
<clustering>
<clus scale="   50.056">  1  9  2 -1</clus>
<clus scale="   79.889">  5  6 -1 -1</clus>
<clus scale="   91.213">  7  8 -1 -1</clus>
<clus scale="  134.872">  1  5  2 -1</clus>
<clus scale="   50.056">  1  5  2 -1</clus>
</clustering>
</event>
<event>
 9    2  0.1325014E-004  0.1273407E+03  0.7546771E-02  0.1252388E+00
          2   -1    0    0  502    0 -0.00000000000E+00  0.00000000000E+00  0.37103333721E+03  0.37103333721E+03  0.00000000000E+00 0. -1.
         21   -1    0    0  501  502  0.00000000000E+00 -0.00000000000E+00 -0.62253785688E+02  0.62253785688E+02  0.00000000000E+00 0. -1.
         24    2    1    2    0    0  0.13792824515E+02  0.29312556593E+02  0.91065347414E+02  0.12345206159E+03  0.76798737157E+02 0.  0.
         23    2    1    2    0    0  0.46561879781E+02 -0.89398964860E+02  0.13750401287E+03  0.19284471313E+03  0.90119621947E+02 0.  0.
        -11    1    3    3    0    0 -0.43210128727E+01  0.52181873837E+02  0.45609257017E+02  0.69439350768E+02  0.00000000000E+00 0.  1.
         12    1    3    3    0    0  0.18113837388E+02 -0.22869317244E+02  0.45456090397E+02  0.54012710822E+02  0.00000000000E+00 0. -1.
        -13    1    4    4    0    0  0.64450475059E+02 -0.36990787714E+02  0.10499116483E+03  0.12862863913E+03  0.00000000000E+00 0. -1.
         13    1    4    4    0    0 -0.17888595279E+02 -0.52408177146E+02  0.32512848042E+02  0.64216074005E+02  0.00000000000E+00 0.  1.
          1    1    1    2  501    0 -0.60354704295E+02  0.60086408266E+02  0.80210191236E+02  0.11699034818E+03  0.00000000000E+00 0. -1.
<scales pt_clust_5="13000.00000" pt_clust_6="13000.00000" pt_clust_7="13000.00000" pt_clust_8="13000.00000" pt_clust_9="89.96726"></scales>
<clustering>
<clus scale="   76.799">  5  6 -1 -1</clus>
<clus scale="   83.352">  1  5  2 -1</clus>
<clus scale="   89.967">  2  9  1 -1</clus>
<clus scale="   90.120">  7  8 -1 -1</clus>
<clus scale="   89.967">  2  5  1 -1</clus>
</clustering>
</event>
<event>
 9    2  0.1325014E-004  0.8409206E+02  0.7546771E-02  0.1320706E+00
          2   -1    0    0  502    0 -0.00000000000E+00  0.00000000000E+00  0.39843701687E+03  0.39843701687E+03  0.00000000000E+00 0. -1.
         21   -1    0    0  501  502  0.00000000000E+00 -0.00000000000E+00 -0.33825232345E+02  0.33825232345E+02  0.00000000000E+00 0. -1.
         24    2    1    2    0    0 -0.16740264614E+02  0.28946777928E+02  0.27935957926E+03  0.29254621080E+03  0.80145857763E+02 0.  0.
         23    2    1    2    0    0  0.70095047697E+01  0.33881011165E+01  0.50946641141E+02  0.91579733824E+02  0.75701222034E+02 0.  0.
        -13    1    3    3    0    0  0.31096452886E+02  0.22593224717E+02  0.11544455805E+03  0.12167534330E+03  0.00000000000E+00 0.  1.
         14    1    3    3    0    0 -0.47836717499E+02  0.63535532105E+01  0.16391502121E+03  0.17087086749E+03  0.00000000000E+00 0. -1.
        -13    1    4    4    0    0 -0.17869596225E+02 -0.20426876090E+02 -0.32833500253E+01  0.27337888057E+02  0.00000000000E+00 0. -1.
         13    1    4    4    0    0  0.24879100994E+02  0.23814977206E+02  0.54229991166E+02  0.64241845767E+02  0.00000000000E+00 0.  1.
          1    1    1    2  501    0  0.97307598440E+01 -0.32334879044E+02  0.34305564125E+02  0.48136304593E+02  0.00000000000E+00 0. -1.
<scales pt_clust_5="13000.00000" pt_clust_6="13000.00000" pt_clust_7="13000.00000" pt_clust_8="13000.00000" pt_clust_9="33.76732"></scales>
<clustering>
<clus scale="   33.767">  2  9  1 -1</clus>
<clus scale="   75.701">  7  8 -1 -1</clus>
<clus scale="   79.867">  2  7  1 -1</clus>
<clus scale="   80.146">  5  6 -1 -1</clus>
<clus scale="   33.767">  2  5  1 -1</clus>
</clustering>
</event>
<event>
 9    2  0.1325014E-004  0.1122929E+03  0.7546771E-02  0.1265557E+00
         21   -1    0    0  501  502  0.00000000000E+00  0.00000000000E+00  0.88833155057E+02  0.88833155057E+02  0.00000000000E+00 0. -1.
         -3   -1    0    0    0  501 -0.00000000000E+00 -0.00000000000E+00 -0.30044539401E+03  0.30044539401E+03  0.00000000000E+00 0.  1.
         23    2    1    2    0    0 -0.24735741407E+02 -0.65406200138E+02 -0.23376995179E+03  0.26084469662E+03  0.92204866877E+02 0.  0.
         24    2    1    2    0    0  0.40893251608E+02  0.26937672472E+02  0.20677414290E+02  0.86683594472E+02  0.68473307673E+02 0.  0.
        -13    1    4    4    0    0  0.21624085387E+01  0.39244459752E+02  0.23760338912E+02  0.45927740387E+02  0.00000000000E+00 0.  1.
         14    1    4    4    0    0  0.38730843069E+02 -0.12306787279E+02 -0.30829246218E+01  0.40755854085E+02  0.00000000000E+00 0. -1.
        -11    1    3    3    0    0 -0.23079323753E+02  0.14778281911E+02 -0.10999242816E+03  0.11335513687E+03  0.00000000000E+00 0.  1.
         11    1    3    3    0    0 -0.16564176540E+01 -0.80184482049E+02 -0.12377752363E+03  0.14748955976E+03  0.00000000000E+00 0. -1.
         -4    1    1    2    0  502 -0.16157510201E+02  0.38468527665E+02  0.14802985523E+01  0.41750257969E+02  0.00000000000E+00 0.  1.
<scales pt_clust_5="13000.00000" pt_clust_6="13000.00000" pt_clust_7="13000.00000" pt_clust_8="13000.00000" pt_clust_9="41.72401"></scales>
<clustering>
<clus scale="   41.724">  1  9  2 -1</clus>
<clus scale="   68.473">  5  6 -1 -1</clus>
<clus scale="   92.205">  7  8 -1 -1</clus>
<clus scale="   93.790">  1  5  2 -1</clus>
<clus scale="   41.724">  1  5  2 -1</clus>
</clustering>
</event>
<event>
 9    2  0.1325014E-004  0.1053997E+03  0.7546771E-02  0.1273714E+00
         -3   -1    0    0    0  501 -0.00000000000E+00  0.00000000000E+00  0.75708217900E+02  0.75708217900E+02  0.00000000000E+00 0.  1.
         21   -1    0    0  501  502  0.00000000000E+00 -0.00000000000E+00 -0.36911391202E+03  0.36911391202E+03  0.00000000000E+00 0.  1.
         24    2    1    2    0    0 -0.12644557914E+02 -0.57119119793E+02  0.19332316887E+02  0.10114572808E+03  0.80213721659E+02 0.  0.
         23    2    1    2    0    0  0.32154911045E+02  0.27567693707E+02 -0.17486524145E+03  0.20132879473E+03  0.90341102940E+02 0.  0.
        -13    1    3    3    0    0 -0.38612279022E+01 -0.48086452263E+02  0.49092812291E+02  0.68828193284E+02  0.00000000000E+00 0.  1.
         14    1    3    3    0    0 -0.87833300119E+01 -0.90326675300E+01 -0.29760495404E+02  0.32317534799E+02  0.00000000000E+00 0. -1.
        -11    1    4    4    0    0 -0.26243262753E+02  0.30040199997E+02 -0.54672864240E+02  0.67677503943E+02  0.00000000000E+00 0. -1.
         11    1    4    4    0    0  0.58398173798E+02 -0.24725062902E+01 -0.12019237721E+03  0.13365129079E+03  0.00000000000E+00 0.  1.
         -4    1    1    2    0  502 -0.19510353131E+02  0.29551426086E+02 -0.13787276957E+03  0.14234760711E+03  0.00000000000E+00 0.  1.
<scales pt_clust_5="13000.00000" pt_clust_6="13000.00000" pt_clust_7="13000.00000" pt_clust_8="13000.00000" pt_clust_9="35.41102"></scales>
<clustering>
<clus scale="   35.411">  2  9  1 -1</clus>
<clus scale="   80.214">  5  6 -1 -1</clus>
<clus scale="   90.341">  7  8 -1 -1</clus>
<clus scale="   96.860">  1  5  2 -1</clus>
<clus scale="   35.411">  2  5  1 -1</clus>
</clustering>
</event>
<event>
 9    2  0.1325014E-004  0.2019110E+03  0.7546771E-02  0.1149315E+00
          2   -1    0    0  502    0 -0.00000000000E+00  0.00000000000E+00  0.15728454698E+04  0.15728454698E+04  0.00000000000E+00 0. -1.
         21   -1    0    0  501  502  0.00000000000E+00 -0.00000000000E+00 -0.55703308849E+02  0.55703308849E+02  0.00000000000E+00 0.  1.
         24    2    1    2    0    0 -0.36146807368E+02 -0.21163472799E+03  0.11028060368E+04  0.11262553277E+04  0.78575178631E+02 0.  0.
         23    2    1    2    0    0  0.48194008200E+02  0.12295800144E+03  0.36788493208E+03  0.40146483331E+03  0.91615263966E+02 0.  0.
        -11    1    3    3    0    0 -0.58467139105E+02 -0.12646884996E+03  0.73182371899E+03  0.74496894703E+03  0.00000000000E+00 0.  1.
         12    1    3    3    0    0  0.22320331738E+02 -0.85165878030E+02  0.37098231779E+03  0.38128638070E+03  0.00000000000E+00 0. -1.
        -11    1    4    4    0    0  0.27930311861E+01  0.10527047871E+03  0.19231878893E+03  0.21926283608E+03  0.00000000000E+00 0.  1.
         11    1    4    4    0    0  0.45400977014E+02  0.17687522724E+02  0.17556614315E+03  0.18220199723E+03  0.00000000000E+00 0. -1.
          1    1    1    2  501    0 -0.12047200833E+02  0.88676726555E+02  0.46451192070E+02  0.10082861759E+03  0.00000000000E+00 0. -1.
<scales pt_clust_5="13000.00000" pt_clust_6="13000.00000" pt_clust_7="13000.00000" pt_clust_8="13000.00000" pt_clust_9="89.49132"></scales>
<clustering>
<clus scale="   78.575">  5  6 -1 -1</clus>
<clus scale="   89.491">  2  9  1 -1</clus>
<clus scale="   91.615">  7  8 -1 -1</clus>
<clus scale="  196.338">  1  5  2 -1</clus>
<clus scale="   89.491">  2  5  1 -1</clus>
</clustering>
</event>
<event>
 9    2  0.1325014E-004  0.4435025E+03  0.7546771E-02  0.1070131E+00
         21   -1    0    0  501  502  0.00000000000E+00  0.00000000000E+00  0.18372636900E+04  0.18372636900E+04  0.00000000000E+00 0.  1.
         -1   -1    0    0    0  501 -0.00000000000E+00 -0.00000000000E+00 -0.18045935503E+03  0.18045935503E+03  0.00000000000E+00 0.  1.
         24    2    1    2    0    0 -0.11424407446E+03 -0.68441500964E+01  0.56468436033E+02  0.15072478379E+03  0.80191802818E+02 0.  0.
         23    2    1    2    0    0 -0.25145215170E+03  0.28527048265E+03  0.31493183951E+03  0.50189073856E+03  0.90026757439E+02 0.  0.
        -13    1    3    3    0    0 -0.48321523113E+02 -0.18204849210E+01  0.68174686448E+02  0.83582723296E+02  0.00000000000E+00 0.  1.
         14    1    3    3    0    0 -0.65922551350E+02 -0.50236651754E+01 -0.11706250414E+02  0.67142060492E+02  0.00000000000E+00 0. -1.
        -13    1    4    4    0    0 -0.11007260266E+03  0.19160904161E+03  0.16982519180E+03  0.27869445358E+03  0.00000000000E+00 0.  1.
         13    1    4    4    0    0 -0.14137954903E+03  0.93661441033E+02  0.14510664771E+03  0.22319628498E+03  0.00000000000E+00 0. -1.
         -2    1    1    2    0  502  0.36569622616E+03 -0.27842633255E+03  0.12854040595E+04  0.13651075227E+04  0.00000000000E+00 0.  1.
<scales pt_clust_5="13000.00000" pt_clust_6="13000.00000" pt_clust_7="13000.00000" pt_clust_8="13000.00000" pt_clust_9="434.26905"></scales>
<clustering>
<clus scale="   80.192">  5  6 -1 -1</clus>
<clus scale="   90.027">  7  8 -1 -1</clus>
<clus scale="  139.747">  2  5  1 -1</clus>
<clus scale="  434.269">  1  9  2 -1</clus>
<clus scale="  434.269">  1  5  2 -1</clus>
</clustering>
</event>
<event>
 9    2  0.1325014E-004  0.1361460E+03  0.7546771E-02  0.1219582E+00
         -1   -1    0    0    0  501 -0.00000000000E+00  0.00000000000E+00  0.43146971458E+03  0.43146971458E+03  0.00000000000E+00 0.  1.
         21   -1    0    0  501  502  0.00000000000E+00 -0.00000000000E+00 -0.80151872012E+02  0.80151872012E+02  0.00000000000E+00 0. -1.
         23    2    1    2    0    0 -0.51049742324E+02  0.86739939169E+02  0.26837284139E+03  0.29999050729E+03  0.88546198278E+02 0.  0.
         24    2    1    2    0    0  0.25913166638E+02 -0.11499742730E+03  0.32349308753E+02  0.14846259694E+03  0.84254165607E+02 0.  0.
        -11    1    4    4    0    0  0.46353055154E+02 -0.69447443034E+02  0.47787974491E+02  0.96204176479E+02  0.00000000000E+00 0.  1.
         12    1    4    4    0    0 -0.20439888515E+02 -0.45549984263E+02 -0.15438665738E+02  0.52258420457E+02  0.00000000000E+00 0. -1.
        -13    1    3    3    0    0  0.18171697484E+02  0.37597059396E+02  0.46851525326E+02  0.62759978410E+02  0.00000000000E+00 0.  1.
         13    1    3    3    0    0 -0.69221439809E+02  0.49142879774E+02  0.22152131606E+03  0.23723052888E+03  0.00000000000E+00 0. -1.
         -2    1    1    2    0  502  0.25136575686E+02  0.28257488127E+02  0.50595692427E+02  0.63168482368E+02  0.00000000000E+00 0.  1.
<scales pt_clust_5="13000.00000" pt_clust_6="13000.00000" pt_clust_7="13000.00000" pt_clust_8="13000.00000" pt_clust_9="37.81976"></scales>
<clustering>
<clus scale="   37.820">  2  9  1 -1</clus>
<clus scale="   84.254">  5  6 -1 -1</clus>
<clus scale="   88.546">  7  8 -1 -1</clus>
<clus scale="  133.394">  2  5  1 -1</clus>
<clus scale="   37.820">  2  5  1 -1</clus>
</clustering>
</event>
<event>
 9    2  0.1325014E-004  0.1745743E+03  0.7546771E-02  0.1200078E+00
         21   -1    0    0  501  502  0.00000000000E+00  0.00000000000E+00  0.46958991909E+03  0.46958991909E+03  0.00000000000E+00 0.  1.
         -1   -1    0    0    0  501 -0.00000000000E+00 -0.00000000000E+00 -0.28625629326E+03  0.28625629326E+03  0.00000000000E+00 0.  1.
         24    2    1    2    0    0  0.68021105224E+02  0.12138586280E+02  0.33758098659E+02  0.10173772142E+03  0.66608848526E+02 0.  0.
         23    2    1    2    0    0  0.62151459230E+02  0.65503183603E+02 -0.21961656899E+03  0.25501458615E+03  0.92992100898E+02 0.  0.
        -13    1    3    3    0    0  0.62401448818E+02 -0.14258743148E+02  0.37966815235E+02  0.74422655353E+02  0.00000000000E+00 0.  1.
         14    1    3    3    0    0  0.56196564062E+01  0.26397329428E+02 -0.42087165757E+01  0.27315066067E+02  0.00000000000E+00 0. -1.
        -13    1    4    4    0    0  0.45681903164E+02  0.20508289155E+02 -0.19464615994E+03  0.20098396399E+03  0.00000000000E+00 0.  1.
         13    1    4    4    0    0  0.16469556065E+02  0.44994894449E+02 -0.24970409049E+02  0.54030622164E+02  0.00000000000E+00 0. -1.
         -2    1    1    2    0  502 -0.13017256445E+03 -0.77641769883E+02  0.36919209616E+03  0.39909390478E+03  0.00000000000E+00 0.  1.
<scales pt_clust_5="13000.00000" pt_clust_6="13000.00000" pt_clust_7="13000.00000" pt_clust_8="13000.00000" pt_clust_9="147.74523"></scales>
<clustering>
<clus scale="   66.609">  5  6 -1 -1</clus>
<clus scale="   92.992">  7  8 -1 -1</clus>
<clus scale="   95.974">  2  5  1 -1</clus>
<clus scale="  147.745">  1  9  2 -1</clus>
<clus scale="  147.745">  1  5  2 -1</clus>
</clustering>
</event>
<event>
 9    2  0.1325014E-004  0.1285920E+03  0.7546771E-02  0.1232419E+00
         21   -1    0    0  501  502  0.00000000000E+00  0.00000000000E+00  0.18226572685E+03  0.18226572685E+03  0.00000000000E+00 0.  1.
         -1   -1    0    0    0  501 -0.00000000000E+00 -0.00000000000E+00 -0.43868647443E+03  0.43868647443E+03  0.00000000000E+00 0.  1.
         24    2    1    2    0    0 -0.46424544781E+02  0.66166482991E+02 -0.20094896276E+03  0.23116531798E+03  0.80769281140E+02 0.  0.
         23    2    1    2    0    0  0.56829018983E+02 -0.87322645326E+02 -0.20000181776E+03  0.24334656539E+03  0.91444201541E+02 0.  0.
        -13    1    3    3    0    0 -0.30763477275E+02  0.15723342344E+02 -0.14654913175E+02  0.37528409354E+02  0.00000000000E+00 0.  1.
         14    1    3    3    0    0 -0.15661067507E+02  0.50443140647E+02 -0.18629404958E+03  0.19363690863E+03  0.00000000000E+00 0. -1.
        -11    1    4    4    0    0  0.74690077069E+02 -0.41535291349E+02 -0.97383171063E+02  0.12956569780E+03  0.00000000000E+00 0. -1.
         11    1    4    4    0    0 -0.17861058086E+02 -0.45787353978E+02 -0.10261864670E+03  0.11378086759E+03  0.00000000000E+00 0.  1.
         -2    1    1    2    0  502 -0.10404474201E+02  0.21156162335E+02  0.14453003293E+03  0.14644031790E+03  0.00000000000E+00 0.  1.
<scales pt_clust_5="13000.00000" pt_clust_6="13000.00000" pt_clust_7="13000.00000" pt_clust_8="13000.00000" pt_clust_9="23.57618"></scales>
<clustering>
<clus scale="   23.576">  1  9  2 -1</clus>
<clus scale="   80.769">  5  6 -1 -1</clus>
<clus scale="   91.444">  7  8 -1 -1</clus>
<clus scale="  121.233">  2  5  1 -1</clus>
<clus scale="   23.576">  1  5  2 -1</clus>
</clustering>
</event>
<event>
 9    2  0.1325014E-004  0.1209891E+03  0.7546771E-02  0.1243477E+00
         21   -1    0    0  501  502  0.00000000000E+00  0.00000000000E+00  0.23707678350E+03  0.23707678350E+03  0.00000000000E+00 0. -1.
         -1   -1    0    0    0  501 -0.00000000000E+00 -0.00000000000E+00 -0.87754454366E+02  0.87754454366E+02  0.00000000000E+00 0.  1.
         24    2    1    2    0    0  0.90671295483E+02  0.33385506767E+02  0.13871770393E+02  0.12657604329E+03  0.80580350169E+02 0.  0.
         23    2    1    2    0    0 -0.53071190052E+02 -0.32061255768E+02  0.98951067874E+02  0.14583635825E+03  0.87363918284E+02 0.  0.
        -13    1    3    3    0    0  0.29674833352E+02 -0.13144842275E+02  0.34262745239E+02  0.47194473450E+02  0.00000000000E+00 0.  1.
         14    1    3    3    0    0  0.60996462131E+02  0.46530349042E+02 -0.20390974846E+02  0.79381569836E+02  0.00000000000E+00 0. -1.
        -13    1    4    4    0    0 -0.15328151654E+02 -0.58121407388E+02  0.66570636616E+02  0.89692251000E+02  0.00000000000E+00 0. -1.
         13    1    4    4    0    0 -0.37743038398E+02  0.26060151620E+02  0.32380431257E+02  0.56144107246E+02  0.00000000000E+00 0.  1.
         -2    1    1    2    0  502 -0.37600105431E+02 -0.13242509988E+01  0.36499490873E+02  0.52418836339E+02  0.00000000000E+00 0.  1.
<scales pt_clust_5="13000.00000" pt_clust_6="13000.00000" pt_clust_7="13000.00000" pt_clust_8="13000.00000" pt_clust_9="37.62342"></scales>
<clustering>
<clus scale="   37.623">  1  9  2 -1</clus>
<clus scale="   80.580">  5  6 -1 -1</clus>
<clus scale="   87.364">  7  8 -1 -1</clus>
<clus scale="  116.186">  2  5  1 -1</clus>
<clus scale="   37.623">  1  5  2 -1</clus>
</clustering>
</event>
<event>
 9    2  0.1325014E-004  0.1469693E+03  0.7546771E-02  0.1206844E+00
         21   -1    0    0  501  502  0.00000000000E+00  0.00000000000E+00  0.52201297937E+02  0.52201297937E+02  0.00000000000E+00 0. -1.
          2   -1    0    0  502    0 -0.00000000000E+00 -0.00000000000E+00 -0.94971892596E+03  0.94971892596E+03  0.00000000000E+00 0. -1.
         24    2    1    2    0    0 -0.52042215932E+01  0.11209267570E+03 -0.62606821744E+03  0.64101089870E+03  0.79634838378E+02 0.  0.
         23    2    1    2    0    0  0.72636421085E+02 -0.11201587975E+03 -0.23022716292E+03  0.28187527477E+03  0.92873661476E+02 0.  0.
        -13    1    3    3    0    0  0.31475669400E+02  0.20636726939E+02 -0.13467787785E+03  0.13983820309E+03  0.00000000000E+00 0.  1.
         14    1    3    3    0    0 -0.36679890993E+02  0.91455948762E+02 -0.49139033960E+03  0.50117269560E+03  0.00000000000E+00 0. -1.
        -13    1    4    4    0    0  0.94036052635E+02 -0.99954568390E+02 -0.18419315990E+03  0.22969722482E+03  0.00000000000E+00 0. -1.
         13    1    4    4    0    0 -0.21399631550E+02 -0.12061311359E+02 -0.46034003021E+02  0.52178049947E+02  0.00000000000E+00 0.  1.
          1    1    1    2  501    0 -0.67432199492E+02 -0.76795952449E-01 -0.41222247660E+02  0.79034050435E+02  0.00000000000E+00 0. -1.
<scales pt_clust_5="13000.00000" pt_clust_6="13000.00000" pt_clust_7="13000.00000" pt_clust_8="13000.00000" pt_clust_9="67.43224"></scales>
<clustering>
<clus scale="   67.432">  1  9  2 -1</clus>
<clus scale="   79.635">  5  6 -1 -1</clus>
<clus scale="   92.874">  7  8 -1 -1</clus>
<clus scale="  138.983">  2  5  1 -1</clus>
<clus scale="   67.432">  1  5  2 -1</clus>
</clustering>
</event>
<event>
 9    2  0.1325014E-004  0.1488011E+03  0.7546771E-02  0.1207123E+00
         -3   -1    0    0    0  501 -0.00000000000E+00  0.00000000000E+00  0.14735978545E+03  0.14735978545E+03  0.00000000000E+00 0.  1.
         21   -1    0    0  501  502  0.00000000000E+00 -0.00000000000E+00 -0.41799778008E+03  0.41799778008E+03  0.00000000000E+00 0.  1.
         23    2    1    2    0    0  0.72387802778E+02 -0.60730250663E+02  0.88123478624E+01  0.13992208103E+03  0.10282204991E+03 0.  0.
         24    2    1    2    0    0 -0.15289136488E+03 -0.48590465863E+01 -0.58981017143E+02  0.18173586849E+03  0.78420569514E+02 0.  0.
        -11    1    4    4    0    0 -0.15387080384E+03 -0.20469128365E+02 -0.47492375492E+02  0.16232909542E+03  0.00000000000E+00 0.  1.
         12    1    4    4    0    0  0.97943896120E+00  0.15610081778E+02 -0.11488641651E+02  0.19406773065E+02  0.00000000000E+00 0. -1.
        -13    1    3    3    0    0  0.15175677847E+01 -0.22593283117E+02 -0.39878626647E+02  0.45859179203E+02  0.00000000000E+00 0. -1.
         13    1    3    3    0    0  0.70870234994E+02 -0.38136967546E+02  0.48690974509E+02  0.94062901828E+02  0.00000000000E+00 0.  1.
         -4    1    1    2    0  502  0.80503562100E+02  0.65589297250E+02 -0.22046932535E+03  0.24369961601E+03  0.00000000000E+00 0.  1.
<scales pt_clust_5="13000.00000" pt_clust_6="13000.00000" pt_clust_7="13000.00000" pt_clust_8="13000.00000" pt_clust_9="103.84016"></scales>
<clustering>
<clus scale="   78.421">  5  6 -1 -1</clus>
<clus scale="  102.822">  7  8 -1 -1</clus>
<clus scale="  103.840">  2  9  1 -1</clus>
<clus scale="  133.113">  2  5  1 -1</clus>
<clus scale="  103.840">  2  5  1 -1</clus>
</clustering>
</event>
<event>
 9    2  0.1325014E-004  0.9610975E+02  0.7546771E-02  0.1292808E+00
         21   -1    0    0  501  502  0.00000000000E+00  0.00000000000E+00  0.53136853856E+02  0.53136853856E+02  0.00000000000E+00 0.  1.
          2   -1    0    0  502    0 -0.00000000000E+00 -0.00000000000E+00 -0.62816634211E+03  0.62816634211E+03  0.00000000000E+00 0. -1.
         23    2    1    2    0    0 -0.27544529745E+02  0.19245214940E+02 -0.47821064250E+03  0.48750521219E+03  0.88582356531E+02 0.  0.
         24    2    1    2    0    0  0.48006718785E+02 -0.55065279708E+02 -0.26243484601E+02  0.11205044668E+03  0.80806881139E+02 0.  0.
        -13    1    4    4    0    0  0.51423522670E+02 -0.32808441491E+02  0.16976438012E+02  0.63316443081E+02  0.00000000000E+00 0.  1.
         14    1    4    4    0    0 -0.34168038848E+01 -0.22256838217E+02 -0.43219922612E+02  0.48734003599E+02  0.00000000000E+00 0. -1.
        -13    1    3    3    0    0  0.32246961530E+02  0.88759234736E+01 -0.14433265025E+03  0.14815722215E+03  0.00000000000E+00 0.  1.
         13    1    3    3    0    0 -0.59791491274E+02  0.10369291466E+02 -0.33387799225E+03  0.33934799004E+03  0.00000000000E+00 0. -1.
          1    1    1    2  501    0 -0.20462189040E+02  0.35820064768E+02 -0.70575361154E+02  0.81747537103E+02  0.00000000000E+00 0. -1.
<scales pt_clust_5="13000.00000" pt_clust_6="13000.00000" pt_clust_7="13000.00000" pt_clust_8="13000.00000" pt_clust_9="41.25264"></scales>
<clustering>
<clus scale="   41.253">  1  9  2 -1</clus>
<clus scale="   80.807">  5  6 -1 -1</clus>
<clus scale="   88.582">  7  8 -1 -1</clus>
<clus scale="   88.994">  1  5  2 -1</clus>
<clus scale="   41.253">  1  5  2 -1</clus>
</clustering>
</event>
<event>
 9    2  0.1325014E-004  0.1808823E+03  0.7546771E-02  0.1167137E+00
          2   -1    0    0  502    0 -0.00000000000E+00  0.00000000000E+00  0.91535732804E+03  0.91535732804E+03  0.00000000000E+00 0. -1.
         21   -1    0    0  501  502  0.00000000000E+00 -0.00000000000E+00 -0.89799363983E+02  0.89799363983E+02  0.00000000000E+00 0.  1.
         24    2    1    2    0    0 -0.10425509381E+03 -0.10695693529E+03  0.28305488802E+03  0.32972961904E+03  0.79326171291E+02 0.  0.
         23    2    1    2    0    0  0.82595165476E+02  0.18561762549E+03  0.12897803933E+03  0.25393020151E+03  0.81051516672E+02 0.  0.
        -11    1    3    3    0    0 -0.15989636283E+02 -0.20663101914E+02  0.65703297472E+01  0.26940703075E+02  0.00000000000E+00 0.  1.
         12    1    3    3    0    0 -0.88265457523E+02 -0.86293833379E+02  0.27648455827E+03  0.30278891597E+03  0.00000000000E+00 0. -1.
        -13    1    4    4    0    0  0.76899488622E+02  0.11359974351E+03  0.11781891444E+03  0.18083066575E+03  0.00000000000E+00 0. -1.
         13    1    4    4    0    0  0.56956768538E+01  0.72017881980E+02  0.11159124896E+02  0.73099535759E+02  0.00000000000E+00 0.  1.
          1    1    1    2  501    0  0.21659928330E+02 -0.78660690200E+02  0.41352503671E+03  0.42149687147E+03  0.00000000000E+00 0. -1.
<scales pt_clust_5="13000.00000" pt_clust_6="13000.00000" pt_clust_7="13000.00000" pt_clust_8="13000.00000" pt_clust_9="81.58838"></scales>
<clustering>
<clus scale="   79.326">  5  6 -1 -1</clus>
<clus scale="   81.052">  7  8 -1 -1</clus>
<clus scale="   81.588">  2  9  1 -1</clus>
<clus scale="  180.116">  1  5  2 -1</clus>
<clus scale="   81.588">  2  5  1 -1</clus>
</clustering>
</event>
<event>
 9    2  0.1325014E-004  0.9881791E+02  0.7546771E-02  0.1288244E+00
         21   -1    0    0  501  502  0.00000000000E+00  0.00000000000E+00  0.96752866806E+02  0.96752866806E+02  0.00000000000E+00 0. -1.
         -3   -1    0    0    0  501 -0.00000000000E+00 -0.00000000000E+00 -0.19177609591E+03  0.19177609591E+03  0.00000000000E+00 0.  1.
         24    2    1    2    0    0 -0.38826607271E+02  0.44887100530E+01 -0.11762826985E+03  0.14809457584E+03  0.81042825565E+02 0.  0.
         23    2    1    2    0    0  0.22222048224E+02 -0.37632551010E+02  0.18782391354E+02  0.10316726702E+03  0.91546045443E+02 0.  0.
        -13    1    3    3    0    0 -0.40726534519E+02 -0.31525600804E+02 -0.85401300643E+02  0.99729114462E+02  0.00000000000E+00 0.  1.
         14    1    3    3    0    0  0.18999272472E+01  0.36014310857E+02 -0.32226969202E+02  0.48365461375E+02  0.00000000000E+00 0. -1.
        -13    1    4    4    0    0 -0.25933429775E+02  0.92433311642E+01  0.22938972807E+02  0.35835435317E+02  0.00000000000E+00 0. -1.
         13    1    4    4    0    0  0.48155477999E+02 -0.46875882175E+02 -0.41565814533E+01  0.67331831702E+02  0.00000000000E+00 0.  1.
         -4    1    1    2    0  502  0.16604559048E+02  0.33143840957E+02  0.38226493832E+01  0.37267119863E+02  0.00000000000E+00 0.  1.
<scales pt_clust_5="13000.00000" pt_clust_6="13000.00000" pt_clust_7="13000.00000" pt_clust_8="13000.00000" pt_clust_9="37.07055"></scales>
<clustering>
<clus scale="   37.071">  1  9  2 -1</clus>
<clus scale="   81.043">  5  6 -1 -1</clus>
<clus scale="   89.175">  2  5  1 -1</clus>
<clus scale="   91.546">  7  8 -1 -1</clus>
<clus scale="   37.071">  1  5  2 -1</clus>
</clustering>
</event>
<event>
 9    2  0.1325014E-004  0.2601557E+03  0.7546771E-02  0.1140712E+00
         21   -1    0    0  501  502  0.00000000000E+00  0.00000000000E+00  0.51987712762E+03  0.51987712762E+03  0.00000000000E+00 0. -1.
          2   -1    0    0  502    0 -0.00000000000E+00 -0.00000000000E+00 -0.37923978321E+03  0.37923978321E+03  0.00000000000E+00 0. -1.
         24    2    1    2    0    0  0.61411899585E+02  0.47295370520E+02 -0.23812942442E+03  0.26347226935E+03  0.81876373038E+02 0.  0.
         23    2    1    2    0    0 -0.91759023503E+02  0.21270756959E+03  0.17199798664E+03  0.30206435717E+03  0.89416664592E+02 0.  0.
        -11    1    3    3    0    0  0.55808635716E+02  0.13309357998E+02 -0.63929146153E+02  0.85899234913E+02  0.00000000000E+00 0.  1.
         12    1    3    3    0    0  0.56032638691E+01  0.33986012522E+02 -0.17420027826E+03  0.17757303444E+03  0.00000000000E+00 0. -1.
        -11    1    4    4    0    0 -0.63230775354E+02  0.11716189611E+03  0.44864334199E+02  0.14049145645E+03  0.00000000000E+00 0. -1.
         11    1    4    4    0    0 -0.28528248149E+02  0.95545673482E+02  0.12713365244E+03  0.16157290072E+03  0.00000000000E+00 0.  1.
          1    1    1    2  501    0  0.30347123918E+02 -0.26000294011E+03  0.20676878218E+03  0.33358028431E+03  0.00000000000E+00 0. -1.
<scales pt_clust_5="13000.00000" pt_clust_6="13000.00000" pt_clust_7="13000.00000" pt_clust_8="13000.00000" pt_clust_9="244.30661"></scales>
<clustering>
<clus scale="   81.876">  5  6 -1 -1</clus>
<clus scale="   89.417">  7  8 -1 -1</clus>
<clus scale="  112.748">  2  5  1 -1</clus>
<clus scale="  244.307">  1  9  2 -1</clus>
<clus scale="  244.307">  1  5  2 -1</clus>
</clustering>
</event>
<event>
 9    2  0.1325014E-004  0.1286700E+03  0.7546771E-02  0.1249916E+00
          2   -1    0    0  502    0 -0.00000000000E+00  0.00000000000E+00  0.77841223021E+03  0.77841223021E+03  0.00000000000E+00 0. -1.
         21   -1    0    0  501  502  0.00000000000E+00 -0.00000000000E+00 -0.36423868093E+02  0.36423868093E+02  0.00000000000E+00 0. -1.
         24    2    1    2    0    0  0.17553480442E+02  0.12054204656E+02  0.29583243838E+03  0.30776742260E+03  0.82161586437E+02 0.  0.
         23    2    1    2    0    0  0.73467605534E+02  0.37579546604E+01  0.14133623501E+03  0.18855665849E+03  0.10082693514E+03 0.  0.
        -11    1    3    3    0    0  0.98094290947E+01  0.45733679268E+02  0.12477146564E+03  0.13325056456E+03  0.00000000000E+00 0.  1.
         12    1    3    3    0    0  0.77440513472E+01 -0.33679474613E+02  0.17106097274E+03  0.17451685803E+03  0.00000000000E+00 0. -1.
        -11    1    4    4    0    0  0.80147654699E+02  0.31075630399E+02  0.66717515657E+02  0.10881437522E+03  0.00000000000E+00 0. -1.
         11    1    4    4    0    0 -0.66800491646E+01 -0.27317675739E+02  0.74618719351E+02  0.79742283277E+02  0.00000000000E+00 0.  1.
          1    1    1    2  501    0 -0.91021085976E+02 -0.15812159316E+02  0.30481968872E+03  0.31851201721E+03  0.00000000000E+00 0. -1.
<scales pt_clust_5="13000.00000" pt_clust_6="13000.00000" pt_clust_7="13000.00000" pt_clust_8="13000.00000" pt_clust_9="79.93685"></scales>
<clustering>
<clus scale="   82.162">  5  6 -1 -1</clus>
<clus scale="   84.876">  1  5  2 -1</clus>
<clus scale="   79.937">  2  9  1 -1</clus>
<clus scale="  100.827">  7  8 -1 -1</clus>
<clus scale="   79.937">  2  5  1 -1</clus>
</clustering>
</event>
<event>
 9    2  0.1325014E-004  0.1108140E+03  0.7546771E-02  0.1263081E+00
          2   -1    0    0  502    0 -0.00000000000E+00  0.00000000000E+00  0.66210755544E+02  0.66210755544E+02  0.00000000000E+00 0. -1.
         21   -1    0    0  501  502  0.00000000000E+00 -0.00000000000E+00 -0.37433187047E+03  0.37433187047E+03  0.00000000000E+00 0.  1.
         24    2    1    2    0    0 -0.58329245804E+02  0.47431419208E+02 -0.66704493426E+01  0.10823255541E+03  0.77574162657E+02 0.  0.
         23    2    1    2    0    0  0.30502793997E+02 -0.13797737791E+02 -0.22899775794E+03  0.24772307531E+03  0.88351292540E+02 0.  0.
        -11    1    3    3    0    0 -0.66969948915E+02  0.47343132571E+02  0.16363753080E+02  0.83630847623E+02  0.00000000000E+00 0.  1.
         12    1    3    3    0    0  0.86407031109E+01  0.88286637090E-01 -0.23034202422E+02  0.24601707786E+02  0.00000000000E+00 0. -1.
        -13    1    4    4    0    0  0.37068574285E+02  0.15941758753E+02 -0.20504229406E+03  0.20897502536E+03  0.00000000000E+00 0.  1.
         13    1    4    4    0    0 -0.65657802875E+01 -0.29739496545E+02 -0.23955463874E+02  0.38748049950E+02  0.00000000000E+00 0. -1.
          1    1    1    2  501    0  0.27826451807E+02 -0.33633681417E+02 -0.72452907652E+02  0.84586995295E+02  0.00000000000E+00 0. -1.
<scales pt_clust_5="13000.00000" pt_clust_6="13000.00000" pt_clust_7="13000.00000" pt_clust_8="13000.00000" pt_clust_9="43.65244"></scales>
<clustering>
<clus scale="   43.652">  2  9  1 -1</clus>
<clus scale="   77.574">  5  6 -1 -1</clus>
<clus scale="   88.351">  7  8 -1 -1</clus>
<clus scale="  102.428">  1  5  2 -1</clus>
<clus scale="   43.652">  2  5  1 -1</clus>
</clustering>
</event>
<event>
 9    2  0.1325014E-004  0.1120093E+03  0.7546771E-02  0.1260637E+00
         21   -1    0    0  501  502  0.00000000000E+00  0.00000000000E+00  0.59448165207E+03  0.59448165207E+03  0.00000000000E+00 0. -1.
         -1   -1    0    0    0  501 -0.00000000000E+00 -0.00000000000E+00 -0.13438501720E+03  0.13438501720E+03  0.00000000000E+00 0.  1.
         23    2    1    2    0    0 -0.63149697028E+02 -0.82258117401E+01 -0.81887535270E+02  0.13787231921E+03  0.90816627096E+02 0.  0.
         24    2    1    2    0    0  0.10009887068E+03  0.21350253955E+02  0.53562788953E+03  0.55127162710E+03  0.80793276652E+02 0.  0.
        -13    1    4    4    0    0  0.65705269598E+02 -0.58538492613E+01  0.15959612234E+03  0.17269155240E+03  0.00000000000E+00 0.  1.
         14    1    4    4    0    0  0.34393601078E+02  0.27204103216E+02  0.37603176719E+03  0.37858007470E+03  0.00000000000E+00 0. -1.
        -11    1    3    3    0    0 -0.22138351905E+01  0.33332386546E+02 -0.43121182193E+02  0.54547093532E+02  0.00000000000E+00 0.  1.
         11    1    3    3    0    0 -0.60935861837E+02 -0.41558198286E+02 -0.38766353077E+02  0.83325225673E+02  0.00000000000E+00 0. -1.
         -2    1    1    2    0  502 -0.36949173648E+02 -0.13124442215E+02  0.63562806125E+01  0.39722722968E+02  0.00000000000E+00 0.  1.
<scales pt_clust_5="13000.00000" pt_clust_6="13000.00000" pt_clust_7="13000.00000" pt_clust_8="13000.00000" pt_clust_9="39.21089"></scales>
<clustering>
<clus scale="   39.211">  1  9  2 -1</clus>
<clus scale="   80.793">  5  6 -1 -1</clus>
<clus scale="   90.817">  7  8 -1 -1</clus>
<clus scale="  104.048">  1  5  2 -1</clus>
<clus scale="   39.211">  1  5  2 -1</clus>
</clustering>
</event>
<event>
 9    2  0.1325014E-004  0.1843364E+03  0.7546771E-02  0.1165306E+00
         21   -1    0    0  501  502  0.00000000000E+00  0.00000000000E+00  0.61794314110E+02  0.61794314110E+02  0.00000000000E+00 0.  1.
          2   -1    0    0  502    0 -0.00000000000E+00 -0.00000000000E+00 -0.71620265147E+03  0.71620265147E+03  0.00000000000E+00 0. -1.
         24    2    1    2    0    0  0.17057780671E+03  0.36490965789E+02 -0.32758357137E+03  0.37961294522E+03  0.79791059738E+02 0.  0.
         23    2    1    2    0    0 -0.13778086945E+03 -0.15563929943E+02 -0.17748598130E+03  0.24406081234E+03  0.94013842923E+02 0.  0.
        -11    1    3    3    0    0  0.10156470603E+03  0.61125177703E+02 -0.20338607219E+03  0.23540936944E+03  0.00000000000E+00 0.  1.
         12    1    3    3    0    0  0.69013100681E+02 -0.24634211913E+02 -0.12419749919E+03  0.14420357578E+03  0.00000000000E+00 0. -1.
        -13    1    4    4    0    0 -0.59398131168E+01 -0.29346349093E+02 -0.12569335435E+02  0.32472723603E+02  0.00000000000E+00 0.  1.
         13    1    4    4    0    0 -0.13184105633E+03  0.13782419150E+02 -0.16491664586E+03  0.21158808874E+03  0.00000000000E+00 0. -1.
          1    1    1    2  501    0 -0.32796937259E+02 -0.20927035847E+02 -0.14933878469E+03  0.15432320802E+03  0.00000000000E+00 0. -1.
<scales pt_clust_5="13000.00000" pt_clust_6="13000.00000" pt_clust_7="13000.00000" pt_clust_8="13000.00000" pt_clust_9="38.90477"></scales>
<clustering>
<clus scale="   38.905">  1  9  2 -1</clus>
<clus scale="   79.791">  5  6 -1 -1</clus>
<clus scale="   94.014">  7  8 -1 -1</clus>
<clus scale="  177.505">  2  5  1 -1</clus>
<clus scale="   38.905">  1  5  2 -1</clus>
</clustering>
</event>
<event>
 9    2  0.1325014E-004  0.9138857E+02  0.7546771E-02  0.1303085E+00
         -1   -1    0    0    0  501 -0.00000000000E+00  0.00000000000E+00  0.11074257627E+03  0.11074257627E+03  0.00000000000E+00 0.  1.
         21   -1    0    0  501  502  0.00000000000E+00 -0.00000000000E+00 -0.22066019840E+03  0.22066019840E+03  0.00000000000E+00 0.  1.
         24    2    1    2    0    0  0.18322343902E+01 -0.26396906468E+02  0.37919041822E+02  0.95565276294E+02  0.83634410062E+02 0.  0.
         23    2    1    2    0    0 -0.12393272295E+02 -0.30577155609E+02 -0.15007135039E+03  0.17784980059E+03  0.89557722819E+02 0.  0.
        -11    1    3    3    0    0  0.10967084408E+02 -0.34380840449E+02  0.60204256739E+02  0.70191677996E+02  0.00000000000E+00 0.  1.
         12    1    3    3    0    0 -0.91348500174E+01  0.79839339804E+01 -0.22285214917E+02  0.25373598298E+02  0.00000000000E+00 0. -1.
        -11    1    4    4    0    0 -0.45280242228E+02 -0.41574885150E+01 -0.11256727844E+03  0.12140418947E+03  0.00000000000E+00 0.  1.
         11    1    4    4    0    0  0.32886969932E+02 -0.26419667094E+02 -0.37504071957E+02  0.56445611114E+02  0.00000000000E+00 0. -1.
         -2    1    1    2    0  502  0.10561037905E+02  0.56974062078E+02  0.22346864470E+01  0.57987697789E+02  0.00000000000E+00 0.  1.
<scales pt_clust_5="13000.00000" pt_clust_6="13000.00000" pt_clust_7="13000.00000" pt_clust_8="13000.00000" pt_clust_9="57.94465"></scales>
<clustering>
<clus scale="   57.945">  2  9  1 -1</clus>
<clus scale="   83.634">  5  6 -1 -1</clus>
<clus scale="   85.592">  1  5  2 -1</clus>
<clus scale="   89.558">  7  8 -1 -1</clus>
<clus scale="   57.945">  2  5  1 -1</clus>
</clustering>
</event>
<event>
 9    2  0.1325014E-004  0.2193547E+03  0.7546771E-02  0.1135258E+00
         21   -1    0    0  501  502  0.00000000000E+00  0.00000000000E+00  0.13504363249E+03  0.13504363249E+03  0.00000000000E+00 0. -1.
          2   -1    0    0  502    0 -0.00000000000E+00 -0.00000000000E+00 -0.71908703004E+03  0.71908703004E+03  0.00000000000E+00 0. -1.
         23    2    1    2    0    0  0.16999134928E+03 -0.99789816014E+02 -0.28668931053E+03  0.35963371475E+03  0.91052632046E+02 0.  0.
         24    2    1    2    0    0 -0.22306077278E+03 -0.17543482758E+02 -0.27596717190E+03  0.36395627654E+03  0.79008917988E+02 0.  0.
        -11    1    4    4    0    0 -0.59625368200E+02 -0.36963526290E+02 -0.59247794472E+02  0.91824767675E+02  0.00000000000E+00 0.  1.
         12    1    4    4    0    0 -0.16343540458E+03  0.19420043532E+02 -0.21671937743E+03  0.27213150886E+03  0.00000000000E+00 0. -1.
        -11    1    3    3    0    0  0.65468782837E+02 -0.84735214527E+02 -0.10808822695E+03  0.15214888403E+03  0.00000000000E+00 0. -1.
         11    1    3    3    0    0  0.10452256644E+03 -0.15054601487E+02 -0.17860108359E+03  0.20748483072E+03  0.00000000000E+00 0.  1.
          1    1    1    2  501    0  0.53069423502E+02  0.11733329877E+03 -0.21386915118E+02  0.13054067125E+03  0.00000000000E+00 0. -1.
<scales pt_clust_5="13000.00000" pt_clust_6="13000.00000" pt_clust_7="13000.00000" pt_clust_8="13000.00000" pt_clust_9="128.77681"></scales>
<clustering>
<clus scale="   79.009">  5  6 -1 -1</clus>
<clus scale="   91.053">  7  8 -1 -1</clus>
<clus scale="  128.777">  1  9  2 -1</clus>
<clus scale="  214.635">  1  5  2 -1</clus>
<clus scale="  128.777">  1  5  2 -1</clus>
</clustering>
</event>
<event>
 9    2  0.1325014E-004  0.9308404E+02  0.7546771E-02  0.1301740E+00
         21   -1    0    0  501  502  0.00000000000E+00  0.00000000000E+00  0.57483795611E+02  0.57483795611E+02  0.00000000000E+00 0.  1.
          2   -1    0    0  502    0 -0.00000000000E+00 -0.00000000000E+00 -0.30720243980E+03  0.30720243980E+03  0.00000000000E+00 0. -1.
         24    2    1    2    0    0  0.46188049680E+01 -0.26737787486E+02 -0.16662656804E+03  0.18676721475E+03  0.79883269151E+02 0.  0.
         23    2    1    2    0    0 -0.22223131069E+02 -0.28720439432E+01 -0.56988085941E+01  0.93205549017E+02  0.90292202085E+02 0.  0.
        -11    1    3    3    0    0 -0.25333378383E+00  0.26993072042E+02 -0.32831802611E+02  0.42504321886E+02  0.00000000000E+00 0.  1.
         12    1    3    3    0    0  0.48721387518E+01 -0.53730859528E+02 -0.13379476543E+03  0.14426289287E+03  0.00000000000E+00 0. -1.
        -11    1    4    4    0    0  0.24176149342E+02  0.27723867993E+02 -0.77371058793E+01  0.37589384949E+02  0.00000000000E+00 0. -1.
         11    1    4    4    0    0 -0.46399280411E+02 -0.30595911936E+02  0.20382972852E+01  0.55616164068E+02  0.00000000000E+00 0.  1.
          1    1    1    2  501    0  0.17604326101E+02  0.29609831429E+02 -0.77393267552E+02  0.84713471639E+02  0.00000000000E+00 0. -1.
<scales pt_clust_5="13000.00000" pt_clust_6="13000.00000" pt_clust_7="13000.00000" pt_clust_8="13000.00000" pt_clust_9="34.44787"></scales>
<clustering>
<clus scale="   34.448">  1  9  2 -1</clus>
<clus scale="   79.883">  5  6 -1 -1</clus>
<clus scale="   83.026">  2  5  1 -1</clus>
<clus scale="   90.292">  7  8 -1 -1</clus>
<clus scale="   34.448">  1  5  2 -1</clus>
</clustering>
</event>
<event>
 9    2  0.1325014E-004  0.1034413E+03  0.7546771E-02  0.1280106E+00
         21   -1    0    0  501  502  0.00000000000E+00  0.00000000000E+00  0.11979295122E+03  0.11979295122E+03  0.00000000000E+00 0. -1.
          2   -1    0    0  502    0 -0.00000000000E+00 -0.00000000000E+00 -0.57480139172E+03  0.57480139172E+03  0.00000000000E+00 0. -1.
         24    2    1    2    0    0 -0.27930432219E+02 -0.45850982689E+02 -0.34370904996E+03  0.35698531470E+03  0.80126039647E+02 0.  0.
         23    2    1    2    0    0 -0.53790155694E+01  0.29041365986E+02 -0.20999516556E+03  0.23209628716E+03  0.94331236654E+02 0.  0.
        -11    1    3    3    0    0  0.12455425017E+02 -0.51815078313E+02 -0.15482025006E+03  0.16373530402E+03  0.00000000000E+00 0.  1.
         12    1    3    3    0    0 -0.40385857236E+02  0.59640956241E+01 -0.18888879989E+03  0.19325001068E+03  0.00000000000E+00 0. -1.
        -13    1    4    4    0    0  0.39597041305E+02  0.32135841197E+02 -0.13832583762E+03  0.14742684736E+03  0.00000000000E+00 0.  1.
         13    1    4    4    0    0 -0.44976056874E+02 -0.30944752109E+01 -0.71669327946E+02  0.84669439806E+02  0.00000000000E+00 0. -1.
          1    1    1    2  501    0  0.33309447789E+02  0.16809616703E+02  0.98695775009E+02  0.10551274108E+03  0.00000000000E+00 0. -1.
<scales pt_clust_5="13000.00000" pt_clust_6="13000.00000" pt_clust_7="13000.00000" pt_clust_8="13000.00000" pt_clust_9="37.31062"></scales>
<clustering>
<clus scale="   37.311">  1  9  2 -1</clus>
<clus scale="   80.126">  5  6 -1 -1</clus>
<clus scale="   90.675">  2  5  1 -1</clus>
<clus scale="   94.331">  7  8 -1 -1</clus>
<clus scale="   37.311">  1  5  2 -1</clus>
</clustering>
</event>
<event>
 9    2  0.1325014E-004  0.9996525E+02  0.7546771E-02  0.1282838E+00
         21   -1    0    0  501  502  0.00000000000E+00  0.00000000000E+00  0.97314367542E+02  0.97314367542E+02  0.00000000000E+00 0. -1.
         -1   -1    0    0    0  501 -0.00000000000E+00 -0.00000000000E+00 -0.25226923427E+03  0.25226923427E+03  0.00000000000E+00 0.  1.
         24    2    1    2    0    0  0.23323189699E+02 -0.52583792505E+02 -0.14155517452E+03  0.17253844679E+03  0.80141261367E+02 0.  0.
         23    2    1    2    0    0  0.15299573420E+02  0.79829697097E+02  0.28602477398E+02  0.11381352213E+03  0.74354277751E+02 0.  0.
        -13    1    3    3    0    0  0.25944405719E+02  0.12216497160E+02 -0.20650731011E+02  0.35338473117E+02  0.00000000000E+00 0.  1.
         14    1    3    3    0    0 -0.26212160197E+01 -0.64800289665E+02 -0.12090444351E+03  0.13719997367E+03  0.00000000000E+00 0. -1.
        -11    1    4    4    0    0  0.27803448963E+02  0.44743371981E+01 -0.77652575428E+01  0.29212166854E+02  0.00000000000E+00 0.  1.
         11    1    4    4    0    0 -0.12503875543E+02  0.75355359899E+02  0.36367734941E+02  0.84601355271E+02  0.00000000000E+00 0. -1.
         -2    1    1    2    0  502 -0.38622763118E+02 -0.27245904592E+02 -0.42002169608E+02  0.63231632904E+02  0.00000000000E+00 0.  1.
<scales pt_clust_5="13000.00000" pt_clust_6="13000.00000" pt_clust_7="13000.00000" pt_clust_8="13000.00000" pt_clust_9="47.26584"></scales>
<clustering>
<clus scale="   47.266">  1  9  2 -1</clus>
<clus scale="   74.354">  7  8 -1 -1</clus>
<clus scale="   80.141">  5  6 -1 -1</clus>
<clus scale="   95.389">  1  7  2 -1</clus>
<clus scale="   47.266">  1  5  2 -1</clus>
</clustering>
</event>
<event>
 9    2  0.1325014E-004  0.1582652E+03  0.7546771E-02  0.1192399E+00
          2   -1    0    0  502    0 -0.00000000000E+00  0.00000000000E+00  0.42518612518E+03  0.42518612518E+03  0.00000000000E+00 0. -1.
         21   -1    0    0  501  502  0.00000000000E+00 -0.00000000000E+00 -0.14905007394E+03  0.14905007394E+03  0.00000000000E+00 0. -1.
         23    2    1    2    0    0  0.10249647942E+03  0.10628165508E+03  0.29529703155E+03  0.34267914097E+03  0.91800535481E+02 0.  0.
         24    2    1    2    0    0 -0.90868110645E+02 -0.39806304087E+02  0.47499242162E+02  0.13670044790E+03  0.81174374480E+02 0.  0.
        -11    1    4    4    0    0 -0.47569349235E+02 -0.21662769840E+02  0.67752347242E+02  0.85571602419E+02  0.00000000000E+00 0.  1.
         12    1    4    4    0    0 -0.43298761409E+02 -0.18143534247E+02 -0.20253105080E+02  0.51128845478E+02  0.00000000000E+00 0. -1.
        -13    1    3    3    0    0  0.21847117337E+02  0.55822764388E+02  0.19685728255E+03  0.20578208681E+03  0.00000000000E+00 0. -1.
         13    1    3    3    0    0  0.80649362082E+02  0.50458890689E+02  0.98439748997E+02  0.13689705416E+03  0.00000000000E+00 0.  1.
          1    1    1    2  501    0 -0.11628368775E+02 -0.66475350991E+02 -0.66660222471E+02  0.94856610257E+02  0.00000000000E+00 0. -1.
<scales pt_clust_5="13000.00000" pt_clust_6="13000.00000" pt_clust_7="13000.00000" pt_clust_8="13000.00000" pt_clust_9="67.48475"></scales>
<clustering>
<clus scale="   67.485">  2  9  1 -1</clus>
<clus scale="   81.174">  5  6 -1 -1</clus>
<clus scale="   91.801">  7  8 -1 -1</clus>
<clus scale="  152.348">  2  5  1 -1</clus>
<clus scale="   67.485">  2  5  1 -1</clus>
</clustering>
</event>
<event>
 9    2  0.1325014E-004  0.1213538E+03  0.7546771E-02  0.1241932E+00
          2   -1    0    0  502    0 -0.00000000000E+00  0.00000000000E+00  0.10023883839E+04  0.10023883839E+04  0.00000000000E+00 0. -1.
         21   -1    0    0  501  502  0.00000000000E+00 -0.00000000000E+00 -0.69901539735E+02  0.69901539735E+02  0.00000000000E+00 0. -1.
         24    2    1    2    0    0 -0.65290230405E+02 -0.56769287358E+02  0.92415275229E+03  0.93190698882E+03  0.83106919519E+02 0.  0.
         23    2    1    2    0    0  0.35093287840E+02  0.53063654518E+02 -0.38126874275E+01  0.10762425193E+03  0.86724579773E+02 0.  0.
        -11    1    3    3    0    0 -0.32549872236E+02 -0.19027115568E+02  0.11115336446E+03  0.11737374383E+03  0.00000000000E+00 0.  1.
         12    1    3    3    0    0 -0.32740358169E+02 -0.37742171790E+02  0.81299938783E+03  0.81453324499E+03  0.00000000000E+00 0. -1.
        -11    1    4    4    0    0  0.80870547426E+01  0.72015378689E+02  0.72419883900E+01  0.72828988857E+02  0.00000000000E+00 0. -1.
         11    1    4    4    0    0  0.27006233097E+02 -0.18951724171E+02 -0.11054675817E+02  0.34795263077E+02  0.00000000000E+00 0.  1.
          1    1    1    2  501    0  0.30196942565E+02  0.37056328403E+01  0.12146779261E+02  0.32758682841E+02  0.00000000000E+00 0. -1.
<scales pt_clust_5="13000.00000" pt_clust_6="13000.00000" pt_clust_7="13000.00000" pt_clust_8="13000.00000" pt_clust_9="30.42346"></scales>
<clustering>
<clus scale="   30.423">  2  9  1 -1</clus>
<clus scale="   83.107">  5  6 -1 -1</clus>
<clus scale="   86.725">  7  8 -1 -1</clus>
<clus scale="  118.795">  1  5  2 -1</clus>
<clus scale="   30.423">  2  5  1 -1</clus>
</clustering>
</event>
<event>
 9    2  0.1325014E-004  0.2658404E+03  0.7546771E-02  0.1126644E+00
          2   -1    0    0  502    0 -0.00000000000E+00  0.00000000000E+00  0.30399315083E+03  0.30399315083E+03  0.00000000000E+00 0. -1.
         21   -1    0    0  501  502  0.00000000000E+00 -0.00000000000E+00 -0.70222576238E+03  0.70222576238E+03  0.00000000000E+00 0. -1.
         23    2    1    2    0    0 -0.10606947049E+03  0.48553659256E+02 -0.19274118280E+03  0.24358032120E+03  0.92595998473E+02 0.  0.
         24    2    1    2    0    0 -0.19320312187E+02 -0.25813036359E+03 -0.37679137552E+03  0.46432891339E+03  0.81394349161E+02 0.  0.
        -13    1    4    4    0    0 -0.22818681064E+02 -0.29647926088E+02 -0.25573838297E+02  0.45317909617E+02  0.00000000000E+00 0.  1.
         14    1    4    4    0    0  0.34983688765E+01 -0.22848243750E+03 -0.35121753722E+03  0.41901100377E+03  0.00000000000E+00 0. -1.
        -13    1    3    3    0    0 -0.73132751282E+02  0.69601885980E+02 -0.96314522063E+02  0.13953246576E+03  0.00000000000E+00 0. -1.
         13    1    3    3    0    0 -0.32936719204E+02 -0.21048226724E+02 -0.96426660739E+02  0.10404785544E+03  0.00000000000E+00 0.  1.
          1    1    1    2  501    0  0.12538978267E+03  0.20957670433E+03  0.17129994676E+03  0.29830967862E+03  0.00000000000E+00 0. -1.
<scales pt_clust_5="13000.00000" pt_clust_6="13000.00000" pt_clust_7="13000.00000" pt_clust_8="13000.00000" pt_clust_9="253.07341"></scales>
<clustering>
<clus scale="   81.394">  5  6 -1 -1</clus>
<clus scale="   92.596">  7  8 -1 -1</clus>
<clus scale="  148.937">  1  7  2 -1</clus>
<clus scale="  253.073">  2  9  1 -1</clus>
<clus scale="  253.073">  2  5  1 -1</clus>
</clustering>
</event>
<event>
 9    2  0.1325014E-004  0.1027069E+03  0.7546771E-02  0.1280420E+00
         -3   -1    0    0    0  501 -0.00000000000E+00  0.00000000000E+00  0.56061327998E+02  0.56061327998E+02  0.00000000000E+00 0.  1.
         21   -1    0    0  501  502  0.00000000000E+00 -0.00000000000E+00 -0.23991879709E+03  0.23991879709E+03  0.00000000000E+00 0. -1.
         24    2    1    2    0    0 -0.50450875503E+01  0.56766257760E+02 -0.68927863141E+02  0.11995542648E+03  0.79939934297E+02 0.  0.
         23    2    1    2    0    0  0.18140547583E+02 -0.28305866697E+02 -0.10398523826E+03  0.14283939890E+03  0.91977511078E+02 0.  0.
        -13    1    3    3    0    0 -0.15996812554E+02  0.12922768674E+02  0.14439543511E+02  0.25127601932E+02  0.00000000000E+00 0.  1.
         14    1    3    3    0    0  0.10951725004E+02  0.43843489087E+02 -0.83367406651E+02  0.94827824543E+02  0.00000000000E+00 0. -1.
        -11    1    4    4    0    0  0.48531574480E+02 -0.88227228686E+01 -0.23520510135E+02  0.54647676596E+02  0.00000000000E+00 0.  1.
         11    1    4    4    0    0 -0.30391026898E+02 -0.19483143828E+02 -0.80464728130E+02  0.88191722300E+02  0.00000000000E+00 0. -1.
         -4    1    1    2    0  502 -0.13095460032E+02 -0.28460391064E+02 -0.10944367683E+02  0.33185299711E+02  0.00000000000E+00 0.  1.
<scales pt_clust_5="13000.00000" pt_clust_6="13000.00000" pt_clust_7="13000.00000" pt_clust_8="13000.00000" pt_clust_9="31.32868"></scales>
<clustering>
<clus scale="   31.329">  2  9  1 -1</clus>
<clus scale="   79.940">  5  6 -1 -1</clus>
<clus scale="   91.978">  7  8 -1 -1</clus>
<clus scale="   92.083">  1  5  2 -1</clus>
<clus scale="   31.329">  2  5  1 -1</clus>
</clustering>
</event>
<event>
 9    2  0.1325014E-004  0.1267254E+03  0.7546771E-02  0.1236559E+00
          2   -1    0    0  502    0 -0.00000000000E+00  0.00000000000E+00  0.55920952597E+03  0.55920952597E+03  0.00000000000E+00 0. -1.
         21   -1    0    0  501  502  0.00000000000E+00 -0.00000000000E+00 -0.53341583255E+02  0.53341583255E+02  0.00000000000E+00 0.  1.
         23    2    1    2    0    0 -0.89016452582E+02  0.20296367058E+02  0.45906669485E+03  0.47695389773E+03  0.91689251798E+02 0.  0.
         24    2    1    2    0    0  0.67583576095E+02 -0.22384707443E+02  0.31966681620E+02  0.10944776187E+03  0.76735447866E+02 0.  0.
        -11    1    4    4    0    0  0.72254633929E+02 -0.34597037213E+02  0.59510257345E+01  0.80331200759E+02  0.00000000000E+00 0.  1.
         12    1    4    4    0    0 -0.46710578341E+01  0.12212329771E+02  0.26015655885E+02  0.29116561110E+02  0.00000000000E+00 0. -1.
        -11    1    3    3    0    0 -0.55118455213E+02 -0.28387733691E+02  0.15109254595E+03  0.16331829343E+03  0.00000000000E+00 0.  1.
         11    1    3    3    0    0 -0.33897997369E+02  0.48684100749E+02  0.30797414890E+03  0.31363560430E+03  0.00000000000E+00 0. -1.
          1    1    1    2  501    0  0.21432876488E+02  0.20883403847E+01  0.14834566250E+02  0.26149449630E+02  0.00000000000E+00 0. -1.
<scales pt_clust_5="13000.00000" pt_clust_6="13000.00000" pt_clust_7="13000.00000" pt_clust_8="13000.00000" pt_clust_9="21.53438"></scales>
<clustering>
<clus scale="   21.534">  2  9  1 -1</clus>
<clus scale="   76.735">  5  6 -1 -1</clus>
<clus scale="   91.689">  7  8 -1 -1</clus>
<clus scale="  116.365">  2  5  1 -1</clus>
<clus scale="   21.534">  2  5  1 -1</clus>
</clustering>
</event>
<event>
 9    2  0.1325014E-004  0.1144379E+03  0.7546771E-02  0.1255752E+00
          4   -1    0    0  502    0 -0.00000000000E+00  0.00000000000E+00  0.42249607358E+03  0.42249607358E+03  0.00000000000E+00 0. -1.
         21   -1    0    0  501  502  0.00000000000E+00 -0.00000000000E+00 -0.14890800392E+03  0.14890800392E+03  0.00000000000E+00 0. -1.
         24    2    1    2    0    0 -0.19602283726E+02  0.69622619277E+02  0.37157957661E+03  0.38712821481E+03  0.81026627160E+02 0.  0.
         23    2    1    2    0    0  0.37350059065E+02 -0.44952368255E+02 -0.32731024226E+02  0.11228603410E+03  0.90117097064E+02 0.  0.
        -11    1    3    3    0    0 -0.26815354070E+02  0.30110291597E+02  0.56011802471E+02  0.69014599108E+02  0.00000000000E+00 0.  1.
         12    1    3    3    0    0  0.72130703445E+01  0.39512327681E+02  0.31556777414E+03  0.31811361570E+03  0.00000000000E+00 0. -1.
        -13    1    4    4    0    0 -0.15511933718E+02  0.17717356809E+02 -0.16378282699E+02  0.28684019316E+02  0.00000000000E+00 0.  1.
         13    1    4    4    0    0  0.52861992783E+02 -0.62669725064E+02 -0.16352741527E+02  0.83602014784E+02  0.00000000000E+00 0. -1.
          3    1    1    2  501    0 -0.17747775339E+02 -0.24670251023E+02 -0.65260482726E+02  0.71989828592E+02  0.00000000000E+00 0. -1.
<scales pt_clust_5="13000.00000" pt_clust_6="13000.00000" pt_clust_7="13000.00000" pt_clust_8="13000.00000" pt_clust_9="30.39087"></scales>
<clustering>
<clus scale="   30.391">  2  9  1 -1</clus>
<clus scale="   81.027">  5  6 -1 -1</clus>
<clus scale="   90.117">  7  8 -1 -1</clus>
<clus scale="  107.426">  1  5  2 -1</clus>
<clus scale="   30.391">  2  5  1 -1</clus>
</clustering>
</event>
<event>
 9    2  0.1325014E-004  0.1038477E+03  0.7546771E-02  0.1274551E+00
         21   -1    0    0  501  502  0.00000000000E+00  0.00000000000E+00  0.45612725951E+03  0.45612725951E+03  0.00000000000E+00 0. -1.
          2   -1    0    0  502    0 -0.00000000000E+00 -0.00000000000E+00 -0.65775094296E+02  0.65775094296E+02  0.00000000000E+00 0. -1.
         23    2    1    2    0    0 -0.26165193068E+02 -0.22159056146E+02  0.52770923108E+02  0.11008009370E+03  0.90317305134E+02 0.  0.
         24    2    1    2    0    0  0.99622612742E+02  0.54679401811E+02  0.27644871516E+03  0.31087300930E+03  0.85461300257E+02 0.  0.
        -13    1    4    4    0    0  0.22136135666E+02 -0.20044449100E+02  0.98210828517E+02  0.10265064676E+03  0.00000000000E+00 0.  1.
         14    1    4    4    0    0  0.77486477076E+02  0.74723850912E+02  0.17823788665E+03  0.20822236254E+03  0.00000000000E+00 0. -1.
        -13    1    3    3    0    0  0.11055685171E+02 -0.17610906584E+02 -0.19597839936E+02  0.28573546078E+02  0.00000000000E+00 0.  1.
         13    1    3    3    0    0 -0.37220878239E+02 -0.45481495622E+01  0.72368763044E+02  0.81506547626E+02  0.00000000000E+00 0. -1.
          1    1    1    2  501    0 -0.73457419674E+02 -0.32520345665E+02  0.61132526939E+02  0.10094925080E+03  0.00000000000E+00 0. -1.
<scales pt_clust_5="13000.00000" pt_clust_6="13000.00000" pt_clust_7="13000.00000" pt_clust_8="13000.00000" pt_clust_9="80.33413"></scales>
<clustering>
<clus scale="   80.334">  1  9  2 -1</clus>
<clus scale="   85.461">  5  6 -1 -1</clus>
<clus scale="   90.317">  7  8 -1 -1</clus>
<clus scale="   99.653">  1  5  2 -1</clus>
<clus scale="   80.334">  1  5  2 -1</clus>
</clustering>
</event>
<event>
 9    2  0.1325014E-004  0.1055630E+03  0.7546771E-02  0.1272040E+00
         21   -1    0    0  501  502  0.00000000000E+00  0.00000000000E+00  0.52494672136E+02  0.52494672136E+02  0.00000000000E+00 0.  1.
         -1   -1    0    0    0  501 -0.00000000000E+00 -0.00000000000E+00 -0.33826294056E+03  0.33826294056E+03  0.00000000000E+00 0.  1.
         23    2    1    2    0    0 -0.64536666519E+02 -0.22317246130E+02 -0.15626930914E+03  0.19096661175E+03  0.85936657032E+02 0.  0.
         24    2    1    2    0    0  0.55723464190E+02 -0.24232300287E+02 -0.60933348709E+02  0.11644968010E+03  0.78456014257E+02 0.  0.
        -13    1    4    4    0    0  0.18409230756E+02 -0.22350466642E+02  0.14416044773E+02  0.32346027314E+02  0.00000000000E+00 0.  1.
         14    1    4    4    0    0  0.37314233434E+02 -0.18818336457E+01 -0.75349393482E+02  0.84103652790E+02  0.00000000000E+00 0. -1.
        -11    1    3    3    0    0 -0.78220352299E+02 -0.59119376392E+01 -0.14902331335E+03  0.16840820182E+03  0.00000000000E+00 0.  1.
         11    1    3    3    0    0  0.13683685780E+02 -0.16405308491E+02 -0.72459957962E+01  0.22558409924E+02  0.00000000000E+00 0. -1.
         -2    1    1    2    0  502  0.88132023293E+01  0.46549546417E+02 -0.68565610569E+02  0.83341320842E+02  0.00000000000E+00 0.  1.
<scales pt_clust_5="13000.00000" pt_clust_6="13000.00000" pt_clust_7="13000.00000" pt_clust_8="13000.00000" pt_clust_9="47.37652"></scales>
<clustering>
<clus scale="   47.377">  1  9  2 -1</clus>
<clus scale="   78.456">  5  6 -1 -1</clus>
<clus scale="   85.937">  7  8 -1 -1</clus>
<clus scale="   99.568">  1  5  2 -1</clus>
<clus scale="   47.377">  1  5  2 -1</clus>
</clustering>
</event>
<event>
 9    2  0.1325014E-004  0.9865822E+02  0.7546771E-02  0.1288572E+00
         21   -1    0    0  501  502  0.00000000000E+00  0.00000000000E+00  0.61301223777E+02  0.61301223777E+02  0.00000000000E+00 0.  1.
          2   -1    0    0  502    0 -0.00000000000E+00 -0.00000000000E+00 -0.75435734846E+03  0.75435734846E+03  0.00000000000E+00 0. -1.
         24    2    1    2    0    0  0.39401723630E+02 -0.45431493861E+01 -0.68361181897E+03  0.68947896493E+03  0.80517004527E+02 0.  0.
         23    2    1    2    0    0 -0.15119477474E+02  0.18181834323E+02 -0.20437830099E+02  0.96238017778E+02  0.91021280304E+02 0.  0.
        -11    1    3    3    0    0 -0.22309040795E+02 -0.11342041243E+02 -0.12917982587E+03  0.13158177158E+03  0.00000000000E+00 0.  1.
         12    1    3    3    0    0  0.61710764425E+02  0.67988918570E+01 -0.55443199310E+03  0.55789719335E+03  0.00000000000E+00 0. -1.
        -13    1    4    4    0    0  0.32789146078E+02 -0.82942541479E+01  0.77063007271E+01  0.34688756439E+02  0.00000000000E+00 0.  1.
         13    1    4    4    0    0 -0.47908623552E+02  0.26476088471E+02 -0.28144130826E+02  0.61549261338E+02  0.00000000000E+00 0. -1.
          1    1    1    2  501    0 -0.24282246156E+02 -0.13638684937E+02  0.10993524383E+02  0.29941589530E+02  0.00000000000E+00 0. -1.
<scales pt_clust_5="13000.00000" pt_clust_6="13000.00000" pt_clust_7="13000.00000" pt_clust_8="13000.00000" pt_clust_9="27.85034"></scales>
<clustering>
<clus scale="   27.850">  1  9  2 -1</clus>
<clus scale="   80.517">  5  6 -1 -1</clus>
<clus scale="   89.059">  2  5  1 -1</clus>
<clus scale="   91.021">  7  8 -1 -1</clus>
<clus scale="   27.850">  1  5  2 -1</clus>
</clustering>
</event>
<event>
 9    2  0.1325014E-004  0.3231732E+03  0.7546771E-02  0.1104435E+00
          2   -1    0    0  502    0 -0.00000000000E+00  0.00000000000E+00  0.80560335927E+03  0.80560335927E+03  0.00000000000E+00 0. -1.
         21   -1    0    0  501  502  0.00000000000E+00 -0.00000000000E+00 -0.45474401989E+03  0.45474401989E+03  0.00000000000E+00 0.  1.
         23    2    1    2    0    0 -0.25909102651E+02  0.10858055826E+03  0.67637228491E+02  0.16012319412E+03  0.92755718889E+02 0.  0.
         24    2    1    2    0    0  0.26744796390E+03  0.15406495306E+03 -0.28558233730E+03  0.42876146353E+03  0.83753794402E+02 0.  0.
        -13    1    4    4    0    0  0.10085616880E+03  0.24033710931E+02 -0.13028973109E+03  0.16650825827E+03  0.00000000000E+00 0.  1.
         14    1    4    4    0    0  0.16659179510E+03  0.13003124213E+03 -0.15529260621E+03  0.26225320525E+03  0.00000000000E+00 0. -1.
        -13    1    3    3    0    0 -0.34801111344E+02  0.43850154957E+01  0.37378660611E+02  0.51259242881E+02  0.00000000000E+00 0. -1.
         13    1    3    3    0    0  0.88920086929E+01  0.10419554276E+03  0.30258567881E+02  0.10886395124E+03  0.00000000000E+00 0.  1.
          1    1    1    2  501    0 -0.24153886125E+03 -0.26264551131E+03  0.56880444818E+03  0.67146272151E+03  0.00000000000E+00 0. -1.
<scales pt_clust_5="13000.00000" pt_clust_6="13000.00000" pt_clust_7="13000.00000" pt_clust_8="13000.00000" pt_clust_9="312.13187"></scales>
<clustering>
<clus scale="   83.754">  5  6 -1 -1</clus>
<clus scale="   92.756">  7  8 -1 -1</clus>
<clus scale="  145.137">  1  7  2 -1</clus>
<clus scale="  312.132">  2  9  1 -1</clus>
<clus scale="  312.132">  2  5  1 -1</clus>
</clustering>
</event>
<event>
 9    2  0.1325014E-004  0.1023782E+03  0.7546771E-02  0.1280996E+00
          2   -1    0    0  502    0 -0.00000000000E+00  0.00000000000E+00  0.44320770942E+03  0.44320770942E+03  0.00000000000E+00 0. -1.
         21   -1    0    0  501  502  0.00000000000E+00 -0.00000000000E+00 -0.58699730918E+02  0.58699730918E+02  0.00000000000E+00 0.  1.
         24    2    1    2    0    0  0.36537405663E+02 -0.30666754662E+02  0.34912608475E+03  0.36132577831E+03  0.79949128599E+02 0.  0.
         23    2    1    2    0    0 -0.68801222807E+01  0.34784443598E+02  0.58541276703E+01  0.98529328091E+02  0.91741288874E+02 0.  0.
        -11    1    3    3    0    0 -0.31646262270E+01 -0.48643025910E+02  0.16100763948E+03  0.16822490541E+03  0.00000000000E+00 0.  1.
         12    1    3    3    0    0  0.39702031890E+02  0.17976271248E+02  0.18811844527E+03  0.19310087290E+03  0.00000000000E+00 0. -1.
        -11    1    4    4    0    0 -0.30082173096E+02  0.57984862520E+02  0.78370592174E+00  0.65328367610E+02  0.00000000000E+00 0.  1.
         11    1    4    4    0    0  0.23202050815E+02 -0.23200418922E+02  0.50704217485E+01  0.33200960481E+02  0.00000000000E+00 0. -1.
          1    1    1    2  501    0 -0.29657283382E+02 -0.41176889362E+01  0.29527766077E+02  0.42052333933E+02  0.00000000000E+00 0. -1.
<scales pt_clust_5="13000.00000" pt_clust_6="13000.00000" pt_clust_7="13000.00000" pt_clust_8="13000.00000" pt_clust_9="29.94177"></scales>
<clustering>
<clus scale="   29.942">  2  9  1 -1</clus>
<clus scale="   79.949">  5  6 -1 -1</clus>
<clus scale="   91.741">  7  8 -1 -1</clus>
<clus scale="   91.960">  1  5  2 -1</clus>
<clus scale="   29.942">  2  5  1 -1</clus>
</clustering>
</event>
<event>
 9    2  0.1325014E-004  0.1229233E+03  0.7546771E-02  0.1254531E+00
          2   -1    0    0  502    0 -0.00000000000E+00  0.00000000000E+00  0.32982827259E+03  0.32982827259E+03  0.00000000000E+00 0. -1.
         21   -1    0    0  501  502  0.00000000000E+00 -0.00000000000E+00 -0.51491520223E+02  0.51491520223E+02  0.00000000000E+00 0.  1.
         24    2    1    2    0    0 -0.24826721038E+02  0.21142469426E+02  0.16066473855E+03  0.18353051261E+03  0.82504065077E+02 0.  0.
         23    2    1    2    0    0  0.41875795075E+02  0.21888284430E+01  0.75269088895E+02  0.14647623676E+03  0.11845454406E+03 0.  0.
        -11    1    3    3    0    0  0.28832434950E+02  0.11719863960E+02  0.36685426945E+02  0.48109095466E+02  0.00000000000E+00 0.  1.
         12    1    3    3    0    0 -0.53659155988E+02  0.94226054660E+01  0.12397931160E+03  0.13542141714E+03  0.00000000000E+00 0. -1.
        -13    1    4    4    0    0  0.54807975199E+02  0.33836695758E+02  0.66862436748E+00  0.64414929821E+02  0.00000000000E+00 0.  1.
         13    1    4    4    0    0 -0.12932180124E+02 -0.31647867315E+02  0.74600464527E+02  0.82061306936E+02  0.00000000000E+00 0. -1.
          1    1    1    2  501    0 -0.17049074037E+02 -0.23331297869E+02  0.42402924923E+02  0.51313043448E+02  0.00000000000E+00 0. -1.
<scales pt_clust_5="13000.00000" pt_clust_6="13000.00000" pt_clust_7="13000.00000" pt_clust_8="13000.00000" pt_clust_9="28.89673"></scales>
<clustering>
<clus scale="   28.897">  2  9  1 -1</clus>
<clus scale="   82.504">  5  6 -1 -1</clus>
<clus scale="   88.801">  1  5  2 -1</clus>
<clus scale="  118.455">  7  8 -1 -1</clus>
<clus scale="   28.897">  2  5  1 -1</clus>
</clustering>
</event>
<event>
 9    2  0.1325014E-004  0.1911179E+03  0.7546771E-02  0.1158924E+00
         21   -1    0    0  501  502  0.00000000000E+00  0.00000000000E+00  0.44251170442E+02  0.44251170442E+02  0.00000000000E+00 0. -1.
          2   -1    0    0  502    0 -0.00000000000E+00 -0.00000000000E+00 -0.15910007545E+04  0.15910007545E+04  0.00000000000E+00 0. -1.
         24    2    1    2    0    0 -0.32895861498E+02 -0.20776642152E+03 -0.95138708859E+03  0.97758962926E+03  0.79341460064E+02 0.  0.
         23    2    1    2    0    0  0.75592968029E+02  0.10348713384E+03 -0.42296771634E+03  0.45170799829E+03  0.93351716459E+02 0.  0.
        -11    1    3    3    0    0  0.14117971034E+02 -0.13772090254E+03 -0.52568724073E+03  0.54361147814E+03  0.00000000000E+00 0.  1.
         12    1    3    3    0    0 -0.47013832532E+02 -0.70045518981E+02 -0.42569984786E+03  0.43397815111E+03  0.00000000000E+00 0. -1.
        -13    1    4    4    0    0 -0.65262346878E+01  0.68791386498E+02 -0.19863400937E+03  0.21031004797E+03  0.00000000000E+00 0.  1.
         13    1    4    4    0    0  0.82119202717E+02  0.34695747337E+02 -0.22433370697E+03  0.24139795033E+03  0.00000000000E+00 0. -1.
          1    1    1    2  501    0 -0.42697106530E+02  0.10427928769E+03 -0.17239477915E+03  0.20595429742E+03  0.00000000000E+00 0. -1.
<scales pt_clust_5="13000.00000" pt_clust_6="13000.00000" pt_clust_7="13000.00000" pt_clust_8="13000.00000" pt_clust_9="112.68191"></scales>
<clustering>
<clus scale="   79.341">  5  6 -1 -1</clus>
<clus scale="   93.352">  7  8 -1 -1</clus>
<clus scale="  112.682">  1  9  2 -1</clus>
<clus scale="  184.680">  2  5  1 -1</clus>
<clus scale="  112.682">  1  5  2 -1</clus>
</clustering>
</event>
<event>
 9    2  0.1325014E-004  0.1116810E+03  0.7546771E-02  0.1263985E+00
          2   -1    0    0  502    0 -0.00000000000E+00  0.00000000000E+00  0.47459404735E+03  0.47459404735E+03  0.00000000000E+00 0. -1.
         21   -1    0    0  501  502  0.00000000000E+00 -0.00000000000E+00 -0.60863038743E+03  0.60863038743E+03  0.00000000000E+00 0.  1.
         24    2    1    2    0    0 -0.15049389646E+02  0.53136695858E+02  0.44117147885E+03  0.45190804754E+03  0.80861715946E+02 0.  0.
         23    2    1    2    0    0 -0.51555235735E+02 -0.10421097140E+03 -0.22429125546E+03  0.27050176412E+03  0.96678685454E+02 0.  0.
        -11    1    3    3    0    0 -0.47592864829E+02  0.20906724756E+02  0.24640162912E+03  0.25182520675E+03  0.00000000000E+00 0.  1.
         12    1    3    3    0    0  0.32543475183E+02  0.32229971101E+02  0.19476984974E+03  0.20008284079E+03  0.00000000000E+00 0. -1.
        -11    1    4    4    0    0 -0.69386964402E+01 -0.55740935265E+02 -0.26654448956E+02  0.62174408093E+02  0.00000000000E+00 0. -1.
         11    1    4    4    0    0 -0.44616539295E+02 -0.48470036139E+02 -0.19763680651E+03  0.20832735603E+03  0.00000000000E+00 0.  1.
          1    1    1    2  501    0  0.66604625380E+02  0.51074275547E+02 -0.35091656346E+03  0.36081462312E+03  0.00000000000E+00 0. -1.
<scales pt_clust_5="13000.00000" pt_clust_6="13000.00000" pt_clust_7="13000.00000" pt_clust_8="13000.00000" pt_clust_9="83.93306"></scales>
<clustering>
<clus scale="   80.862">  5  6 -1 -1</clus>
<clus scale="   83.933">  2  9  1 -1</clus>
<clus scale="   96.679">  7  8 -1 -1</clus>
<clus scale="   98.308">  1  5  2 -1</clus>
<clus scale="   83.933">  2  5  1 -1</clus>
</clustering>
</event>
<event>
 9    2  0.1325014E-004  0.1256519E+03  0.7546771E-02  0.1247274E+00
          2   -1    0    0  502    0 -0.00000000000E+00  0.00000000000E+00  0.33108127932E+03  0.33108127932E+03  0.00000000000E+00 0. -1.
         21   -1    0    0  501  502  0.00000000000E+00 -0.00000000000E+00 -0.78787195151E+02  0.78787195151E+02  0.00000000000E+00 0. -1.
         23    2    1    2    0    0 -0.33400883866E+02  0.64029247972E+01  0.88506528801E+02  0.13064127872E+03  0.89872807772E+02 0.  0.
         24    2    1    2    0    0  0.16684732691E+02  0.92874087245E+02  0.10737407718E+03  0.16382426965E+03  0.80032633912E+02 0.  0.
        -13    1    4    4    0    0  0.35978764862E+02  0.89101316501E+02  0.61953881774E+02  0.11433197099E+03  0.00000000000E+00 0.  1.
         14    1    4    4    0    0 -0.19294032171E+02  0.37727707439E+01  0.45420195406E+02  0.49492298666E+02  0.00000000000E+00 0. -1.
        -11    1    3    3    0    0  0.24378707357E+02 -0.18463820022E+02  0.15539493023E+02  0.34303204889E+02  0.00000000000E+00 0. -1.
         11    1    3    3    0    0 -0.57779591223E+02  0.24866744820E+02  0.72967035778E+02  0.96338073834E+02  0.00000000000E+00 0.  1.
          1    1    1    2  501    0  0.16716151175E+02 -0.99277012042E+02  0.56413478190E+02  0.11540292610E+03  0.00000000000E+00 0. -1.
<scales pt_clust_5="13000.00000" pt_clust_6="13000.00000" pt_clust_7="13000.00000" pt_clust_8="13000.00000" pt_clust_9="96.86682"></scales>
<clustering>
<clus scale="   80.033">  5  6 -1 -1</clus>
<clus scale="   89.873">  7  8 -1 -1</clus>
<clus scale="   96.092">  1  7  2 -1</clus>
<clus scale="   96.867">  2  9  1 -1</clus>
<clus scale="   96.867">  2  5  1 -1</clus>
</clustering>
</event>
<event>
 9    2  0.1325014E-004  0.1102899E+03  0.7546771E-02  0.1262938E+00
         21   -1    0    0  501  502  0.00000000000E+00  0.00000000000E+00  0.50056948698E+02  0.50056948698E+02  0.00000000000E+00 0. -1.
          2   -1    0    0  502    0 -0.00000000000E+00 -0.00000000000E+00 -0.78649403682E+03  0.78649403682E+03  0.00000000000E+00 0. -1.
         24    2    1    2    0    0 -0.58394696950E+02 -0.39876563116E+02 -0.53628417957E+03  0.54692029070E+03  0.80752722582E+02 0.  0.
         23    2    1    2    0    0  0.72134723129E+02 -0.45474577556E+02 -0.11851488572E+03  0.17072580718E+03  0.88488234325E+02 0.  0.
        -11    1    3    3    0    0 -0.23766802502E+01 -0.50212515209E+02 -0.23942241414E+03  0.24464267347E+03  0.00000000000E+00 0.  1.
         12    1    3    3    0    0 -0.56018016700E+02  0.10335952093E+02 -0.29686176544E+03  0.30227761723E+03  0.00000000000E+00 0. -1.
        -11    1    4    4    0    0  0.56863046992E+02 -0.71422396473E+02 -0.76926623890E+02  0.11938287270E+03  0.00000000000E+00 0. -1.
         11    1    4    4    0    0  0.15271676137E+02  0.25947818917E+02 -0.41588261828E+02  0.51342934474E+02  0.00000000000E+00 0.  1.
          1    1    1    2  501    0 -0.13740026179E+02  0.85351140672E+02 -0.81638022835E+02  0.11890488765E+03  0.00000000000E+00 0. -1.
<scales pt_clust_5="13000.00000" pt_clust_6="13000.00000" pt_clust_7="13000.00000" pt_clust_8="13000.00000" pt_clust_9="86.45002"></scales>
<clustering>
<clus scale="   80.753">  5  6 -1 -1</clus>
<clus scale="   86.450">  1  9  2 -1</clus>
<clus scale="   88.488">  7  8 -1 -1</clus>
<clus scale="  104.186">  2  5  1 -1</clus>
<clus scale="   86.450">  1  5  2 -1</clus>
</clustering>
</event>
<event>
 9    2  0.1325014E-004  0.1150090E+03  0.7546771E-02  0.1257109E+00
          2   -1    0    0  502    0 -0.00000000000E+00  0.00000000000E+00  0.41903858524E+03  0.41903858524E+03  0.00000000000E+00 0. -1.
         21   -1    0    0  501  502  0.00000000000E+00 -0.00000000000E+00 -0.24705618027E+03  0.24705618027E+03  0.00000000000E+00 0. -1.
         24    2    1    2    0    0  0.44355053933E+02  0.43188456937E+02  0.27887321383E+03  0.29568555085E+03  0.76335194811E+02 0.  0.
         23    2    1    2    0    0 -0.48898158708E+02 -0.94862477605E+02  0.89788963254E+02  0.16700376496E+03  0.91860111073E+02 0.  0.
        -13    1    3    3    0    0 -0.14508361835E+02  0.35562408240E+02  0.95032965839E+02  0.10250093677E+03  0.00000000000E+00 0.  1.
         14    1    3    3    0    0  0.58863415767E+02  0.76260486964E+01  0.18384024799E+03  0.19318461408E+03  0.00000000000E+00 0. -1.
        -11    1    4    4    0    0 -0.33718140681E+02 -0.13912464939E+02 -0.98010636063E+01  0.37769439227E+02  0.00000000000E+00 0.  1.
         11    1    4    4    0    0 -0.15180018027E+02 -0.80950012666E+02  0.99590026860E+02  0.12923432573E+03  0.00000000000E+00 0. -1.
          1    1    1    2  501    0  0.45431047753E+01  0.51674020668E+02 -0.19667977211E+03  0.20340544970E+03  0.00000000000E+00 0. -1.
<scales pt_clust_5="13000.00000" pt_clust_6="13000.00000" pt_clust_7="13000.00000" pt_clust_8="13000.00000" pt_clust_9="51.87335"></scales>
<clustering>
<clus scale="   51.873">  2  9  1 -1</clus>
<clus scale="   76.335">  5  6 -1 -1</clus>
<clus scale="   91.860">  7  8 -1 -1</clus>
<clus scale="  103.033">  1  5  2 -1</clus>
<clus scale="   51.873">  2  5  1 -1</clus>
</clustering>
</event>
<event>
 9    2  0.1325014E-004  0.1169168E+03  0.7546771E-02  0.1252533E+00
         -3   -1    0    0    0  501 -0.00000000000E+00  0.00000000000E+00  0.17408895203E+03  0.17408895203E+03  0.00000000000E+00 0.  1.
         21   -1    0    0  501  502  0.00000000000E+00 -0.00000000000E+00 -0.11962448595E+03  0.11962448595E+03  0.00000000000E+00 0.  1.
         23    2    1    2    0    0  0.36022413829E+02 -0.82768337747E+02  0.52803156747E+02  0.13853742234E+03  0.90863810146E+02 0.  0.
         24    2    1    2    0    0 -0.25300770258E+02  0.40751638143E+02 -0.35191469280E+02  0.98268336206E+02  0.78213818495E+02 0.  0.
        -13    1    4    4    0    0 -0.45575001068E+02  0.28253013714E+02 -0.47342488067E+02  0.71530585644E+02  0.00000000000E+00 0.  1.
         14    1    4    4    0    0  0.20274230809E+02  0.12498624429E+02  0.12151018787E+02  0.26737750561E+02  0.00000000000E+00 0. -1.
        -11    1    3    3    0    0 -0.19238031640E+02  0.72893691205E+01  0.35468124635E+00  0.20575776105E+02  0.00000000000E+00 0. -1.
         11    1    3    3    0    0  0.55260445469E+02 -0.90057706868E+02  0.52448475501E+02  0.11796164623E+03  0.00000000000E+00 0.  1.
         -4    1    1    2    0  502 -0.10721643570E+02  0.42016699605E+02  0.36852778617E+02  0.56907679432E+02  0.00000000000E+00 0.  1.
<scales pt_clust_5="13000.00000" pt_clust_6="13000.00000" pt_clust_7="13000.00000" pt_clust_8="13000.00000" pt_clust_9="43.36310"></scales>
<clustering>
<clus scale="   43.363">  2  9  1 -1</clus>
<clus scale="   78.214">  5  6 -1 -1</clus>
<clus scale="   90.864">  7  8 -1 -1</clus>
<clus scale="  107.381">  2  5  1 -1</clus>
<clus scale="   43.363">  2  5  1 -1</clus>
</clustering>
</event>
<event>
 9    2  0.1325014E-004  0.1146424E+03  0.7546771E-02  0.1259294E+00
         -1   -1    0    0    0  501 -0.00000000000E+00  0.00000000000E+00  0.69531798869E+02  0.69531798869E+02  0.00000000000E+00 0.  1.
         21   -1    0    0  501  502  0.00000000000E+00 -0.00000000000E+00 -0.28290441069E+03  0.28290441069E+03  0.00000000000E+00 0. -1.
         23    2    1    2    0    0 -0.47247317973E+02  0.31835511248E+02 -0.14442503153E+02  0.11915861816E+03  0.10365510867E+03 0.  0.
         24    2    1    2    0    0  0.24012381489E+02 -0.21218519151E+02 -0.12828820113E+03  0.15815860648E+03  0.86772473938E+02 0.  0.
        -11    1    4    4    0    0  0.25441194998E+02 -0.41078000147E+02 -0.27858321474E+02  0.55774031362E+02  0.00000000000E+00 0.  1.
         12    1    4    4    0    0 -0.14288135083E+01  0.19859480996E+02 -0.10042987966E+03  0.10238457511E+03  0.00000000000E+00 0. -1.
        -11    1    3    3    0    0 -0.35414886271E+02  0.63432525185E+02 -0.33944459376E+02  0.80188064843E+02  0.00000000000E+00 0.  1.
         11    1    3    3    0    0 -0.11832431703E+02 -0.31597013937E+02  0.19501956223E+02  0.38970553322E+02  0.00000000000E+00 0. -1.
         -2    1    1    2    0  502  0.23234936484E+02 -0.10616992097E+02 -0.70641907535E+02  0.75118984915E+02  0.00000000000E+00 0.  1.
<scales pt_clust_5="13000.00000" pt_clust_6="13000.00000" pt_clust_7="13000.00000" pt_clust_8="13000.00000" pt_clust_9="25.54570"></scales>
<clustering>
<clus scale="   25.546">  2  9  1 -1</clus>
<clus scale="   86.772">  5  6 -1 -1</clus>
<clus scale="   99.639">  2  5  1 -1</clus>
<clus scale="  103.655">  7  8 -1 -1</clus>
<clus scale="   25.546">  2  5  1 -1</clus>
</clustering>
</event>
<event>
 9    2  0.1325014E-004  0.1571456E+03  0.7546771E-02  0.1193614E+00
         -1   -1    0    0    0  501 -0.00000000000E+00  0.00000000000E+00  0.94026811383E+03  0.94026811383E+03  0.00000000000E+00 0.  1.
         21   -1    0    0  501  502  0.00000000000E+00 -0.00000000000E+00 -0.51503109459E+02  0.51503109459E+02  0.00000000000E+00 0.  1.
         24    2    1    2    0    0 -0.13615207644E+03 -0.31022623565E+02  0.55030841656E+03  0.57379227206E+03  0.83056770029E+02 0.  0.
         23    2    1    2    0    0  0.94028148667E+02  0.65792610169E+02  0.33152278368E+03  0.36292030160E+03  0.92918399231E+02 0.  0.
        -13    1    3    3    0    0 -0.91712474215E+02 -0.53902454784E+02  0.44017165279E+03  0.45284405316E+03  0.00000000000E+00 0.  1.
         14    1    3    3    0    0 -0.44439602226E+02  0.22879831219E+02  0.11013676377E+03  0.12094821890E+03  0.00000000000E+00 0. -1.
        -11    1    4    4    0    0 -0.11334098033E+02  0.27114487718E+02  0.34052002907E+02  0.44979952472E+02  0.00000000000E+00 0.  1.
         11    1    4    4    0    0  0.10536224670E+03  0.38678122451E+02  0.29747078078E+03  0.31794034913E+03  0.00000000000E+00 0. -1.
         -2    1    1    2    0  502  0.42123927775E+02 -0.34769986604E+02  0.69338041276E+01  0.55058649632E+02  0.00000000000E+00 0.  1.
<scales pt_clust_5="13000.00000" pt_clust_6="13000.00000" pt_clust_7="13000.00000" pt_clust_8="13000.00000" pt_clust_9="54.62030"></scales>
<clustering>
<clus scale="   54.620">  2  9  1 -1</clus>
<clus scale="   83.057">  5  6 -1 -1</clus>
<clus scale="   92.918">  7  8 -1 -1</clus>
<clus scale="  151.523">  1  5  2 -1</clus>
<clus scale="   54.620">  2  5  1 -1</clus>
</clustering>
</event>
<event>
 9    2  0.1325014E-004  0.1529803E+03  0.7546771E-02  0.1215309E+00
          2   -1    0    0  502    0 -0.00000000000E+00  0.00000000000E+00  0.72701420082E+03  0.72701420082E+03  0.00000000000E+00 0. -1.
         21   -1    0    0  501  502  0.00000000000E+00 -0.00000000000E+00 -0.77159416420E+02  0.77159416420E+02  0.00000000000E+00 0. -1.
         24    2    1    2    0    0  0.16395436790E+02 -0.62542781104E+02  0.13692361627E+03  0.17127364633E+03  0.80038587074E+02 0.  0.
         23    2    1    2    0    0  0.27813496293E+02 -0.59860034702E+02  0.48695776632E+03  0.50019165661E+03  0.93311375684E+02 0.  0.
        -11    1    3    3    0    0 -0.28713919363E+02 -0.68551765209E+01  0.26722442049E+02  0.39819235545E+02  0.00000000000E+00 0.  1.
         12    1    3    3    0    0  0.45109356153E+02 -0.55687604583E+02  0.11020117422E+03  0.13145441079E+03  0.00000000000E+00 0. -1.
        -13    1    4    4    0    0 -0.30992626161E+02 -0.75030017838E+01  0.89522857526E+02  0.95032520391E+02  0.00000000000E+00 0.  1.
         13    1    4    4    0    0  0.58806122453E+02 -0.52357032919E+02  0.39743490880E+03  0.40515913622E+03  0.00000000000E+00 0. -1.
          1    1    1    2  501    0 -0.44208933083E+02  0.12240281581E+03  0.25973401812E+02  0.13270831430E+03  0.00000000000E+00 0. -1.
<scales pt_clust_5="13000.00000" pt_clust_6="13000.00000" pt_clust_7="13000.00000" pt_clust_8="13000.00000" pt_clust_9="121.22689"></scales>
<clustering>
<clus scale="   80.039">  5  6 -1 -1</clus>
<clus scale="   93.311">  7  8 -1 -1</clus>
<clus scale="  102.891">  1  5  2 -1</clus>
<clus scale="  121.227">  2  9  1 -1</clus>
<clus scale="  121.227">  2  5  1 -1</clus>
</clustering>
</event>
<event>
 9    2  0.1325014E-004  0.1228641E+03  0.7546771E-02  0.1241618E+00
         21   -1    0    0  501  502  0.00000000000E+00  0.00000000000E+00  0.44408491386E+02  0.44408491386E+02  0.00000000000E+00 0. -1.
         -1   -1    0    0    0  501 -0.00000000000E+00 -0.00000000000E+00 -0.77714675238E+03  0.77714675238E+03  0.00000000000E+00 0.  1.
         24    2    1    2    0    0  0.76107774267E+02 -0.33173353393E+02 -0.60104415423E+03  0.61230679969E+03  0.82296275359E+02 0.  0.
         23    2    1    2    0    0 -0.52019571058E+02  0.42344116409E+02 -0.52392172622E+02  0.12586294661E+03  0.92722605712E+02 0.  0.
        -11    1    3    3    0    0  0.12655928598E+02  0.22832368443E+02 -0.73088812270E+02  0.77610978969E+02  0.00000000000E+00 0.  1.
         12    1    3    3    0    0  0.63451845668E+02 -0.56005721836E+02 -0.52795534196E+03  0.53469582072E+03  0.00000000000E+00 0. -1.
        -11    1    4    4    0    0  0.26599597071E+02  0.10776463392E+02 -0.61752723208E+01  0.29356510620E+02  0.00000000000E+00 0.  1.
         11    1    4    4    0    0 -0.78619168129E+02  0.31567653017E+02 -0.46216900301E+02  0.96506435991E+02  0.00000000000E+00 0. -1.
         -2    1    1    2    0  502 -0.24088203209E+02 -0.91707630168E+01 -0.79301934144E+02  0.83385497462E+02  0.00000000000E+00 0.  1.
<scales pt_clust_5="13000.00000" pt_clust_6="13000.00000" pt_clust_7="13000.00000" pt_clust_8="13000.00000" pt_clust_9="25.77489"></scales>
<clustering>
<clus scale="   25.775">  1  9  2 -1</clus>
<clus scale="   82.296">  5  6 -1 -1</clus>
<clus scale="   92.723">  7  8 -1 -1</clus>
<clus scale="  115.199">  2  5  1 -1</clus>
<clus scale="   25.775">  1  5  2 -1</clus>
</clustering>
</event>
<event>
 9    2  0.1325014E-004  0.1075631E+03  0.7546771E-02  0.1268269E+00
          2   -1    0    0  502    0 -0.00000000000E+00  0.00000000000E+00  0.12728207692E+03  0.12728207692E+03  0.00000000000E+00 0. -1.
         21   -1    0    0  501  502  0.00000000000E+00 -0.00000000000E+00 -0.58040569129E+03  0.58040569129E+03  0.00000000000E+00 0.  1.
         23    2    1    2    0    0 -0.54181630315E+02 -0.95329463934E+01  0.92806113336E+02  0.14151308835E+03  0.91577581162E+02 0.  0.
         24    2    1    2    0    0  0.76665232502E+02  0.31956511491E+02 -0.42062174748E+03  0.43690589574E+03  0.84055521987E+02 0.  0.
        -13    1    4    4    0    0  0.57362440091E+02  0.20210110498E+02 -0.11191200216E+03  0.12737030394E+03  0.00000000000E+00 0.  1.
         14    1    4    4    0    0  0.19302792411E+02  0.11746400993E+02 -0.30870974533E+03  0.30953559180E+03  0.00000000000E+00 0. -1.
        -11    1    3    3    0    0 -0.30657926750E+02 -0.49798952934E+02  0.38904142361E+02  0.70237998824E+02  0.00000000000E+00 0.  1.
         11    1    3    3    0    0 -0.23523703565E+02  0.40266006540E+02  0.53901970975E+02  0.71275089527E+02  0.00000000000E+00 0. -1.
          1    1    1    2  501    0 -0.22483602187E+02 -0.22423565098E+02 -0.12530798023E+03  0.12926878412E+03  0.00000000000E+00 0. -1.
<scales pt_clust_5="13000.00000" pt_clust_6="13000.00000" pt_clust_7="13000.00000" pt_clust_8="13000.00000" pt_clust_9="31.75419"></scales>
<clustering>
<clus scale="   31.754">  2  9  1 -1</clus>
<clus scale="   84.056">  5  6 -1 -1</clus>
<clus scale="   91.578">  7  8 -1 -1</clus>
<clus scale="  101.236">  2  5  1 -1</clus>
<clus scale="   31.754">  2  5  1 -1</clus>
</clustering>
</event>
<event>
 9    2  0.1325014E-004  0.1332776E+03  0.7546771E-02  0.1245590E+00
         21   -1    0    0  501  502  0.00000000000E+00  0.00000000000E+00  0.39690777916E+02  0.39690777916E+02  0.00000000000E+00 0.  1.
          2   -1    0    0  502    0 -0.00000000000E+00 -0.00000000000E+00 -0.76417678623E+03  0.76417678623E+03  0.00000000000E+00 0. -1.
         24    2    1    2    0    0 -0.93337552006E+01 -0.13582947342E+02 -0.14129972213E+03  0.16402348706E+03  0.81648498997E+02 0.  0.
         23    2    1    2    0    0 -0.64361539000E+02  0.74837766239E+02 -0.17476743499E+03  0.22033352032E+03  0.90885119170E+02 0.  0.
        -11    1    3    3    0    0  0.35525026809E+02 -0.14178691095E+02 -0.59644907832E+02  0.70856036026E+02  0.00000000000E+00 0.  1.
         12    1    3    3    0    0 -0.44858782010E+02  0.59574375300E+00 -0.81654814298E+02  0.93167451034E+02  0.00000000000E+00 0. -1.
        -11    1    4    4    0    0 -0.62297416693E+01  0.70045790557E+02 -0.63710827268E+02  0.94890947762E+02  0.00000000000E+00 0.  1.
         11    1    4    4    0    0 -0.58131797331E+02  0.47919756816E+01 -0.11105660772E+03  0.12544257256E+03  0.00000000000E+00 0. -1.
          1    1    1    2  501    0  0.73695294201E+02 -0.61254818896E+02 -0.40841885120E+03  0.41951055677E+03  0.00000000000E+00 0. -1.
<scales pt_clust_5="13000.00000" pt_clust_6="13000.00000" pt_clust_7="13000.00000" pt_clust_8="13000.00000" pt_clust_9="97.48239"></scales>
<clustering>
<clus scale="   81.648">  5  6 -1 -1</clus>
<clus scale="   83.295">  2  5  1 -1</clus>
<clus scale="   90.885">  7  8 -1 -1</clus>
<clus scale="   97.482">  1  9  2 -1</clus>
<clus scale="   97.482">  1  5  2 -1</clus>
</clustering>
</event>
<event>
 9    2  0.1325014E-004  0.9683584E+02  0.7546771E-02  0.1293907E+00
         -3   -1    0    0    0  501 -0.00000000000E+00  0.00000000000E+00  0.20467523984E+03  0.20467523984E+03  0.00000000000E+00 0.  1.
         21   -1    0    0  501  502  0.00000000000E+00 -0.00000000000E+00 -0.89803300830E+02  0.89803300830E+02  0.00000000000E+00 0.  1.
         23    2    1    2    0    0  0.28185792774E+02 -0.79294449602E+01  0.12904897842E+03  0.16149060669E+03  0.92564908070E+02 0.  0.
         24    2    1    2    0    0 -0.28955067956E+02 -0.20344582864E+02  0.18537064786E+02  0.89741835346E+02  0.80359667920E+02 0.  0.
        -11    1    4    4    0    0 -0.54494113662E+02 -0.19456663677E+02 -0.51700864726E+00  0.57865684850E+02  0.00000000000E+00 0.  1.
         12    1    4    4    0    0  0.25539045706E+02 -0.88791918728E+00  0.19054073433E+02  0.31876150496E+02  0.00000000000E+00 0. -1.
        -13    1    3    3    0    0  0.37623254446E+02 -0.26668056383E+02  0.19701076280E+02  0.50148049942E+02  0.00000000000E+00 0.  1.
         13    1    3    3    0    0 -0.94374616713E+01  0.18738611423E+02  0.10934790214E+03  0.11134255675E+03  0.00000000000E+00 0. -1.
         -4    1    1    2    0  502  0.76927518174E+00  0.28274027824E+02 -0.32714104196E+02  0.43246098634E+02  0.00000000000E+00 0.  1.
<scales pt_clust_5="13000.00000" pt_clust_6="13000.00000" pt_clust_7="13000.00000" pt_clust_8="13000.00000" pt_clust_9="28.28449"></scales>
<clustering>
<clus scale="   28.284">  2  9  1 -1</clus>
<clus scale="   80.360">  5  6 -1 -1</clus>
<clus scale="   85.244">  2  5  1 -1</clus>
<clus scale="   92.565">  7  8 -1 -1</clus>
<clus scale="   28.284">  2  5  1 -1</clus>
</clustering>
</event>
<event>
 9    2  0.1325014E-004  0.1253272E+03  0.7546771E-02  0.1252367E+00
          2   -1    0    0  502    0 -0.00000000000E+00  0.00000000000E+00  0.72940639819E+03  0.72940639819E+03  0.00000000000E+00 0. -1.
         21   -1    0    0  501  502  0.00000000000E+00 -0.00000000000E+00 -0.29475050718E+02  0.29475050718E+02  0.00000000000E+00 0. -1.
         24    2    1    2    0    0 -0.15764727368E+02 -0.28541282310E+02  0.47689342150E+03  0.48463549509E+03  0.79881763910E+02 0.  0.
         23    2    1    2    0    0  0.68828991426E+01  0.54368494761E+02  0.18984689019E+03  0.23126250780E+03  0.12015489285E+03 0.  0.
        -11    1    3    3    0    0 -0.33325307173E+02 -0.46876396747E+02  0.26145636289E+03  0.26770768082E+03  0.00000000000E+00 0.  1.
         12    1    3    3    0    0  0.17560579805E+02  0.18335114437E+02  0.21543705861E+03  0.21692781428E+03  0.00000000000E+00 0. -1.
        -11    1    4    4    0    0  0.16378707025E+01  0.87642904653E+02  0.88920867279E+02  0.12486345340E+03  0.00000000000E+00 0. -1.
         11    1    4    4    0    0  0.52450284401E+01 -0.33274409891E+02  0.10092602291E+03  0.10639905440E+03  0.00000000000E+00 0.  1.
          1    1    1    2  501    0  0.88818282256E+01 -0.25827212451E+02  0.33191035783E+02  0.42983446023E+02  0.00000000000E+00 0. -1.
<scales pt_clust_5="13000.00000" pt_clust_6="13000.00000" pt_clust_7="13000.00000" pt_clust_8="13000.00000" pt_clust_9="27.31175"></scales>
<clustering>
<clus scale="   27.312">  2  9  1 -1</clus>
<clus scale="   79.882">  5  6 -1 -1</clus>
<clus scale="   87.469">  1  5  2 -1</clus>
<clus scale="  120.155">  7  8 -1 -1</clus>
<clus scale="   27.312">  2  5  1 -1</clus>
</clustering>
</event>
<event>
 9    2  0.1325014E-004  0.1080434E+03  0.7546771E-02  0.1268560E+00
         -1   -1    0    0    0  501 -0.00000000000E+00  0.00000000000E+00  0.68759084148E+02  0.68759084148E+02  0.00000000000E+00 0.  1.
         21   -1    0    0  501  502  0.00000000000E+00 -0.00000000000E+00 -0.33014988610E+03  0.33014988610E+03  0.00000000000E+00 0.  1.
         24    2    1    2    0    0 -0.46346185329E+02 -0.14488261455E+02 -0.17674352088E+02  0.96179383728E+02  0.81118509097E+02 0.  0.
         23    2    1    2    0    0  0.69777050284E+02  0.34534034706E+02 -0.10185026356E+03  0.15755089223E+03  0.91582592001E+02 0.  0.
        -11    1    3    3    0    0 -0.31969381062E+02  0.28738856111E+02  0.82379923571E+01  0.43770168998E+02  0.00000000000E+00 0.  1.
         12    1    3    3    0    0 -0.14376804267E+02 -0.43227117566E+02 -0.25912344445E+02  0.52409214730E+02  0.00000000000E+00 0. -1.
        -11    1    4    4    0    0  0.53878319563E+02  0.11307500228E+02 -0.11422848929E+03  0.12680252618E+03  0.00000000000E+00 0. -1.
         11    1    4    4    0    0  0.15898730721E+02  0.23226534478E+02  0.12378225736E+02  0.30748366050E+02  0.00000000000E+00 0.  1.
         -2    1    1    2    0  502 -0.23430864955E+02 -0.20045773251E+02 -0.14186618631E+03  0.14517869429E+03  0.00000000000E+00 0.  1.
<scales pt_clust_5="13000.00000" pt_clust_6="13000.00000" pt_clust_7="13000.00000" pt_clust_8="13000.00000" pt_clust_9="30.83567"></scales>
<clustering>
<clus scale="   30.836">  2  9  1 -1</clus>
<clus scale="   81.119">  5  6 -1 -1</clus>
<clus scale="   91.583">  7  8 -1 -1</clus>
<clus scale="   99.329">  1  5  2 -1</clus>
<clus scale="   30.836">  2  5  1 -1</clus>
</clustering>
</event>
<event>
 9    2  0.1325014E-004  0.9536452E+02  0.7546771E-02  0.1302513E+00
         21   -1    0    0  501  502  0.00000000000E+00  0.00000000000E+00  0.36462473417E+03  0.36462473417E+03  0.00000000000E+00 0.  1.
         -1   -1    0    0    0  501 -0.00000000000E+00 -0.00000000000E+00 -0.40541838361E+02  0.40541838361E+02  0.00000000000E+00 0.  1.
         24    2    1    2    0    0  0.32853861469E+01 -0.26824922516E+02  0.29975842390E+02  0.82348520994E+02  0.71779924441E+02 0.  0.
         23    2    1    2    0    0 -0.31121048804E+02  0.11869805164E+02  0.18533030872E+03  0.20954466614E+03  0.91936020288E+02 0.  0.
        -13    1    3    3    0    0  0.16648535048E+02 -0.48476369721E+02  0.20105090906E+02  0.55057668139E+02  0.00000000000E+00 0.  1.
         14    1    3    3    0    0 -0.13363148901E+02  0.21651447205E+02  0.98707514846E+01  0.27290852854E+02  0.00000000000E+00 0. -1.
        -11    1    4    4    0    0 -0.48204205871E+02 -0.25812537375E+02  0.12448811120E+03  0.13596772551E+03  0.00000000000E+00 0.  1.
         11    1    4    4    0    0  0.17083157067E+02  0.37682342539E+02  0.60842197517E+02  0.73576940635E+02  0.00000000000E+00 0. -1.
         -2    1    1    2    0  502  0.27835662658E+02  0.14955117352E+02  0.10877674470E+03  0.11327338539E+03  0.00000000000E+00 0.  1.
<scales pt_clust_5="13000.00000" pt_clust_6="13000.00000" pt_clust_7="13000.00000" pt_clust_8="13000.00000" pt_clust_9="31.59873"></scales>
<clustering>
<clus scale="   31.599">  1  9  2 -1</clus>
<clus scale="   71.780">  5  6 -1 -1</clus>
<clus scale="   76.122">  2  5  1 -1</clus>
<clus scale="   91.936">  7  8 -1 -1</clus>
<clus scale="   31.599">  1  5  2 -1</clus>
</clustering>
</event>
<event>
 9    2  0.1325014E-004  0.9695021E+02  0.7546771E-02  0.1308279E+00
         21   -1    0    0  501  502  0.00000000000E+00  0.00000000000E+00  0.20081415984E+03  0.20081415984E+03  0.00000000000E+00 0.  1.
          2   -1    0    0  502    0 -0.00000000000E+00 -0.00000000000E+00 -0.88039524330E+02  0.88039524330E+02  0.00000000000E+00 0. -1.
         24    2    1    2    0    0 -0.28682988204E+02  0.19399642652E+01 -0.14083954143E+02  0.65749198287E+02  0.57429278572E+02 0.  0.
         23    2    1    2    0    0  0.38671208535E+02 -0.39339204504E+02  0.14503002739E+03  0.18034154789E+03  0.91903915428E+02 0.  0.
        -11    1    3    3    0    0 -0.28784865123E+02  0.21946176894E+02  0.67985906728E+01  0.36829661627E+02  0.00000000000E+00 0.  1.
         12    1    3    3    0    0  0.10187691905E+00 -0.20006212628E+02 -0.20882544816E+02  0.28919536660E+02  0.00000000000E+00 0. -1.
        -13    1    4    4    0    0 -0.16993542294E+02  0.18670578561E+02  0.48823122891E+02  0.54964245763E+02  0.00000000000E+00 0. -1.
         13    1    4    4    0    0  0.55664750829E+02 -0.58009783065E+02  0.96206904501E+02  0.12537730213E+03  0.00000000000E+00 0.  1.
          1    1    1    2  501    0 -0.99882203310E+01  0.37399240239E+02 -0.18171437740E+02  0.42762937988E+02  0.00000000000E+00 0. -1.
<scales pt_clust_5="13000.00000" pt_clust_6="13000.00000" pt_clust_7="13000.00000" pt_clust_8="13000.00000" pt_clust_9="38.71007"></scales>
<clustering>
<clus scale="   38.710">  1  9  2 -1</clus>
<clus scale="   57.429">  5  6 -1 -1</clus>
<clus scale="   65.201">  2  5  1 -1</clus>
<clus scale="   91.904">  7  8 -1 -1</clus>
<clus scale="   38.710">  1  5  2 -1</clus>
</clustering>
</event>
<event>
 9    2  0.1325014E-004  0.1043840E+03  0.7546771E-02  0.1277463E+00
         21   -1    0    0  501  502  0.00000000000E+00  0.00000000000E+00  0.68668461715E+02  0.68668461715E+02  0.00000000000E+00 0.  1.
         -3   -1    0    0    0  501 -0.00000000000E+00 -0.00000000000E+00 -0.40912848463E+03  0.40912848463E+03  0.00000000000E+00 0.  1.
         24    2    1    2    0    0 -0.14828549187E+02 -0.43587806293E+02 -0.30046008547E+03  0.31423317213E+03  0.79664551584E+02 0.  0.
         23    2    1    2    0    0 -0.51010560023E+01  0.64880599274E+02  0.77782749740E+00  0.11342997015E+03  0.92899085996E+02 0.  0.
        -11    1    3    3    0    0 -0.29769695988E+02  0.61272738911E+01 -0.50511548476E+02  0.58950782981E+02  0.00000000000E+00 0.  1.
         12    1    3    3    0    0  0.14941146802E+02 -0.49715080184E+02 -0.24994853699E+03  0.25528238915E+03  0.00000000000E+00 0. -1.
        -13    1    4    4    0    0  0.18732937976E+01  0.85292685136E+02  0.16298044671E+02  0.86856074212E+02  0.00000000000E+00 0.  1.
         13    1    4    4    0    0 -0.69743497999E+01 -0.20412085862E+02 -0.15520217174E+02  0.26573895941E+02  0.00000000000E+00 0. -1.
         -4    1    1    2    0  502  0.19929605189E+02 -0.21292792980E+02 -0.40777764946E+02  0.50133804063E+02  0.00000000000E+00 0.  1.
<scales pt_clust_5="13000.00000" pt_clust_6="13000.00000" pt_clust_7="13000.00000" pt_clust_8="13000.00000" pt_clust_9="29.16459"></scales>
<clustering>
<clus scale="   29.165">  1  9  2 -1</clus>
<clus scale="   79.665">  5  6 -1 -1</clus>
<clus scale="   92.802">  2  5  1 -1</clus>
<clus scale="   92.899">  7  8 -1 -1</clus>
<clus scale="   29.165">  1  5  2 -1</clus>
</clustering>
</event>
<event>
 9    2  0.1325014E-004  0.1338575E+03  0.7546771E-02  0.1224611E+00
         21   -1    0    0  501  502  0.00000000000E+00  0.00000000000E+00  0.81107658104E+02  0.81107658104E+02  0.00000000000E+00 0. -1.
          2   -1    0    0  502    0 -0.00000000000E+00 -0.00000000000E+00 -0.55116675261E+03  0.55116675261E+03  0.00000000000E+00 0. -1.
         24    2    1    2    0    0  0.88632243188E+02 -0.63834048634E+02 -0.42339485189E+03  0.44463609350E+03  0.80669664326E+02 0.  0.
         23    2    1    2    0    0 -0.16981120521E+02  0.57478293371E+02 -0.27324547367E+02  0.11315138670E+03  0.92002678004E+02 0.  0.
        -13    1    3    3    0    0  0.15863685496E+02 -0.20841948616E+02 -0.21316237952E+02  0.33770184188E+02  0.00000000000E+00 0.  1.
         14    1    3    3    0    0  0.72768557692E+02 -0.42992100017E+02 -0.40207861394E+03  0.41086590932E+03  0.00000000000E+00 0. -1.
        -11    1    4    4    0    0  0.37702525765E+02  0.30595034515E+02 -0.78805194926E+01  0.49189827947E+02  0.00000000000E+00 0. -1.
         11    1    4    4    0    0 -0.54683646286E+02  0.26883258857E+02 -0.19444027875E+02  0.63961558751E+02  0.00000000000E+00 0.  1.
          1    1    1    2  501    0 -0.71651122667E+02  0.63557552621E+01 -0.19339695245E+02  0.74486930508E+02  0.00000000000E+00 0. -1.
<scales pt_clust_5="13000.00000" pt_clust_6="13000.00000" pt_clust_7="13000.00000" pt_clust_8="13000.00000" pt_clust_9="71.93246"></scales>
<clustering>
<clus scale="   71.932">  1  9  2 -1</clus>
<clus scale="   80.670">  5  6 -1 -1</clus>
<clus scale="   92.003">  7  8 -1 -1</clus>
<clus scale="  126.337">  2  5  1 -1</clus>
<clus scale="   71.932">  1  5  2 -1</clus>
</clustering>
</event>
<event>
 9    2  0.1325014E-004  0.2362145E+03  0.7546771E-02  0.1123208E+00
          2   -1    0    0  502    0 -0.00000000000E+00  0.00000000000E+00  0.10878514480E+03  0.10878514480E+03  0.00000000000E+00 0. -1.
         21   -1    0    0  501  502  0.00000000000E+00 -0.00000000000E+00 -0.14764912462E+04  0.14764912462E+04  0.00000000000E+00 0. -1.
         23    2    1    2    0    0 -0.19065865526E+03  0.15372396454E+03 -0.86886451146E+02  0.27614119156E+03  0.93396585504E+02 0.  0.
         24    2    1    2    0    0  0.97416947761E+02 -0.63861965680E+02 -0.64829436655E+03  0.66349022782E+03  0.79782732097E+02 0.  0.
        -13    1    4    4    0    0  0.63682729240E+02 -0.36778503129E+02 -0.19962314189E+03  0.21273821254E+03  0.00000000000E+00 0.  1.
         14    1    4    4    0    0  0.33734218520E+02 -0.27083462550E+02 -0.44867122465E+03  0.45075201528E+03  0.00000000000E+00 0. -1.
        -13    1    3    3    0    0 -0.14764707594E+03  0.10860081018E+03 -0.19465237695E+02  0.18431682095E+03  0.00000000000E+00 0. -1.
         13    1    3    3    0    0 -0.43011579317E+02  0.45123154361E+02 -0.67421213451E+02  0.91824370611E+02  0.00000000000E+00 0.  1.
          1    1    1    2  501    0  0.93241707501E+02 -0.89861998860E+02 -0.63252528372E+03  0.64564497164E+03  0.00000000000E+00 0. -1.
<scales pt_clust_5="13000.00000" pt_clust_6="13000.00000" pt_clust_7="13000.00000" pt_clust_8="13000.00000" pt_clust_9="129.49593"></scales>
<clustering>
<clus scale="   79.783">  5  6 -1 -1</clus>
<clus scale="   93.397">  7  8 -1 -1</clus>
<clus scale="  129.496">  2  9  1 -1</clus>
<clus scale="  231.170">  2  5  1 -1</clus>
<clus scale="  129.496">  2  5  1 -1</clus>
</clustering>
</event>
