<event>
 9    1  0.1315259E-005  0.3957084E+03  0.7546771E-02  0.1045297E+00
         21   -1    0    0  501  502  0.00000000000E+00  0.00000000000E+00  0.10335457785E+03  0.10335457785E+03  0.00000000000E+00 0.  1.
          2   -1    0    0  502    0 -0.00000000000E+00 -0.00000000000E+00 -0.19583392428E+04  0.19583392428E+04  0.00000000000E+00 0. -1.
         23    2    1    2    0    0  0.70525231603E+02 -0.38055742136E+03 -0.11291968446E+04  0.11968984187E+04  0.87650165045E+02 0.  0.
         23    2    1    2    0    0 -0.10745864982E+02  0.38676733425E+03 -0.68719551257E+03  0.79337060302E+03  0.86572494375E+02 0.  0.
        -11    1    3    3    0    0  0.45938673060E+02 -0.11058749756E+03 -0.44838673161E+03  0.46410194718E+03  0.00000000000E+00 0. -1.
         11    1    3    3    0    0  0.24586558543E+02 -0.26996992380E+03 -0.68081011302E+03  0.73279647148E+03  0.00000000000E+00 0.  1.
        -13    1    4    4    0    0  0.36666948734E+02  0.14893527006E+03 -0.24540794917E+03  0.28939806723E+03  0.00000000000E+00 0.  1.
         13    1    4    4    0    0 -0.47412813716E+02  0.23783206420E+03 -0.44178756340E+03  0.50397253580E+03  0.00000000000E+00 0. -1.
          2    1    1    2  501    0 -0.59779366621E+02 -0.62099128992E+01 -0.38592307786E+02  0.71424798999E+02  0.00000000000E+00 0. -1.
<scales pt_clust_5="13000.00000" pt_clust_6="13000.00000" pt_clust_7="13000.00000" pt_clust_8="13000.00000" pt_clust_9="60.10105"></scales>
<clustering>
<clus scale="   60.101">  1  9  2 -1</clus>
<clus scale="   86.572">  7  8 -1 -1</clus>
<clus scale="   87.650">  5  6 -1 -1</clus>
<clus scale="  395.471">  1  7  2 -1</clus>
<clus scale="   60.101">  1  5  2 -1</clus>
</clustering>
</event>
<event>
 9    1  0.1315259E-005  0.1799949E+03  0.7546771E-02  0.1167868E+00
         -1   -1    0    0    0  501 -0.00000000000E+00  0.00000000000E+00  0.48064870431E+03  0.48064870431E+03  0.00000000000E+00 0.  1.
         21   -1    0    0  501  502  0.00000000000E+00 -0.00000000000E+00 -0.31831649038E+03  0.31831649038E+03  0.00000000000E+00 0.  1.
         23    2    1    2    0    0  0.13760199201E+03 -0.82334275065E+02  0.39625624364E+03  0.43708344132E+03  0.91157462659E+02 0.  0.
         23    2    1    2    0    0 -0.95582333004E+02  0.90691820761E+02 -0.42181442673E+02  0.16541109400E+03  0.90667343506E+02 0.  0.
        -11    1    3    3    0    0  0.12747454392E+03 -0.51799124830E+02  0.23223520940E+03  0.26993721709E+03  0.00000000000E+00 0.  1.
         11    1    3    3    0    0  0.10127448090E+02 -0.30535150236E+02  0.16402103423E+03  0.16714622423E+03  0.00000000000E+00 0. -1.
        -11    1    4    4    0    0 -0.23295955015E+02  0.67122483533E+02 -0.52963461284E+02  0.88618607227E+02  0.00000000000E+00 0. -1.
         11    1    4    4    0    0 -0.72286377989E+02  0.23569337228E+02  0.10782018611E+02  0.76792486777E+02  0.00000000000E+00 0.  1.
         -1    1    1    2    0  502 -0.42019659010E+02 -0.83575456956E+01 -0.19174258703E+03  0.19647065938E+03  0.00000000000E+00 0.  1.
<scales pt_clust_5="13000.00000" pt_clust_6="13000.00000" pt_clust_7="13000.00000" pt_clust_8="13000.00000" pt_clust_9="42.84274"></scales>
<clustering>
<clus scale="   42.843">  2  9  1 -1</clus>
<clus scale="   90.667">  7  8 -1 -1</clus>
<clus scale="   91.157">  5  6 -1 -1</clus>
<clus scale="  179.747">  2  7  1 -1</clus>
<clus scale="   42.843">  2  5  1 -1</clus>
</clustering>
</event>
<event>
 9    1  0.1315259E-005  0.1048612E+03  0.7546771E-02  0.1271090E+00
         21   -1    0    0  501  502  0.00000000000E+00  0.00000000000E+00  0.58904259691E+03  0.58904259691E+03  0.00000000000E+00 0. -1.
         -4   -1    0    0    0  501 -0.00000000000E+00 -0.00000000000E+00 -0.48480555933E+02  0.48480555933E+02  0.00000000000E+00 0.  1.
         23    2    1    2    0    0  0.43716940999E+02 -0.21657176586E+02  0.28930619675E+02  0.10766001987E+03  0.91506802459E+02 0.  0.
         23    2    1    2    0    0 -0.50969830293E+02  0.41167139095E+02  0.35957325219E+03  0.37638697901E+03  0.89897593611E+02 0.  0.
        -11    1    4    4    0    0 -0.34617252129E+01 -0.27508614129E+02  0.87785538281E+02  0.92059807321E+02  0.00000000000E+00 0.  1.
         11    1    4    4    0    0 -0.47508105080E+02  0.68675753224E+02  0.27178771391E+03  0.28432717169E+03  0.00000000000E+00 0. -1.
        -13    1    3    3    0    0  0.69662433276E+02 -0.62990550798E+01  0.68343458083E+01  0.70279733832E+02  0.00000000000E+00 0.  1.
         13    1    3    3    0    0 -0.25945492278E+02 -0.15358121506E+02  0.22096273867E+02  0.37380286041E+02  0.00000000000E+00 0. -1.
         -4    1    1    2    0  502  0.72528892939E+01 -0.19509962509E+02  0.15205816911E+03  0.15347615396E+03  0.00000000000E+00 0.  1.
<scales pt_clust_5="13000.00000" pt_clust_6="13000.00000" pt_clust_7="13000.00000" pt_clust_8="13000.00000" pt_clust_9="20.81449"></scales>
<clustering>
<clus scale="   20.814">  1  9  2 -1</clus>
<clus scale="   89.898">  5  6 -1 -1</clus>
<clus scale="   91.507">  7  8 -1 -1</clus>
<clus scale="  103.460">  1  5  2 -1</clus>
<clus scale="   20.814">  1  5  2 -1</clus>
</clustering>
</event>
<event>
 9    1  0.1315259E-005  0.3803727E+03  0.7546771E-02  0.1050840E+00
         21   -1    0    0  501  502  0.00000000000E+00  0.00000000000E+00  0.86450740408E+02  0.86450740408E+02  0.00000000000E+00 0.  1.
          1   -1    0    0  502    0 -0.00000000000E+00 -0.00000000000E+00 -0.21169077172E+04  0.21169077172E+04  0.00000000000E+00 0. -1.
         23    2    1    2    0    0 -0.35382907949E+03  0.18764797568E+02 -0.11874541570E+04  0.12425591608E+04  0.91426243677E+02 0.  0.
         23    2    1    2    0    0  0.39417122614E+03 -0.50768426120E+02 -0.72483331598E+03  0.83189719182E+03  0.93387435926E+02 0.  0.
        -11    1    3    3    0    0 -0.17594239827E+03  0.47141975191E+02 -0.50946466549E+03  0.54104744590E+03  0.00000000000E+00 0. -1.
         11    1    3    3    0    0 -0.17788668122E+03 -0.28377177623E+02 -0.67798949153E+03  0.70151171493E+03  0.00000000000E+00 0.  1.
        -11    1    4    4    0    0  0.26714187798E+03  0.51069016793E+00 -0.42091973654E+03  0.49853632604E+03  0.00000000000E+00 0.  1.
         11    1    4    4    0    0  0.12702934816E+03 -0.51279116288E+02 -0.30391357944E+03  0.33336086578E+03  0.00000000000E+00 0. -1.
          1    1    1    2  501    0 -0.40342146652E+02  0.32003628552E+02 -0.11816950383E+03  0.12890210500E+03  0.00000000000E+00 0. -1.
<scales pt_clust_5="13000.00000" pt_clust_6="13000.00000" pt_clust_7="13000.00000" pt_clust_8="13000.00000" pt_clust_9="51.49486"></scales>
<clustering>
<clus scale="   51.495">  1  9  2 -1</clus>
<clus scale="   91.426">  5  6 -1 -1</clus>
<clus scale="   93.387">  7  8 -1 -1</clus>
<clus scale="  379.896">  2  5  1 -1</clus>
<clus scale="   51.495">  1  5  2 -1</clus>
</clustering>
</event>
<event>
 9    1  0.1315259E-005  0.2055127E+03  0.7546771E-02  0.1148456E+00
          2   -1    0    0  502    0 -0.00000000000E+00  0.00000000000E+00  0.59866906690E+03  0.59866906690E+03  0.00000000000E+00 0. -1.
         21   -1    0    0  501  502  0.00000000000E+00 -0.00000000000E+00 -0.26201328109E+03  0.26201328109E+03  0.00000000000E+00 0. -1.
         23    2    1    2    0    0 -0.15933709838E+03 -0.69660910239E+02  0.51972395718E+03  0.55603594044E+03  0.93925619822E+02 0.  0.
         23    2    1    2    0    0  0.10085364651E+03  0.19224050889E+02 -0.88432328423E+02  0.18249840840E+03  0.12224716852E+03 0.  0.
        -11    1    4    4    0    0  0.95606246003E+02  0.47807991848E+02 -0.10433367819E+03  0.14937093012E+03  0.00000000000E+00 0.  1.
         11    1    4    4    0    0  0.52474005051E+01 -0.28583940959E+02  0.15901349771E+02  0.33127478282E+02  0.00000000000E+00 0. -1.
        -13    1    3    3    0    0 -0.21649112954E+02 -0.51459784402E+02  0.10900173461E+03  0.12246702270E+03  0.00000000000E+00 0.  1.
         13    1    3    3    0    0 -0.13768798543E+03 -0.18201125837E+02  0.41072222257E+03  0.43356891774E+03  0.00000000000E+00 0. -1.
          2    1    1    2  501    0  0.58483451876E+02  0.50436859350E+02 -0.94635842949E+02  0.12214799914E+03  0.00000000000E+00 0. -1.
<scales pt_clust_5="13000.00000" pt_clust_6="13000.00000" pt_clust_7="13000.00000" pt_clust_8="13000.00000" pt_clust_9="77.22817"></scales>
<clustering>
<clus scale="   77.228">  2  9  1 -1</clus>
<clus scale="   93.926">  7  8 -1 -1</clus>
<clus scale="  122.247">  5  6 -1 -1</clus>
<clus scale="  190.035">  1  7  2 -1</clus>
<clus scale="   77.228">  2  5  1 -1</clus>
</clustering>
</event>
<event>
 9    1  0.1315259E-005  0.9810384E+02  0.7546771E-02  0.1285111E+00
         21   -1    0    0  501  502  0.00000000000E+00  0.00000000000E+00  0.94453189227E+02  0.94453189227E+02  0.00000000000E+00 0.  1.
          2   -1    0    0  502    0 -0.00000000000E+00 -0.00000000000E+00 -0.19749099690E+03  0.19749099690E+03  0.00000000000E+00 0. -1.
         23    2    1    2    0    0  0.31083549877E+02  0.18036922998E+02 -0.59668361150E+02  0.11474340149E+03  0.91182329418E+02 0.  0.
         23    2    1    2    0    0  0.16470596039E+02 -0.45285951059E+02 -0.59294965073E+02  0.12012602258E+03  0.92694501021E+02 0.  0.
        -11    1    3    3    0    0  0.14863472098E+02 -0.23832711912E+02  0.11698224341E+02  0.30426459088E+02  0.00000000000E+00 0.  1.
         11    1    3    3    0    0  0.16220077779E+02  0.41869634910E+02 -0.71366585491E+02  0.84316942398E+02  0.00000000000E+00 0. -1.
        -13    1    4    4    0    0  0.36038169991E+02 -0.75632968113E+01 -0.67457410054E+02  0.76853466585E+02  0.00000000000E+00 0. -1.
         13    1    4    4    0    0 -0.19567573953E+02 -0.37722654248E+02  0.81624449803E+01  0.43272555991E+02  0.00000000000E+00 0.  1.
          2    1    1    2  501    0 -0.47554145916E+02  0.27249028061E+02  0.15925518547E+02  0.57074762067E+02  0.00000000000E+00 0. -1.
<scales pt_clust_5="13000.00000" pt_clust_6="13000.00000" pt_clust_7="13000.00000" pt_clust_8="13000.00000" pt_clust_9="54.80790"></scales>
<clustering>
<clus scale="   54.808">  1  9  2 -1</clus>
<clus scale="   91.182">  5  6 -1 -1</clus>
<clus scale="   92.695">  7  8 -1 -1</clus>
<clus scale="   96.676">  2  5  1 -1</clus>
<clus scale="   54.808">  1  5  2 -1</clus>
</clustering>
</event>
<event>
 9    1  0.1315259E-005  0.9876481E+02  0.7546771E-02  0.1286555E+00
          1   -1    0    0  502    0 -0.00000000000E+00  0.00000000000E+00  0.38224326941E+03  0.38224326941E+03  0.00000000000E+00 0. -1.
         21   -1    0    0  501  502  0.00000000000E+00 -0.00000000000E+00 -0.59340878860E+02  0.59340878860E+02  0.00000000000E+00 0.  1.
         23    2    1    2    0    0 -0.35841948473E+02 -0.15308965900E+02  0.27502042017E+03  0.29074546938E+03  0.85893461624E+02 0.  0.
         23    2    1    2    0    0  0.91522274798E+01  0.18936354870E+02  0.68157003687E+02  0.11712553408E+03  0.92901371237E+02 0.  0.
        -11    1    3    3    0    0 -0.60361512043E+02 -0.21093777449E+02  0.14754008824E+03  0.16079968042E+03  0.00000000000E+00 0.  1.
         11    1    3    3    0    0  0.24519563570E+02  0.57848115494E+01  0.12748033192E+03  0.12994578896E+03  0.00000000000E+00 0. -1.
        -13    1    4    4    0    0  0.25323134842E+02  0.51269458741E+02  0.52857315905E+02  0.77869855544E+02  0.00000000000E+00 0.  1.
         13    1    4    4    0    0 -0.16170907362E+02 -0.32333103871E+02  0.15299687782E+02  0.39255678533E+02  0.00000000000E+00 0. -1.
          1    1    1    2  501    0  0.26689720993E+02 -0.36273889696E+01 -0.20275033306E+02  0.33713144810E+02  0.00000000000E+00 0. -1.
<scales pt_clust_5="13000.00000" pt_clust_6="13000.00000" pt_clust_7="13000.00000" pt_clust_8="13000.00000" pt_clust_9="26.93509"></scales>
<clustering>
<clus scale="   26.935">  2  9  1 -1</clus>
<clus scale="   85.893">  5  6 -1 -1</clus>
<clus scale="   92.204">  1  5  2 -1</clus>
<clus scale="   92.901">  7  8 -1 -1</clus>
<clus scale="   26.935">  2  5  1 -1</clus>
</clustering>
</event>
<event>
 9    1  0.1315259E-005  0.1002254E+03  0.7546771E-02  0.1284984E+00
         21   -1    0    0  501  502  0.00000000000E+00  0.00000000000E+00  0.28155427397E+03  0.28155427397E+03  0.00000000000E+00 0. -1.
          1   -1    0    0  502    0 -0.00000000000E+00 -0.00000000000E+00 -0.79890690057E+02  0.79890690057E+02  0.00000000000E+00 0. -1.
         23    2    1    2    0    0 -0.40458988957E+02  0.23535375024E+02 -0.70072948933E+01  0.92853364557E+02  0.79886178172E+02 0.  0.
         23    2    1    2    0    0  0.46020010700E+02  0.21405686515E+02  0.76343783271E+02  0.12873065357E+03  0.90372358189E+02 0.  0.
        -13    1    3    3    0    0 -0.55053709015E+02  0.41360214509E+02 -0.10147273200E+02  0.69602768436E+02  0.00000000000E+00 0. -1.
         13    1    3    3    0    0  0.14594720058E+02 -0.17824839485E+02  0.31399783065E+01  0.23250596122E+02  0.00000000000E+00 0.  1.
        -13    1    4    4    0    0  0.73642293845E+02  0.18066487025E+02  0.55799345127E+02  0.94144316412E+02  0.00000000000E+00 0. -1.
         13    1    4    4    0    0 -0.27622283145E+02  0.33391994900E+01  0.20544438144E+02  0.34586337158E+02  0.00000000000E+00 0.  1.
          1    1    1    2  501    0 -0.55610217434E+01 -0.44941061539E+02  0.13232709554E+03  0.13986094590E+03  0.00000000000E+00 0. -1.
<scales pt_clust_5="13000.00000" pt_clust_6="13000.00000" pt_clust_7="13000.00000" pt_clust_8="13000.00000" pt_clust_9="45.28382"></scales>
<clustering>
<clus scale="   45.284">  1  9  2 -1</clus>
<clus scale="   79.886">  5  6 -1 -1</clus>
<clus scale="   90.372">  7  8 -1 -1</clus>
<clus scale="   90.883">  2  5  1 -1</clus>
<clus scale="   45.284">  1  5  2 -1</clus>
</clustering>
</event>
<event>
 9    1  0.1315259E-005  0.1006169E+03  0.7546771E-02  0.1279599E+00
         21   -1    0    0  501  502  0.00000000000E+00  0.00000000000E+00  0.17716253683E+03  0.17716253683E+03  0.00000000000E+00 0. -1.
          2   -1    0    0  502    0 -0.00000000000E+00 -0.00000000000E+00 -0.10774263913E+03  0.10774263913E+03  0.00000000000E+00 0. -1.
         23    2    1    2    0    0  0.12628403738E+01  0.30512898047E+02 -0.19106847775E+02  0.97483396434E+02  0.90583161986E+02 0.  0.
         23    2    1    2    0    0  0.24180050681E+02 -0.57902545514E+02  0.25441305229E+02  0.11409166112E+03  0.91827378796E+02 0.  0.
        -11    1    4    4    0    0 -0.27621355440E+02 -0.16456732383E+01  0.25484607787E+02  0.37617984407E+02  0.00000000000E+00 0.  1.
         11    1    4    4    0    0  0.51801406121E+02 -0.56256872276E+02 -0.43302558582E-01  0.76473676710E+02  0.00000000000E+00 0. -1.
        -11    1    3    3    0    0  0.42365178293E+02  0.28334642976E+02  0.24381347609E+01  0.51025531114E+02  0.00000000000E+00 0.  1.
         11    1    3    3    0    0 -0.41102337919E+02  0.21782550717E+01 -0.21544982536E+02  0.46457865320E+02  0.00000000000E+00 0. -1.
          2    1    1    2  501    0 -0.25442891055E+02  0.27389647467E+02  0.63085440251E+02  0.73330118405E+02  0.00000000000E+00 0. -1.
<scales pt_clust_5="13000.00000" pt_clust_6="13000.00000" pt_clust_7="13000.00000" pt_clust_8="13000.00000" pt_clust_9="37.38360"></scales>
<clustering>
<clus scale="   37.384">  1  9  2 -1</clus>
<clus scale="   90.583">  7  8 -1 -1</clus>
<clus scale="   91.827">  5  6 -1 -1</clus>
<clus scale="   99.483">  2  7  1 -1</clus>
<clus scale="   37.384">  1  5  2 -1</clus>
</clustering>
</event>
<event>
 9    1  0.1315259E-005  0.2202137E+03  0.7546771E-02  0.1133956E+00
         -1   -1    0    0    0  501 -0.00000000000E+00  0.00000000000E+00  0.33000338812E+03  0.33000338812E+03  0.00000000000E+00 0.  1.
         21   -1    0    0  501  502  0.00000000000E+00 -0.00000000000E+00 -0.32586450581E+03  0.32586450581E+03  0.00000000000E+00 0. -1.
         23    2    1    2    0    0 -0.94938649315E+02 -0.18114593977E+03  0.23990046815E+03  0.32751448202E+03  0.88804857355E+02 0.  0.
         23    2    1    2    0    0  0.81587169964E+02  0.15462867164E+03 -0.21612057394E+03  0.29275570331E+03  0.91822148428E+02 0.  0.
        -11    1    3    3    0    0 -0.31517680503E+02 -0.74436435269E+02  0.16176463129E+03  0.18083678557E+03  0.00000000000E+00 0.  1.
         11    1    3    3    0    0 -0.63420968812E+02 -0.10670950450E+03  0.78135836864E+02  0.14667769646E+03  0.00000000000E+00 0. -1.
        -13    1    4    4    0    0  0.43763405863E+02  0.15181116574E+03 -0.15867776008E+03  0.22392073883E+03  0.00000000000E+00 0. -1.
         13    1    4    4    0    0  0.37823764100E+02  0.28175059075E+01 -0.57442813859E+02  0.68834964475E+02  0.00000000000E+00 0.  1.
         -1    1    1    2    0  502  0.13351479351E+02  0.26517268123E+02 -0.19641011903E+02  0.35597708608E+02  0.00000000000E+00 0.  1.
<scales pt_clust_5="13000.00000" pt_clust_6="13000.00000" pt_clust_7="13000.00000" pt_clust_8="13000.00000" pt_clust_9="29.68884"></scales>
<clustering>
<clus scale="   29.689">  2  9  1 -1</clus>
<clus scale="   88.805">  5  6 -1 -1</clus>
<clus scale="   91.822">  7  8 -1 -1</clus>
<clus scale="  218.973">  1  5  2 -1</clus>
<clus scale="   29.689">  2  5  1 -1</clus>
</clustering>
</event>
<event>
 9    1  0.1315259E-005  0.1137823E+03  0.7546771E-02  0.1254272E+00
          1   -1    0    0  502    0 -0.00000000000E+00  0.00000000000E+00  0.14840461751E+03  0.14840461751E+03  0.00000000000E+00 0. -1.
         21   -1    0    0  501  502  0.00000000000E+00 -0.00000000000E+00 -0.13949836289E+03  0.13949836289E+03  0.00000000000E+00 0.  1.
         23    2    1    2    0    0 -0.59994734392E+02  0.36337243383E+02  0.63595389638E+02  0.13109994341E+03  0.90681079441E+02 0.  0.
         23    2    1    2    0    0  0.68159676864E+02 -0.97751094805E+01 -0.61316716639E+02  0.12823490646E+03  0.89124391616E+02 0.  0.
        -11    1    4    4    0    0  0.25582826241E+01 -0.36747115868E+02 -0.40213491243E+01  0.37054913080E+02  0.00000000000E+00 0. -1.
         11    1    4    4    0    0  0.65601394240E+02  0.26972006388E+02 -0.57295367515E+02  0.91179993384E+02  0.00000000000E+00 0.  1.
        -13    1    3    3    0    0  0.17909811681E+02 -0.12806525480E+02  0.17354107780E+02  0.28034505634E+02  0.00000000000E+00 0.  1.
         13    1    3    3    0    0 -0.77904546073E+02  0.49143768862E+02  0.46241281858E+02  0.10306543778E+03  0.00000000000E+00 0. -1.
          1    1    1    2  501    0 -0.81649424713E+01 -0.26562133902E+02  0.66275816258E+01  0.28568130516E+02  0.00000000000E+00 0. -1.
<scales pt_clust_5="13000.00000" pt_clust_6="13000.00000" pt_clust_7="13000.00000" pt_clust_8="13000.00000" pt_clust_9="27.78874"></scales>
<clustering>
<clus scale="   27.789">  2  9  1 -1</clus>
<clus scale="   89.124">  5  6 -1 -1</clus>
<clus scale="   90.681">  7  8 -1 -1</clus>
<clus scale="  112.546">  2  5  1 -1</clus>
<clus scale="   27.789">  2  5  1 -1</clus>
</clustering>
</event>
<event>
 9    1  0.1315259E-005  0.1116646E+03  0.7546771E-02  0.1258659E+00
         21   -1    0    0  501  502  0.00000000000E+00  0.00000000000E+00  0.69416078100E+03  0.69416078100E+03  0.00000000000E+00 0. -1.
          1   -1    0    0  502    0 -0.00000000000E+00 -0.00000000000E+00 -0.74615457183E+02  0.74615457183E+02  0.00000000000E+00 0. -1.
         23    2    1    2    0    0 -0.18330537186E+01 -0.58735170549E+02 -0.10608520707E+02  0.11175834649E+03  0.94468020791E+02 0.  0.
         23    2    1    2    0    0  0.61496156101E+02  0.61374231122E+02  0.43409373843E+03  0.45206371236E+03  0.91518592792E+02 0.  0.
        -13    1    3    3    0    0 -0.85529111221E+01 -0.77883570389E+02  0.14282840011E+02  0.79642967951E+02  0.00000000000E+00 0. -1.
         13    1    3    3    0    0  0.67198574035E+01  0.19148399841E+02 -0.24891360718E+02  0.32115378534E+02  0.00000000000E+00 0.  1.
        -13    1    4    4    0    0  0.59437273490E+02  0.82987084031E+01  0.12768728767E+03  0.14108756668E+03  0.00000000000E+00 0.  1.
         13    1    4    4    0    0  0.20588826103E+01  0.53075522719E+02  0.30640645076E+03  0.31097614568E+03  0.00000000000E+00 0. -1.
          1    1    1    2  501    0 -0.59663102382E+02 -0.26390605734E+01  0.19606010610E+03  0.20495417934E+03  0.00000000000E+00 0. -1.
<scales pt_clust_5="13000.00000" pt_clust_6="13000.00000" pt_clust_7="13000.00000" pt_clust_8="13000.00000" pt_clust_9="59.72144"></scales>
<clustering>
<clus scale="   59.721">  1  9  2 -1</clus>
<clus scale="   91.519">  7  8 -1 -1</clus>
<clus scale="   94.468">  5  6 -1 -1</clus>
<clus scale="  109.181">  1  7  2 -1</clus>
<clus scale="   59.721">  1  5  2 -1</clus>
</clustering>
</event>
<event>
 9    1  0.1315259E-005  0.9260793E+02  0.7546771E-02  0.1298476E+00
         21   -1    0    0  501  502  0.00000000000E+00  0.00000000000E+00  0.13280802073E+03  0.13280802073E+03  0.00000000000E+00 0.  1.
         -1   -1    0    0    0  501 -0.00000000000E+00 -0.00000000000E+00 -0.17680375718E+03  0.17680375718E+03  0.00000000000E+00 0.  1.
         23    2    1    2    0    0 -0.20617534230E+02  0.57009378875E+01 -0.11147586384E+03  0.14559002920E+03  0.91170197841E+02 0.  0.
         23    2    1    2    0    0 -0.11956826017E+02 -0.24998866181E+02  0.68801944582E+01  0.92566511995E+02  0.88052899262E+02 0.  0.
        -11    1    3    3    0    0 -0.32937242593E+02 -0.12918848717E+02 -0.11729737003E+03  0.12251706664E+03  0.00000000000E+00 0.  1.
         11    1    3    3    0    0  0.12319708363E+02  0.18619786605E+02  0.58215061879E+01  0.23072962568E+02  0.00000000000E+00 0. -1.
        -11    1    4    4    0    0  0.15171676386E+02 -0.51421372189E+02 -0.20732086943E+01  0.53652916757E+02  0.00000000000E+00 0.  1.
         11    1    4    4    0    0 -0.27128502402E+02  0.26422506009E+02  0.89534031524E+01  0.38913595238E+02  0.00000000000E+00 0. -1.
         -1    1    1    2    0  502  0.32574360247E+02  0.19297928293E+02  0.60599932934E+02  0.71455236712E+02  0.00000000000E+00 0.  1.
<scales pt_clust_5="13000.00000" pt_clust_6="13000.00000" pt_clust_7="13000.00000" pt_clust_8="13000.00000" pt_clust_9="37.86158"></scales>
<clustering>
<clus scale="   37.862">  1  9  2 -1</clus>
<clus scale="   88.053">  7  8 -1 -1</clus>
<clus scale="   89.541">  1  7  2 -1</clus>
<clus scale="   91.170">  5  6 -1 -1</clus>
<clus scale="   37.862">  1  5  2 -1</clus>
</clustering>
</event>
<event>
 9    1  0.1315259E-005  0.2329084E+03  0.7546771E-02  0.1124679E+00
          2   -1    0    0  502    0 -0.00000000000E+00  0.00000000000E+00  0.16360759122E+04  0.16360759122E+04  0.00000000000E+00 0. -1.
         21   -1    0    0  501  502  0.00000000000E+00 -0.00000000000E+00 -0.54995187840E+02  0.54995187840E+02  0.00000000000E+00 0.  1.
         23    2    1    2    0    0  0.22016821408E+03  0.33518902333E+02  0.98377073471E+03  0.10126728290E+04  0.90021335654E+02 0.  0.
         23    2    1    2    0    0 -0.19871652521E+03 -0.48210848337E+02  0.60998659663E+03  0.64947207881E+03  0.88981963276E+02 0.  0.
        -13    1    3    3    0    0  0.13028928194E+03  0.53922279092E+02  0.70809999768E+03  0.72200312734E+03  0.00000000000E+00 0. -1.
         13    1    3    3    0    0  0.89878932137E+02 -0.20403376759E+02  0.27567073703E+03  0.29066970169E+03  0.00000000000E+00 0.  1.
        -13    1    4    4    0    0 -0.49766789471E+02 -0.14763229447E+02  0.29392689802E+03  0.29847563998E+03  0.00000000000E+00 0. -1.
         13    1    4    4    0    0 -0.14894973574E+03 -0.33447618889E+02  0.31605969861E+03  0.35099643883E+03  0.00000000000E+00 0.  1.
          2    1    1    2  501    0 -0.21451688872E+02  0.14691946003E+02 -0.12676606961E+02  0.28926192229E+02  0.00000000000E+00 0. -1.
<scales pt_clust_5="13000.00000" pt_clust_6="13000.00000" pt_clust_7="13000.00000" pt_clust_8="13000.00000" pt_clust_9="26.00054"></scales>
<clustering>
<clus scale="   26.001">  2  9  1 -1</clus>
<clus scale="   88.982">  7  8 -1 -1</clus>
<clus scale="   90.021">  5  6 -1 -1</clus>
<clus scale="  232.509">  2  7  1 -1</clus>
<clus scale="   26.001">  2  5  1 -1</clus>
</clustering>
</event>
<event>
 9    1  0.1315259E-005  0.3126579E+03  0.7546771E-02  0.1079147E+00
          2   -1    0    0  502    0 -0.00000000000E+00  0.00000000000E+00  0.25391725447E+04  0.25391725447E+04  0.00000000000E+00 0. -1.
         21   -1    0    0  501  502  0.00000000000E+00 -0.00000000000E+00 -0.52949625349E+02  0.52949625349E+02  0.00000000000E+00 0.  1.
         23    2    1    2    0    0 -0.21516583719E+03 -0.18738005226E+03  0.14854502809E+04  0.15153488947E+04  0.91170796616E+02 0.  0.
         23    2    1    2    0    0  0.27049061429E+03  0.18896684057E+03  0.87319546269E+03  0.93770751885E+03  0.89170822447E+02 0.  0.
        -11    1    3    3    0    0 -0.15666888805E+03 -0.78342999073E+02  0.91836504207E+03  0.93492091456E+03  0.00000000000E+00 0.  1.
         11    1    3    3    0    0 -0.58496949137E+02 -0.10903705319E+03  0.56708523881E+03  0.58042798012E+03  0.00000000000E+00 0. -1.
        -11    1    4    4    0    0  0.16886326300E+03  0.14091111838E+03  0.67405139717E+03  0.70902470401E+03  0.00000000000E+00 0. -1.
         11    1    4    4    0    0  0.10162735130E+03  0.48055722188E+02  0.19914406552E+03  0.22868281483E+03  0.00000000000E+00 0.  1.
          2    1    1    2  501    0 -0.55324777103E+02 -0.15867883122E+01  0.12757717579E+03  0.13906575653E+03  0.00000000000E+00 0. -1.
<scales pt_clust_5="13000.00000" pt_clust_6="13000.00000" pt_clust_7="13000.00000" pt_clust_8="13000.00000" pt_clust_9="55.34753"></scales>
<clustering>
<clus scale="   55.348">  2  9  1 -1</clus>
<clus scale="   89.171">  7  8 -1 -1</clus>
<clus scale="   91.171">  5  6 -1 -1</clus>
<clus scale="  312.081">  2  7  1 -1</clus>
<clus scale="   55.348">  2  5  1 -1</clus>
</clustering>
</event>
<event>
 9    1  0.1315259E-005  0.1238555E+03  0.7546771E-02  0.1238349E+00
         -4   -1    0    0    0  501 -0.00000000000E+00  0.00000000000E+00  0.23272140480E+03  0.23272140480E+03  0.00000000000E+00 0.  1.
         21   -1    0    0  501  502  0.00000000000E+00 -0.00000000000E+00 -0.40732342748E+03  0.40732342748E+03  0.00000000000E+00 0.  1.
         23    2    1    2    0    0 -0.78426230596E+02 -0.18990256850E+02  0.19033529035E+03  0.22814724166E+03  0.96500453996E+02 0.  0.
         23    2    1    2    0    0  0.43242701002E+02 -0.45620481679E+02 -0.26839700017E+03  0.29052024391E+03  0.91727328961E+02 0.  0.
        -11    1    3    3    0    0 -0.56793430379E+02  0.30878171332E+02  0.65685291873E+02  0.92160255900E+02  0.00000000000E+00 0.  1.
         11    1    3    3    0    0 -0.21632800217E+02 -0.49868428182E+02  0.12464999848E+03  0.13598698576E+03  0.00000000000E+00 0. -1.
        -13    1    4    4    0    0  0.35481839572E+02 -0.71949032370E+02 -0.22781627008E+03  0.24152821184E+03  0.00000000000E+00 0.  1.
         13    1    4    4    0    0  0.77608614295E+01  0.26328550691E+02 -0.40580730090E+02  0.48992032069E+02  0.00000000000E+00 0. -1.
         -4    1    1    2    0  502  0.35183529595E+02  0.64610738529E+02 -0.96540312857E+02  0.12137734671E+03  0.00000000000E+00 0.  1.
<scales pt_clust_5="13000.00000" pt_clust_6="13000.00000" pt_clust_7="13000.00000" pt_clust_8="13000.00000" pt_clust_9="73.56921"></scales>
<clustering>
<clus scale="   73.569">  2  9  1 -1</clus>
<clus scale="   91.727">  7  8 -1 -1</clus>
<clus scale="   96.500">  5  6 -1 -1</clus>
<clus scale="  120.174">  2  7  1 -1</clus>
<clus scale="   73.569">  2  5  1 -1</clus>
</clustering>
</event>
<event>
 9    1  0.1315259E-005  0.2486785E+03  0.7546771E-02  0.1114164E+00
         21   -1    0    0  501  502  0.00000000000E+00  0.00000000000E+00  0.10091147482E+03  0.10091147482E+03  0.00000000000E+00 0. -1.
          2   -1    0    0  502    0 -0.00000000000E+00 -0.00000000000E+00 -0.11617309389E+04  0.11617309389E+04  0.00000000000E+00 0. -1.
         23    2    1    2    0    0  0.23184460284E+03 -0.88471275980E+02 -0.78235608772E+03  0.82580019721E+03  0.91026541077E+02 0.  0.
         23    2    1    2    0    0 -0.20088538132E+03 -0.17916816345E+02 -0.15129370859E+03  0.26817383184E+03  0.91386372552E+02 0.  0.
        -13    1    4    4    0    0 -0.29115997466E+02 -0.32923043007E+02 -0.95715489468E+01  0.44980913936E+02  0.00000000000E+00 0.  1.
         13    1    4    4    0    0 -0.17176938385E+03  0.15006226662E+02 -0.14172215964E+03  0.22319291790E+03  0.00000000000E+00 0. -1.
        -13    1    3    3    0    0  0.96079030697E+02 -0.58180573462E+02 -0.48020985919E+03  0.49317103335E+03  0.00000000000E+00 0. -1.
         13    1    3    3    0    0  0.13576557214E+03 -0.30290702518E+02 -0.30214622853E+03  0.33262916386E+03  0.00000000000E+00 0.  1.
          2    1    1    2  501    0 -0.30959221521E+02  0.10638809232E+03 -0.12716966777E+03  0.16866838467E+03  0.00000000000E+00 0. -1.
<scales pt_clust_5="13000.00000" pt_clust_6="13000.00000" pt_clust_7="13000.00000" pt_clust_8="13000.00000" pt_clust_9="110.80117"></scales>
<clustering>
<clus scale="   91.027">  7  8 -1 -1</clus>
<clus scale="   91.386">  5  6 -1 -1</clus>
<clus scale="  110.801">  1  9  2 -1</clus>
<clus scale="  248.547">  2  7  1 -1</clus>
<clus scale="  110.801">  1  5  2 -1</clus>
</clustering>
</event>
<event>
 9    1  0.1315259E-005  0.1112259E+03  0.7546771E-02  0.1260218E+00
          2   -1    0    0  502    0 -0.00000000000E+00  0.00000000000E+00  0.26364676440E+03  0.26364676440E+03  0.00000000000E+00 0. -1.
         21   -1    0    0  501  502  0.00000000000E+00 -0.00000000000E+00 -0.62901362177E+02  0.62901362177E+02  0.00000000000E+00 0.  1.
         23    2    1    2    0    0  0.40478404365E+02  0.31209590135E+02  0.12401761332E+03  0.16632340946E+03  0.98339048127E+02 0.  0.
         23    2    1    2    0    0 -0.24735477455E+02 -0.50586935161E+02  0.79413235602E+02  0.13511430350E+03  0.93693816054E+02 0.  0.
        -11    1    3    3    0    0  0.46691196475E+02  0.59610568483E+02  0.62129041477E+02  0.97946441987E+02  0.00000000000E+00 0.  1.
         11    1    3    3    0    0 -0.62127921104E+01 -0.28400978348E+02  0.61888571838E+02  0.68376967475E+02  0.00000000000E+00 0. -1.
        -11    1    4    4    0    0  0.21447467900E+02 -0.35561465523E+02 -0.58004938970E+00  0.41532495311E+02  0.00000000000E+00 0.  1.
         11    1    4    4    0    0 -0.46182945355E+02 -0.15025469638E+02  0.79993284991E+02  0.93581808185E+02  0.00000000000E+00 0. -1.
          2    1    1    2  501    0 -0.15742926910E+02  0.19377345026E+02 -0.26854466974E+01  0.25110413615E+02  0.00000000000E+00 0. -1.
<scales pt_clust_5="13000.00000" pt_clust_6="13000.00000" pt_clust_7="13000.00000" pt_clust_8="13000.00000" pt_clust_9="24.96640"></scales>
<clustering>
<clus scale="   24.966">  2  9  1 -1</clus>
<clus scale="   93.694">  7  8 -1 -1</clus>
<clus scale="   98.339">  5  6 -1 -1</clus>
<clus scale="  107.141">  2  7  1 -1</clus>
<clus scale="   24.966">  2  5  1 -1</clus>
</clustering>
</event>
<event>
 9    1  0.1315259E-005  0.1025881E+03  0.7546771E-02  0.1275667E+00
         -3   -1    0    0    0  501 -0.00000000000E+00  0.00000000000E+00  0.11555904731E+03  0.11555904731E+03  0.00000000000E+00 0.  1.
         21   -1    0    0  501  502  0.00000000000E+00 -0.00000000000E+00 -0.18519575857E+03  0.18519575857E+03  0.00000000000E+00 0. -1.
         23    2    1    2    0    0 -0.23051948163E+02 -0.12452851853E+02  0.12086291952E+02  0.97119805970E+02  0.92734634442E+02 0.  0.
         23    2    1    2    0    0  0.59596305284E+02  0.32604674096E+02 -0.20759336989E+01  0.11371702808E+03  0.91172740430E+02 0.  0.
        -11    1    3    3    0    0 -0.35642214010E+02 -0.31065424143E+02  0.39545397068E+02  0.61638189672E+02  0.00000000000E+00 0.  1.
         11    1    3    3    0    0  0.12590265848E+02  0.18612572289E+02 -0.27459105116E+02  0.35481616298E+02  0.00000000000E+00 0. -1.
        -11    1    4    4    0    0  0.10660727925E+02 -0.30657498092E+02  0.70595641556E+01  0.33217025081E+02  0.00000000000E+00 0.  1.
         11    1    4    4    0    0  0.48935577359E+02  0.63262172188E+02 -0.91354978545E+01  0.80500002997E+02  0.00000000000E+00 0. -1.
         -3    1    1    2    0  502 -0.36544357122E+02 -0.20151822243E+02 -0.79647069508E+02  0.89917971831E+02  0.00000000000E+00 0.  1.
<scales pt_clust_5="13000.00000" pt_clust_6="13000.00000" pt_clust_7="13000.00000" pt_clust_8="13000.00000" pt_clust_9="41.73231"></scales>
<clustering>
<clus scale="   41.732">  2  9  1 -1</clus>
<clus scale="   91.173">  7  8 -1 -1</clus>
<clus scale="   92.735">  5  6 -1 -1</clus>
<clus scale="  101.178">  2  7  1 -1</clus>
<clus scale="   41.732">  2  5  1 -1</clus>
</clustering>
</event>
<event>
 9    1  0.1315259E-005  0.3394071E+03  0.7546771E-02  0.1067437E+00
         -1   -1    0    0    0  501 -0.00000000000E+00  0.00000000000E+00  0.15780673610E+03  0.15780673610E+03  0.00000000000E+00 0.  1.
         21   -1    0    0  501  502  0.00000000000E+00 -0.00000000000E+00 -0.11226445840E+04  0.11226445840E+04  0.00000000000E+00 0.  1.
         23    2    1    2    0    0  0.31306839240E+02 -0.32956024371E+03 -0.11837719573E+03  0.36557649168E+03  0.10021446195E+03 0.  0.
         23    2    1    2    0    0 -0.32870487077E+02  0.29924609782E+03 -0.80176636961E+03  0.86084732312E+03  0.87178588587E+02 0.  0.
        -11    1    3    3    0    0  0.40523111933E+02 -0.27947610169E+03 -0.61097551172E+02  0.28893238790E+03  0.00000000000E+00 0.  1.
         11    1    3    3    0    0 -0.92162726933E+01 -0.50084142017E+02 -0.57279644557E+02  0.76644103782E+02  0.00000000000E+00 0. -1.
        -11    1    4    4    0    0 -0.54723568320E+02  0.17954811766E+03 -0.55155516419E+03  0.58261933939E+03  0.00000000000E+00 0.  1.
         11    1    4    4    0    0  0.21853081244E+02  0.11969798017E+03 -0.25021120542E+03  0.27822798373E+03  0.00000000000E+00 0. -1.
         -1    1    1    2    0  502  0.15636478368E+01  0.30314145885E+02 -0.44694282576E+02  0.54027505313E+02  0.00000000000E+00 0.  1.
<scales pt_clust_5="13000.00000" pt_clust_6="13000.00000" pt_clust_7="13000.00000" pt_clust_8="13000.00000" pt_clust_9="30.35445"></scales>
<clustering>
<clus scale="   30.354">  2  9  1 -1</clus>
<clus scale="   87.179">  7  8 -1 -1</clus>
<clus scale="  100.214">  5  6 -1 -1</clus>
<clus scale="  335.789">  2  7  1 -1</clus>
<clus scale="   30.354">  2  5  1 -1</clus>
</clustering>
</event>
<event>
 9    1  0.1315259E-005  0.9362564E+02  0.7546771E-02  0.1294419E+00
         -2   -1    0    0    0  501 -0.00000000000E+00  0.00000000000E+00  0.45369147624E+03  0.45369147624E+03  0.00000000000E+00 0.  1.
         21   -1    0    0  501  502  0.00000000000E+00 -0.00000000000E+00 -0.43180699862E+02  0.43180699862E+02  0.00000000000E+00 0.  1.
         23    2    1    2    0    0  0.30326408725E+01 -0.11204300062E+02  0.28352537179E+03  0.29812656840E+03  0.91422541472E+02 0.  0.
         23    2    1    2    0    0 -0.11156580100E+02  0.37441797583E+02  0.13730207628E+03  0.16940556033E+03  0.91214177813E+02 0.  0.
        -11    1    3    3    0    0 -0.26627434302E+02 -0.40686453742E+02  0.18055089153E+03  0.18698404265E+03  0.00000000000E+00 0.  1.
         11    1    3    3    0    0  0.29660075174E+02  0.29482153679E+02  0.10297448026E+03  0.11114252575E+03  0.00000000000E+00 0. -1.
        -13    1    4    4    0    0  0.32273730202E+02 -0.61912900459E+01  0.74677249832E+02  0.81588095799E+02  0.00000000000E+00 0. -1.
         13    1    4    4    0    0 -0.43430310302E+02  0.43633087629E+02  0.62624826447E+02  0.87817464530E+02  0.00000000000E+00 0.  1.
         -2    1    1    2    0  502  0.81239392274E+01 -0.26237497520E+02 -0.10316671693E+02  0.29340047367E+02  0.00000000000E+00 0.  1.
<scales pt_clust_5="13000.00000" pt_clust_6="13000.00000" pt_clust_7="13000.00000" pt_clust_8="13000.00000" pt_clust_9="27.46643"></scales>
<clustering>
<clus scale="   27.466">  2  9  1 -1</clus>
<clus scale="   91.214">  7  8 -1 -1</clus>
<clus scale="   91.423">  5  6 -1 -1</clus>
<clus scale="   93.422">  2  7  1 -1</clus>
<clus scale="   27.466">  2  5  1 -1</clus>
</clustering>
</event>
<event>
 9    1  0.1315259E-005  0.1462390E+03  0.7546771E-02  0.1206493E+00
         21   -1    0    0  501  502  0.00000000000E+00  0.00000000000E+00  0.31836800730E+03  0.31836800730E+03  0.00000000000E+00 0.  1.
          2   -1    0    0  502    0 -0.00000000000E+00 -0.00000000000E+00 -0.10616787836E+03  0.10616787836E+03  0.00000000000E+00 0. -1.
         23    2    1    2    0    0 -0.55376562020E+02  0.10876787861E+03  0.26539823351E+02  0.15304610399E+03  0.88440560184E+02 0.  0.
         23    2    1    2    0    0  0.60749704401E+02 -0.77667671089E+02  0.74237010531E+02  0.15568285507E+03  0.94885319788E+02 0.  0.
        -11    1    3    3    0    0 -0.60069645305E+02  0.51120802577E+02 -0.16954362316E+02  0.80679298117E+02  0.00000000000E+00 0. -1.
         11    1    3    3    0    0  0.46930832843E+01  0.57647076032E+02  0.43494185668E+02  0.72366805876E+02  0.00000000000E+00 0.  1.
        -11    1    4    4    0    0  0.72372362759E+02 -0.20498407761E+02  0.24763434142E+02  0.79190727251E+02  0.00000000000E+00 0.  1.
         11    1    4    4    0    0 -0.11622658358E+02 -0.57169263328E+02  0.49473576389E+02  0.76492127814E+02  0.00000000000E+00 0. -1.
          2    1    1    2  501    0 -0.53731423811E+01 -0.31100207520E+02  0.11142329506E+03  0.11580692660E+03  0.00000000000E+00 0. -1.
<scales pt_clust_5="13000.00000" pt_clust_6="13000.00000" pt_clust_7="13000.00000" pt_clust_8="13000.00000" pt_clust_9="31.56095"></scales>
<clustering>
<clus scale="   31.561">  1  9  2 -1</clus>
<clus scale="   88.441">  5  6 -1 -1</clus>
<clus scale="   94.885">  7  8 -1 -1</clus>
<clus scale="  142.142">  2  5  1 -1</clus>
<clus scale="   31.561">  1  5  2 -1</clus>
</clustering>
</event>
<event>
 9    1  0.1315259E-005  0.1112039E+03  0.7546771E-02  0.1260591E+00
         21   -1    0    0  501  502  0.00000000000E+00  0.00000000000E+00  0.36881107271E+03  0.36881107271E+03  0.00000000000E+00 0.  1.
          1   -1    0    0  502    0 -0.00000000000E+00 -0.00000000000E+00 -0.92487915030E+02  0.92487915030E+02  0.00000000000E+00 0. -1.
         23    2    1    2    0    0  0.51150763406E+02  0.86453451826E+01 -0.21451493967E+02  0.11273781958E+03  0.97767616213E+02 0.  0.
         23    2    1    2    0    0 -0.60429755773E+02  0.48743765929E+02  0.17279139631E+03  0.21071914304E+03  0.92292906049E+02 0.  0.
        -13    1    3    3    0    0 -0.27540984534E+02 -0.95819532037E+01 -0.11524459999E+02  0.31354949124E+02  0.00000000000E+00 0.  1.
         13    1    3    3    0    0  0.78691747940E+02  0.18227298386E+02 -0.99270339677E+01  0.81382870456E+02  0.00000000000E+00 0. -1.
        -13    1    4    4    0    0 -0.40736424698E+02  0.16339997108E+02  0.11978988559E+02  0.45496680863E+02  0.00000000000E+00 0. -1.
         13    1    4    4    0    0 -0.19693331075E+02  0.32403768821E+02  0.16081240775E+03  0.16522246218E+03  0.00000000000E+00 0.  1.
          1    1    1    2  501    0  0.92789923671E+01 -0.57389111111E+02  0.12498325534E+03  0.13784202512E+03  0.00000000000E+00 0. -1.
<scales pt_clust_5="13000.00000" pt_clust_6="13000.00000" pt_clust_7="13000.00000" pt_clust_8="13000.00000" pt_clust_9="58.13441"></scales>
<clustering>
<clus scale="   58.134">  1  9  2 -1</clus>
<clus scale="   92.293">  7  8 -1 -1</clus>
<clus scale="   97.768">  5  6 -1 -1</clus>
<clus scale="  106.423">  1  7  2 -1</clus>
<clus scale="   58.134">  1  5  2 -1</clus>
</clustering>
</event>
<event>
 9    1  0.1315259E-005  0.1076554E+03  0.7546771E-02  0.1266125E+00
         21   -1    0    0  501  502  0.00000000000E+00  0.00000000000E+00  0.25047441792E+03  0.25047441792E+03  0.00000000000E+00 0. -1.
          2   -1    0    0  502    0 -0.00000000000E+00 -0.00000000000E+00 -0.43687493181E+03  0.43687493181E+03  0.00000000000E+00 0. -1.
         23    2    1    2    0    0  0.72734213348E+02 -0.88874668435E+01 -0.30499778196E+03  0.32682182485E+03  0.91758407455E+02 0.  0.
         23    2    1    2    0    0 -0.16888664372E+02  0.35917196364E+02 -0.96230143045E+02  0.13692039577E+03  0.88947638358E+02 0.  0.
        -11    1    3    3    0    0  0.28571457030E+01 -0.19828478935E+02 -0.80885947302E+01  0.21604564869E+02  0.00000000000E+00 0.  1.
         11    1    3    3    0    0  0.69877067645E+02  0.10941012092E+02 -0.29690918723E+03  0.30521725998E+03  0.00000000000E+00 0. -1.
        -13    1    4    4    0    0 -0.38617833843E+02  0.29931289633E+02 -0.10247997114E+03  0.11353133345E+03  0.00000000000E+00 0.  1.
         13    1    4    4    0    0  0.21729169471E+02  0.59859067302E+01  0.62498280944E+01  0.23389062326E+02  0.00000000000E+00 0. -1.
          2    1    1    2  501    0 -0.55845548976E+02 -0.27029729520E+02  0.21482741112E+03  0.22360712910E+03  0.00000000000E+00 0. -1.
<scales pt_clust_5="13000.00000" pt_clust_6="13000.00000" pt_clust_7="13000.00000" pt_clust_8="13000.00000" pt_clust_9="62.04298"></scales>
<clustering>
<clus scale="   62.043">  1  9  2 -1</clus>
<clus scale="   88.948">  7  8 -1 -1</clus>
<clus scale="   91.758">  5  6 -1 -1</clus>
<clus scale="  105.270">  1  7  2 -1</clus>
<clus scale="   62.043">  1  5  2 -1</clus>
</clustering>
</event>
<event>
 9    1  0.1315259E-005  0.1572066E+03  0.7546771E-02  0.1192200E+00
         21   -1    0    0  501  502  0.00000000000E+00  0.00000000000E+00  0.26413366372E+03  0.26413366372E+03  0.00000000000E+00 0.  1.
          2   -1    0    0  502    0 -0.00000000000E+00 -0.00000000000E+00 -0.12706653794E+03  0.12706653794E+03  0.00000000000E+00 0. -1.
         23    2    1    2    0    0 -0.12130088659E+00  0.10658332103E+03  0.74936167918E+02  0.15817156295E+03  0.89681631500E+02 0.  0.
         23    2    1    2    0    0 -0.26833997209E+01 -0.15093086997E+03  0.65871648230E+02  0.18843531850E+03  0.91550352653E+02 0.  0.
        -11    1    3    3    0    0 -0.42339680742E+02  0.43313763647E+02  0.18088819698E+02  0.63213416967E+02  0.00000000000E+00 0.  1.
         11    1    3    3    0    0  0.42218379855E+02  0.63269557381E+02  0.56847348221E+02  0.94958145983E+02  0.00000000000E+00 0. -1.
        -13    1    4    4    0    0 -0.42424934700E+02 -0.10393291901E+03  0.58087995307E+02  0.12639676395E+03  0.00000000000E+00 0.  1.
         13    1    4    4    0    0  0.39741534979E+02 -0.46997950961E+02  0.77836529231E+01  0.62038554543E+02  0.00000000000E+00 0. -1.
          2    1    1    2  501    0  0.28047006075E+01  0.44347548945E+02 -0.37406903655E+01  0.44593320210E+02  0.00000000000E+00 0. -1.
<scales pt_clust_5="13000.00000" pt_clust_6="13000.00000" pt_clust_7="13000.00000" pt_clust_8="13000.00000" pt_clust_9="44.43617"></scales>
<clustering>
<clus scale="   44.436">  1  9  2 -1</clus>
<clus scale="   89.682">  5  6 -1 -1</clus>
<clus scale="   91.550">  7  8 -1 -1</clus>
<clus scale="  156.126">  2  5  1 -1</clus>
<clus scale="   44.436">  1  5  2 -1</clus>
</clustering>
</event>
<event>
 9    1  0.1315259E-005  0.9517700E+02  0.7546771E-02  0.1291831E+00
          2   -1    0    0  502    0 -0.00000000000E+00  0.00000000000E+00  0.11874344473E+03  0.11874344473E+03  0.00000000000E+00 0. -1.
         21   -1    0    0  501  502  0.00000000000E+00 -0.00000000000E+00 -0.11179277550E+03  0.11179277550E+03  0.00000000000E+00 0.  1.
         23    2    1    2    0    0  0.17801670078E+02 -0.27196211589E+01  0.43827604045E+02  0.10220814566E+03  0.90561307229E+02 0.  0.
         23    2    1    2    0    0 -0.29085728348E+02  0.21341866225E+02 -0.38566323127E+02  0.10648838557E+03  0.92471401712E+02 0.  0.
        -13    1    4    4    0    0  0.68365737877E+00  0.34197803541E+02  0.19943184192E+02  0.39594036800E+02  0.00000000000E+00 0. -1.
         13    1    4    4    0    0 -0.29769385727E+02 -0.12855937315E+02 -0.58509507319E+02  0.66894348771E+02  0.00000000000E+00 0.  1.
        -13    1    3    3    0    0 -0.21188429703E+02  0.48789090941E+01 -0.18332019434E+02  0.28439694861E+02  0.00000000000E+00 0.  1.
         13    1    3    3    0    0  0.38990099781E+02 -0.75985302530E+01  0.62159623479E+02  0.73768450804E+02  0.00000000000E+00 0. -1.
          2    1    1    2  501    0  0.11284058270E+02 -0.18622245066E+02  0.16893883149E+01  0.21839688991E+02  0.00000000000E+00 0. -1.
<scales pt_clust_5="13000.00000" pt_clust_6="13000.00000" pt_clust_7="13000.00000" pt_clust_8="13000.00000" pt_clust_9="21.77426"></scales>
<clustering>
<clus scale="   21.774">  2  9  1 -1</clus>
<clus scale="   90.561">  7  8 -1 -1</clus>
<clus scale="   92.471">  5  6 -1 -1</clus>
<clus scale="   93.322">  1  7  2 -1</clus>
<clus scale="   21.774">  2  5  1 -1</clus>
</clustering>
</event>
<event>
 9    1  0.1315259E-005  0.1020995E+03  0.7546771E-02  0.1281054E+00
         -3   -1    0    0    0  501 -0.00000000000E+00  0.00000000000E+00  0.58889247200E+02  0.58889247200E+02  0.00000000000E+00 0.  1.
         21   -1    0    0  501  502  0.00000000000E+00 -0.00000000000E+00 -0.28288637210E+03  0.28288637210E+03  0.00000000000E+00 0. -1.
         23    2    1    2    0    0 -0.48653038519E+02 -0.33704954768E+02 -0.33515433720E+02  0.10503406653E+03  0.80035796378E+02 0.  0.
         23    2    1    2    0    0  0.27699656731E+02  0.45959627540E+01 -0.93563351283E+02  0.13339968210E+03  0.90845916942E+02 0.  0.
        -11    1    4    4    0    0  0.65659209478E+01 -0.18930934572E+02  0.11894656039E+02  0.23301812031E+02  0.00000000000E+00 0.  1.
         11    1    4    4    0    0  0.21133735783E+02  0.23526897326E+02 -0.10545800732E+03  0.11009787007E+03  0.00000000000E+00 0. -1.
        -11    1    3    3    0    0 -0.60489043205E+02 -0.26239045072E+01 -0.41856735833E+01  0.60690436529E+02  0.00000000000E+00 0. -1.
         11    1    3    3    0    0  0.11836004686E+02 -0.31081050261E+02 -0.29329760137E+02  0.44343630004E+02  0.00000000000E+00 0.  1.
         -3    1    1    2    0  502  0.20953381788E+02  0.29108992014E+02 -0.96918339896E+02  0.10334187067E+03  0.00000000000E+00 0.  1.
<scales pt_clust_5="13000.00000" pt_clust_6="13000.00000" pt_clust_7="13000.00000" pt_clust_8="13000.00000" pt_clust_9="35.86611"></scales>
<clustering>
<clus scale="   35.866">  2  9  1 -1</clus>
<clus scale="   80.036">  7  8 -1 -1</clus>
<clus scale="   90.846">  5  6 -1 -1</clus>
<clus scale="   92.612">  1  7  2 -1</clus>
<clus scale="   35.866">  2  5  1 -1</clus>
</clustering>
</event>
<event>
 9    1  0.1315259E-005  0.1593152E+03  0.7546771E-02  0.1215405E+00
          1   -1    0    0  502    0 -0.00000000000E+00  0.00000000000E+00  0.77984066334E+03  0.77984066334E+03  0.00000000000E+00 0. -1.
         21   -1    0    0  501  502  0.00000000000E+00 -0.00000000000E+00 -0.51361571671E+02  0.51361571671E+02  0.00000000000E+00 0.  1.
         23    2    1    2    0    0  0.45656716955E+01  0.12544914949E+02  0.29921672563E+03  0.31272337663E+03  0.89927977534E+02 0.  0.
         23    2    1    2    0    0  0.10516656676E+03 -0.81756164060E+02  0.23353663243E+03  0.28365994101E+03  0.90440733742E+02 0.  0.
        -11    1    4    4    0    0  0.88451165010E+02 -0.13512042819E+02  0.11294682788E+03  0.14409430877E+03  0.00000000000E+00 0. -1.
         11    1    4    4    0    0  0.16715401751E+02 -0.68244121241E+02  0.12058980455E+03  0.13956563223E+03  0.00000000000E+00 0.  1.
        -13    1    3    3    0    0 -0.40767019859E+02  0.18159204368E+02  0.16591244172E+03  0.17180990929E+03  0.00000000000E+00 0. -1.
         13    1    3    3    0    0  0.45332691555E+02 -0.56142894183E+01  0.13330428391E+03  0.14091346734E+03  0.00000000000E+00 0.  1.
          1    1    1    2  501    0 -0.10973223846E+03  0.69211249111E+02  0.19572573360E+03  0.23481891737E+03  0.00000000000E+00 0. -1.
<scales pt_clust_5="13000.00000" pt_clust_6="13000.00000" pt_clust_7="13000.00000" pt_clust_8="13000.00000" pt_clust_9="131.15574"></scales>
<clustering>
<clus scale="   89.928">  7  8 -1 -1</clus>
<clus scale="   90.441">  5  6 -1 -1</clus>
<clus scale="   90.913">  1  7  2 -1</clus>
<clus scale="  131.156">  2  9  1 -1</clus>
<clus scale="  131.156">  2  5  1 -1</clus>
</clustering>
</event>
<event>
 9    1  0.1315259E-005  0.9971039E+02  0.7546771E-02  0.1281549E+00
         -2   -1    0    0    0  501 -0.00000000000E+00  0.00000000000E+00  0.18148435522E+03  0.18148435522E+03  0.00000000000E+00 0.  1.
         21   -1    0    0  501  502  0.00000000000E+00 -0.00000000000E+00 -0.20536188992E+03  0.20536188992E+03  0.00000000000E+00 0.  1.
         23    2    1    2    0    0 -0.29421414951E+02  0.12702461239E+02  0.71422282551E+02  0.11849819588E+03  0.88959023165E+02 0.  0.
         23    2    1    2    0    0  0.54850546650E+02 -0.15641318922E+02  0.52036380347E+02  0.11880463501E+03  0.90296860929E+02 0.  0.
        -11    1    3    3    0    0  0.12660804247E+02 -0.18236520519E+02 -0.78652686119E+01  0.23552687642E+02  0.00000000000E+00 0.  1.
         11    1    3    3    0    0 -0.42082219198E+02  0.30938981758E+02  0.79287551163E+02  0.94945508236E+02  0.00000000000E+00 0. -1.
        -13    1    4    4    0    0  0.52090839781E+02  0.21437495442E+02  0.18685891983E+01  0.56360566228E+02  0.00000000000E+00 0. -1.
         13    1    4    4    0    0  0.27597068684E+01 -0.37078814364E+02  0.50167791149E+02  0.62444068777E+02  0.00000000000E+00 0.  1.
         -2    1    1    2    0  502 -0.25429131699E+02  0.29388576827E+01 -0.14733619760E+03  0.14954341426E+03  0.00000000000E+00 0.  1.
<scales pt_clust_5="13000.00000" pt_clust_6="13000.00000" pt_clust_7="13000.00000" pt_clust_8="13000.00000" pt_clust_9="25.59839"></scales>
<clustering>
<clus scale="   25.598">  2  9  1 -1</clus>
<clus scale="   88.959">  5  6 -1 -1</clus>
<clus scale="   90.297">  7  8 -1 -1</clus>
<clus scale="   98.500">  1  5  2 -1</clus>
<clus scale="   25.598">  2  5  1 -1</clus>
</clustering>
</event>
<event>
 9    1  0.1315259E-005  0.1153818E+03  0.7546771E-02  0.1251241E+00
         21   -1    0    0  501  502  0.00000000000E+00  0.00000000000E+00  0.54080372933E+03  0.54080372933E+03  0.00000000000E+00 0.  1.
          3   -1    0    0  502    0 -0.00000000000E+00 -0.00000000000E+00 -0.38677668636E+02  0.38677668636E+02  0.00000000000E+00 0. -1.
         23    2    1    2    0    0 -0.74968747050E-01 -0.61692939092E+02  0.11635870039E+03  0.16038414117E+03  0.91529783277E+02 0.  0.
         23    2    1    2    0    0  0.17127004879E+02  0.85727164269E+02  0.24696967503E+03  0.27720570190E+03  0.90589733356E+02 0.  0.
        -11    1    3    3    0    0 -0.20804379892E+02 -0.49223890798E+02  0.12399190226E+03  0.13501779688E+03  0.00000000000E+00 0.  1.
         11    1    3    3    0    0  0.20729411145E+02 -0.12469048294E+02 -0.76332018678E+01  0.25366344288E+02  0.00000000000E+00 0. -1.
        -11    1    4    4    0    0 -0.11848162829E+02  0.83609452236E+02  0.22632387327E+03  0.24156451535E+03  0.00000000000E+00 0.  1.
         11    1    4    4    0    0  0.28975167708E+02  0.21177120321E+01  0.20645801764E+02  0.35641186547E+02  0.00000000000E+00 0. -1.
          3    1    1    2  501    0 -0.17052036132E+02 -0.24034225177E+02  0.13879768527E+03  0.14189155490E+03  0.00000000000E+00 0. -1.
<scales pt_clust_5="13000.00000" pt_clust_6="13000.00000" pt_clust_7="13000.00000" pt_clust_8="13000.00000" pt_clust_9="29.46890"></scales>
<clustering>
<clus scale="   29.469">  1  9  2 -1</clus>
<clus scale="   90.590">  7  8 -1 -1</clus>
<clus scale="   91.530">  5  6 -1 -1</clus>
<clus scale="  114.638">  1  7  2 -1</clus>
<clus scale="   29.469">  1  5  2 -1</clus>
</clustering>
</event>
<event>
 9    1  0.1315259E-005  0.1162343E+03  0.7546771E-02  0.1249687E+00
         21   -1    0    0  501  502  0.00000000000E+00  0.00000000000E+00  0.41268168900E+03  0.41268168900E+03  0.00000000000E+00 0. -1.
         -4   -1    0    0    0  501 -0.00000000000E+00 -0.00000000000E+00 -0.87640484818E+02  0.87640484818E+02  0.00000000000E+00 0.  1.
         23    2    1    2    0    0 -0.37055867126E+02 -0.62756145870E+02 -0.10920235730E+02  0.11737596632E+03  0.91358605447E+02 0.  0.
         23    2    1    2    0    0  0.69200876153E+02  0.35483072308E+02  0.14729171703E+03  0.18962423130E+03  0.90634924339E+02 0.  0.
        -11    1    4    4    0    0 -0.15875118562E+02  0.28360612320E+02  0.27809434485E+02  0.42775090496E+02  0.00000000000E+00 0. -1.
         11    1    4    4    0    0  0.85075994714E+02  0.71224599875E+01  0.11948228254E+03  0.14684914080E+03  0.00000000000E+00 0.  1.
        -13    1    3    3    0    0 -0.20980974561E+02 -0.84353036352E+02 -0.19568115727E+02  0.89098525176E+02  0.00000000000E+00 0.  1.
         13    1    3    3    0    0 -0.16074892566E+02  0.21596890482E+02  0.86478799973E+01  0.28277441149E+02  0.00000000000E+00 0. -1.
         -4    1    1    2    0  502 -0.32145009026E+02  0.27273073563E+02  0.18866972289E+03  0.19332197620E+03  0.00000000000E+00 0.  1.
<scales pt_clust_5="13000.00000" pt_clust_6="13000.00000" pt_clust_7="13000.00000" pt_clust_8="13000.00000" pt_clust_9="42.15593"></scales>
<clustering>
<clus scale="   42.156">  1  9  2 -1</clus>
<clus scale="   90.635">  5  6 -1 -1</clus>
<clus scale="   91.359">  7  8 -1 -1</clus>
<clus scale="  115.666">  1  5  2 -1</clus>
<clus scale="   42.156">  1  5  2 -1</clus>
</clustering>
</event>
<event>
 9    1  0.1315259E-005  0.1006525E+03  0.7546771E-02  0.1280950E+00
         21   -1    0    0  501  502  0.00000000000E+00  0.00000000000E+00  0.41081617707E+02  0.41081617707E+02  0.00000000000E+00 0. -1.
         -3   -1    0    0    0  501 -0.00000000000E+00 -0.00000000000E+00 -0.42896887261E+03  0.42896887261E+03  0.00000000000E+00 0.  1.
         23    2    1    2    0    0 -0.39730482606E+02  0.93604676399E+01 -0.28158123182E+03  0.29725845889E+03  0.86072479140E+02 0.  0.
         23    2    1    2    0    0  0.52877758923E+02 -0.27622972512E+02 -0.66431217731E+02  0.12700589749E+03  0.90323337571E+02 0.  0.
        -11    1    4    4    0    0  0.71571064324E+02 -0.39600830589E+02 -0.65491546194E+02  0.10478447239E+03  0.00000000000E+00 0. -1.
         11    1    4    4    0    0 -0.18693305401E+02  0.11977858077E+02 -0.93967153700E+00  0.22221425101E+02  0.00000000000E+00 0.  1.
        -13    1    3    3    0    0  0.15396532479E+02  0.28221960618E+02 -0.59140985689E+02  0.67314102993E+02  0.00000000000E+00 0.  1.
         13    1    3    3    0    0 -0.55127015085E+02 -0.18861492978E+02 -0.22244024613E+03  0.22994435590E+03  0.00000000000E+00 0. -1.
         -3    1    1    2    0  502 -0.13147276317E+02  0.18262504872E+02 -0.39874805345E+02  0.45786133928E+02  0.00000000000E+00 0.  1.
<scales pt_clust_5="13000.00000" pt_clust_6="13000.00000" pt_clust_7="13000.00000" pt_clust_8="13000.00000" pt_clust_9="22.50268"></scales>
<clustering>
<clus scale="   22.503">  1  9  2 -1</clus>
<clus scale="   86.072">  7  8 -1 -1</clus>
<clus scale="   90.323">  5  6 -1 -1</clus>
<clus scale="   96.856">  2  7  1 -1</clus>
<clus scale="   22.503">  1  5  2 -1</clus>
</clustering>
</event>
<event>
 9    1  0.1315259E-005  0.1494802E+03  0.7546771E-02  0.1201187E+00
          1   -1    0    0  502    0 -0.00000000000E+00  0.00000000000E+00  0.54453696037E+03  0.54453696037E+03  0.00000000000E+00 0. -1.
         21   -1    0    0  501  502  0.00000000000E+00 -0.00000000000E+00 -0.79824060919E+02  0.79824060919E+02  0.00000000000E+00 0. -1.
         23    2    1    2    0    0 -0.94481743191E+02 -0.73293713201E+02  0.31618645640E+03  0.35024385656E+03  0.91641233403E+02 0.  0.
         23    2    1    2    0    0  0.10469740701E+03  0.51132993867E+02  0.18061113707E+03  0.23380730416E+03  0.92029031006E+02 0.  0.
        -13    1    4    4    0    0  0.10633624267E+03  0.12663974519E+02  0.15155045708E+03  0.18556754511E+03  0.00000000000E+00 0.  1.
         13    1    4    4    0    0 -0.16388356584E+01  0.38469019348E+02  0.29060679987E+02  0.48239759050E+02  0.00000000000E+00 0. -1.
        -13    1    3    3    0    0 -0.67156984627E+01  0.19366200376E+02  0.25091907446E+02  0.32399909600E+02  0.00000000000E+00 0.  1.
         13    1    3    3    0    0 -0.87766044728E+02 -0.92659913577E+02  0.29109454895E+03  0.31784394696E+03  0.00000000000E+00 0. -1.
          1    1    1    2  501    0 -0.10215663822E+02  0.22160719335E+02 -0.32084694016E+02  0.40309860566E+02  0.00000000000E+00 0. -1.
<scales pt_clust_5="13000.00000" pt_clust_6="13000.00000" pt_clust_7="13000.00000" pt_clust_8="13000.00000" pt_clust_9="24.40199"></scales>
<clustering>
<clus scale="   24.402">  2  9  1 -1</clus>
<clus scale="   91.641">  7  8 -1 -1</clus>
<clus scale="   92.029">  5  6 -1 -1</clus>
<clus scale="  149.242">  1  7  2 -1</clus>
<clus scale="   24.402">  2  5  1 -1</clus>
</clustering>
</event>
<event>
 9    1  0.1315259E-005  0.1238605E+03  0.7546771E-02  0.1236887E+00
         21   -1    0    0  501  502  0.00000000000E+00  0.00000000000E+00  0.10083768304E+03  0.10083768304E+03  0.00000000000E+00 0. -1.
          1   -1    0    0  502    0 -0.00000000000E+00 -0.00000000000E+00 -0.29627223239E+03  0.29627223239E+03  0.00000000000E+00 0. -1.
         23    2    1    2    0    0  0.13936932092E+02  0.10302964489E+03 -0.18564235398E+03  0.23126206724E+03  0.90607474032E+02 0.  0.
         23    2    1    2    0    0 -0.52636100495E+01 -0.51223239678E+02 -0.31815264124E+02  0.10889044574E+03  0.90517358935E+02 0.  0.
        -13    1    4    4    0    0 -0.35975201503E+02  0.62097736516E+01 -0.23247234836E+00  0.36507950578E+02  0.00000000000E+00 0.  1.
         13    1    4    4    0    0  0.30711591454E+02 -0.57433013330E+02 -0.31582791775E+02  0.72382495163E+02  0.00000000000E+00 0. -1.
        -13    1    3    3    0    0  0.50745137337E+01  0.42365587931E+02 -0.80973342837E+01  0.43429949952E+02  0.00000000000E+00 0.  1.
         13    1    3    3    0    0  0.88624183578E+01  0.60664056958E+02 -0.17754501969E+03  0.18783211728E+03  0.00000000000E+00 0. -1.
          1    1    1    2  501    0 -0.86733220420E+01 -0.51806405210E+02  0.22023068751E+02  0.56957402445E+02  0.00000000000E+00 0. -1.
<scales pt_clust_5="13000.00000" pt_clust_6="13000.00000" pt_clust_7="13000.00000" pt_clust_8="13000.00000" pt_clust_9="52.52742"></scales>
<clustering>
<clus scale="   52.527">  1  9  2 -1</clus>
<clus scale="   90.517">  5  6 -1 -1</clus>
<clus scale="   90.607">  7  8 -1 -1</clus>
<clus scale="  123.795">  1  5  2 -1</clus>
<clus scale="   52.527">  1  5  2 -1</clus>
</clustering>
</event>
<event>
 9    1  0.1315259E-005  0.9813426E+02  0.7546771E-02  0.1287000E+00
          2   -1    0    0  502    0 -0.00000000000E+00  0.00000000000E+00  0.31630862171E+03  0.31630862171E+03  0.00000000000E+00 0. -1.
         21   -1    0    0  501  502  0.00000000000E+00 -0.00000000000E+00 -0.47155262432E+02  0.47155262432E+02  0.00000000000E+00 0.  1.
         23    2    1    2    0    0 -0.34244842817E+02 -0.89783731822E+01  0.19619681038E+03  0.21781736217E+03  0.87737645359E+02 0.  0.
         23    2    1    2    0    0  0.23918645945E+02 -0.17507495259E+02  0.54559301871E+02  0.11178518315E+03  0.92954804804E+02 0.  0.
        -11    1    3    3    0    0 -0.58400377602E+01 -0.46112639210E+02  0.79304461816E+02  0.91922136615E+02  0.00000000000E+00 0.  1.
         11    1    3    3    0    0 -0.28404805057E+02  0.37134266028E+02  0.11689234857E+03  0.12589522556E+03  0.00000000000E+00 0. -1.
        -11    1    4    4    0    0 -0.20281769563E+02 -0.42273358805E+02  0.27157888463E+02  0.54184296130E+02  0.00000000000E+00 0.  1.
         11    1    4    4    0    0  0.44200415508E+02  0.24765863547E+02  0.27401413408E+02  0.57600887016E+02  0.00000000000E+00 0. -1.
          2    1    1    2  501    0  0.10326196872E+02  0.26485868441E+02  0.18397247017E+02  0.33861338821E+02  0.00000000000E+00 0. -1.
<scales pt_clust_5="13000.00000" pt_clust_6="13000.00000" pt_clust_7="13000.00000" pt_clust_8="13000.00000" pt_clust_9="28.42766"></scales>
<clustering>
<clus scale="   28.428">  2  9  1 -1</clus>
<clus scale="   87.738">  5  6 -1 -1</clus>
<clus scale="   92.955">  7  8 -1 -1</clus>
<clus scale="   93.207">  1  5  2 -1</clus>
<clus scale="   28.428">  2  5  1 -1</clus>
</clustering>
</event>
<event>
 9    1  0.1315259E-005  0.1944797E+03  0.7546771E-02  0.1154670E+00
          2   -1    0    0  502    0 -0.00000000000E+00  0.00000000000E+00  0.30888403098E+03  0.30888403098E+03  0.00000000000E+00 0. -1.
         21   -1    0    0  501  502  0.00000000000E+00 -0.00000000000E+00 -0.17082561559E+03  0.17082561559E+03  0.00000000000E+00 0. -1.
         23    2    1    2    0    0  0.13011215218E+03 -0.11020946032E+03  0.14762769803E+03  0.24385790312E+03  0.92722394274E+02 0.  0.
         23    2    1    2    0    0 -0.15421997179E+03  0.81711483694E+02  0.19264392017E+01  0.19679443609E+03  0.90905294921E+02 0.  0.
        -11    1    4    4    0    0 -0.15037397615E+02  0.25726324300E+02 -0.31217191781E+02  0.43156461297E+02  0.00000000000E+00 0.  1.
         11    1    4    4    0    0 -0.13918257417E+03  0.55985159394E+02  0.33143630982E+02  0.15363797480E+03  0.00000000000E+00 0. -1.
        -13    1    3    3    0    0  0.36554420740E+02 -0.77858787336E+02  0.32316986102E+02  0.91883643984E+02  0.00000000000E+00 0.  1.
         13    1    3    3    0    0  0.93557731442E+02 -0.32350672981E+02  0.11531071192E+03  0.15197425913E+03  0.00000000000E+00 0. -1.
          2    1    1    2  501    0  0.24107819603E+02  0.28497976623E+02 -0.11495721837E+02  0.39057307359E+02  0.00000000000E+00 0. -1.
<scales pt_clust_5="13000.00000" pt_clust_6="13000.00000" pt_clust_7="13000.00000" pt_clust_8="13000.00000" pt_clust_9="37.32722"></scales>
<clustering>
<clus scale="   37.327">  2  9  1 -1</clus>
<clus scale="   90.905">  5  6 -1 -1</clus>
<clus scale="   92.722">  7  8 -1 -1</clus>
<clus scale="  193.620">  2  5  1 -1</clus>
<clus scale="   37.327">  2  5  1 -1</clus>
</clustering>
</event>
<event>
 9    1  0.1315259E-005  0.9963426E+02  0.7546771E-02  0.1281395E+00
          1   -1    0    0  502    0 -0.00000000000E+00  0.00000000000E+00  0.11887189932E+03  0.11887189932E+03  0.00000000000E+00 0. -1.
         21   -1    0    0  501  502  0.00000000000E+00 -0.00000000000E+00 -0.15038711391E+03  0.15038711391E+03  0.00000000000E+00 0. -1.
         23    2    1    2    0    0  0.36252202721E+02 -0.26734793851E+02  0.17910044760E+02  0.10233127359E+03  0.90121853330E+02 0.  0.
         23    2    1    2    0    0 -0.71666702092E+01  0.42729745184E+02  0.76531741425E+01  0.10089930455E+03  0.90801466388E+02 0.  0.
        -11    1    3    3    0    0 -0.17501775792E+02 -0.18294941712E+02  0.36856211924E+02  0.44714621831E+02  0.00000000000E+00 0. -1.
         11    1    3    3    0    0  0.53753978512E+02 -0.84398521388E+01 -0.18946167164E+02  0.57616651762E+02  0.00000000000E+00 0.  1.
        -11    1    4    4    0    0 -0.33521347335E+02 -0.15049116839E+02 -0.12896189612E+01  0.36767101625E+02  0.00000000000E+00 0. -1.
         11    1    4    4    0    0  0.26354677126E+02  0.57778862024E+02  0.89427931037E+01  0.64132202922E+02  0.00000000000E+00 0.  1.
          1    1    1    2  501    0 -0.29085532511E+02 -0.15994951334E+02 -0.57078433495E+02  0.66028435085E+02  0.00000000000E+00 0. -1.
<scales pt_clust_5="13000.00000" pt_clust_6="13000.00000" pt_clust_7="13000.00000" pt_clust_8="13000.00000" pt_clust_9="33.19347"></scales>
<clustering>
<clus scale="   33.193">  2  9  1 -1</clus>
<clus scale="   90.122">  5  6 -1 -1</clus>
<clus scale="   90.801">  7  8 -1 -1</clus>
<clus scale="   99.015">  1  5  2 -1</clus>
<clus scale="   33.193">  2  5  1 -1</clus>
</clustering>
</event>
<event>
 9    1  0.1315259E-005  0.1173242E+03  0.7546771E-02  0.1248111E+00
         21   -1    0    0  501  502  0.00000000000E+00  0.00000000000E+00  0.12852871780E+03  0.12852871780E+03  0.00000000000E+00 0.  1.
          2   -1    0    0  502    0 -0.00000000000E+00 -0.00000000000E+00 -0.23506818647E+03  0.23506818647E+03  0.00000000000E+00 0. -1.
         23    2    1    2    0    0  0.28835495001E+02  0.61300021298E+02 -0.13055314469E+03  0.17382042579E+03  0.92629576550E+02 0.  0.
         23    2    1    2    0    0 -0.48414379088E+02 -0.66275088283E+02 -0.34937402479E+02  0.12746023942E+03  0.91044775307E+02 0.  0.
        -11    1    3    3    0    0  0.42581064017E+02  0.27851815684E+02 -0.15457004822E+02  0.53176965387E+02  0.00000000000E+00 0.  1.
         11    1    3    3    0    0 -0.13745569017E+02  0.33448205614E+02 -0.11509613987E+03  0.12064346041E+03  0.00000000000E+00 0. -1.
        -11    1    4    4    0    0 -0.11017442075E+02 -0.79431766106E+02 -0.35768847614E+02  0.87807744284E+02  0.00000000000E+00 0.  1.
         11    1    4    4    0    0 -0.37396937012E+02  0.13156677823E+02  0.83144513501E+00  0.39652495133E+02  0.00000000000E+00 0. -1.
          2    1    1    2  501    0  0.19578884087E+02  0.49750669855E+01  0.58951078506E+02  0.62316239060E+02  0.00000000000E+00 0. -1.
<scales pt_clust_5="13000.00000" pt_clust_6="13000.00000" pt_clust_7="13000.00000" pt_clust_8="13000.00000" pt_clust_9="20.20109"></scales>
<clustering>
<clus scale="   20.201">  1  9  2 -1</clus>
<clus scale="   91.045">  7  8 -1 -1</clus>
<clus scale="   92.630">  5  6 -1 -1</clus>
<clus scale="  116.077">  1  7  2 -1</clus>
<clus scale="   20.201">  1  5  2 -1</clus>
</clustering>
</event>
<event>
 9    1  0.1315259E-005  0.1787656E+03  0.7546771E-02  0.1169110E+00
         21   -1    0    0  501  502  0.00000000000E+00  0.00000000000E+00  0.37260743141E+02  0.37260743141E+02  0.00000000000E+00 0.  1.
          1   -1    0    0  502    0 -0.00000000000E+00 -0.00000000000E+00 -0.12106295479E+04  0.12106295479E+04  0.00000000000E+00 0. -1.
         23    2    1    2    0    0 -0.25295453051E+02  0.13898911443E+03 -0.46045467467E+03  0.49012189261E+03  0.90791675401E+02 0.  0.
         23    2    1    2    0    0  0.81532026403E+02 -0.15376467771E+03 -0.49855881585E+03  0.53566691217E+03  0.89928307515E+02 0.  0.
        -11    1    3    3    0    0  0.15065186519E+02  0.12033957604E+03 -0.29907692417E+03  0.32273143631E+03  0.00000000000E+00 0.  1.
         11    1    3    3    0    0 -0.40360639570E+02  0.18649538383E+02 -0.16137775049E+03  0.16739045631E+03  0.00000000000E+00 0. -1.
        -11    1    4    4    0    0  0.93589552917E+02 -0.86423310763E+02 -0.31604647848E+03  0.34075411900E+03  0.00000000000E+00 0.  1.
         11    1    4    4    0    0 -0.12057526514E+02 -0.67341366951E+02 -0.18251233737E+03  0.19491279317E+03  0.00000000000E+00 0. -1.
          1    1    1    2  501    0 -0.56236573351E+02  0.14775563288E+02 -0.21435531427E+03  0.22210148628E+03  0.00000000000E+00 0. -1.
<scales pt_clust_5="13000.00000" pt_clust_6="13000.00000" pt_clust_7="13000.00000" pt_clust_8="13000.00000" pt_clust_9="58.14527"></scales>
<clustering>
<clus scale="   58.145">  1  9  2 -1</clus>
<clus scale="   89.928">  7  8 -1 -1</clus>
<clus scale="   90.792">  5  6 -1 -1</clus>
<clus scale="  178.329">  1  7  2 -1</clus>
<clus scale="   58.145">  1  5  2 -1</clus>
</clustering>
</event>
<event>
 9    1  0.1315259E-005  0.9938175E+02  0.7546771E-02  0.1282742E+00
          2   -1    0    0  502    0 -0.00000000000E+00  0.00000000000E+00  0.23664560938E+03  0.23664560938E+03  0.00000000000E+00 0. -1.
         21   -1    0    0  501  502  0.00000000000E+00 -0.00000000000E+00 -0.61473136705E+02  0.61473136705E+02  0.00000000000E+00 0. -1.
         23    2    1    2    0    0  0.90251735097E+01 -0.43600073839E+02  0.11914640992E+03  0.15699891986E+03  0.92034632854E+02 0.  0.
         23    2    1    2    0    0  0.14809324665E+02  0.28989834718E+02  0.60200544149E+02  0.11285379210E+03  0.89733752077E+02 0.  0.
        -11    1    3    3    0    0  0.34272262938E+02 -0.25866604869E+02  0.11860863197E+03  0.12614149528E+03  0.00000000000E+00 0. -1.
         11    1    3    3    0    0 -0.25247089428E+02 -0.17733468971E+02  0.53777794816E+00  0.30857424576E+02  0.00000000000E+00 0.  1.
        -13    1    4    4    0    0  0.24033993097E+02 -0.20970287055E+02  0.52555256578E+02  0.61477156387E+02  0.00000000000E+00 0.  1.
         13    1    4    4    0    0 -0.92246684320E+01  0.49960121774E+02  0.76452875713E+01  0.51376635715E+02  0.00000000000E+00 0. -1.
          2    1    1    2  501    0 -0.23834498175E+02  0.14610239121E+02 -0.41744813894E+01  0.28266034127E+02  0.00000000000E+00 0. -1.
<scales pt_clust_5="13000.00000" pt_clust_6="13000.00000" pt_clust_7="13000.00000" pt_clust_8="13000.00000" pt_clust_9="27.95608"></scales>
<clustering>
<clus scale="   27.956">  2  9  1 -1</clus>
<clus scale="   89.734">  7  8 -1 -1</clus>
<clus scale="   92.035">  5  6 -1 -1</clus>
<clus scale="   97.255">  2  7  1 -1</clus>
<clus scale="   27.956">  2  5  1 -1</clus>
</clustering>
</event>
<event>
 9    1  0.1315259E-005  0.9742156E+02  0.7546771E-02  0.1286470E+00
         -1   -1    0    0    0  501 -0.00000000000E+00  0.00000000000E+00  0.40998720297E+02  0.40998720297E+02  0.00000000000E+00 0.  1.
         21   -1    0    0  501  502  0.00000000000E+00 -0.00000000000E+00 -0.31847099679E+03  0.31847099679E+03  0.00000000000E+00 0. -1.
         23    2    1    2    0    0 -0.13354590975E+02  0.24964878321E+02 -0.80023791837E+02  0.12495788818E+03  0.91701015860E+02 0.  0.
         23    2    1    2    0    0  0.33191618935E+02 -0.13478257538E+02 -0.17990483240E+03  0.20564610754E+03  0.92958194004E+02 0.  0.
        -11    1    3    3    0    0 -0.97687973352E+01 -0.32655185477E+02 -0.12954754222E+02  0.36463902656E+02  0.00000000000E+00 0.  1.
         11    1    3    3    0    0 -0.35857936396E+01  0.57620063799E+02 -0.67069037614E+02  0.88493985528E+02  0.00000000000E+00 0. -1.
        -13    1    4    4    0    0 -0.31458227985E+02  0.61190236021E+01 -0.55997603497E+02  0.64519719119E+02  0.00000000000E+00 0. -1.
         13    1    4    4    0    0  0.64649846920E+02 -0.19597281141E+02 -0.12390722891E+03  0.14112638842E+03  0.00000000000E+00 0.  1.
         -1    1    1    2    0  502 -0.19837027960E+02 -0.11486620783E+02 -0.17543652259E+02  0.28865721364E+02  0.00000000000E+00 0.  1.
<scales pt_clust_5="13000.00000" pt_clust_6="13000.00000" pt_clust_7="13000.00000" pt_clust_8="13000.00000" pt_clust_9="22.92271"></scales>
<clustering>
<clus scale="   22.923">  2  9  1 -1</clus>
<clus scale="   91.701">  5  6 -1 -1</clus>
<clus scale="   92.958">  7  8 -1 -1</clus>
<clus scale="   96.223">  1  5  2 -1</clus>
<clus scale="   22.923">  2  5  1 -1</clus>
</clustering>
</event>
<event>
 9    1  0.1710291E-005  0.9617315E+02  0.7546771E-02  0.1290058E+00
         -3   -1    0    0    0  501 -0.00000000000E+00  0.00000000000E+00  0.54285350228E+03  0.54285350228E+03  0.00000000000E+00 0.  1.
         21   -1    0    0  501  502  0.00000000000E+00 -0.00000000000E+00 -0.89708127541E+02  0.89708127541E+02  0.00000000000E+00 0.  1.
         23    2    1    2    0    0  0.18459947786E+02  0.90048161226E+01  0.38594414425E+03  0.39672238285E+03  0.89520445638E+02 0.  0.
         23    2    1    2    0    0 -0.28892516982E+02 -0.48894700664E+02  0.12461675837E+03  0.16515272613E+03  0.92307189275E+02 0.  0.
        -11    1    3    3    0    0  0.51501970674E+02 -0.94240500471E+01  0.18591546303E+03  0.19314715918E+03  0.00000000000E+00 0.  1.
         11    1    3    3    0    0 -0.33042022887E+02  0.18428866170E+02  0.20002868121E+03  0.20357522367E+03  0.00000000000E+00 0. -1.
        -11    1    4    4    0    0  0.68976245496E+01 -0.37315135196E+02  0.12163621254E+03  0.12741807070E+03  0.00000000000E+00 0.  1.
         11    1    4    4    0    0 -0.35790141532E+02 -0.11579565468E+02  0.29805458273E+01  0.37734655434E+02  0.00000000000E+00 0. -1.
         -3    1    1    2    0  502  0.10432569196E+02  0.39889884541E+02 -0.57415527872E+02  0.70686520847E+02  0.00000000000E+00 0.  1.
<scales pt_clust_5="13000.00000" pt_clust_6="13000.00000" pt_clust_7="13000.00000" pt_clust_8="13000.00000" pt_clust_9="41.23156"></scales>
<clustering>
<clus scale="   41.232">  2  9  1 -1</clus>
<clus scale="   89.520">  5  6 -1 -1</clus>
<clus scale="   92.307">  7  8 -1 -1</clus>
<clus scale="   93.502">  1  5  2 -1</clus>
<clus scale="   41.232">  2  5  1 -1</clus>
</clustering>
</event>
<event>
 9    1  0.1315259E-005  0.2567365E+03  0.7546771E-02  0.1109175E+00
         21   -1    0    0  501  502  0.00000000000E+00  0.00000000000E+00  0.12051959754E+03  0.12051959754E+03  0.00000000000E+00 0.  1.
          2   -1    0    0  502    0 -0.00000000000E+00 -0.00000000000E+00 -0.13991373390E+04  0.13991373390E+04  0.00000000000E+00 0.  1.
         23    2    1    2    0    0  0.20029490135E+03  0.10433073833E+03 -0.95427697921E+03  0.98493493975E+03  0.91920248240E+02 0.  0.
         23    2    1    2    0    0 -0.24295585150E+03 -0.17150967171E+03 -0.33185058279E+03  0.45478850466E+03  0.90910183148E+02 0.  0.
        -13    1    3    3    0    0  0.13006376134E+03  0.88487841247E+02 -0.79097738349E+03  0.80646878505E+03  0.00000000000E+00 0.  1.
         13    1    3    3    0    0  0.70231140004E+02  0.15842897080E+02 -0.16329959572E+03  0.17846615471E+03  0.00000000000E+00 0. -1.
        -13    1    4    4    0    0 -0.10701458186E+03 -0.36016931920E+02 -0.81133036540E+02  0.13903923811E+03  0.00000000000E+00 0. -1.
         13    1    4    4    0    0 -0.13594126964E+03 -0.13549273979E+03 -0.25071754625E+03  0.31574926655E+03  0.00000000000E+00 0.  1.
          2    1    1    2  501    0  0.42660950155E+02  0.67178933380E+02  0.75098205487E+01  0.79933492122E+02  0.00000000000E+00 0.  1.
<scales pt_clust_5="13000.00000" pt_clust_6="13000.00000" pt_clust_7="13000.00000" pt_clust_8="13000.00000" pt_clust_9="79.57993"></scales>
<clustering>
<clus scale="   79.580">  1  9  2 -1</clus>
<clus scale="   90.910">  7  8 -1 -1</clus>
<clus scale="   91.920">  5  6 -1 -1</clus>
<clus scale="  256.377">  1  7  2 -1</clus>
<clus scale="   79.580">  1  5  2 -1</clus>
</clustering>
</event>
<event>
 9    1  0.1315259E-005  0.9348910E+02  0.7546771E-02  0.1294797E+00
         21   -1    0    0  501  502  0.00000000000E+00  0.00000000000E+00  0.33547890666E+03  0.33547890666E+03  0.00000000000E+00 0. -1.
          3   -1    0    0  502    0 -0.00000000000E+00 -0.00000000000E+00 -0.57125024021E+02  0.57125024021E+02  0.00000000000E+00 0. -1.
         23    2    1    2    0    0 -0.88817749688E+01 -0.10128397492E+02  0.32540627446E+02  0.98316634285E+02  0.91792144436E+02 0.  0.
         23    2    1    2    0    0 -0.20010634109E+02  0.25007820081E+02  0.82393213703E+02  0.12766713411E+03  0.92111014139E+02 0.  0.
        -11    1    3    3    0    0 -0.45102149114E+02  0.10559972889E+02  0.15428971914E+01  0.46347571823E+02  0.00000000000E+00 0.  1.
         11    1    3    3    0    0  0.36220374145E+02 -0.20688370381E+02  0.30997730255E+02  0.51969062462E+02  0.00000000000E+00 0. -1.
        -11    1    4    4    0    0  0.17162083356E+02  0.33075629506E+02  0.81504356041E+02  0.89618605356E+02  0.00000000000E+00 0.  1.
         11    1    4    4    0    0 -0.37172717465E+02 -0.80678094244E+01  0.88885766188E+00  0.38048528757E+02  0.00000000000E+00 0. -1.
          3    1    1    2  501    0  0.28892409078E+02 -0.14879422589E+02  0.16342004149E+03  0.16662016229E+03  0.00000000000E+00 0. -1.
<scales pt_clust_5="13000.00000" pt_clust_6="13000.00000" pt_clust_7="13000.00000" pt_clust_8="13000.00000" pt_clust_9="32.49875"></scales>
<clustering>
<clus scale="   32.499">  1  9  2 -1</clus>
<clus scale="   91.792">  5  6 -1 -1</clus>
<clus scale="   92.111">  7  8 -1 -1</clus>
<clus scale="   93.175">  2  5  1 -1</clus>
<clus scale="   32.499">  1  5  2 -1</clus>
</clustering>
</event>
<event>
 9    1  0.1315259E-005  0.1355853E+03  0.7546771E-02  0.1219599E+00
         21   -1    0    0  501  502  0.00000000000E+00  0.00000000000E+00  0.18540455556E+03  0.18540455556E+03  0.00000000000E+00 0.  1.
          1   -1    0    0  502    0 -0.00000000000E+00 -0.00000000000E+00 -0.11953382066E+03  0.11953382066E+03  0.00000000000E+00 0. -1.
         23    2    1    2    0    0  0.85408792370E+02 -0.56742667404E+02  0.62271836992E+01  0.13743162528E+03  0.91292287147E+02 0.  0.
         23    2    1    2    0    0 -0.90010182620E+02  0.35487433558E+02  0.43820687363E+02  0.14061212735E+03  0.92142969354E+02 0.  0.
        -11    1    4    4    0    0 -0.76607800594E+02 -0.14057663194E+02  0.85919776238E+01  0.78359396920E+02  0.00000000000E+00 0.  1.
         11    1    4    4    0    0 -0.13402382026E+02  0.49545096752E+02  0.35228709740E+02  0.62252730430E+02  0.00000000000E+00 0. -1.
        -11    1    3    3    0    0  0.46600492467E+02 -0.63416792210E+02  0.37472329317E+02  0.87163472262E+02  0.00000000000E+00 0.  1.
         11    1    3    3    0    0  0.38808299903E+02  0.66741248058E+01 -0.31245145618E+02  0.50268153019E+02  0.00000000000E+00 0. -1.
          1    1    1    2  501    0  0.46013902500E+01  0.21255233846E+02  0.15822863838E+02  0.26894623591E+02  0.00000000000E+00 0. -1.
<scales pt_clust_5="13000.00000" pt_clust_6="13000.00000" pt_clust_7="13000.00000" pt_clust_8="13000.00000" pt_clust_9="21.74759"></scales>
<clustering>
<clus scale="   21.748">  1  9  2 -1</clus>
<clus scale="   91.292">  7  8 -1 -1</clus>
<clus scale="   92.143">  5  6 -1 -1</clus>
<clus scale="  135.009">  2  7  1 -1</clus>
<clus scale="   21.748">  1  5  2 -1</clus>
</clustering>
</event>
<event>
 9    1  0.1315259E-005  0.1254423E+03  0.7546771E-02  0.1235904E+00
          3   -1    0    0  502    0 -0.00000000000E+00  0.00000000000E+00  0.23318135802E+03  0.23318135802E+03  0.00000000000E+00 0. -1.
         21   -1    0    0  501  502  0.00000000000E+00 -0.00000000000E+00 -0.10739182258E+03  0.10739182258E+03  0.00000000000E+00 0. -1.
         23    2    1    2    0    0  0.20830205074E+02 -0.71413922433E+02  0.12458072426E+03  0.17124362083E+03  0.90940502845E+02 0.  0.
         23    2    1    2    0    0 -0.36678736513E+02  0.89665510263E+02  0.21090821189E+02  0.13803114561E+03  0.96034061546E+02 0.  0.
        -13    1    3    3    0    0  0.38371636912E+02 -0.29796662065E+01  0.15950034907E+02  0.41661307511E+02  0.00000000000E+00 0.  1.
         13    1    3    3    0    0 -0.17541431838E+02 -0.68434256227E+02  0.10863068935E+03  0.12958231332E+03  0.00000000000E+00 0. -1.
        -13    1    4    4    0    0 -0.32313180052E+02  0.17780558534E+02 -0.31783832599E+02  0.48687800130E+02  0.00000000000E+00 0.  1.
         13    1    4    4    0    0 -0.43655564609E+01  0.71884951729E+02  0.52874653788E+02  0.89343345479E+02  0.00000000000E+00 0. -1.
          3    1    1    2  501    0  0.15848531439E+02 -0.18251587829E+02 -0.19882010010E+02  0.31298414163E+02  0.00000000000E+00 0. -1.
<scales pt_clust_5="13000.00000" pt_clust_6="13000.00000" pt_clust_7="13000.00000" pt_clust_8="13000.00000" pt_clust_9="24.17222"></scales>
<clustering>
<clus scale="   24.172">  2  9  1 -1</clus>
<clus scale="   90.941">  5  6 -1 -1</clus>
<clus scale="   96.034">  7  8 -1 -1</clus>
<clus scale="  121.587">  1  5  2 -1</clus>
<clus scale="   24.172">  2  5  1 -1</clus>
</clustering>
</event>
<event>
 9    1  0.1315259E-005  0.1664038E+03  0.7546771E-02  0.1181708E+00
          2   -1    0    0  502    0 -0.00000000000E+00  0.00000000000E+00  0.14365647857E+03  0.14365647857E+03  0.00000000000E+00 0. -1.
         21   -1    0    0  501  502  0.00000000000E+00 -0.00000000000E+00 -0.31403131575E+03  0.31403131575E+03  0.00000000000E+00 0.  1.
         23    2    1    2    0    0  0.11580468187E+03 -0.73246792342E+02  0.11850039678E+02  0.16523973781E+03  0.91585646141E+02 0.  0.
         23    2    1    2    0    0 -0.13422603648E+03  0.52198096785E+02 -0.83460519848E+02  0.18979917874E+03  0.91196489520E+02 0.  0.
        -13    1    3    3    0    0  0.20559340045E+02 -0.37821357657E+02 -0.32921836424E+02  0.54193992948E+02  0.00000000000E+00 0.  1.
         13    1    3    3    0    0  0.95245341821E+02 -0.35425434685E+02  0.44771876102E+02  0.11104574486E+03  0.00000000000E+00 0. -1.
        -13    1    4    4    0    0 -0.52220546786E+02 -0.24552627757E+02 -0.21935415294E+02  0.61733131142E+02  0.00000000000E+00 0. -1.
         13    1    4    4    0    0 -0.82005489697E+02  0.76750724542E+02 -0.61525104554E+02  0.12806604760E+03  0.00000000000E+00 0.  1.
          2    1    1    2  501    0  0.18421354617E+02  0.21048695557E+02 -0.98764357013E+02  0.10264887777E+03  0.00000000000E+00 0. -1.
<scales pt_clust_5="13000.00000" pt_clust_6="13000.00000" pt_clust_7="13000.00000" pt_clust_8="13000.00000" pt_clust_9="27.97130"></scales>
<clustering>
<clus scale="   27.971">  2  9  1 -1</clus>
<clus scale="   91.196">  7  8 -1 -1</clus>
<clus scale="   91.586">  5  6 -1 -1</clus>
<clus scale="  166.190">  2  7  1 -1</clus>
<clus scale="   27.971">  2  5  1 -1</clus>
</clustering>
</event>
<event>
 9    1  0.1315259E-005  0.1833530E+03  0.7546771E-02  0.1169262E+00
         21   -1    0    0  501  502  0.00000000000E+00  0.00000000000E+00  0.50307303526E+03  0.50307303526E+03  0.00000000000E+00 0. -1.
          1   -1    0    0  502    0 -0.00000000000E+00 -0.00000000000E+00 -0.25202716398E+03  0.25202716398E+03  0.00000000000E+00 0. -1.
         23    2    1    2    0    0 -0.11608750010E+03  0.61396235516E+02 -0.14515426431E+03  0.23114754299E+03  0.12293746691E+03 0.  0.
         23    2    1    2    0    0  0.82767153865E+02 -0.16956533368E+03  0.16777366142E+03  0.26902236506E+03  0.92855949128E+02 0.  0.
        -11    1    4    4    0    0  0.17818301852E+02 -0.31247786164E+02 -0.72339429018E+01  0.36691224441E+02  0.00000000000E+00 0.  1.
         11    1    4    4    0    0  0.64948852013E+02 -0.13831754752E+03  0.17500760432E+03  0.23233114062E+03  0.00000000000E+00 0. -1.
        -13    1    3    3    0    0 -0.37860109522E+02 -0.28912510087E+02 -0.64387761795E+01  0.48070562419E+02  0.00000000000E+00 0.  1.
         13    1    3    3    0    0 -0.78227390575E+02  0.90308745604E+02 -0.13871548813E+03  0.18307698057E+03  0.00000000000E+00 0. -1.
          1    1    1    2  501    0  0.33320346231E+02  0.10816909817E+03  0.22842647417E+03  0.25493029120E+03  0.00000000000E+00 0. -1.
<scales pt_clust_5="13000.00000" pt_clust_6="13000.00000" pt_clust_7="13000.00000" pt_clust_8="13000.00000" pt_clust_9="113.18480"></scales>
<clustering>
<clus scale="   92.856">  5  6 -1 -1</clus>
<clus scale="  113.185">  1  9  2 -1</clus>
<clus scale="  122.937">  7  8 -1 -1</clus>
<clus scale="  164.703">  1  5  2 -1</clus>
<clus scale="  113.185">  1  5  2 -1</clus>
</clustering>
</event>
<event>
 9    1  0.1315259E-005  0.1795468E+03  0.7546771E-02  0.1198582E+00
         21   -1    0    0  501  502  0.00000000000E+00  0.00000000000E+00  0.49938168584E+03  0.49938168584E+03  0.00000000000E+00 0. -1.
         -1   -1    0    0    0  501 -0.00000000000E+00 -0.00000000000E+00 -0.13667401713E+03  0.13667401713E+03  0.00000000000E+00 0.  1.
         23    2    1    2    0    0 -0.11244856526E+02 -0.79941788611E+01 -0.45370618424E+02  0.10180438342E+03  0.90084880941E+02 0.  0.
         23    2    1    2    0    0 -0.80497980609E+02  0.13187671679E+03  0.15264133621E+03  0.23590308800E+03  0.92084179397E+02 0.  0.
        -11    1    3    3    0    0 -0.34085590158E+02  0.30337661649E+02 -0.15865398398E+02  0.48310578936E+02  0.00000000000E+00 0. -1.
         11    1    3    3    0    0  0.22840733632E+02 -0.38331840511E+02 -0.29505220026E+02  0.53493804488E+02  0.00000000000E+00 0.  1.
        -13    1    4    4    0    0 -0.25525208814E+02 -0.84698806783E+01  0.37890353921E+02  0.46464546527E+02  0.00000000000E+00 0.  1.
         13    1    4    4    0    0 -0.54972771794E+02  0.14034659747E+03  0.11475098229E+03  0.18943854147E+03  0.00000000000E+00 0. -1.
         -1    1    1    2    0  502  0.91742837134E+02 -0.12388253793E+03  0.25543695093E+03  0.29834823155E+03  0.00000000000E+00 0.  1.
<scales pt_clust_5="13000.00000" pt_clust_6="13000.00000" pt_clust_7="13000.00000" pt_clust_8="13000.00000" pt_clust_9="154.13487"></scales>
<clustering>
<clus scale="   90.085">  5  6 -1 -1</clus>
<clus scale="   91.135">  2  5  1 -1</clus>
<clus scale="   92.084">  7  8 -1 -1</clus>
<clus scale="  154.135">  1  9  2 -1</clus>
<clus scale="  154.135">  1  5  2 -1</clus>
</clustering>
</event>
<event>
 9    1  0.1315259E-005  0.2143230E+03  0.7546771E-02  0.1156725E+00
          1   -1    0    0  502    0 -0.00000000000E+00  0.00000000000E+00  0.71944572450E+03  0.71944572450E+03  0.00000000000E+00 0. -1.
         21   -1    0    0  501  502  0.00000000000E+00 -0.00000000000E+00 -0.21250806201E+03  0.21250806201E+03  0.00000000000E+00 0. -1.
         23    2    1    2    0    0 -0.10448660938E+03  0.13401058713E+01 -0.94510752247E+02  0.16714549107E+03  0.89922663826E+02 0.  0.
         23    2    1    2    0    0  0.43230006093E+02 -0.19229034376E+03  0.48908048513E+03  0.53493677394E+03  0.90073422532E+02 0.  0.
        -11    1    3    3    0    0 -0.15963325448E+02  0.33202993854E+02 -0.52432495225E+02  0.64081456879E+02  0.00000000000E+00 0.  1.
         11    1    3    3    0    0 -0.88523283932E+02 -0.31862887983E+02 -0.42078257022E+02  0.10306403419E+03  0.00000000000E+00 0. -1.
        -13    1    4    4    0    0  0.12058104194E+02 -0.15292729797E+03  0.27347038509E+03  0.31355734382E+03  0.00000000000E+00 0.  1.
         13    1    4    4    0    0  0.31171901899E+02 -0.39363045796E+02  0.21561010004E+03  0.22137943012E+03  0.00000000000E+00 0. -1.
          1    1    1    2  501    0  0.61256603287E+02  0.19095023789E+03  0.11236792960E+03  0.22987152151E+03  0.00000000000E+00 0. -1.
<scales pt_clust_5="13000.00000" pt_clust_6="13000.00000" pt_clust_7="13000.00000" pt_clust_8="13000.00000" pt_clust_9="194.47659"></scales>
<clustering>
<clus scale="   89.923">  5  6 -1 -1</clus>
<clus scale="   90.073">  7  8 -1 -1</clus>
<clus scale="  137.860">  1  5  2 -1</clus>
<clus scale="  194.477">  2  9  1 -1</clus>
<clus scale="  194.477">  2  5  1 -1</clus>
</clustering>
</event>
<event>
 9    1  0.1315259E-005  0.1278741E+03  0.7546771E-02  0.1233463E+00
         21   -1    0    0  501  502  0.00000000000E+00  0.00000000000E+00  0.22390081573E+03  0.22390081573E+03  0.00000000000E+00 0.  1.
         -1   -1    0    0    0  501 -0.00000000000E+00 -0.00000000000E+00 -0.10604221313E+03  0.10604221313E+03  0.00000000000E+00 0.  1.
         23    2    1    2    0    0  0.91241171898E+02 -0.23023699100E+02  0.80217603915E+01  0.13451308542E+03  0.95782980436E+02 0.  0.
         23    2    1    2    0    0 -0.75693968115E+02 -0.13431220815E+02  0.54926229464E+02  0.12771102345E+03  0.85925783831E+02 0.  0.
        -11    1    3    3    0    0 -0.75912580074E+01 -0.31736096481E+02  0.13111293317E+02  0.35166930922E+02  0.00000000000E+00 0. -1.
         11    1    3    3    0    0  0.98832429905E+02  0.87123973816E+01 -0.50895329258E+01  0.99346154503E+02  0.00000000000E+00 0.  1.
        -13    1    4    4    0    0 -0.74406313635E+02 -0.41667605770E+02  0.31199351491E+02  0.90806874260E+02  0.00000000000E+00 0.  1.
         13    1    4    4    0    0 -0.12876544798E+01  0.28236384955E+02  0.23726877973E+02  0.36904149194E+02  0.00000000000E+00 0. -1.
         -1    1    1    2    0  502 -0.15547203783E+02  0.36454919915E+02  0.54910612744E+02  0.67718919981E+02  0.00000000000E+00 0.  1.
<scales pt_clust_5="13000.00000" pt_clust_6="13000.00000" pt_clust_7="13000.00000" pt_clust_8="13000.00000" pt_clust_9="39.63176"></scales>
<clustering>
<clus scale="   39.632">  1  9  2 -1</clus>
<clus scale="   85.926">  7  8 -1 -1</clus>
<clus scale="   95.783">  5  6 -1 -1</clus>
<clus scale="  120.668">  1  7  2 -1</clus>
<clus scale="   39.632">  1  5  2 -1</clus>
</clustering>
</event>
<event>
 9    1  0.1315259E-005  0.1258557E+03  0.7546771E-02  0.1238939E+00
         21   -1    0    0  501  502  0.00000000000E+00  0.00000000000E+00  0.72683867451E+02  0.72683867451E+02  0.00000000000E+00 0. -1.
          3   -1    0    0  502    0 -0.00000000000E+00 -0.00000000000E+00 -0.47894740409E+03  0.47894740409E+03  0.00000000000E+00 0. -1.
         23    2    1    2    0    0 -0.81689820431E+02 -0.25065432767E+02 -0.37058135556E+03  0.39121960629E+03  0.91764571451E+02 0.  0.
         23    2    1    2    0    0  0.75229809479E+02  0.53791234841E+02 -0.49325480892E+02  0.12796104006E+03  0.73403021246E+02 0.  0.
        -13    1    3    3    0    0 -0.38069620202E+02  0.33649517806E+02 -0.18169144836E+03  0.18866204822E+03  0.00000000000E+00 0. -1.
         13    1    3    3    0    0 -0.43620200229E+02 -0.58714950574E+02 -0.18888990719E+03  0.20255755806E+03  0.00000000000E+00 0.  1.
        -13    1    4    4    0    0  0.79367765959E+02  0.17176901989E+02 -0.35003576061E+02  0.88428154862E+02  0.00000000000E+00 0.  1.
         13    1    4    4    0    0 -0.41379564805E+01  0.36614332853E+02 -0.14321904831E+02  0.39532885198E+02  0.00000000000E+00 0. -1.
          3    1    1    2  501    0  0.64600109528E+01 -0.28725802074E+02  0.13643299806E+02  0.32450625200E+02  0.00000000000E+00 0. -1.
<scales pt_clust_5="13000.00000" pt_clust_6="13000.00000" pt_clust_7="13000.00000" pt_clust_8="13000.00000" pt_clust_9="29.44322"></scales>
<clustering>
<clus scale="   29.443">  1  9  2 -1</clus>
<clus scale="   73.403">  7  8 -1 -1</clus>
<clus scale="   91.765">  5  6 -1 -1</clus>
<clus scale="  113.168">  1  7  2 -1</clus>
<clus scale="   29.443">  1  5  2 -1</clus>
</clustering>
</event>
<event>
 9    1  0.1315259E-005  0.1306727E+03  0.7546771E-02  0.1230111E+00
          3   -1    0    0  502    0 -0.00000000000E+00  0.00000000000E+00  0.58092463344E+02  0.58092463344E+02  0.00000000000E+00 0. -1.
         21   -1    0    0  501  502  0.00000000000E+00 -0.00000000000E+00 -0.49163650264E+03  0.49163650264E+03  0.00000000000E+00 0.  1.
         23    2    1    2    0    0  0.55670484708E+02 -0.32599354074E+02 -0.12455462873E+03  0.17362099471E+03  0.10231555850E+03 0.  0.
         23    2    1    2    0    0 -0.11259693701E+03  0.28150422243E+02 -0.26886496496E+03  0.30631982686E+03  0.89849599038E+02 0.  0.
        -11    1    3    3    0    0  0.45740735237E+02 -0.13637538348E+02 -0.13954970875E+03  0.14748667236E+03  0.00000000000E+00 0.  1.
         11    1    3    3    0    0  0.99297494702E+01 -0.18961815725E+02  0.14995080012E+02  0.26134322350E+02  0.00000000000E+00 0. -1.
        -13    1    4    4    0    0 -0.55964222081E+02  0.54423942136E+02 -0.19221668420E+03  0.20746376386E+03  0.00000000000E+00 0.  1.
         13    1    4    4    0    0 -0.56632714929E+02 -0.26273519893E+02 -0.76648280758E+02  0.98856062995E+02  0.00000000000E+00 0. -1.
          3    1    1    2  501    0  0.56926452302E+02  0.44489318302E+01 -0.40124445603E+02  0.69788144417E+02  0.00000000000E+00 0. -1.
<scales pt_clust_5="13000.00000" pt_clust_6="13000.00000" pt_clust_7="13000.00000" pt_clust_8="13000.00000" pt_clust_9="57.10006"></scales>
<clustering>
<clus scale="   57.100">  2  9  1 -1</clus>
<clus scale="   89.850">  7  8 -1 -1</clus>
<clus scale="  102.316">  5  6 -1 -1</clus>
<clus scale="  121.160">  2  7  1 -1</clus>
<clus scale="   57.100">  2  5  1 -1</clus>
</clustering>
</event>
<event>
 9    1  0.1315259E-005  0.1736980E+03  0.7546771E-02  0.1185859E+00
         -1   -1    0    0    0  501 -0.00000000000E+00  0.00000000000E+00  0.26437592749E+03  0.26437592749E+03  0.00000000000E+00 0.  1.
         21   -1    0    0  501  502  0.00000000000E+00 -0.00000000000E+00 -0.46568319008E+03  0.46568319008E+03  0.00000000000E+00 0.  1.
         23    2    1    2    0    0 -0.59234980148E+02  0.76207216071E+02 -0.71467742363E+02  0.15114864616E+03  0.91771195833E+02 0.  0.
         23    2    1    2    0    0  0.11388704663E+03  0.65813802115E+02  0.17583495690E+03  0.23745226908E+03  0.90354480141E+02 0.  0.
        -11    1    4    4    0    0  0.51542245629E+02  0.77880306197E+02  0.12541689790E+03  0.15636925355E+03  0.00000000000E+00 0.  1.
         11    1    4    4    0    0  0.62344801003E+02 -0.12066504082E+02  0.50418058999E+02  0.81083015522E+02  0.00000000000E+00 0. -1.
        -13    1    3    3    0    0  0.21572865086E+02  0.11157801923E+02  0.14775336819E+01  0.24332450710E+02  0.00000000000E+00 0.  1.
         13    1    3    3    0    0 -0.80807845234E+02  0.65049414148E+02 -0.72945276045E+02  0.12681619546E+03  0.00000000000E+00 0. -1.
         -1    1    1    2    0  502 -0.54652066483E+02 -0.14202101819E+03 -0.30567447713E+03  0.34145820234E+03  0.00000000000E+00 0.  1.
<scales pt_clust_5="13000.00000" pt_clust_6="13000.00000" pt_clust_7="13000.00000" pt_clust_8="13000.00000" pt_clust_9="148.34775"></scales>
<clustering>
<clus scale="   90.354">  5  6 -1 -1</clus>
<clus scale="   91.771">  7  8 -1 -1</clus>
<clus scale="  133.185">  1  7  2 -1</clus>
<clus scale="  148.348">  2  9  1 -1</clus>
<clus scale="  148.348">  2  5  1 -1</clus>
</clustering>
</event>
<event>
 9    1  0.1315259E-005  0.1531474E+03  0.7546771E-02  0.1197185E+00
         -4   -1    0    0    0  501 -0.00000000000E+00  0.00000000000E+00  0.32984284028E+03  0.32984284028E+03  0.00000000000E+00 0.  1.
         21   -1    0    0  501  502  0.00000000000E+00 -0.00000000000E+00 -0.14517767727E+03  0.14517767727E+03  0.00000000000E+00 0. -1.
         23    2    1    2    0    0  0.25953758596E+02  0.11540723683E+03  0.21360540539E+03  0.26172295373E+03  0.94229546319E+02 0.  0.
         23    2    1    2    0    0 -0.45768433451E+02 -0.12024982865E+03  0.21152483101E+02  0.15921102964E+03  0.91356190965E+02 0.  0.
        -13    1    3    3    0    0 -0.75608021930E+01  0.10275641630E+03  0.19683012256E+03  0.22216692816E+03  0.00000000000E+00 0.  1.
         13    1    3    3    0    0  0.33514560789E+02  0.12650820526E+02  0.16775282831E+02  0.39556025570E+02  0.00000000000E+00 0. -1.
        -13    1    4    4    0    0  0.76713805056E+01 -0.83922551346E+02 -0.14345254712E+02  0.85484683049E+02  0.00000000000E+00 0. -1.
         13    1    4    4    0    0 -0.53439813957E+02 -0.36327277302E+02  0.35497737814E+02  0.73726346592E+02  0.00000000000E+00 0.  1.
         -4    1    1    2    0  502  0.19814674855E+02  0.48425918221E+01 -0.50092725473E+02  0.54086534188E+02  0.00000000000E+00 0.  1.
<scales pt_clust_5="13000.00000" pt_clust_6="13000.00000" pt_clust_7="13000.00000" pt_clust_8="13000.00000" pt_clust_9="20.39784"></scales>
<clustering>
<clus scale="   20.398">  2  9  1 -1</clus>
<clus scale="   91.356">  7  8 -1 -1</clus>
<clus scale="   94.230">  5  6 -1 -1</clus>
<clus scale="  151.396">  2  7  1 -1</clus>
<clus scale="   20.398">  2  5  1 -1</clus>
</clustering>
</event>
<event>
 9    1  0.1315259E-005  0.1172571E+03  0.7546771E-02  0.1247852E+00
         21   -1    0    0  501  502  0.00000000000E+00  0.00000000000E+00  0.11043759752E+03  0.11043759752E+03  0.00000000000E+00 0. -1.
          2   -1    0    0  502    0 -0.00000000000E+00 -0.00000000000E+00 -0.47043081456E+03  0.47043081456E+03  0.00000000000E+00 0. -1.
         23    2    1    2    0    0 -0.16631479932E+02  0.60864687878E+02 -0.16492642409E+03  0.19850350932E+03  0.90674150084E+02 0.  0.
         23    2    1    2    0    0  0.95038553911E+02 -0.36934780381E+02 -0.24910277899E+03  0.28418039527E+03  0.91158092484E+02 0.  0.
        -11    1    3    3    0    0 -0.32385768446E+02 -0.60887461267E+01 -0.21246971845E+02  0.39208986723E+02  0.00000000000E+00 0.  1.
         11    1    3    3    0    0  0.15754288514E+02  0.66953434005E+02 -0.14367945225E+03  0.15929452260E+03  0.00000000000E+00 0. -1.
        -13    1    4    4    0    0  0.49806013200E+02 -0.54744704594E+01 -0.21179223823E+03  0.21763860170E+03  0.00000000000E+00 0. -1.
         13    1    4    4    0    0  0.45232540711E+02 -0.31460309921E+02 -0.37310540763E+02  0.66541793570E+02  0.00000000000E+00 0.  1.
          2    1    1    2  501    0 -0.78407073979E+02 -0.23929907497E+02  0.54035986047E+02  0.98184507488E+02  0.00000000000E+00 0. -1.
<scales pt_clust_5="13000.00000" pt_clust_6="13000.00000" pt_clust_7="13000.00000" pt_clust_8="13000.00000" pt_clust_9="81.97750"></scales>
<clustering>
<clus scale="   81.977">  1  9  2 -1</clus>
<clus scale="   90.674">  5  6 -1 -1</clus>
<clus scale="   91.158">  7  8 -1 -1</clus>
<clus scale="  116.881">  2  5  1 -1</clus>
<clus scale="   81.977">  1  5  2 -1</clus>
</clustering>
</event>
<event>
 9    1  0.1315259E-005  0.1229839E+03  0.7546771E-02  0.1240704E+00
         -1   -1    0    0    0  501 -0.00000000000E+00  0.00000000000E+00  0.10723843410E+04  0.10723843410E+04  0.00000000000E+00 0.  1.
         21   -1    0    0  501  502  0.00000000000E+00 -0.00000000000E+00 -0.22379407299E+02  0.22379407299E+02  0.00000000000E+00 0. -1.
         23    2    1    2    0    0  0.86610312851E+02  0.12587548634E+02  0.59293028820E+03  0.60585614635E+03  0.88518646282E+02 0.  0.
         23    2    1    2    0    0 -0.57884247056E+02  0.34001226018E+02  0.28116837388E+03  0.30468296414E+03  0.96277644013E+02 0.  0.
        -11    1    4    4    0    0  0.18531089283E+02  0.26794168299E+02  0.14263007736E+03  0.14630334136E+03  0.00000000000E+00 0.  1.
         11    1    4    4    0    0 -0.76415336340E+02  0.72070577189E+01  0.13853829653E+03  0.15837962278E+03  0.00000000000E+00 0. -1.
        -13    1    3    3    0    0  0.96030087522E+02 -0.12231317854E+02  0.49586912717E+03  0.50523021894E+03  0.00000000000E+00 0.  1.
         13    1    3    3    0    0 -0.94197746708E+01  0.24818866488E+02  0.97061161027E+02  0.10062592742E+03  0.00000000000E+00 0. -1.
         -1    1    1    2    0  502 -0.28726065795E+02 -0.46588774652E+02  0.17590627162E+03  0.18422463781E+03  0.00000000000E+00 0.  1.
<scales pt_clust_5="13000.00000" pt_clust_6="13000.00000" pt_clust_7="13000.00000" pt_clust_8="13000.00000" pt_clust_9="54.73300"></scales>
<clustering>
<clus scale="   54.733">  2  9  1 -1</clus>
<clus scale="   88.519">  7  8 -1 -1</clus>
<clus scale="   96.278">  5  6 -1 -1</clus>
<clus scale="  117.009">  1  7  2 -1</clus>
<clus scale="   54.733">  2  5  1 -1</clus>
</clustering>
</event>
<event>
 9    1  0.1315259E-005  0.9985844E+02  0.7546771E-02  0.1281307E+00
          1   -1    0    0  502    0 -0.00000000000E+00  0.00000000000E+00  0.83974992040E+03  0.83974992040E+03  0.00000000000E+00 0. -1.
         21   -1    0    0  501  502  0.00000000000E+00 -0.00000000000E+00 -0.18470095920E+02  0.18470095920E+02  0.00000000000E+00 0.  1.
         23    2    1    2    0    0  0.27395939808E+02 -0.16951861734E+02  0.47902676118E+03  0.48851889479E+03  0.90256132808E+02 0.  0.
         23    2    1    2    0    0 -0.56648364352E+02  0.15188374016E+02  0.24433914184E+03  0.26749568994E+03  0.91720248641E+02 0.  0.
        -11    1    3    3    0    0 -0.26997751475E+02 -0.27912446583E+02  0.15596210123E+03  0.16072386344E+03  0.00000000000E+00 0.  1.
         11    1    3    3    0    0  0.54393691283E+02  0.10960584848E+02  0.32306465995E+03  0.32779503135E+03  0.00000000000E+00 0. -1.
        -13    1    4    4    0    0 -0.47684527208E+02 -0.33695954160E+02  0.11591593929E+03  0.12979112621E+03  0.00000000000E+00 0.  1.
         13    1    4    4    0    0 -0.89638371439E+01  0.48884328176E+02  0.12842320255E+03  0.13770456373E+03  0.00000000000E+00 0. -1.
          1    1    1    2  501    0  0.29252424543E+02  0.17634877183E+01  0.97913921461E+02  0.10220543159E+03  0.00000000000E+00 0. -1.
<scales pt_clust_5="13000.00000" pt_clust_6="13000.00000" pt_clust_7="13000.00000" pt_clust_8="13000.00000" pt_clust_9="29.30555"></scales>
<clustering>
<clus scale="   29.306">  2  9  1 -1</clus>
<clus scale="   90.256">  5  6 -1 -1</clus>
<clus scale="   91.720">  7  8 -1 -1</clus>
<clus scale="   98.515">  1  5  2 -1</clus>
<clus scale="   29.306">  2  5  1 -1</clus>
</clustering>
</event>
<event>
 9    1  0.1315259E-005  0.2839783E+03  0.7546771E-02  0.1093808E+00
          2   -1    0    0  502    0 -0.00000000000E+00  0.00000000000E+00  0.22359023538E+04  0.22359023538E+04  0.00000000000E+00 0. -1.
         21   -1    0    0  501  502  0.00000000000E+00 -0.00000000000E+00 -0.11445674731E+03  0.11445674731E+03  0.00000000000E+00 0. -1.
         23    2    1    2    0    0  0.16122905972E+03 -0.20165752188E+03  0.10722076116E+04  0.11068402657E+04  0.93838400527E+02 0.  0.
         23    2    1    2    0    0 -0.22711756759E+03  0.17006287994E+03  0.11096612212E+04  0.11487006771E+04  0.87529692265E+02 0.  0.
        -11    1    3    3    0    0 -0.90905807229E+01 -0.25622243292E+02  0.16127951735E+03  0.16355494712E+03  0.00000000000E+00 0.  1.
         11    1    3    3    0    0  0.17031964044E+03 -0.17603527858E+03  0.91092809428E+03  0.94328531854E+03  0.00000000000E+00 0. -1.
        -13    1    4    4    0    0 -0.12126815592E+03  0.88435024619E+02  0.41526131725E+03  0.44155257990E+03  0.00000000000E+00 0.  1.
         13    1    4    4    0    0 -0.10584941168E+03  0.81627855322E+02  0.69439990400E+03  0.70714809721E+03  0.00000000000E+00 0. -1.
          2    1    1    2  501    0  0.65888507874E+02  0.31594641934E+02 -0.60423226373E+02  0.94818158357E+02  0.00000000000E+00 0. -1.
<scales pt_clust_5="13000.00000" pt_clust_6="13000.00000" pt_clust_7="13000.00000" pt_clust_8="13000.00000" pt_clust_9="73.07200"></scales>
<clustering>
<clus scale="   73.072">  2  9  1 -1</clus>
<clus scale="   87.530">  7  8 -1 -1</clus>
<clus scale="   93.838">  5  6 -1 -1</clus>
<clus scale="  281.957">  2  7  1 -1</clus>
<clus scale="   73.072">  2  5  1 -1</clus>
</clustering>
</event>
<event>
 9    1  0.1315259E-005  0.1073658E+03  0.7546771E-02  0.1265849E+00
          1   -1    0    0  502    0 -0.00000000000E+00  0.00000000000E+00  0.76854191529E+03  0.76854191529E+03  0.00000000000E+00 0. -1.
         21   -1    0    0  501  502  0.00000000000E+00 -0.00000000000E+00 -0.35969532430E+02  0.35969532430E+02  0.00000000000E+00 0.  1.
         23    2    1    2    0    0  0.51617419099E+02  0.14264005445E+01  0.59600286769E+03  0.60527174798E+03  0.92022160533E+02 0.  0.
         23    2    1    2    0    0 -0.72505361384E+02 -0.80678192334E+00  0.13490840992E+03  0.17827665295E+03  0.91239287558E+02 0.  0.
        -11    1    4    4    0    0 -0.22159747509E+02 -0.26564415427E+02  0.29601281361E+01  0.34720094113E+02  0.00000000000E+00 0.  1.
         11    1    4    4    0    0 -0.50345613876E+02  0.25757633503E+02  0.13194828178E+03  0.14355655884E+03  0.00000000000E+00 0. -1.
        -13    1    3    3    0    0 -0.15945848745E+02 -0.27687008032E+02  0.17962091790E+03  0.18244044139E+03  0.00000000000E+00 0.  1.
         13    1    3    3    0    0  0.67563267845E+02  0.29113408576E+02  0.41638194979E+03  0.42283130659E+03  0.00000000000E+00 0. -1.
          1    1    1    2  501    0  0.20887942285E+02 -0.61961862120E+00  0.16611052498E+01  0.20963046792E+02  0.00000000000E+00 0. -1.
<scales pt_clust_5="13000.00000" pt_clust_6="13000.00000" pt_clust_7="13000.00000" pt_clust_8="13000.00000" pt_clust_9="20.89713"></scales>
<clustering>
<clus scale="   20.897">  2  9  1 -1</clus>
<clus scale="   91.239">  5  6 -1 -1</clus>
<clus scale="   92.022">  7  8 -1 -1</clus>
<clus scale="  106.696">  2  5  1 -1</clus>
<clus scale="   20.897">  2  5  1 -1</clus>
</clustering>
</event>
<event>
 9    1  0.1315259E-005  0.9735265E+02  0.7546771E-02  0.1286655E+00
         -1   -1    0    0    0  501 -0.00000000000E+00  0.00000000000E+00  0.22979552694E+03  0.22979552694E+03  0.00000000000E+00 0.  1.
         21   -1    0    0  501  502  0.00000000000E+00 -0.00000000000E+00 -0.54227247216E+02  0.54227247216E+02  0.00000000000E+00 0. -1.
         23    2    1    2    0    0  0.21228198832E+02 -0.41412484950E+02  0.88478165577E+02  0.13385019612E+03  0.89004825056E+02 0.  0.
         23    2    1    2    0    0  0.55462953447E+01  0.35648861659E+02  0.70992802489E+02  0.11840441261E+03  0.87624335602E+02 0.  0.
        -11    1    3    3    0    0  0.39361573862E+02 -0.53265248564E+02  0.90440287589E+02  0.11209801881E+03  0.00000000000E+00 0. -1.
         11    1    3    3    0    0 -0.18133375029E+02  0.11852763614E+02 -0.19621220115E+01  0.21752177317E+02  0.00000000000E+00 0.  1.
        -11    1    4    4    0    0 -0.18364751641E+02 -0.24081171362E+02  0.19780032673E+02  0.36172041822E+02  0.00000000000E+00 0.  1.
         11    1    4    4    0    0  0.23911046985E+02  0.59730033021E+02  0.51212769816E+02  0.82232370785E+02  0.00000000000E+00 0. -1.
         -1    1    1    2    0  502 -0.26774494177E+02  0.57636232904E+01  0.16097311658E+02  0.31768165425E+02  0.00000000000E+00 0.  1.
<scales pt_clust_5="13000.00000" pt_clust_6="13000.00000" pt_clust_7="13000.00000" pt_clust_8="13000.00000" pt_clust_9="27.38782"></scales>
<clustering>
<clus scale="   27.388">  2  9  1 -1</clus>
<clus scale="   87.624">  7  8 -1 -1</clus>
<clus scale="   89.005">  5  6 -1 -1</clus>
<clus scale="   96.092">  2  7  1 -1</clus>
<clus scale="   27.388">  2  5  1 -1</clus>
</clustering>
</event>
<event>
 9    1  0.1315259E-005  0.1021705E+03  0.7546771E-02  0.1277476E+00
         21   -1    0    0  501  502  0.00000000000E+00  0.00000000000E+00  0.38652436825E+03  0.38652436825E+03  0.00000000000E+00 0. -1.
          3   -1    0    0  502    0 -0.00000000000E+00 -0.00000000000E+00 -0.42461951444E+02  0.42461951444E+02  0.00000000000E+00 0. -1.
         23    2    1    2    0    0 -0.27039467974E+02 -0.59500033010E+01  0.10880282925E+03  0.14688429935E+03  0.94712229288E+02 0.  0.
         23    2    1    2    0    0  0.34593169976E+02  0.40557116305E+02  0.11249203394E+03  0.15432650271E+03  0.91217567642E+02 0.  0.
        -11    1    4    4    0    0  0.58218669223E+02  0.63974324776E+01  0.40484409049E+02  0.71199213229E+02  0.00000000000E+00 0.  1.
         11    1    4    4    0    0 -0.23625499247E+02  0.34159683827E+02  0.72007624891E+02  0.83127289480E+02  0.00000000000E+00 0. -1.
        -13    1    3    3    0    0  0.50781023935E+01 -0.23319700168E+02  0.10774368023E+03  0.11035531781E+03  0.00000000000E+00 0.  1.
         13    1    3    3    0    0 -0.32117570367E+02  0.17369696867E+02  0.10591490132E+01  0.36528981538E+02  0.00000000000E+00 0. -1.
          3    1    1    2  501    0 -0.75537020021E+01 -0.34607113004E+02  0.12276755362E+03  0.12777551763E+03  0.00000000000E+00 0. -1.
<scales pt_clust_5="13000.00000" pt_clust_6="13000.00000" pt_clust_7="13000.00000" pt_clust_8="13000.00000" pt_clust_9="35.42190"></scales>
<clustering>
<clus scale="   35.422">  1  9  2 -1</clus>
<clus scale="   91.218">  5  6 -1 -1</clus>
<clus scale="   94.712">  7  8 -1 -1</clus>
<clus scale="   98.940">  1  5  2 -1</clus>
<clus scale="   35.422">  1  5  2 -1</clus>
</clustering>
</event>
<event>
 9    1  0.1315259E-005  0.2695837E+03  0.7546771E-02  0.1101565E+00
         21   -1    0    0  501  502  0.00000000000E+00  0.00000000000E+00  0.14439814946E+03  0.14439814946E+03  0.00000000000E+00 0. -1.
          3   -1    0    0  502    0 -0.00000000000E+00 -0.00000000000E+00 -0.81577180338E+03  0.81577180338E+03  0.00000000000E+00 0. -1.
         23    2    1    2    0    0 -0.10161884201E+03  0.18636739465E+03 -0.22745115051E+03  0.32399925946E+03  0.90456063487E+02 0.  0.
         23    2    1    2    0    0  0.13979631041E+03 -0.29103709522E+03 -0.27318625964E+03  0.43229786477E+03  0.89471292796E+02 0.  0.
        -11    1    3    3    0    0 -0.33267716260E+02  0.10672706020E+02 -0.10284649011E+02  0.36420071447E+02  0.00000000000E+00 0. -1.
         11    1    3    3    0    0 -0.68351125753E+02  0.17569468863E+03 -0.21716650150E+03  0.28757918801E+03  0.00000000000E+00 0.  1.
        -13    1    4    4    0    0  0.12008374082E+03 -0.28207765007E+03 -0.22757956157E+03  0.38181194629E+03  0.00000000000E+00 0. -1.
         13    1    4    4    0    0  0.19712569592E+02 -0.89594451450E+01 -0.45606698065E+02  0.50485918489E+02  0.00000000000E+00 0.  1.
          3    1    1    2  501    0 -0.38177468401E+02  0.10466970057E+03 -0.17073624376E+03  0.20387282861E+03  0.00000000000E+00 0. -1.
<scales pt_clust_5="13000.00000" pt_clust_6="13000.00000" pt_clust_7="13000.00000" pt_clust_8="13000.00000" pt_clust_9="111.41489"></scales>
<clustering>
<clus scale="   89.471">  7  8 -1 -1</clus>
<clus scale="   90.456">  5  6 -1 -1</clus>
<clus scale="  111.415">  1  9  2 -1</clus>
<clus scale="  269.255">  1  7  2 -1</clus>
<clus scale="  111.415">  1  5  2 -1</clus>
</clustering>
</event>
<event>
 9    1  0.1315259E-005  0.1976194E+03  0.7546771E-02  0.1183212E+00
          1   -1    0    0  502    0 -0.00000000000E+00  0.00000000000E+00  0.70758831138E+03  0.70758831138E+03  0.00000000000E+00 0. -1.
         21   -1    0    0  501  502  0.00000000000E+00 -0.00000000000E+00 -0.63443496043E+03  0.63443496043E+03  0.00000000000E+00 0. -1.
         23    2    1    2    0    0 -0.47534374936E+00 -0.22833355853E+02  0.46715365802E+03  0.47690284768E+03  0.93178312045E+02 0.  0.
         23    2    1    2    0    0  0.19165780312E+02  0.19567170339E+03  0.16958994423E+03  0.27532690250E+03  0.91593730207E+02 0.  0.
        -13    1    3    3    0    0  0.41005850346E+02  0.10924595686E+02  0.20203171947E+03  0.20644040841E+03  0.00000000000E+00 0.  1.
         13    1    3    3    0    0 -0.41481194095E+02 -0.33757951539E+02  0.26512193855E+03  0.27046243927E+03  0.00000000000E+00 0. -1.
        -13    1    4    4    0    0  0.30565950344E+02  0.92556579665E+02  0.31151159034E+02  0.10232982199E+03  0.00000000000E+00 0.  1.
         13    1    4    4    0    0 -0.11400170032E+02  0.10311512373E+03  0.13843878519E+03  0.17299708051E+03  0.00000000000E+00 0. -1.
          1    1    1    2  501    0 -0.18690436563E+02 -0.17283834754E+03 -0.56359025130E+03  0.58979352163E+03  0.00000000000E+00 0. -1.
<scales pt_clust_5="13000.00000" pt_clust_6="13000.00000" pt_clust_7="13000.00000" pt_clust_8="13000.00000" pt_clust_9="175.11147"></scales>
<clustering>
<clus scale="   91.594">  7  8 -1 -1</clus>
<clus scale="   93.178">  5  6 -1 -1</clus>
<clus scale="   95.936">  1  5  2 -1</clus>
<clus scale="  175.111">  2  9  1 -1</clus>
<clus scale="  175.111">  2  5  1 -1</clus>
</clustering>
</event>
<event>
 9    1  0.1315259E-005  0.1123022E+03  0.7546771E-02  0.1262574E+00
         -2   -1    0    0    0  501 -0.00000000000E+00  0.00000000000E+00  0.17738288008E+03  0.17738288008E+03  0.00000000000E+00 0.  1.
         21   -1    0    0  501  502  0.00000000000E+00 -0.00000000000E+00 -0.33904840097E+03  0.33904840097E+03  0.00000000000E+00 0.  1.
         23    2    1    2    0    0  0.42141612959E+02  0.20758656650E+02  0.12824396257E+03  0.17208528956E+03  0.10468999751E+03 0.  0.
         23    2    1    2    0    0 -0.23604190315E+02  0.34636667770E+02 -0.84707810264E+02  0.13099181486E+03  0.90700528580E+02 0.  0.
        -11    1    3    3    0    0  0.50467436522E+02 -0.12136658381E+02  0.12803015239E+03  0.13815201970E+03  0.00000000000E+00 0. -1.
         11    1    3    3    0    0 -0.83258235632E+01  0.32895315031E+02  0.21381018364E+00  0.33933269866E+02  0.00000000000E+00 0.  1.
        -13    1    4    4    0    0 -0.34573242774E+02  0.15837187022E+02  0.52947858055E+01  0.38394796072E+02  0.00000000000E+00 0.  1.
         13    1    4    4    0    0  0.10969052459E+02  0.18799480748E+02 -0.90002596070E+02  0.92597018783E+02  0.00000000000E+00 0. -1.
         -2    1    1    2    0  502 -0.18537422644E+02 -0.55395324421E+02 -0.20520167320E+03  0.21335417664E+03  0.00000000000E+00 0.  1.
<scales pt_clust_5="13000.00000" pt_clust_6="13000.00000" pt_clust_7="13000.00000" pt_clust_8="13000.00000" pt_clust_9="58.41471"></scales>
<clustering>
<clus scale="   58.415">  2  9  1 -1</clus>
<clus scale="   90.701">  7  8 -1 -1</clus>
<clus scale="   99.390">  2  7  1 -1</clus>
<clus scale="  104.690">  5  6 -1 -1</clus>
<clus scale="   58.415">  2  5  1 -1</clus>
</clustering>
</event>
<event>
 9    1  0.1315259E-005  0.1259091E+03  0.7546771E-02  0.1233780E+00
          1   -1    0    0  502    0 -0.00000000000E+00  0.00000000000E+00  0.51463391201E+03  0.51463391201E+03  0.00000000000E+00 0. -1.
         21   -1    0    0  501  502  0.00000000000E+00 -0.00000000000E+00 -0.25214918953E+03  0.25214918953E+03  0.00000000000E+00 0.  1.
         23    2    1    2    0    0  0.45524071546E+02 -0.73650272409E+02  0.43448935994E+03  0.45214311527E+03  0.90308300152E+02 0.  0.
         23    2    1    2    0    0 -0.67865931435E+02  0.82701664400E+02 -0.22000370859E+03  0.26092781605E+03  0.90754302645E+02 0.  0.
        -11    1    3    3    0    0  0.32837334170E+02  0.13904672620E+02  0.15186812409E+03  0.15599858189E+03  0.00000000000E+00 0.  1.
         11    1    3    3    0    0  0.12686737376E+02 -0.87554945029E+02  0.28262123584E+03  0.29614453338E+03  0.00000000000E+00 0. -1.
        -11    1    4    4    0    0 -0.44485719774E+02 -0.57405974697E+01 -0.10349011720E+03  0.11279245578E+03  0.00000000000E+00 0.  1.
         11    1    4    4    0    0 -0.23380211661E+02  0.88442261869E+02 -0.11651359139E+03  0.14813536027E+03  0.00000000000E+00 0. -1.
          1    1    1    2  501    0  0.22341859890E+02 -0.90513919902E+01  0.47999071137E+02  0.53712170225E+02  0.00000000000E+00 0. -1.
<scales pt_clust_5="13000.00000" pt_clust_6="13000.00000" pt_clust_7="13000.00000" pt_clust_8="13000.00000" pt_clust_9="24.10575"></scales>
<clustering>
<clus scale="   24.106">  2  9  1 -1</clus>
<clus scale="   90.308">  5  6 -1 -1</clus>
<clus scale="   90.754">  7  8 -1 -1</clus>
<clus scale="  125.588">  1  5  2 -1</clus>
<clus scale="   24.106">  2  5  1 -1</clus>
</clustering>
</event>
<event>
 9    1  0.1315259E-005  0.9480067E+02  0.7546771E-02  0.1292896E+00
         21   -1    0    0  501  502  0.00000000000E+00  0.00000000000E+00  0.91081355372E+02  0.91081355372E+02  0.00000000000E+00 0.  1.
          1   -1    0    0  502    0 -0.00000000000E+00 -0.00000000000E+00 -0.22877465139E+03  0.22877465139E+03  0.00000000000E+00 0. -1.
         23    2    1    2    0    0 -0.18686069643E+02  0.16164667072E+01 -0.13080663926E+03  0.16094410450E+03  0.91874075433E+02 0.  0.
         23    2    1    2    0    0 -0.64379661413E+01 -0.12656420335E+02 -0.50224402805E+02  0.10761611313E+03  0.94112192539E+02 0.  0.
        -11    1    4    4    0    0 -0.25164206078E+02  0.34890250479E+02 -0.30973974088E+02  0.53008998452E+02  0.00000000000E+00 0. -1.
         11    1    4    4    0    0  0.18726239937E+02 -0.47546670815E+02 -0.19250428717E+02  0.54607114678E+02  0.00000000000E+00 0.  1.
        -13    1    3    3    0    0  0.33184797549E+02 -0.96150548871E+01 -0.81421033699E+02  0.88448090978E+02  0.00000000000E+00 0. -1.
         13    1    3    3    0    0 -0.51870867192E+02  0.11231521594E+02 -0.49385605560E+02  0.72496013526E+02  0.00000000000E+00 0.  1.
          1    1    1    2  501    0  0.25124035784E+02  0.11039953628E+02  0.43337746045E+02  0.51295789130E+02  0.00000000000E+00 0. -1.
<scales pt_clust_5="13000.00000" pt_clust_6="13000.00000" pt_clust_7="13000.00000" pt_clust_8="13000.00000" pt_clust_9="27.44263"></scales>
<clustering>
<clus scale="   27.443">  1  9  2 -1</clus>
<clus scale="   91.874">  7  8 -1 -1</clus>
<clus scale="   92.579">  2  7  1 -1</clus>
<clus scale="   94.112">  5  6 -1 -1</clus>
<clus scale="   27.443">  1  5  2 -1</clus>
</clustering>
</event>
<event>
 9    1  0.1315259E-005  0.1321061E+03  0.7546771E-02  0.1224870E+00
         21   -1    0    0  501  502  0.00000000000E+00  0.00000000000E+00  0.14452699266E+03  0.14452699266E+03  0.00000000000E+00 0. -1.
          2   -1    0    0  502    0 -0.00000000000E+00 -0.00000000000E+00 -0.25126988224E+03  0.25126988224E+03  0.00000000000E+00 0. -1.
         23    2    1    2    0    0  0.95989654881E+02  0.34842101661E+02 -0.17786998330E+03  0.22519599810E+03  0.92992046483E+02 0.  0.
         23    2    1    2    0    0 -0.65887861277E+02 -0.49229781442E+01  0.48160314569E+02  0.12234380609E+03  0.91011785011E+02 0.  0.
        -11    1    3    3    0    0  0.35316987961E+02  0.61896701185E+02 -0.83276078721E+02  0.10960564102E+03  0.00000000000E+00 0.  1.
         11    1    3    3    0    0  0.60672666920E+02 -0.27054599524E+02 -0.94593904575E+02  0.11559035708E+03  0.00000000000E+00 0. -1.
        -13    1    4    4    0    0 -0.41913185355E+02 -0.47156410086E+02  0.19894904661E+02  0.66153226303E+02  0.00000000000E+00 0.  1.
         13    1    4    4    0    0 -0.23974675922E+02  0.42233431942E+02  0.28265409908E+02  0.56190579784E+02  0.00000000000E+00 0. -1.
          2    1    1    2  501    0 -0.30101793604E+02 -0.29919123516E+02  0.22966779142E+02  0.48257070718E+02  0.00000000000E+00 0. -1.
<scales pt_clust_5="13000.00000" pt_clust_6="13000.00000" pt_clust_7="13000.00000" pt_clust_8="13000.00000" pt_clust_9="42.44139"></scales>
<clustering>
<clus scale="   42.441">  1  9  2 -1</clus>
<clus scale="   91.012">  7  8 -1 -1</clus>
<clus scale="   92.992">  5  6 -1 -1</clus>
<clus scale="  130.720">  1  7  2 -1</clus>
<clus scale="   42.441">  1  5  2 -1</clus>
</clustering>
</event>
<event>
 9    1  0.1315259E-005  0.9325457E+02  0.7546771E-02  0.1295287E+00
         21   -1    0    0  501  502  0.00000000000E+00  0.00000000000E+00  0.14784721218E+03  0.14784721218E+03  0.00000000000E+00 0. -1.
         -2   -1    0    0    0  501 -0.00000000000E+00 -0.00000000000E+00 -0.11975226566E+03  0.11975226566E+03  0.00000000000E+00 0.  1.
         23    2    1    2    0    0  0.13908226598E+02  0.20857782836E+02 -0.64354531494E+02  0.11341150770E+03  0.89956536637E+02 0.  0.
         23    2    1    2    0    0  0.13463725536E+02 -0.27466270605E+02  0.70884436039E+02  0.11872042286E+03  0.90190174666E+02 0.  0.
        -13    1    4    4    0    0  0.50887421331E+02 -0.17156061089E+02  0.26919185469E+02  0.60070813446E+02  0.00000000000E+00 0.  1.
         13    1    4    4    0    0 -0.37423695795E+02 -0.10310209516E+02  0.43965250570E+02  0.58649609418E+02  0.00000000000E+00 0. -1.
        -13    1    3    3    0    0  0.66719372460E+01  0.42219705670E+02 -0.76621203883E+02  0.87737262197E+02  0.00000000000E+00 0.  1.
         13    1    3    3    0    0  0.72362893516E+01 -0.21361922834E+02  0.12266672389E+02  0.25674245505E+02  0.00000000000E+00 0. -1.
         -2    1    1    2    0  502 -0.27371952133E+02  0.66084877695E+01  0.21565041971E+02  0.35467547271E+02  0.00000000000E+00 0.  1.
<scales pt_clust_5="13000.00000" pt_clust_6="13000.00000" pt_clust_7="13000.00000" pt_clust_8="13000.00000" pt_clust_9="28.15841"></scales>
<clustering>
<clus scale="   28.158">  1  9  2 -1</clus>
<clus scale="   89.957">  7  8 -1 -1</clus>
<clus scale="   90.190">  5  6 -1 -1</clus>
<clus scale="   93.029">  2  7  1 -1</clus>
<clus scale="   28.158">  1  5  2 -1</clus>
</clustering>
</event>
<event>
 9    1  0.1315259E-005  0.1032537E+03  0.7546771E-02  0.1282454E+00
         21   -1    0    0  501  502  0.00000000000E+00  0.00000000000E+00  0.17714705157E+03  0.17714705157E+03  0.00000000000E+00 0.  1.
          4   -1    0    0  502    0 -0.00000000000E+00 -0.00000000000E+00 -0.81711853020E+02  0.81711853020E+02  0.00000000000E+00 0. -1.
         23    2    1    2    0    0 -0.36250492864E+02 -0.13292136641E+02  0.58878464422E+01  0.98989664965E+02  0.90958825327E+02 0.  0.
         23    2    1    2    0    0  0.57988661616E+02  0.23664207598E+02  0.37804928827E+02  0.10279554863E+03  0.72215182458E+02 0.  0.
        -11    1    4    4    0    0  0.33311525711E+02 -0.53305440276E+01  0.52148433953E+02  0.62109030009E+02  0.00000000000E+00 0.  1.
         11    1    4    4    0    0  0.24677135905E+02  0.28994751626E+02 -0.14343505126E+02  0.40686518622E+02  0.00000000000E+00 0. -1.
        -13    1    3    3    0    0 -0.50561605901E+02  0.24996480270E+02  0.11983301105E+02  0.57661941717E+02  0.00000000000E+00 0. -1.
         13    1    3    3    0    0  0.14311113037E+02 -0.38288616911E+02 -0.60954546627E+01  0.41327723248E+02  0.00000000000E+00 0.  1.
          4    1    1    2  501    0 -0.21738168752E+02 -0.10372070957E+02  0.51742423286E+02  0.57073690998E+02  0.00000000000E+00 0. -1.
<scales pt_clust_5="13000.00000" pt_clust_6="13000.00000" pt_clust_7="13000.00000" pt_clust_8="13000.00000" pt_clust_9="24.08584"></scales>
<clustering>
<clus scale="   24.086">  1  9  2 -1</clus>
<clus scale="   72.215">  5  6 -1 -1</clus>
<clus scale="   87.194">  1  5  2 -1</clus>
<clus scale="   90.959">  7  8 -1 -1</clus>
<clus scale="   24.086">  1  5  2 -1</clus>
</clustering>
</event>
<event>
 9    1  0.1315259E-005  0.1728371E+03  0.7546771E-02  0.1175100E+00
          1   -1    0    0  502    0 -0.00000000000E+00  0.00000000000E+00  0.19150525836E+03  0.19150525836E+03  0.00000000000E+00 0. -1.
         21   -1    0    0  501  502  0.00000000000E+00 -0.00000000000E+00 -0.23993851526E+03  0.23993851526E+03  0.00000000000E+00 0.  1.
         23    2    1    2    0    0 -0.99320394281E+01  0.12844540314E+03  0.24963664725E+02  0.16065507553E+03  0.92682262280E+02 0.  0.
         23    2    1    2    0    0  0.31992162807E+02 -0.17931965785E+03 -0.69059422239E+02  0.21516808378E+03  0.91373203426E+02 0.  0.
        -11    1    3    3    0    0 -0.41569621282E+02  0.20953216049E+02  0.47295442223E+01  0.46791444356E+02  0.00000000000E+00 0. -1.
         11    1    3    3    0    0  0.31637581854E+02  0.10749218709E+03  0.20234120503E+02  0.11386363117E+03  0.00000000000E+00 0.  1.
        -13    1    4    4    0    0 -0.29957752454E+02 -0.44180611535E+02 -0.61118562844E+01  0.53728466896E+02  0.00000000000E+00 0. -1.
         13    1    4    4    0    0  0.61949915261E+02 -0.13513904632E+03 -0.62947565954E+02  0.16143961689E+03  0.00000000000E+00 0.  1.
          1    1    1    2  501    0 -0.22060123379E+02  0.50874254715E+02 -0.43374993830E+01  0.55620614318E+02  0.00000000000E+00 0. -1.
<scales pt_clust_5="13000.00000" pt_clust_6="13000.00000" pt_clust_7="13000.00000" pt_clust_8="13000.00000" pt_clust_9="55.45126"></scales>
<clustering>
<clus scale="   55.451">  2  9  1 -1</clus>
<clus scale="   91.373">  7  8 -1 -1</clus>
<clus scale="   92.682">  5  6 -1 -1</clus>
<clus scale="  172.139">  2  7  1 -1</clus>
<clus scale="   55.451">  2  5  1 -1</clus>
</clustering>
</event>
<event>
 9    1  0.1315259E-005  0.1262107E+03  0.7546771E-02  0.1235708E+00
         -3   -1    0    0    0  501 -0.00000000000E+00  0.00000000000E+00  0.96091356773E+02  0.96091356773E+02  0.00000000000E+00 0.  1.
         21   -1    0    0  501  502  0.00000000000E+00 -0.00000000000E+00 -0.69102655929E+03  0.69102655929E+03  0.00000000000E+00 0.  1.
         23    2    1    2    0    0 -0.10273307560E+03  0.40530630358E+02 -0.19125233889E+02  0.15097901927E+03  0.10115370913E+03 0.  0.
         23    2    1    2    0    0  0.40200683313E+02  0.61480699339E+01 -0.67748832161E+02  0.12212010382E+03  0.93110266857E+02 0.  0.
        -13    1    3    3    0    0 -0.68074390557E+02  0.13305580295E+01 -0.55008908943E+02  0.87532126088E+02  0.00000000000E+00 0. -1.
         13    1    3    3    0    0 -0.34658685038E+02  0.39200072329E+02  0.35883675054E+02  0.63446893183E+02  0.00000000000E+00 0.  1.
        -13    1    4    4    0    0  0.43520172857E+02  0.32646932850E+02 -0.58648057329E+01  0.54719499415E+02  0.00000000000E+00 0.  1.
         13    1    4    4    0    0 -0.33194895440E+01 -0.26498862916E+02 -0.61884026429E+02  0.67400604401E+02  0.00000000000E+00 0. -1.
         -3    1    1    2    0  502  0.62532392283E+02 -0.46678700292E+02 -0.50806113646E+03  0.51401879297E+03  0.00000000000E+00 0.  1.
<scales pt_clust_5="13000.00000" pt_clust_6="13000.00000" pt_clust_7="13000.00000" pt_clust_8="13000.00000" pt_clust_9="78.03333"></scales>
<clustering>
<clus scale="   78.033">  2  9  1 -1</clus>
<clus scale="   93.110">  7  8 -1 -1</clus>
<clus scale="  101.154">  5  6 -1 -1</clus>
<clus scale="  119.861">  2  7  1 -1</clus>
<clus scale="   78.033">  2  5  1 -1</clus>
</clustering>
</event>
<event>
 9    1  0.1315259E-005  0.1356987E+03  0.7546771E-02  0.1221328E+00
          2   -1    0    0  502    0 -0.00000000000E+00  0.00000000000E+00  0.96443794506E+02  0.96443794506E+02  0.00000000000E+00 0. -1.
         21   -1    0    0  501  502  0.00000000000E+00 -0.00000000000E+00 -0.48845808502E+03  0.48845808502E+03  0.00000000000E+00 0. -1.
         23    2    1    2    0    0 -0.10925162212E+03  0.71661246650E+02 -0.34275569733E+02  0.16338851770E+03  0.91922477275E+02 0.  0.
         23    2    1    2    0    0  0.18914176196E+02 -0.70956030890E+02 -0.10341713992E+03  0.15162298046E+03  0.83077788803E+02 0.  0.
        -11    1    4    4    0    0 -0.26343379466E+02 -0.57567389828E+02 -0.53031659388E+02  0.82585318978E+02  0.00000000000E+00 0.  1.
         11    1    4    4    0    0  0.45257555661E+02 -0.13388641062E+02 -0.50385480534E+02  0.69037661479E+02  0.00000000000E+00 0. -1.
        -13    1    3    3    0    0 -0.24991898436E+02  0.57334007892E+02 -0.45279286529E+02  0.77213970478E+02  0.00000000000E+00 0.  1.
         13    1    3    3    0    0 -0.84259723682E+02  0.14327238758E+02  0.11003716796E+02  0.86174547221E+02  0.00000000000E+00 0. -1.
          2    1    1    2  501    0  0.90337445923E+02 -0.70521576015E+00 -0.25432158086E+03  0.26989038137E+03  0.00000000000E+00 0. -1.
<scales pt_clust_5="13000.00000" pt_clust_6="13000.00000" pt_clust_7="13000.00000" pt_clust_8="13000.00000" pt_clust_9="90.34020"></scales>
<clustering>
<clus scale="   83.078">  5  6 -1 -1</clus>
<clus scale="   90.340">  2  9  1 -1</clus>
<clus scale="   91.922">  7  8 -1 -1</clus>
<clus scale="  129.870">  2  5  1 -1</clus>
<clus scale="   90.340">  2  5  1 -1</clus>
</clustering>
</event>
<event>
 9    1  0.1315259E-005  0.1605465E+03  0.7546771E-02  0.1189824E+00
         21   -1    0    0  501  502  0.00000000000E+00  0.00000000000E+00  0.16179041609E+03  0.16179041609E+03  0.00000000000E+00 0. -1.
          3   -1    0    0  502    0 -0.00000000000E+00 -0.00000000000E+00 -0.10888380411E+04  0.10888380411E+04  0.00000000000E+00 0. -1.
         23    2    1    2    0    0 -0.13213862697E+03  0.28281931608E+02 -0.85492135373E+03  0.86956964444E+03  0.83668160373E+02 0.  0.
         23    2    1    2    0    0  0.10541464040E+03 -0.42612052413E+02 -0.20053917419E+03  0.24911413698E+03  0.94413237602E+02 0.  0.
        -11    1    4    4    0    0  0.11258444812E+01 -0.43174021104E+02 -0.66255841590E+02  0.79089191226E+02  0.00000000000E+00 0. -1.
         11    1    4    4    0    0  0.10428879591E+03  0.56196869033E+00 -0.13428333260E+03  0.17002494575E+03  0.00000000000E+00 0.  1.
        -11    1    3    3    0    0 -0.98197065940E+01  0.32031351316E+02 -0.12267040419E+03  0.12716313211E+03  0.00000000000E+00 0.  1.
         11    1    3    3    0    0 -0.12231892037E+03 -0.37494197080E+01 -0.73225094955E+03  0.74240651233E+03  0.00000000000E+00 0. -1.
          3    1    1    2  501    0  0.26723986573E+02  0.14330120805E+02  0.12841290293E+03  0.13194467576E+03  0.00000000000E+00 0. -1.
<scales pt_clust_5="13000.00000" pt_clust_6="13000.00000" pt_clust_7="13000.00000" pt_clust_8="13000.00000" pt_clust_9="30.32365"></scales>
<clustering>
<clus scale="   30.324">  1  9  2 -1</clus>
<clus scale="   83.668">  7  8 -1 -1</clus>
<clus scale="   94.413">  5  6 -1 -1</clus>
<clus scale="  154.472">  2  7  1 -1</clus>
<clus scale="   30.324">  1  5  2 -1</clus>
</clustering>
</event>
<event>
 9    1  0.1315259E-005  0.2962740E+03  0.7546771E-02  0.1087257E+00
         21   -1    0    0  501  502  0.00000000000E+00  0.00000000000E+00  0.57033142368E+02  0.57033142368E+02  0.00000000000E+00 0.  1.
          2   -1    0    0  502    0 -0.00000000000E+00 -0.00000000000E+00 -0.20549301302E+04  0.20549301302E+04  0.00000000000E+00 0. -1.
         23    2    1    2    0    0 -0.23416113634E+03 -0.16334708055E+03 -0.14348021790E+04  0.14655729913E+04  0.87938577986E+02 0.  0.
         23    2    1    2    0    0  0.21215437416E+03  0.17279568764E+03 -0.54393136033E+03  0.61571763032E+03  0.91537136712E+02 0.  0.
        -13    1    4    4    0    0  0.17812160684E+03  0.15274599469E+03 -0.51743900628E+03  0.56815646695E+03  0.00000000000E+00 0.  1.
         13    1    4    4    0    0  0.34032767311E+02  0.20049692945E+02 -0.26492354057E+02  0.47561163374E+02  0.00000000000E+00 0. -1.
        -13    1    3    3    0    0 -0.19173341157E+03 -0.15878110500E+03 -0.13160081773E+04  0.13393471033E+04  0.00000000000E+00 0. -1.
         13    1    3    3    0    0 -0.42427724768E+02 -0.45659755473E+01 -0.11879400166E+03  0.12622588797E+03  0.00000000000E+00 0.  1.
          2    1    1    2  501    0  0.22006762185E+02 -0.94486070899E+01 -0.19163448535E+02  0.30672650970E+02  0.00000000000E+00 0. -1.
<scales pt_clust_5="13000.00000" pt_clust_6="13000.00000" pt_clust_7="13000.00000" pt_clust_8="13000.00000" pt_clust_9="23.94940"></scales>
<clustering>
<clus scale="   23.949">  1  9  2 -1</clus>
<clus scale="   87.939">  7  8 -1 -1</clus>
<clus scale="   91.537">  5  6 -1 -1</clus>
<clus scale="  295.182">  2  7  1 -1</clus>
<clus scale="   23.949">  1  5  2 -1</clus>
</clustering>
</event>
<event>
 9    1  0.1315259E-005  0.1597779E+03  0.7546771E-02  0.1190810E+00
         21   -1    0    0  501  502  0.00000000000E+00  0.00000000000E+00  0.51694026270E+02  0.51694026270E+02  0.00000000000E+00 0. -1.
         -3   -1    0    0    0  501 -0.00000000000E+00 -0.00000000000E+00 -0.65263143716E+03  0.65263143716E+03  0.00000000000E+00 0.  1.
         23    2    1    2    0    0 -0.11739987212E+03 -0.69067608364E+01 -0.30908123490E+03  0.34207072327E+03  0.87468489353E+02 0.  0.
         23    2    1    2    0    0  0.13596006634E+03  0.22941144978E+02 -0.29219611515E+03  0.33772521015E+03  0.98327575415E+02 0.  0.
        -11    1    4    4    0    0  0.78354749830E+02  0.29607079260E+02 -0.25602670567E+03  0.26938025165E+03  0.00000000000E+00 0.  1.
         11    1    4    4    0    0  0.57605316508E+02 -0.66659342820E+01 -0.36169409488E+02  0.68344958501E+02  0.00000000000E+00 0. -1.
        -13    1    3    3    0    0 -0.85518854006E+02 -0.44678683245E+02 -0.18870092119E+03  0.21193795504E+03  0.00000000000E+00 0. -1.
         13    1    3    3    0    0 -0.31881018118E+02  0.37771922409E+02 -0.12038031371E+03  0.13013276823E+03  0.00000000000E+00 0.  1.
         -3    1    1    2    0  502 -0.18560194213E+02 -0.16034384141E+02  0.33993916665E+00  0.24529530013E+02  0.00000000000E+00 0.  1.
<scales pt_clust_5="13000.00000" pt_clust_6="13000.00000" pt_clust_7="13000.00000" pt_clust_8="13000.00000" pt_clust_9="24.52717"></scales>
<clustering>
<clus scale="   24.527">  1  9  2 -1</clus>
<clus scale="   87.468">  7  8 -1 -1</clus>
<clus scale="   98.328">  5  6 -1 -1</clus>
<clus scale="  153.334">  2  7  1 -1</clus>
<clus scale="   24.527">  1  5  2 -1</clus>
</clustering>
</event>
<event>
 9    1  0.1315259E-005  0.1129345E+03  0.7546771E-02  0.1257381E+00
         21   -1    0    0  501  502  0.00000000000E+00  0.00000000000E+00  0.85634783820E+02  0.85634783820E+02  0.00000000000E+00 0.  1.
          2   -1    0    0  502    0 -0.00000000000E+00 -0.00000000000E+00 -0.19420600078E+03  0.19420600078E+03  0.00000000000E+00 0. -1.
         23    2    1    2    0    0 -0.33972662875E+02 -0.64009189357E+02 -0.72657468918E+02  0.13563411383E+03  0.88691526660E+02 0.  0.
         23    2    1    2    0    0  0.20962744977E+02  0.46238298140E+02 -0.49803228782E+02  0.11816861758E+03  0.94371837387E+02 0.  0.
        -11    1    4    4    0    0 -0.22604446535E+01  0.70216089710E+02 -0.47305586985E+02  0.84694907900E+02  0.00000000000E+00 0. -1.
         11    1    4    4    0    0  0.23223189631E+02 -0.23977791570E+02 -0.24976417977E+01  0.33473709680E+02  0.00000000000E+00 0.  1.
        -13    1    3    3    0    0 -0.64329607985E+02 -0.40030250643E+02 -0.45698893691E+02  0.88482248585E+02  0.00000000000E+00 0. -1.
         13    1    3    3    0    0  0.30356945110E+02 -0.23978938714E+02 -0.26958575226E+02  0.47151865250E+02  0.00000000000E+00 0.  1.
          2    1    1    2  501    0  0.13009917898E+02  0.17770891217E+02  0.13889480742E+02  0.26038053184E+02  0.00000000000E+00 0. -1.
<scales pt_clust_5="13000.00000" pt_clust_6="13000.00000" pt_clust_7="13000.00000" pt_clust_8="13000.00000" pt_clust_9="22.02414"></scales>
<clustering>
<clus scale="   22.024">  1  9  2 -1</clus>
<clus scale="   88.692">  7  8 -1 -1</clus>
<clus scale="   94.372">  5  6 -1 -1</clus>
<clus scale="  108.233">  2  7  1 -1</clus>
<clus scale="   22.024">  1  5  2 -1</clus>
</clustering>
</event>
<event>
 9    1  0.1315259E-005  0.1195323E+03  0.7546771E-02  0.1249771E+00
         21   -1    0    0  501  502  0.00000000000E+00  0.00000000000E+00  0.47744438655E+02  0.47744438655E+02  0.00000000000E+00 0.  1.
          1   -1    0    0  502    0 -0.00000000000E+00 -0.00000000000E+00 -0.61033015628E+03  0.61033015628E+03  0.00000000000E+00 0. -1.
         23    2    1    2    0    0  0.19511855173E+01  0.56362443202E+02 -0.41699710874E+03  0.43087391611E+03  0.92656412427E+02 0.  0.
         23    2    1    2    0    0 -0.28374677182E+02 -0.36056809033E+02 -0.15340419355E+03  0.19297199122E+03  0.10770388579E+03 0.  0.
        -11    1    3    3    0    0  0.18859703949E+00 -0.25144418000E+02 -0.13530262031E+03  0.13761931692E+03  0.00000000000E+00 0.  1.
         11    1    3    3    0    0  0.17625884779E+01  0.81506861202E+02 -0.28169448842E+03  0.29325459919E+03  0.00000000000E+00 0. -1.
        -13    1    4    4    0    0 -0.34024125691E+02  0.11642374121E+02 -0.41741926059E+01  0.36202346445E+02  0.00000000000E+00 0.  1.
         13    1    4    4    0    0  0.56494485097E+01 -0.47699183154E+02 -0.14923000095E+03  0.15676964478E+03  0.00000000000E+00 0. -1.
          1    1    1    2  501    0  0.26423491664E+02 -0.20305634169E+02  0.78155846652E+01  0.34228687594E+02  0.00000000000E+00 0. -1.
<scales pt_clust_5="13000.00000" pt_clust_6="13000.00000" pt_clust_7="13000.00000" pt_clust_8="13000.00000" pt_clust_9="33.32446"></scales>
<clustering>
<clus scale="   33.324">  1  9  2 -1</clus>
<clus scale="   92.656">  5  6 -1 -1</clus>
<clus scale="  106.175">  2  5  1 -1</clus>
<clus scale="  107.704">  7  8 -1 -1</clus>
<clus scale="   33.324">  1  5  2 -1</clus>
</clustering>
</event>
<event>
 9    1  0.1315259E-005  0.9114938E+02  0.7546771E-02  0.1301638E+00
          2   -1    0    0  502    0 -0.00000000000E+00  0.00000000000E+00  0.50047281918E+03  0.50047281918E+03  0.00000000000E+00 0. -1.
         21   -1    0    0  501  502  0.00000000000E+00 -0.00000000000E+00 -0.65219872450E+02  0.65219872450E+02  0.00000000000E+00 0. -1.
         23    2    1    2    0    0 -0.41580637379E+01 -0.13410927952E+02  0.29652898691E+03  0.30975202757E+03  0.88429271291E+02 0.  0.
         23    2    1    2    0    0 -0.52688784436E+02 -0.55479377584E+02  0.46783081180E+02  0.12775890440E+03  0.90992371258E+02 0.  0.
        -11    1    4    4    0    0  0.77740693663E+01 -0.53222173715E+02  0.45641495834E+01  0.53980250008E+02  0.00000000000E+00 0.  1.
         11    1    4    4    0    0 -0.60462853802E+02 -0.22572038692E+01  0.42218931597E+02  0.73778654395E+02  0.00000000000E+00 0. -1.
        -11    1    3    3    0    0  0.36452462545E+02 -0.13733808434E+02  0.21684144029E+03  0.22031252744E+03  0.00000000000E+00 0.  1.
         11    1    3    3    0    0 -0.40610526283E+02  0.32288048182E+00  0.79687546625E+02  0.89439500132E+02  0.00000000000E+00 0. -1.
          2    1    1    2  501    0  0.56846848174E+02  0.68890305536E+02  0.91940878633E+02  0.12818175965E+03  0.00000000000E+00 0. -1.
<scales pt_clust_5="13000.00000" pt_clust_6="13000.00000" pt_clust_7="13000.00000" pt_clust_8="13000.00000" pt_clust_9="89.31651"></scales>
<clustering>
<clus scale="   88.429">  7  8 -1 -1</clus>
<clus scale="   89.317">  2  9  1 -1</clus>
<clus scale="   88.591">  1  7  2 -1</clus>
<clus scale="   90.992">  5  6 -1 -1</clus>
<clus scale="   89.317">  2  5  1 -1</clus>
</clustering>
</event>
<event>
 9    1  0.1315259E-005  0.1158769E+03  0.7546771E-02  0.1250264E+00
          1   -1    0    0  502    0 -0.00000000000E+00  0.00000000000E+00  0.73713423826E+03  0.73713423826E+03  0.00000000000E+00 0. -1.
         21   -1    0    0  501  502  0.00000000000E+00 -0.00000000000E+00 -0.32975848219E+02  0.32975848219E+02  0.00000000000E+00 0.  1.
         23    2    1    2    0    0  0.67384773332E+02 -0.77340913244E+00  0.33985015909E+03  0.35833058781E+03  0.91440547266E+02 0.  0.
         23    2    1    2    0    0 -0.72969330505E+02  0.23224728139E+02  0.36944708909E+03  0.38808019769E+03  0.90835989651E+02 0.  0.
        -13    1    4    4    0    0  0.11269889498E+02 -0.17405106514E+02  0.11789521061E+03  0.11970475691E+03  0.00000000000E+00 0. -1.
         13    1    4    4    0    0 -0.84239220003E+02  0.40629834654E+02  0.25155187847E+03  0.26837544078E+03  0.00000000000E+00 0.  1.
        -13    1    3    3    0    0  0.63943244140E+02  0.32956179824E+02  0.16165130588E+03  0.17693499641E+03  0.00000000000E+00 0.  1.
         13    1    3    3    0    0  0.34415291926E+01 -0.33729588956E+02  0.17819885321E+03  0.18139559140E+03  0.00000000000E+00 0. -1.
          1    1    1    2  501    0  0.55845571728E+01 -0.22451319007E+02 -0.51388581375E+01  0.23699300980E+02  0.00000000000E+00 0. -1.
<scales pt_clust_5="13000.00000" pt_clust_6="13000.00000" pt_clust_7="13000.00000" pt_clust_8="13000.00000" pt_clust_9="23.13545"></scales>
<clustering>
<clus scale="   23.135">  2  9  1 -1</clus>
<clus scale="   90.836">  5  6 -1 -1</clus>
<clus scale="   91.441">  7  8 -1 -1</clus>
<clus scale="  115.400">  2  5  1 -1</clus>
<clus scale="   23.135">  2  5  1 -1</clus>
</clustering>
</event>
<event>
 9    1  0.1315259E-005  0.9057197E+02  0.7546771E-02  0.1301809E+00
          1   -1    0    0  502    0 -0.00000000000E+00  0.00000000000E+00  0.30954686662E+02  0.30954686662E+02  0.00000000000E+00 0. -1.
         21   -1    0    0  501  502  0.00000000000E+00 -0.00000000000E+00 -0.49910695306E+03  0.49910695306E+03  0.00000000000E+00 0. -1.
         23    2    1    2    0    0  0.14242610815E+02 -0.92919609825E+01 -0.10598905869E+03  0.14008919083E+03  0.90011712139E+02 0.  0.
         23    2    1    2    0    0  0.27139671611E+02  0.10750700749E+02 -0.17940448166E+03  0.20258148549E+03  0.89449152493E+02 0.  0.
        -11    1    3    3    0    0 -0.73494663124E+01 -0.34637459319E+02 -0.75946293862E+01  0.36213901180E+02  0.00000000000E+00 0.  1.
         11    1    3    3    0    0  0.21592077127E+02  0.25345498336E+02 -0.98394429309E+02  0.10387528965E+03  0.00000000000E+00 0. -1.
        -13    1    4    4    0    0 -0.24457343551E+02 -0.21494441783E+02 -0.51277571508E+02  0.60741765046E+02  0.00000000000E+00 0.  1.
         13    1    4    4    0    0  0.51597015161E+02  0.32245142532E+02 -0.12812691015E+03  0.14183972044E+03  0.00000000000E+00 0. -1.
          1    1    1    2  501    0 -0.41382282426E+02 -0.14587397663E+01 -0.18275872605E+03  0.18739096341E+03  0.00000000000E+00 0. -1.
<scales pt_clust_5="13000.00000" pt_clust_6="13000.00000" pt_clust_7="13000.00000" pt_clust_8="13000.00000" pt_clust_9="41.40798"></scales>
<clustering>
<clus scale="   41.408">  2  9  1 -1</clus>
<clus scale="   89.449">  7  8 -1 -1</clus>
<clus scale="   90.012">  5  6 -1 -1</clus>
<clus scale="   90.013">  2  7  1 -1</clus>
<clus scale="   41.408">  2  5  1 -1</clus>
</clustering>
</event>
<event>
 9    1  0.1315259E-005  0.1457278E+03  0.7546771E-02  0.1205932E+00
         21   -1    0    0  501  502  0.00000000000E+00  0.00000000000E+00  0.49503998546E+02  0.49503998546E+02  0.00000000000E+00 0.  1.
          1   -1    0    0  502    0 -0.00000000000E+00 -0.00000000000E+00 -0.10110738302E+04  0.10110738302E+04  0.00000000000E+00 0. -1.
         23    2    1    2    0    0 -0.10916005506E+03 -0.35570863719E+01 -0.64193908047E+03  0.65755699789E+03  0.91470497726E+02 0.  0.
         23    2    1    2    0    0  0.12025022159E+03  0.35626757979E+02 -0.33243159261E+03  0.36675352917E+03  0.90928574841E+02 0.  0.
        -11    1    4    4    0    0  0.62373136955E+02  0.61137373471E+02 -0.14885386584E+03  0.17258522539E+03  0.00000000000E+00 0. -1.
         11    1    4    4    0    0  0.57877084637E+02 -0.25510615491E+02 -0.18357772677E+03  0.19416830378E+03  0.00000000000E+00 0.  1.
        -11    1    3    3    0    0 -0.10034838534E+03  0.27196332797E+02 -0.56047659690E+03  0.57003811682E+03  0.00000000000E+00 0. -1.
         11    1    3    3    0    0 -0.88116697244E+01 -0.30753419169E+02 -0.81462483574E+02  0.87518881072E+02  0.00000000000E+00 0.  1.
          1    1    1    2  501    0 -0.11090166528E+02 -0.32069671607E+02  0.12800841417E+02  0.36267301686E+02  0.00000000000E+00 0. -1.
<scales pt_clust_5="13000.00000" pt_clust_6="13000.00000" pt_clust_7="13000.00000" pt_clust_8="13000.00000" pt_clust_9="33.93311"></scales>
<clustering>
<clus scale="   33.933">  1  9  2 -1</clus>
<clus scale="   90.929">  5  6 -1 -1</clus>
<clus scale="   91.470">  7  8 -1 -1</clus>
<clus scale="  145.388">  1  5  2 -1</clus>
<clus scale="   33.933">  1  5  2 -1</clus>
</clustering>
</event>
<event>
 9    1  0.1315259E-005  0.9469539E+02  0.7546771E-02  0.1293168E+00
         -2   -1    0    0    0  501 -0.00000000000E+00  0.00000000000E+00  0.52472085631E+03  0.52472085631E+03  0.00000000000E+00 0.  1.
         21   -1    0    0  501  502  0.00000000000E+00 -0.00000000000E+00 -0.28033959091E+02  0.28033959091E+02  0.00000000000E+00 0.  1.
         23    2    1    2    0    0  0.32025461463E+01  0.10392699529E+02  0.28564016133E+03  0.30102458653E+03  0.94378151218E+02 0.  0.
         23    2    1    2    0    0 -0.15176873110E+02  0.27553811759E+02  0.14527022388E+03  0.17485453858E+03  0.92093005683E+02 0.  0.
        -11    1    4    4    0    0  0.23165239403E+02 -0.19891623397E+02  0.23051455818E+02  0.38258000644E+02  0.00000000000E+00 0. -1.
         11    1    4    4    0    0 -0.38342112513E+02  0.47445435156E+02  0.12221876807E+03  0.13659653794E+03  0.00000000000E+00 0.  1.
        -11    1    3    3    0    0 -0.88885871372E+01  0.51117388528E+02  0.17416877937E+03  0.18173265557E+03  0.00000000000E+00 0.  1.
         11    1    3    3    0    0  0.12091133283E+02 -0.40724688999E+02  0.11147138196E+03  0.11929193096E+03  0.00000000000E+00 0. -1.
         -2    1    1    2    0  502  0.11974326963E+02 -0.37946511288E+02  0.65776512003E+02  0.76875690283E+02  0.00000000000E+00 0.  1.
<scales pt_clust_5="13000.00000" pt_clust_6="13000.00000" pt_clust_7="13000.00000" pt_clust_8="13000.00000" pt_clust_9="39.79098"></scales>
<clustering>
<clus scale="   39.791">  2  9  1 -1</clus>
<clus scale="   92.093">  5  6 -1 -1</clus>
<clus scale="   92.418">  2  5  1 -1</clus>
<clus scale="   94.378">  7  8 -1 -1</clus>
<clus scale="   39.791">  2  5  1 -1</clus>
</clustering>
</event>
<event>
 9    1  0.1315259E-005  0.9673933E+02  0.7546771E-02  0.1287488E+00
          1   -1    0    0  502    0 -0.00000000000E+00  0.00000000000E+00  0.14246824814E+03  0.14246824814E+03  0.00000000000E+00 0. -1.
         21   -1    0    0  501  502  0.00000000000E+00 -0.00000000000E+00 -0.25061050704E+03  0.25061050704E+03  0.00000000000E+00 0.  1.
         23    2    1    2    0    0  0.59120189960E+01 -0.34962621296E+02  0.96728355799E+02  0.13791952368E+03  0.91695601528E+02 0.  0.
         23    2    1    2    0    0 -0.26188402844E+02 -0.78923941004E+01 -0.93077304225E+02  0.13372847611E+03  0.92042373032E+02 0.  0.
        -11    1    3    3    0    0  0.71335648302E+01 -0.62817384758E+02  0.40284896034E+02  0.74965221426E+02  0.00000000000E+00 0. -1.
         11    1    3    3    0    0 -0.12215458342E+01  0.27854763462E+02  0.56443459765E+02  0.62954302251E+02  0.00000000000E+00 0.  1.
        -11    1    4    4    0    0 -0.46465837231E+02 -0.36770095272E+02 -0.69300268617E+02  0.91179170682E+02  0.00000000000E+00 0. -1.
         11    1    4    4    0    0  0.20277434388E+02  0.28877701171E+02 -0.23777035608E+02  0.42549305430E+02  0.00000000000E+00 0.  1.
          1    1    1    2  501    0  0.20276383848E+02  0.42855015396E+02 -0.11179331048E+03  0.12143075539E+03  0.00000000000E+00 0. -1.
<scales pt_clust_5="13000.00000" pt_clust_6="13000.00000" pt_clust_7="13000.00000" pt_clust_8="13000.00000" pt_clust_9="47.40975"></scales>
<clustering>
<clus scale="   47.410">  2  9  1 -1</clus>
<clus scale="   91.696">  5  6 -1 -1</clus>
<clus scale="   92.042">  7  8 -1 -1</clus>
<clus scale="   96.409">  1  5  2 -1</clus>
<clus scale="   47.410">  2  5  1 -1</clus>
</clustering>
</event>
<event>
 9    1  0.1315259E-005  0.1431892E+03  0.7546771E-02  0.1209621E+00
         21   -1    0    0  501  502  0.00000000000E+00  0.00000000000E+00  0.71475933274E+02  0.71475933274E+02  0.00000000000E+00 0.  1.
          1   -1    0    0  502    0 -0.00000000000E+00 -0.00000000000E+00 -0.74904141821E+03  0.74904141821E+03  0.00000000000E+00 0. -1.
         23    2    1    2    0    0 -0.76392537875E+02  0.82607526341E+02 -0.63965962456E+03  0.65599862894E+03  0.92249350315E+02 0.  0.
         23    2    1    2    0    0  0.65665207780E+02 -0.59203399188E+02 -0.97672868223E+01  0.12637939769E+03  0.89774106953E+02 0.  0.
        -11    1    3    3    0    0  0.18395430970E+02  0.27033640026E+02 -0.98144181028E+02  0.10344800551E+03  0.00000000000E+00 0.  1.
         11    1    3    3    0    0 -0.94787968845E+02  0.55573886314E+02 -0.54151544353E+03  0.55255062343E+03  0.00000000000E+00 0. -1.
        -11    1    4    4    0    0  0.33163067146E+02  0.17377339559E+02 -0.20189150283E+02  0.42536604728E+02  0.00000000000E+00 0. -1.
         11    1    4    4    0    0  0.32502140634E+02 -0.76580738747E+02  0.10421863460E+02  0.83842792957E+02  0.00000000000E+00 0.  1.
          1    1    1    2  501    0  0.10727330095E+02 -0.23404127152E+02 -0.28138573553E+02  0.38139324854E+02  0.00000000000E+00 0. -1.
<scales pt_clust_5="13000.00000" pt_clust_6="13000.00000" pt_clust_7="13000.00000" pt_clust_8="13000.00000" pt_clust_9="25.74546"></scales>
<clustering>
<clus scale="   25.745">  1  9  2 -1</clus>
<clus scale="   89.774">  7  8 -1 -1</clus>
<clus scale="   92.249">  5  6 -1 -1</clus>
<clus scale="  141.607">  1  7  2 -1</clus>
<clus scale="   25.745">  1  5  2 -1</clus>
</clustering>
</event>
<event>
 9    1  0.1315259E-005  0.1922622E+03  0.7546771E-02  0.1156560E+00
         21   -1    0    0  501  502  0.00000000000E+00  0.00000000000E+00  0.12648816586E+03  0.12648816586E+03  0.00000000000E+00 0. -1.
          1   -1    0    0  502    0 -0.00000000000E+00 -0.00000000000E+00 -0.88288492089E+03  0.88288492089E+03  0.00000000000E+00 0. -1.
         23    2    1    2    0    0 -0.15678988243E+03  0.47093346503E+02 -0.66180617922E+03  0.68792185737E+03  0.91914158232E+02 0.  0.
         23    2    1    2    0    0  0.18824222819E+03 -0.98186613518E+02 -0.29241486258E+02  0.23273665619E+03  0.90749870910E+02 0.  0.
        -11    1    4    4    0    0  0.31818272148E+02  0.14507334323E+02 -0.18705259715E+02  0.39657936566E+02  0.00000000000E+00 0.  1.
         11    1    4    4    0    0  0.15642395604E+03 -0.11269394784E+03 -0.10536226543E+02  0.19307871963E+03  0.00000000000E+00 0. -1.
        -13    1    3    3    0    0 -0.15011794599E+02  0.19654899984E+02 -0.25848116035E+02  0.35774211005E+02  0.00000000000E+00 0.  1.
         13    1    3    3    0    0 -0.14177808783E+03  0.27438446519E+02 -0.63595806318E+03  0.65214764637E+03  0.00000000000E+00 0. -1.
          1    1    1    2  501    0 -0.31452345759E+02  0.51093267015E+02 -0.65349089557E+02  0.88714573176E+02  0.00000000000E+00 0. -1.
<scales pt_clust_5="13000.00000" pt_clust_6="13000.00000" pt_clust_7="13000.00000" pt_clust_8="13000.00000" pt_clust_9="59.99810"></scales>
<clustering>
<clus scale="   59.998">  1  9  2 -1</clus>
<clus scale="   90.750">  5  6 -1 -1</clus>
<clus scale="   91.914">  7  8 -1 -1</clus>
<clus scale="  191.708">  1  5  2 -1</clus>
<clus scale="   59.998">  1  5  2 -1</clus>
</clustering>
</event>
<event>
 9    1  0.1315259E-005  0.9476087E+02  0.7546771E-02  0.1301394E+00
         21   -1    0    0  501  502  0.00000000000E+00  0.00000000000E+00  0.63755443517E+03  0.63755443517E+03  0.00000000000E+00 0. -1.
          2   -1    0    0  502    0 -0.00000000000E+00 -0.00000000000E+00 -0.19992484642E+02  0.19992484642E+02  0.00000000000E+00 0. -1.
         23    2    1    2    0    0 -0.15738894984E+02  0.16151248217E+02  0.18317488575E+03  0.19888941968E+03  0.74130876545E+02 0.  0.
         23    2    1    2    0    0 -0.14312581997E+02 -0.47267974655E+02  0.32695546306E+03  0.34284346393E+03  0.90568507248E+02 0.  0.
        -11    1    4    4    0    0 -0.77394408330E+01  0.25441802186E+02  0.13233323445E+03  0.13497877309E+03  0.00000000000E+00 0.  1.
         11    1    4    4    0    0 -0.65731411639E+01 -0.72709776841E+02  0.19462222860E+03  0.20786469084E+03  0.00000000000E+00 0. -1.
        -13    1    3    3    0    0 -0.34332027922E+02 -0.15773605771E+02  0.11883867422E+03  0.12470014142E+03  0.00000000000E+00 0. -1.
         13    1    3    3    0    0  0.18593132938E+02  0.31924853988E+02  0.64336211528E+02  0.74189278258E+02  0.00000000000E+00 0.  1.
          2    1    1    2  501    0  0.30051476981E+02  0.31116726438E+02  0.10743160172E+03  0.11581403620E+03  0.00000000000E+00 0. -1.
<scales pt_clust_5="13000.00000" pt_clust_6="13000.00000" pt_clust_7="13000.00000" pt_clust_8="13000.00000" pt_clust_9="43.25903"></scales>
<clustering>
<clus scale="   43.259">  1  9  2 -1</clus>
<clus scale="   74.131">  7  8 -1 -1</clus>
<clus scale="   79.198">  2  7  1 -1</clus>
<clus scale="   90.569">  5  6 -1 -1</clus>
<clus scale="   43.259">  1  5  2 -1</clus>
</clustering>
</event>
<event>
 9    1  0.1315259E-005  0.3734303E+03  0.7546771E-02  0.1053433E+00
          2   -1    0    0  502    0 -0.00000000000E+00  0.00000000000E+00  0.57747252500E+03  0.57747252500E+03  0.00000000000E+00 0. -1.
         21   -1    0    0  501  502  0.00000000000E+00 -0.00000000000E+00 -0.35653647550E+03  0.35653647550E+03  0.00000000000E+00 0. -1.
         23    2    1    2    0    0  0.26229839289E+02 -0.35253180884E+03  0.16107701518E+03  0.39902962384E+03  0.91171021524E+02 0.  0.
         23    2    1    2    0    0 -0.61863403591E+01  0.37132191362E+03  0.17246064228E+03  0.41907453639E+03  0.89233175290E+02 0.  0.
        -11    1    4    4    0    0  0.31022362617E+02  0.78869330804E+02  0.58616589621E+02  0.10304689662E+03  0.00000000000E+00 0.  1.
         11    1    4    4    0    0 -0.37208702976E+02  0.29245258282E+03  0.11384405265E+03  0.31602763977E+03  0.00000000000E+00 0. -1.
        -13    1    3    3    0    0 -0.18954418090E+02 -0.22401189020E+03  0.12854426808E+03  0.25896761529E+03  0.00000000000E+00 0.  1.
         13    1    3    3    0    0  0.45184257379E+02 -0.12851991864E+03  0.32532747102E+02  0.14006200854E+03  0.00000000000E+00 0. -1.
          2    1    1    2  501    0 -0.20043498930E+02 -0.18790104780E+02 -0.11260160795E+03  0.11590484028E+03  0.00000000000E+00 0. -1.
<scales pt_clust_5="13000.00000" pt_clust_6="13000.00000" pt_clust_7="13000.00000" pt_clust_8="13000.00000" pt_clust_9="27.47380"></scales>
<clustering>
<clus scale="   27.474">  2  9  1 -1</clus>
<clus scale="   89.233">  5  6 -1 -1</clus>
<clus scale="   91.171">  7  8 -1 -1</clus>
<clus scale="  372.962">  2  5  1 -1</clus>
<clus scale="   27.474">  2  5  1 -1</clus>
</clustering>
</event>
<event>
 9    1  0.1315259E-005  0.1328935E+03  0.7546771E-02  0.1223347E+00
         21   -1    0    0  501  502  0.00000000000E+00  0.00000000000E+00  0.45703121049E+03  0.45703121049E+03  0.00000000000E+00 0. -1.
         -3   -1    0    0    0  501 -0.00000000000E+00 -0.00000000000E+00 -0.77422702103E+02  0.77422702103E+02  0.00000000000E+00 0.  1.
         23    2    1    2    0    0 -0.38042000599E+02 -0.79773062399E+02  0.23792420747E+02  0.12980450979E+03  0.92044533692E+02 0.  0.
         23    2    1    2    0    0  0.43645906419E+02  0.11445970174E+03  0.24911037715E+03  0.29230762358E+03  0.91552052559E+02 0.  0.
        -11    1    3    3    0    0  0.29132428131E+02 -0.38859148962E+02  0.13997056986E+02  0.50543539955E+02  0.00000000000E+00 0.  1.
         11    1    3    3    0    0 -0.67174428730E+02 -0.40913913437E+02  0.97953637607E+01  0.79260969835E+02  0.00000000000E+00 0. -1.
        -11    1    4    4    0    0  0.11337516614E+02  0.94853148122E+02  0.99245105072E+02  0.13775068012E+03  0.00000000000E+00 0.  1.
         11    1    4    4    0    0  0.32308389805E+02  0.19606553614E+02  0.14986527208E+03  0.15455694346E+03  0.00000000000E+00 0. -1.
         -3    1    1    2    0  502 -0.56039058199E+01 -0.34686639337E+02  0.10670571049E+03  0.11234177923E+03  0.00000000000E+00 0.  1.
<scales pt_clust_5="13000.00000" pt_clust_6="13000.00000" pt_clust_7="13000.00000" pt_clust_8="13000.00000" pt_clust_9="35.13640"></scales>
<clustering>
<clus scale="   35.136">  1  9  2 -1</clus>
<clus scale="   91.552">  7  8 -1 -1</clus>
<clus scale="   92.045">  5  6 -1 -1</clus>
<clus scale="  132.553">  1  7  2 -1</clus>
<clus scale="   35.136">  1  5  2 -1</clus>
</clustering>
</event>
<event>
 9    1  0.1315259E-005  0.9237444E+02  0.7546771E-02  0.1297321E+00
          1   -1    0    0  502    0 -0.00000000000E+00  0.00000000000E+00  0.83041337036E+02  0.83041337036E+02  0.00000000000E+00 0. -1.
         21   -1    0    0  501  502  0.00000000000E+00 -0.00000000000E+00 -0.17592150636E+03  0.17592150636E+03  0.00000000000E+00 0.  1.
         23    2    1    2    0    0  0.10275350578E+01  0.10560142139E+02  0.17599485116E+02  0.93674078682E+02  0.91392115143E+02 0.  0.
         23    2    1    2    0    0 -0.21489357686E+02 -0.13231669524E+02 -0.63417236127E+02  0.11390107688E+03  0.91185743970E+02 0.  0.
        -13    1    3    3    0    0  0.25520334486E+02  0.38576123846E+02  0.29194546941E+02  0.54696676081E+02  0.00000000000E+00 0. -1.
         13    1    3    3    0    0 -0.24492799428E+02 -0.28015981706E+02 -0.11595061825E+02  0.38977402601E+02  0.00000000000E+00 0.  1.
        -13    1    4    4    0    0  0.63523954295E+01 -0.47323678394E+02 -0.46781533655E+02  0.66846057143E+02  0.00000000000E+00 0.  1.
         13    1    4    4    0    0 -0.27841753116E+02  0.34092008870E+02 -0.16635702472E+02  0.47055019733E+02  0.00000000000E+00 0. -1.
          1    1    1    2  501    0  0.20461822628E+02  0.26715273850E+01 -0.47062418317E+02  0.51387687842E+02  0.00000000000E+00 0. -1.
<scales pt_clust_5="13000.00000" pt_clust_6="13000.00000" pt_clust_7="13000.00000" pt_clust_8="13000.00000" pt_clust_9="20.63549"></scales>
<clustering>
<clus scale="   20.635">  2  9  1 -1</clus>
<clus scale="   91.186">  7  8 -1 -1</clus>
<clus scale="   91.392">  5  6 -1 -1</clus>
<clus scale="   92.170">  2  7  1 -1</clus>
<clus scale="   20.635">  2  5  1 -1</clus>
</clustering>
</event>
<event>
 9    1  0.1315259E-005  0.1201264E+03  0.7546771E-02  0.1246059E+00
          3   -1    0    0  502    0 -0.00000000000E+00  0.00000000000E+00  0.39338802876E+03  0.39338802876E+03  0.00000000000E+00 0. -1.
         21   -1    0    0  501  502  0.00000000000E+00 -0.00000000000E+00 -0.44348285985E+02  0.44348285985E+02  0.00000000000E+00 0.  1.
         23    2    1    2    0    0  0.78056793956E+02 -0.29216772591E+02  0.21600702641E+03  0.24625587195E+03  0.83883467550E+02 0.  0.
         23    2    1    2    0    0 -0.61188620540E+02  0.18120721562E+02  0.12743385698E+03  0.17052800023E+03  0.93637615976E+02 0.  0.
        -11    1    3    3    0    0  0.62747566329E+02  0.13706679163E+02  0.78687470098E+02  0.10157188629E+03  0.00000000000E+00 0.  1.
         11    1    3    3    0    0  0.15309227627E+02 -0.42923451755E+02  0.13731955632E+03  0.14468398567E+03  0.00000000000E+00 0. -1.
        -13    1    4    4    0    0 -0.39762668451E+01  0.30840163853E+02  0.93286869219E+00  0.31109430218E+02  0.00000000000E+00 0.  1.
         13    1    4    4    0    0 -0.57212353695E+02 -0.12719442292E+02  0.12650098829E+03  0.13941857001E+03  0.00000000000E+00 0. -1.
          3    1    1    2  501    0 -0.16868173416E+02  0.11096051030E+02  0.55988593865E+01  0.20952442561E+02  0.00000000000E+00 0. -1.
<scales pt_clust_5="13000.00000" pt_clust_6="13000.00000" pt_clust_7="13000.00000" pt_clust_8="13000.00000" pt_clust_9="20.19053"></scales>
<clustering>
<clus scale="   20.191">  2  9  1 -1</clus>
<clus scale="   83.883">  5  6 -1 -1</clus>
<clus scale="   93.638">  7  8 -1 -1</clus>
<clus scale="  112.689">  1  5  2 -1</clus>
<clus scale="   20.191">  2  5  1 -1</clus>
</clustering>
</event>
<event>
 9    1  0.1315259E-005  0.1183884E+03  0.7546771E-02  0.1248387E+00
          2   -1    0    0  502    0 -0.00000000000E+00  0.00000000000E+00  0.69917180561E+02  0.69917180561E+02  0.00000000000E+00 0. -1.
         21   -1    0    0  501  502  0.00000000000E+00 -0.00000000000E+00 -0.41260249277E+03  0.41260249277E+03  0.00000000000E+00 0. -1.
         23    2    1    2    0    0 -0.55564258616E+02 -0.46630136937E+02 -0.21496951965E+02  0.12145729247E+03  0.95015779969E+02 0.  0.
         23    2    1    2    0    0  0.19907095211E+02  0.72454742475E+02 -0.18523582515E+03  0.21815879326E+03  0.87378292546E+02 0.  0.
        -13    1    4    4    0    0 -0.20995996605E+02 -0.79896085596E+01 -0.20949606051E+02  0.30717286860E+02  0.00000000000E+00 0.  1.
         13    1    4    4    0    0  0.40903091816E+02  0.80444351034E+02 -0.16428621910E+03  0.18744150640E+03  0.00000000000E+00 0. -1.
        -13    1    3    3    0    0  0.22072265259E+02 -0.20382114082E+02 -0.25499419527E+02  0.39406038425E+02  0.00000000000E+00 0.  1.
         13    1    3    3    0    0 -0.77636523875E+02 -0.26248022855E+02  0.40024675629E+01  0.82051254041E+02  0.00000000000E+00 0. -1.
          2    1    1    2  501    0  0.35657163404E+02 -0.25824605538E+02 -0.13595253509E+03  0.14290358760E+03  0.00000000000E+00 0. -1.
<scales pt_clust_5="13000.00000" pt_clust_6="13000.00000" pt_clust_7="13000.00000" pt_clust_8="13000.00000" pt_clust_9="44.02662"></scales>
<clustering>
<clus scale="   44.027">  2  9  1 -1</clus>
<clus scale="   87.378">  5  6 -1 -1</clus>
<clus scale="   95.016">  7  8 -1 -1</clus>
<clus scale="  112.351">  2  5  1 -1</clus>
<clus scale="   44.027">  2  5  1 -1</clus>
</clustering>
</event>
<event>
 9    1  0.1315259E-005  0.1680656E+03  0.7546771E-02  0.1182373E+00
          3   -1    0    0  502    0 -0.00000000000E+00  0.00000000000E+00  0.78053076095E+03  0.78053076095E+03  0.00000000000E+00 0. -1.
         21   -1    0    0  501  502  0.00000000000E+00 -0.00000000000E+00 -0.39396215678E+02  0.39396215678E+02  0.00000000000E+00 0.  1.
         23    2    1    2    0    0 -0.13507732431E+03  0.26734571212E+02  0.34095098602E+03  0.37560641257E+03  0.76628855258E+02 0.  0.
         23    2    1    2    0    0  0.13352918611E+03 -0.47930718827E+02  0.33541203314E+03  0.37615148015E+03  0.94134513831E+02 0.  0.
        -11    1    3    3    0    0 -0.10219381866E+03 -0.10201161914E+02  0.27209301194E+03  0.29083027254E+03  0.00000000000E+00 0. -1.
         11    1    3    3    0    0 -0.32883505652E+02  0.36935733126E+02  0.68857974080E+02  0.84776140039E+02  0.00000000000E+00 0.  1.
        -11    1    4    4    0    0  0.48383356016E+01 -0.39063114069E+02  0.56562364959E+02  0.68910358451E+02  0.00000000000E+00 0. -1.
         11    1    4    4    0    0  0.12869085050E+03 -0.88676047588E+01  0.27884966819E+03  0.30724112170E+03  0.00000000000E+00 0.  1.
          3    1    1    2  501    0  0.15481382019E+01  0.21196147615E+02  0.64771526102E+02  0.68169083896E+02  0.00000000000E+00 0. -1.
<scales pt_clust_5="13000.00000" pt_clust_6="13000.00000" pt_clust_7="13000.00000" pt_clust_8="13000.00000" pt_clust_9="21.25262"></scales>
<clustering>
<clus scale="   21.253">  2  9  1 -1</clus>
<clus scale="   76.629">  5  6 -1 -1</clus>
<clus scale="   94.135">  7  8 -1 -1</clus>
<clus scale="  158.924">  1  5  2 -1</clus>
<clus scale="   21.253">  2  5  1 -1</clus>
</clustering>
</event>
<event>
 9    1  0.1315259E-005  0.1225281E+03  0.7546771E-02  0.1239493E+00
         21   -1    0    0  501  502  0.00000000000E+00  0.00000000000E+00  0.30468650666E+03  0.30468650666E+03  0.00000000000E+00 0. -1.
          1   -1    0    0  502    0 -0.00000000000E+00 -0.00000000000E+00 -0.63062628246E+02  0.63062628246E+02  0.00000000000E+00 0. -1.
         23    2    1    2    0    0  0.18332034063E+02 -0.75016446687E+02  0.61065907720E+02  0.13499536544E+03  0.92364348410E+02 0.  0.
         23    2    1    2    0    0 -0.23763230137E+01  0.87788809994E+02  0.15945499011E+03  0.20337599268E+03  0.90682845437E+02 0.  0.
        -11    1    3    3    0    0 -0.38045021291E+01 -0.80598878989E+02  0.12927257898E+02  0.81717608430E+02  0.00000000000E+00 0.  1.
         11    1    3    3    0    0  0.22136536192E+02  0.55824323017E+01  0.48138649822E+02  0.53277757007E+02  0.00000000000E+00 0. -1.
        -11    1    4    4    0    0  0.15881433214E+02 -0.14820713586E+02  0.32991844758E+02  0.39501079639E+02  0.00000000000E+00 0.  1.
         11    1    4    4    0    0 -0.18257756228E+02  0.10260952358E+03  0.12646314535E+03  0.16387491304E+03  0.00000000000E+00 0. -1.
          1    1    1    2  501    0 -0.15955711049E+02 -0.12772363307E+02  0.21102980582E+02  0.29377776787E+02  0.00000000000E+00 0. -1.
<scales pt_clust_5="13000.00000" pt_clust_6="13000.00000" pt_clust_7="13000.00000" pt_clust_8="13000.00000" pt_clust_9="20.43815"></scales>
<clustering>
<clus scale="   20.438">  1  9  2 -1</clus>
<clus scale="   90.683">  7  8 -1 -1</clus>
<clus scale="   92.364">  5  6 -1 -1</clus>
<clus scale="  121.266">  1  7  2 -1</clus>
<clus scale="   20.438">  1  5  2 -1</clus>
</clustering>
</event>
<event>
 9    1  0.3309242E-005  0.1019022E+03  0.7546771E-02  0.1276608E+00
          2   -1    0    0  502    0 -0.00000000000E+00  0.00000000000E+00  0.29783543443E+03  0.29783543443E+03  0.00000000000E+00 0. -1.
         21   -1    0    0  501  502  0.00000000000E+00 -0.00000000000E+00 -0.44247374066E+03  0.44247374066E+03  0.00000000000E+00 0. -1.
         23    2    1    2    0    0  0.60697964895E+02 -0.14693843629E+02  0.23353372808E+03  0.25779746361E+03  0.89562146640E+02 0.  0.
         23    2    1    2    0    0  0.17412675489E+01 -0.13936252577E+02  0.67802225686E+01  0.91479001552E+02  0.90139808954E+02 0.  0.
        -11    1    3    3    0    0  0.13176053699E+02 -0.48129919712E+02  0.89249589069E+02  0.10225256335E+03  0.00000000000E+00 0. -1.
         11    1    3    3    0    0  0.47521911196E+02  0.33436076083E+02  0.14428413901E+03  0.15554490026E+03  0.00000000000E+00 0.  1.
        -13    1    4    4    0    0  0.12726836807E+02 -0.49896646211E+02 -0.58223223287E+01  0.51822264670E+02  0.00000000000E+00 0. -1.
         13    1    4    4    0    0 -0.10985569258E+02  0.35960393634E+02  0.12602544897E+02  0.39656736882E+02  0.00000000000E+00 0.  1.
          2    1    1    2  501    0 -0.62439232444E+02  0.28630096205E+02 -0.38495225688E+03  0.39103270993E+03  0.00000000000E+00 0. -1.
<scales pt_clust_5="13000.00000" pt_clust_6="13000.00000" pt_clust_7="13000.00000" pt_clust_8="13000.00000" pt_clust_9="68.69018"></scales>
<clustering>
<clus scale="   68.690">  2  9  1 -1</clus>
<clus scale="   89.562">  5  6 -1 -1</clus>
<clus scale="   90.140">  7  8 -1 -1</clus>
<clus scale="  101.392">  1  5  2 -1</clus>
<clus scale="   68.690">  2  5  1 -1</clus>
</clustering>
</event>
<event>
 9    1  0.1315259E-005  0.9592983E+02  0.7546771E-02  0.1289700E+00
         21   -1    0    0  501  502  0.00000000000E+00  0.00000000000E+00  0.81904227099E+02  0.81904227099E+02  0.00000000000E+00 0.  1.
         -3   -1    0    0    0  501 -0.00000000000E+00 -0.00000000000E+00 -0.38266048186E+03  0.38266048186E+03  0.00000000000E+00 0.  1.
         23    2    1    2    0    0 -0.13792908420E+02 -0.33883363943E+02 -0.26354870342E+03  0.28159658628E+03  0.92197568596E+02 0.  0.
         23    2    1    2    0    0 -0.31733325958E+02  0.63142671644E+01 -0.70998974071E+02  0.11992406377E+03  0.91071690477E+02 0.  0.
        -11    1    4    4    0    0 -0.13596395604E+02  0.47483292157E+02 -0.49984805747E+02  0.70270945725E+02  0.00000000000E+00 0. -1.
         11    1    4    4    0    0 -0.18136930354E+02 -0.41169024992E+02 -0.21014168324E+02  0.49653118047E+02  0.00000000000E+00 0.  1.
        -13    1    3    3    0    0  0.33223832929E+02  0.93862555555E+01 -0.10976857034E+03  0.11506982186E+03  0.00000000000E+00 0. -1.
         13    1    3    3    0    0 -0.47016741349E+02 -0.43269619499E+02 -0.15378013307E+03  0.16652676442E+03  0.00000000000E+00 0.  1.
         -3    1    1    2    0  502  0.45526234378E+02  0.27569096779E+02  0.33791422728E+02  0.63044058910E+02  0.00000000000E+00 0.  1.
<scales pt_clust_5="13000.00000" pt_clust_6="13000.00000" pt_clust_7="13000.00000" pt_clust_8="13000.00000" pt_clust_9="53.22305"></scales>
<clustering>
<clus scale="   53.223">  1  9  2 -1</clus>
<clus scale="   91.072">  5  6 -1 -1</clus>
<clus scale="   92.198">  7  8 -1 -1</clus>
<clus scale="   94.848">  1  5  2 -1</clus>
<clus scale="   53.223">  1  5  2 -1</clus>
</clustering>
</event>
<event>
 9    1  0.1315259E-005  0.1750071E+03  0.7546771E-02  0.1200473E+00
          3   -1    0    0  502    0 -0.00000000000E+00  0.00000000000E+00  0.76270326607E+03  0.76270326607E+03  0.00000000000E+00 0. -1.
         21   -1    0    0  501  502  0.00000000000E+00 -0.00000000000E+00 -0.59524461773E+02  0.59524461773E+02  0.00000000000E+00 0.  1.
         23    2    1    2    0    0  0.64223191199E+00 -0.22357669752E+02  0.18298566037E+03  0.20592347859E+03  0.91763006030E+02 0.  0.
         23    2    1    2    0    0  0.14738478467E+03  0.35252408497E+02  0.33520605046E+03  0.37903120680E+03  0.91304722806E+02 0.  0.
        -11    1    4    4    0    0 -0.82194843842E+01  0.18514406989E+02  0.33455708843E+02  0.39110454407E+02  0.00000000000E+00 0. -1.
         11    1    4    4    0    0  0.15560426905E+03  0.16738001508E+02  0.30175034162E+03  0.33992075239E+03  0.00000000000E+00 0.  1.
        -13    1    3    3    0    0 -0.10206604890E+02 -0.48468188556E+02  0.51583116475E+02  0.71513341347E+02  0.00000000000E+00 0.  1.
         13    1    3    3    0    0  0.10848836802E+02  0.26110518804E+02  0.13140254390E+03  0.13441013725E+03  0.00000000000E+00 0. -1.
          3    1    1    2  501    0 -0.14802701658E+03 -0.12894738745E+02  0.18498709347E+03  0.23727304245E+03  0.00000000000E+00 0. -1.
<scales pt_clust_5="13000.00000" pt_clust_6="13000.00000" pt_clust_7="13000.00000" pt_clust_8="13000.00000" pt_clust_9="149.30144"></scales>
<clustering>
<clus scale="   91.305">  5  6 -1 -1</clus>
<clus scale="   91.763">  7  8 -1 -1</clus>
<clus scale="   94.450">  1  7  2 -1</clus>
<clus scale="  149.301">  2  9  1 -1</clus>
<clus scale="  149.301">  2  5  1 -1</clus>
</clustering>
</event>
<event>
 9    1  0.1315259E-005  0.2101068E+03  0.7546771E-02  0.1142645E+00
          1   -1    0    0  502    0 -0.00000000000E+00  0.00000000000E+00  0.22201605311E+03  0.22201605311E+03  0.00000000000E+00 0. -1.
         21   -1    0    0  501  502  0.00000000000E+00 -0.00000000000E+00 -0.79706010508E+03  0.79706010508E+03  0.00000000000E+00 0. -1.
         23    2    1    2    0    0  0.16581803615E+03  0.84266052586E+02  0.55116240850E+02  0.21254096280E+03  0.86830133776E+02 0.  0.
         23    2    1    2    0    0 -0.92265431453E+02 -0.19599927360E+03 -0.62907773802E+03  0.67276124329E+03  0.99700877122E+02 0.  0.
        -13    1    3    3    0    0  0.13882111395E+03  0.95587362988E+02  0.66416168518E+02  0.18116112464E+03  0.00000000000E+00 0. -1.
         13    1    3    3    0    0  0.26996922201E+02 -0.11321310401E+02 -0.11299927668E+02  0.31379838158E+02  0.00000000000E+00 0.  1.
        -13    1    4    4    0    0  0.54450288750E+01 -0.10207887131E+03 -0.24491337751E+03  0.26539085665E+03  0.00000000000E+00 0. -1.
         13    1    4    4    0    0 -0.97710460328E+02 -0.93920402289E+02 -0.38416436051E+03  0.40737038664E+03  0.00000000000E+00 0.  1.
          1    1    1    2  501    0 -0.73552604698E+02  0.11173322101E+03 -0.10825547926E+01  0.13377395210E+03  0.00000000000E+00 0. -1.
<scales pt_clust_5="13000.00000" pt_clust_6="13000.00000" pt_clust_7="13000.00000" pt_clust_8="13000.00000" pt_clust_9="133.76964"></scales>
<clustering>
<clus scale="   86.830">  5  6 -1 -1</clus>
<clus scale="   99.701">  7  8 -1 -1</clus>
<clus scale="  133.770">  2  9  1 -1</clus>
<clus scale="  204.314">  1  5  2 -1</clus>
<clus scale="  133.770">  2  5  1 -1</clus>
</clustering>
</event>
<event>
 9    1  0.1315259E-005  0.9971258E+02  0.7546771E-02  0.1281496E+00
          2   -1    0    0  502    0 -0.00000000000E+00  0.00000000000E+00  0.50603244431E+03  0.50603244431E+03  0.00000000000E+00 0. -1.
         21   -1    0    0  501  502  0.00000000000E+00 -0.00000000000E+00 -0.41508261611E+02  0.41508261611E+02  0.00000000000E+00 0.  1.
         23    2    1    2    0    0 -0.35020775022E+01 -0.30943967837E+02  0.24834527777E+03  0.26657704890E+03  0.91750489444E+02 0.  0.
         23    2    1    2    0    0 -0.12107149904E+02  0.48497977575E+02  0.23106659158E+03  0.25315296750E+03  0.90531863458E+02 0.  0.
        -11    1    4    4    0    0 -0.34663045946E+02 -0.11545472594E+02  0.11340068803E+03  0.11914084412E+03  0.00000000000E+00 0. -1.
         11    1    4    4    0    0  0.22555896042E+02  0.60043450169E+02  0.11766590355E+03  0.13401212338E+03  0.00000000000E+00 0.  1.
        -11    1    3    3    0    0  0.26189243613E+02 -0.51159651539E+02  0.11619539640E+03  0.12963239013E+03  0.00000000000E+00 0.  1.
         11    1    3    3    0    0 -0.29691321115E+02  0.20215683702E+02  0.13214988137E+03  0.13694465876E+03  0.00000000000E+00 0. -1.
          2    1    1    2  501    0  0.15609227406E+02 -0.17554009739E+02 -0.14887686653E+02  0.27810689528E+02  0.00000000000E+00 0. -1.
<scales pt_clust_5="13000.00000" pt_clust_6="13000.00000" pt_clust_7="13000.00000" pt_clust_8="13000.00000" pt_clust_9="23.49024"></scales>
<clustering>
<clus scale="   23.490">  2  9  1 -1</clus>
<clus scale="   90.532">  5  6 -1 -1</clus>
<clus scale="   91.750">  7  8 -1 -1</clus>
<clus scale="   98.592">  2  5  1 -1</clus>
<clus scale="   23.490">  2  5  1 -1</clus>
</clustering>
</event>
<event>
 9    1  0.1315259E-005  0.1066697E+03  0.7546771E-02  0.1271119E+00
          2   -1    0    0  502    0 -0.00000000000E+00  0.00000000000E+00  0.79140456113E+03  0.79140456113E+03  0.00000000000E+00 0. -1.
         21   -1    0    0  501  502  0.00000000000E+00 -0.00000000000E+00 -0.23367366660E+02  0.23367366660E+02  0.00000000000E+00 0. -1.
         23    2    1    2    0    0  0.60915947497E+02 -0.50411357218E+02  0.38716664626E+03  0.40554449082E+03  0.91193554920E+02 0.  0.
         23    2    1    2    0    0 -0.80853653717E+01  0.32001074674E+02  0.17248955616E+03  0.19346681323E+03  0.81162299890E+02 0.  0.
        -13    1    4    4    0    0 -0.40272834162E+02  0.16754399239E+02  0.13448514281E+03  0.14138198153E+03  0.00000000000E+00 0.  1.
         13    1    4    4    0    0  0.32187468791E+02  0.15246675434E+02  0.38004413354E+02  0.52084831701E+02  0.00000000000E+00 0. -1.
        -13    1    3    3    0    0  0.67413998411E+02 -0.70829442230E+02  0.33912969550E+03  0.35294533208E+03  0.00000000000E+00 0. -1.
         13    1    3    3    0    0 -0.64980509142E+01  0.20418085012E+02  0.48036950766E+02  0.52599158740E+02  0.00000000000E+00 0.  1.
          2    1    1    2  501    0 -0.52830582125E+02  0.18410282544E+02  0.20838099204E+03  0.21576062374E+03  0.00000000000E+00 0. -1.
<scales pt_clust_5="13000.00000" pt_clust_6="13000.00000" pt_clust_7="13000.00000" pt_clust_8="13000.00000" pt_clust_9="55.94651"></scales>
<clustering>
<clus scale="   55.947">  2  9  1 -1</clus>
<clus scale="   81.162">  5  6 -1 -1</clus>
<clus scale="   91.194">  7  8 -1 -1</clus>
<clus scale="   98.232">  2  5  1 -1</clus>
<clus scale="   55.947">  2  5  1 -1</clus>
</clustering>
</event>
<event>
 9    1  0.1315259E-005  0.1078077E+03  0.7546771E-02  0.1264823E+00
          3   -1    0    0  502    0 -0.00000000000E+00  0.00000000000E+00  0.39922480707E+03  0.39922480707E+03  0.00000000000E+00 0. -1.
         21   -1    0    0  501  502  0.00000000000E+00 -0.00000000000E+00 -0.86543073645E+02  0.86543073645E+02  0.00000000000E+00 0. -1.
         23    2    1    2    0    0 -0.57822527260E+02  0.50958521508E+01  0.21084838470E+03  0.23684518981E+03  0.90935088046E+02 0.  0.
         23    2    1    2    0    0  0.43722132365E+02 -0.52035371931E+02  0.14450597848E+03  0.18393736191E+03  0.91277984751E+02 0.  0.
        -11    1    4    4    0    0  0.34444193235E+00 -0.62709485882E+02  0.11312840134E+03  0.12934694991E+03  0.00000000000E+00 0. -1.
         11    1    4    4    0    0  0.43377690432E+02  0.10674113950E+02  0.31377577134E+02  0.54590412003E+02  0.00000000000E+00 0.  1.
        -11    1    3    3    0    0 -0.59159377829E+02  0.27106689699E+02  0.20342184842E+03  0.21357680826E+03  0.00000000000E+00 0. -1.
         11    1    3    3    0    0  0.13368505690E+01 -0.22010837548E+02  0.74265362842E+01  0.23268381555E+02  0.00000000000E+00 0.  1.
          3    1    1    2  501    0  0.14100394895E+02  0.46939519781E+02 -0.42672629758E+02  0.64985328989E+02  0.00000000000E+00 0. -1.
<scales pt_clust_5="13000.00000" pt_clust_6="13000.00000" pt_clust_7="13000.00000" pt_clust_8="13000.00000" pt_clust_9="49.01163"></scales>
<clustering>
<clus scale="   49.012">  2  9  1 -1</clus>
<clus scale="   90.935">  7  8 -1 -1</clus>
<clus scale="   91.278">  5  6 -1 -1</clus>
<clus scale="  107.517">  1  7  2 -1</clus>
<clus scale="   49.012">  2  5  1 -1</clus>
</clustering>
</event>
<event>
 9    1  0.1315259E-005  0.9663901E+02  0.7546771E-02  0.1288410E+00
         21   -1    0    0  501  502  0.00000000000E+00  0.00000000000E+00  0.33330485244E+02  0.33330485244E+02  0.00000000000E+00 0. -1.
          3   -1    0    0  502    0 -0.00000000000E+00 -0.00000000000E+00 -0.62669236424E+03  0.62669236424E+03  0.00000000000E+00 0. -1.
         23    2    1    2    0    0 -0.37999665922E+02 -0.19350217045E+02 -0.39448939352E+03  0.40713882642E+03  0.91223554342E+02 0.  0.
         23    2    1    2    0    0 -0.18273588520E+02  0.33355664597E+02 -0.13766642506E+03  0.16856905667E+03  0.89537466343E+02 0.  0.
        -13    1    4    4    0    0  0.29874656614E+02  0.59598599422E+01 -0.14961919097E+02  0.33939270195E+02  0.00000000000E+00 0.  1.
         13    1    4    4    0    0 -0.48148245134E+02  0.27395804655E+02 -0.12270450596E+03  0.13462978647E+03  0.00000000000E+00 0. -1.
        -13    1    3    3    0    0 -0.65852157055E+02  0.14223297422E+01 -0.26611201562E+03  0.27414254407E+03  0.00000000000E+00 0. -1.
         13    1    3    3    0    0  0.27852491132E+02 -0.20772546787E+02 -0.12837737790E+03  0.13299628235E+03  0.00000000000E+00 0.  1.
          3    1    1    2  501    0  0.56273254443E+02 -0.14005447553E+02 -0.61206060410E+02  0.84314966392E+02  0.00000000000E+00 0. -1.
<scales pt_clust_5="13000.00000" pt_clust_6="13000.00000" pt_clust_7="13000.00000" pt_clust_8="13000.00000" pt_clust_9="57.98993"></scales>
<clustering>
<clus scale="   57.990">  1  9  2 -1</clus>
<clus scale="   89.537">  5  6 -1 -1</clus>
<clus scale="   91.224">  7  8 -1 -1</clus>
<clus scale="   95.049">  1  5  2 -1</clus>
<clus scale="   57.990">  1  5  2 -1</clus>
</clustering>
</event>
<event>
 9    1  0.1315259E-005  0.1021835E+03  0.7546771E-02  0.1277463E+00
         -1   -1    0    0    0  501 -0.00000000000E+00  0.00000000000E+00  0.15460774429E+03  0.15460774429E+03  0.00000000000E+00 0.  1.
         21   -1    0    0  501  502  0.00000000000E+00 -0.00000000000E+00 -0.14352814779E+03  0.14352814779E+03  0.00000000000E+00 0. -1.
         23    2    1    2    0    0  0.88662744145E+00  0.49053824918E+02  0.66394098389E+02  0.12114757738E+03  0.88665074059E+02 0.  0.
         23    2    1    2    0    0 -0.24027218388E+01 -0.22631464269E+02 -0.91648203295E+02  0.13203747997E+03  0.92285138034E+02 0.  0.
        -11    1    3    3    0    0  0.24005569330E+02 -0.18057777298E+02  0.24175037922E+02  0.38558826983E+02  0.00000000000E+00 0.  1.
         11    1    3    3    0    0 -0.23118941889E+02  0.67111602216E+02  0.42219060467E+02  0.82588750401E+02  0.00000000000E+00 0. -1.
        -13    1    4    4    0    0  0.42326554991E+02 -0.92590048133E+01 -0.23097861194E+02  0.49099670256E+02  0.00000000000E+00 0.  1.
         13    1    4    4    0    0 -0.44729276830E+02 -0.13372459456E+02 -0.68550342101E+02  0.82937809712E+02  0.00000000000E+00 0. -1.
         -1    1    1    2    0  502  0.15160943974E+01 -0.26422360649E+02  0.36333701407E+02  0.44950834724E+02  0.00000000000E+00 0.  1.
<scales pt_clust_5="13000.00000" pt_clust_6="13000.00000" pt_clust_7="13000.00000" pt_clust_8="13000.00000" pt_clust_9="26.46583"></scales>
<clustering>
<clus scale="   26.466">  2  9  1 -1</clus>
<clus scale="   88.665">  5  6 -1 -1</clus>
<clus scale="   92.285">  7  8 -1 -1</clus>
<clus scale="   98.926">  1  5  2 -1</clus>
<clus scale="   26.466">  2  5  1 -1</clus>
</clustering>
</event>
<event>
 9    1  0.1315259E-005  0.9534961E+02  0.7546771E-02  0.1291681E+00
          1   -1    0    0  502    0 -0.00000000000E+00  0.00000000000E+00  0.31471973124E+03  0.31471973124E+03  0.00000000000E+00 0. -1.
         21   -1    0    0  501  502  0.00000000000E+00 -0.00000000000E+00 -0.10706355046E+03  0.10706355046E+03  0.00000000000E+00 0.  1.
         23    2    1    2    0    0  0.61234741976E+01  0.33830257664E+02  0.17902427368E+03  0.20433654951E+03  0.92313333987E+02 0.  0.
         23    2    1    2    0    0 -0.32178673885E+02  0.82924586159E+01  0.94762818562E+02  0.13482413173E+03  0.89962896747E+02 0.  0.
        -13    1    3    3    0    0  0.38303646701E+02  0.45644763110E+02  0.81477266385E+02  0.10094136262E+03  0.00000000000E+00 0.  1.
         13    1    3    3    0    0 -0.32180172503E+02 -0.11814505446E+02  0.97547007291E+02  0.10339518689E+03  0.00000000000E+00 0. -1.
        -13    1    4    4    0    0  0.19051124449E+02  0.15483373049E+02  0.75881893245E+02  0.79754259487E+02  0.00000000000E+00 0.  1.
         13    1    4    4    0    0 -0.51229798334E+02 -0.71909144329E+01  0.18880925317E+02  0.55069872240E+02  0.00000000000E+00 0. -1.
          1    1    1    2  501    0  0.26055199687E+02 -0.42122716280E+02 -0.66130911459E+02  0.82622600467E+02  0.00000000000E+00 0. -1.
<scales pt_clust_5="13000.00000" pt_clust_6="13000.00000" pt_clust_7="13000.00000" pt_clust_8="13000.00000" pt_clust_9="49.52976"></scales>
<clustering>
<clus scale="   49.530">  2  9  1 -1</clus>
<clus scale="   89.963">  7  8 -1 -1</clus>
<clus scale="   92.313">  5  6 -1 -1</clus>
<clus scale="   93.076">  2  7  1 -1</clus>
<clus scale="   49.530">  2  5  1 -1</clus>
</clustering>
</event>
<event>
 9    1  0.1315259E-005  0.9422206E+02  0.7546771E-02  0.1293857E+00
         21   -1    0    0  501  502  0.00000000000E+00  0.00000000000E+00  0.12951603764E+03  0.12951603764E+03  0.00000000000E+00 0.  1.
          2   -1    0    0  502    0 -0.00000000000E+00 -0.00000000000E+00 -0.27934165537E+03  0.27934165537E+03  0.00000000000E+00 0. -1.
         23    2    1    2    0    0  0.68577120933E+01  0.17833537877E+02 -0.20709510079E+03  0.22656601971E+03  0.89881684600E+02 0.  0.
         23    2    1    2    0    0 -0.43047830104E+02 -0.43871565215E+02  0.76026647938E+02  0.13392293605E+03  0.91528529393E+02 0.  0.
        -11    1    4    4    0    0 -0.51270894668E+02 -0.15611421765E+02  0.13019038082E+01  0.53610783273E+02  0.00000000000E+00 0. -1.
         11    1    4    4    0    0  0.82230645642E+01 -0.28260143449E+02  0.74724744129E+02  0.80312152778E+02  0.00000000000E+00 0.  1.
        -11    1    3    3    0    0  0.26353042376E+02 -0.23522527836E+02 -0.14626119892E+03  0.15046637654E+03  0.00000000000E+00 0. -1.
         11    1    3    3    0    0 -0.19495330282E+02  0.41356065713E+02 -0.60833901868E+02  0.76099643170E+02  0.00000000000E+00 0.  1.
          2    1    1    2  501    0  0.36190118011E+02  0.26038027337E+02 -0.18757164870E+02  0.48368737251E+02  0.00000000000E+00 0. -1.
<scales pt_clust_5="13000.00000" pt_clust_6="13000.00000" pt_clust_7="13000.00000" pt_clust_8="13000.00000" pt_clust_9="44.58369"></scales>
<clustering>
<clus scale="   44.584">  1  9  2 -1</clus>
<clus scale="   89.882">  7  8 -1 -1</clus>
<clus scale="   91.529">  5  6 -1 -1</clus>
<clus scale="   92.623">  2  7  1 -1</clus>
<clus scale="   44.584">  1  5  2 -1</clus>
</clustering>
</event>
<event>
 9    1  0.1315259E-005  0.1570093E+03  0.7546771E-02  0.1192836E+00
          1   -1    0    0  502    0 -0.00000000000E+00  0.00000000000E+00  0.30578439644E+03  0.30578439644E+03  0.00000000000E+00 0. -1.
         21   -1    0    0  501  502  0.00000000000E+00 -0.00000000000E+00 -0.96165799216E+02  0.96165799216E+02  0.00000000000E+00 0.  1.
         23    2    1    2    0    0 -0.63069375280E+02 -0.10425630514E+03  0.88265621349E+02  0.17674833147E+03  0.92747126670E+02 0.  0.
         23    2    1    2    0    0  0.88536362466E+02  0.99275511053E+02  0.86299092632E+02  0.18158821407E+03  0.88501025569E+02 0.  0.
        -11    1    4    4    0    0  0.34696624019E+02  0.17149649430E+02  0.72820403270E+02  0.82466825610E+02  0.00000000000E+00 0. -1.
         11    1    4    4    0    0  0.53839738448E+02  0.82125861623E+02  0.13478689362E+02  0.99121388460E+02  0.00000000000E+00 0.  1.
        -13    1    3    3    0    0 -0.81476902451E+02 -0.52946721645E+02  0.67964807480E+02  0.11857932375E+03  0.00000000000E+00 0. -1.
         13    1    3    3    0    0  0.18407527172E+02 -0.51309583492E+02  0.20300813868E+02  0.58169007714E+02  0.00000000000E+00 0.  1.
          1    1    1    2  501    0 -0.25466987187E+02  0.49807940843E+01  0.35053883242E+02  0.43613650116E+02  0.00000000000E+00 0. -1.
<scales pt_clust_5="13000.00000" pt_clust_6="13000.00000" pt_clust_7="13000.00000" pt_clust_8="13000.00000" pt_clust_9="25.94950"></scales>
<clustering>
<clus scale="   25.949">  2  9  1 -1</clus>
<clus scale="   88.501">  5  6 -1 -1</clus>
<clus scale="   92.747">  7  8 -1 -1</clus>
<clus scale="  154.539">  2  5  1 -1</clus>
<clus scale="   25.949">  2  5  1 -1</clus>
</clustering>
</event>
<event>
 9    1  0.1315259E-005  0.9137834E+02  0.7546771E-02  0.1300693E+00
         -1   -1    0    0    0  501 -0.00000000000E+00  0.00000000000E+00  0.12147576151E+03  0.12147576151E+03  0.00000000000E+00 0.  1.
         21   -1    0    0  501  502  0.00000000000E+00 -0.00000000000E+00 -0.15455276816E+03  0.15455276816E+03  0.00000000000E+00 0. -1.
         23    2    1    2    0    0  0.11359829861E+00  0.25841100961E+01  0.70620159117E+02  0.11530603085E+03  0.91113025123E+02 0.  0.
         23    2    1    2    0    0  0.14567524404E+02 -0.19919844441E+02 -0.56738164814E+02  0.10855727268E+03  0.89198930120E+02 0.  0.
        -13    1    3    3    0    0 -0.25203077850E+02  0.33829258194E+02  0.60642529612E+02  0.73872391601E+02  0.00000000000E+00 0.  1.
         13    1    3    3    0    0  0.25316676149E+02 -0.31245148098E+02  0.99776295045E+01  0.41433639249E+02  0.00000000000E+00 0. -1.
        -13    1    4    4    0    0 -0.69003743335E+01 -0.48776984591E+02 -0.53060175681E+02  0.72402980844E+02  0.00000000000E+00 0. -1.
         13    1    4    4    0    0  0.21467898737E+02  0.28857140150E+02 -0.36779891335E+01  0.36154291832E+02  0.00000000000E+00 0.  1.
         -1    1    1    2    0  502 -0.14681122702E+02  0.17335734345E+02 -0.46959000948E+02  0.52165226149E+02  0.00000000000E+00 0.  1.
<scales pt_clust_5="13000.00000" pt_clust_6="13000.00000" pt_clust_7="13000.00000" pt_clust_8="13000.00000" pt_clust_9="22.71702"></scales>
<clustering>
<clus scale="   22.717">  2  9  1 -1</clus>
<clus scale="   89.199">  7  8 -1 -1</clus>
<clus scale="   89.470">  2  7  1 -1</clus>
<clus scale="   91.113">  5  6 -1 -1</clus>
<clus scale="   22.717">  2  5  1 -1</clus>
</clustering>
</event>
<event>
 9    1  0.1315259E-005  0.1373699E+03  0.7546771E-02  0.1219613E+00
          2   -1    0    0  502    0 -0.00000000000E+00  0.00000000000E+00  0.70223452945E+03  0.70223452945E+03  0.00000000000E+00 0. -1.
         21   -1    0    0  501  502  0.00000000000E+00 -0.00000000000E+00 -0.49905842299E+02  0.49905842299E+02  0.00000000000E+00 0.  1.
         23    2    1    2    0    0 -0.43507076361E+02  0.89556081291E+02  0.43177691728E+03  0.45222558560E+03  0.90352180850E+02 0.  0.
         23    2    1    2    0    0  0.71804853924E+02 -0.95725698100E+02  0.96507265851E+02  0.17253398947E+03  0.78326105708E+02 0.  0.
        -11    1    3    3    0    0  0.19686829187E+02  0.42659480891E+02  0.24636252081E+03  0.25080250041E+03  0.00000000000E+00 0.  1.
         11    1    3    3    0    0 -0.63193905548E+02  0.46896600400E+02  0.18541439647E+03  0.20142308519E+03  0.00000000000E+00 0. -1.
        -13    1    4    4    0    0 -0.62271244107E+01 -0.26325790870E+02  0.52801885809E+02  0.59328437434E+02  0.00000000000E+00 0. -1.
         13    1    4    4    0    0  0.78031978335E+02 -0.69399907230E+02  0.43705380042E+02  0.11320555203E+03  0.00000000000E+00 0.  1.
          2    1    1    2  501    0 -0.28297777563E+02  0.61696168086E+01  0.12404450402E+03  0.12738079668E+03  0.00000000000E+00 0. -1.
<scales pt_clust_5="13000.00000" pt_clust_6="13000.00000" pt_clust_7="13000.00000" pt_clust_8="13000.00000" pt_clust_9="28.96255"></scales>
<clustering>
<clus scale="   28.963">  2  9  1 -1</clus>
<clus scale="   78.326">  7  8 -1 -1</clus>
<clus scale="   90.352">  5  6 -1 -1</clus>
<clus scale="  129.777">  2  7  1 -1</clus>
<clus scale="   28.963">  2  5  1 -1</clus>
</clustering>
</event>
<event>
 9    1  0.1315259E-005  0.1659298E+03  0.7546771E-02  0.1182448E+00
          4   -1    0    0  502    0 -0.00000000000E+00  0.00000000000E+00  0.92161601771E+03  0.92161601771E+03  0.00000000000E+00 0. -1.
         21   -1    0    0  501  502  0.00000000000E+00 -0.00000000000E+00 -0.81930453372E+02  0.81930453372E+02  0.00000000000E+00 0. -1.
         23    2    1    2    0    0 -0.11595565113E+03 -0.62956619371E+02  0.66413056648E+03  0.68331967536E+03  0.91908217517E+02 0.  0.
         23    2    1    2    0    0  0.14140451000E+03  0.76586689504E+02  0.20727172884E+03  0.27733886906E+03  0.89969562931E+02 0.  0.
        -11    1    3    3    0    0  0.67065320234E+01 -0.30708462845E+02  0.89508295406E+02  0.94866865705E+02  0.00000000000E+00 0.  1.
         11    1    3    3    0    0 -0.12266218315E+03 -0.32248156526E+02  0.57462227108E+03  0.58845280966E+03  0.00000000000E+00 0. -1.
        -13    1    4    4    0    0  0.12215389255E+03  0.68973057298E+02  0.21372871016E+03  0.25565370649E+03  0.00000000000E+00 0. -1.
         13    1    4    4    0    0  0.19250617452E+02  0.76136322062E+01 -0.64569813154E+01  0.21685162563E+02  0.00000000000E+00 0.  1.
          4    1    1    2  501    0 -0.25448858868E+02 -0.13630070133E+02 -0.31716730986E+02  0.42887926669E+02  0.00000000000E+00 0. -1.
<scales pt_clust_5="13000.00000" pt_clust_6="13000.00000" pt_clust_7="13000.00000" pt_clust_8="13000.00000" pt_clust_9="28.86907"></scales>
<clustering>
<clus scale="   28.869">  2  9  1 -1</clus>
<clus scale="   89.970">  7  8 -1 -1</clus>
<clus scale="   91.908">  5  6 -1 -1</clus>
<clus scale="  164.864">  2  7  1 -1</clus>
<clus scale="   28.869">  2  5  1 -1</clus>
</clustering>
</event>
<event>
 9    1  0.1315259E-005  0.1101946E+03  0.7546771E-02  0.1260301E+00
         21   -1    0    0  501  502  0.00000000000E+00  0.00000000000E+00  0.66363671600E+02  0.66363671600E+02  0.00000000000E+00 0. -1.
         -1   -1    0    0    0  501 -0.00000000000E+00 -0.00000000000E+00 -0.28373632510E+03  0.28373632510E+03  0.00000000000E+00 0.  1.
         23    2    1    2    0    0 -0.38576906365E+02  0.65173574332E+02 -0.15330705745E+03  0.19379551717E+03  0.91202390953E+02 0.  0.
         23    2    1    2    0    0  0.16377472540E+02 -0.40871372252E+02 -0.69895560981E+02  0.12287694030E+03  0.90965171010E+02 0.  0.
        -11    1    3    3    0    0 -0.30074119713E+02  0.87643996602E+02 -0.10638622412E+03  0.14108136482E+03  0.00000000000E+00 0.  1.
         11    1    3    3    0    0 -0.85027866521E+01 -0.22470422269E+02 -0.46920833323E+02  0.52714152346E+02  0.00000000000E+00 0. -1.
        -13    1    4    4    0    0  0.11846832442E+02  0.23537511017E+02  0.17755196935E+01  0.26410496663E+02  0.00000000000E+00 0.  1.
         13    1    4    4    0    0  0.45306400982E+01 -0.64408883268E+02 -0.71671080674E+02  0.96466443640E+02  0.00000000000E+00 0. -1.
         -1    1    1    2    0  502  0.22199433824E+02 -0.24302202081E+02  0.58299649235E+01  0.33427539232E+02  0.00000000000E+00 0.  1.
<scales pt_clust_5="13000.00000" pt_clust_6="13000.00000" pt_clust_7="13000.00000" pt_clust_8="13000.00000" pt_clust_9="32.91522"></scales>
<clustering>
<clus scale="   32.915">  1  9  2 -1</clus>
<clus scale="   90.965">  7  8 -1 -1</clus>
<clus scale="   91.202">  5  6 -1 -1</clus>
<clus scale="  109.998">  1  7  2 -1</clus>
<clus scale="   32.915">  1  5  2 -1</clus>
</clustering>
</event>
<event>
 9    1  0.1315259E-005  0.1258969E+03  0.7546771E-02  0.1233854E+00
          1   -1    0    0  502    0 -0.00000000000E+00  0.00000000000E+00  0.21074680556E+03  0.21074680556E+03  0.00000000000E+00 0. -1.
         21   -1    0    0  501  502  0.00000000000E+00 -0.00000000000E+00 -0.34173730762E+03  0.34173730762E+03  0.00000000000E+00 0.  1.
         23    2    1    2    0    0  0.35357113783E+02  0.75530528298E+02  0.14751307671E+03  0.19204864305E+03  0.90374704977E+02 0.  0.
         23    2    1    2    0    0 -0.26531059451E+02 -0.11302373898E+03 -0.99378175587E+02  0.17721551993E+03  0.89727677080E+02 0.  0.
        -11    1    4    4    0    0  0.13756723924E+02 -0.87053476391E+02 -0.94204826193E+02  0.12900428087E+03  0.00000000000E+00 0.  1.
         11    1    4    4    0    0 -0.40287783374E+02 -0.25970262587E+02 -0.51733493948E+01  0.48211239063E+02  0.00000000000E+00 0. -1.
        -11    1    3    3    0    0 -0.22488541691E+02  0.18968783002E+02  0.75308365076E+01  0.30368778943E+02  0.00000000000E+00 0.  1.
         11    1    3    3    0    0  0.57845655474E+02  0.56561745296E+02  0.13998224020E+03  0.16167986411E+03  0.00000000000E+00 0. -1.
          1    1    1    2  501    0 -0.88260543326E+01  0.37493210679E+02 -0.17912540318E+03  0.18321995019E+03  0.00000000000E+00 0. -1.
<scales pt_clust_5="13000.00000" pt_clust_6="13000.00000" pt_clust_7="13000.00000" pt_clust_8="13000.00000" pt_clust_9="38.51805"></scales>
<clustering>
<clus scale="   38.518">  2  9  1 -1</clus>
<clus scale="   89.728">  5  6 -1 -1</clus>
<clus scale="   90.375">  7  8 -1 -1</clus>
<clus scale="  125.433">  2  5  1 -1</clus>
<clus scale="   38.518">  2  5  1 -1</clus>
</clustering>
</event>
<event>
 9    1  0.1315259E-005  0.9656552E+02  0.7546771E-02  0.1290875E+00
         -1   -1    0    0    0  501 -0.00000000000E+00  0.00000000000E+00  0.10319720236E+03  0.10319720236E+03  0.00000000000E+00 0.  1.
         21   -1    0    0  501  502  0.00000000000E+00 -0.00000000000E+00 -0.34836169424E+03  0.34836169424E+03  0.00000000000E+00 0.  1.
         23    2    1    2    0    0 -0.50697439611E+01  0.22945365023E+02  0.19922206519E+02  0.98476591613E+02  0.93533698223E+02 0.  0.
         23    2    1    2    0    0 -0.53663764472E+02 -0.73467731006E+01 -0.25924431517E+02  0.10632021108E+03  0.87739024630E+02 0.  0.
        -13    1    4    4    0    0 -0.68302975848E+02  0.13202277091E+02  0.79410205922E+00  0.69571741592E+02  0.00000000000E+00 0.  1.
         13    1    4    4    0    0  0.14639211376E+02 -0.20549050192E+02 -0.26718533576E+02  0.36748469492E+02  0.00000000000E+00 0. -1.
        -13    1    3    3    0    0 -0.29877929443E+02 -0.79394136824E+01  0.42748906541E+02  0.52755985138E+02  0.00000000000E+00 0.  1.
         13    1    3    3    0    0  0.24808185482E+02  0.30884778705E+02 -0.22826700022E+02  0.45720606475E+02  0.00000000000E+00 0. -1.
         -1    1    1    2    0  502  0.58733508433E+02 -0.15598591922E+02 -0.23916226689E+03  0.24676209390E+03  0.00000000000E+00 0.  1.
<scales pt_clust_5="13000.00000" pt_clust_6="13000.00000" pt_clust_7="13000.00000" pt_clust_8="13000.00000" pt_clust_9="60.76957"></scales>
<clustering>
<clus scale="   60.770">  2  9  1 -1</clus>
<clus scale="   87.739">  5  6 -1 -1</clus>
<clus scale="   90.964">  2  5  1 -1</clus>
<clus scale="   93.534">  7  8 -1 -1</clus>
<clus scale="   60.770">  2  5  1 -1</clus>
</clustering>
</event>
<event>
 9    1  0.1315259E-005  0.1769310E+03  0.7546771E-02  0.1170894E+00
         -2   -1    0    0    0  501 -0.00000000000E+00  0.00000000000E+00  0.12957236851E+03  0.12957236851E+03  0.00000000000E+00 0.  1.
         21   -1    0    0  501  502  0.00000000000E+00 -0.00000000000E+00 -0.35635151508E+03  0.35635151508E+03  0.00000000000E+00 0.  1.
         23    2    1    2    0    0 -0.96923832747E+01  0.15734973895E+03 -0.57813875609E+02  0.19055007046E+03  0.90077758054E+02 0.  0.
         23    2    1    2    0    0 -0.41184801525E+02 -0.14435730307E+03 -0.81673868651E+02  0.19350585820E+03  0.90767160986E+02 0.  0.
        -13    1    3    3    0    0  0.15020314990E+02  0.14487698419E+03 -0.68398008387E+02  0.16091375939E+03  0.00000000000E+00 0.  1.
         13    1    3    3    0    0 -0.24712698264E+02  0.12472754765E+02  0.10584132779E+02  0.29636311066E+02  0.00000000000E+00 0. -1.
        -13    1    4    4    0    0 -0.64006547297E+02 -0.59597673751E+02 -0.45259982968E+02  0.98474295488E+02  0.00000000000E+00 0.  1.
         13    1    4    4    0    0  0.22821745772E+02 -0.84759629315E+02 -0.36413885682E+02  0.95031562716E+02  0.00000000000E+00 0. -1.
         -2    1    1    2    0  502  0.50877184800E+02 -0.12992435886E+02 -0.87291402318E+02  0.10186795493E+03  0.00000000000E+00 0.  1.
<scales pt_clust_5="13000.00000" pt_clust_6="13000.00000" pt_clust_7="13000.00000" pt_clust_8="13000.00000" pt_clust_9="52.50992"></scales>
<clustering>
<clus scale="   52.510">  2  9  1 -1</clus>
<clus scale="   90.078">  5  6 -1 -1</clus>
<clus scale="   90.767">  7  8 -1 -1</clus>
<clus scale="  176.578">  1  5  2 -1</clus>
<clus scale="   52.510">  2  5  1 -1</clus>
</clustering>
</event>
<event>
 9    1  0.1315259E-005  0.1183630E+03  0.7546771E-02  0.1246409E+00
         21   -1    0    0  501  502  0.00000000000E+00  0.00000000000E+00  0.14371111071E+03  0.14371111071E+03  0.00000000000E+00 0. -1.
         -1   -1    0    0    0  501 -0.00000000000E+00 -0.00000000000E+00 -0.25483440993E+03  0.25483440993E+03  0.00000000000E+00 0.  1.
         23    2    1    2    0    0  0.16615082698E+02  0.76651796438E+02 -0.19999922398E+03  0.23378553931E+03  0.92219466107E+02 0.  0.
         23    2    1    2    0    0 -0.11687315377E+02 -0.52922339737E+02  0.44989215856E+02  0.11462602851E+03  0.90430799430E+02 0.  0.
        -13    1    3    3    0    0  0.35228721371E+02 -0.18805450763E+01 -0.95089811164E+02  0.10142322932E+03  0.00000000000E+00 0. -1.
         13    1    3    3    0    0 -0.18613638672E+02  0.78532341515E+02 -0.10490941281E+03  0.13236230999E+03  0.00000000000E+00 0.  1.
        -13    1    4    4    0    0  0.29183147250E+02  0.94692908333E+01  0.10263385986E+02  0.32352135080E+02  0.00000000000E+00 0. -1.
         13    1    4    4    0    0 -0.40870462628E+02 -0.62391630570E+02  0.34725829870E+02  0.82273893434E+02  0.00000000000E+00 0.  1.
         -1    1    1    2    0  502 -0.49277673208E+01 -0.23729456702E+02  0.43886708902E+02  0.50133952810E+02  0.00000000000E+00 0.  1.
<scales pt_clust_5="13000.00000" pt_clust_6="13000.00000" pt_clust_7="13000.00000" pt_clust_8="13000.00000" pt_clust_9="24.23572"></scales>
<clustering>
<clus scale="   24.236">  1  9  2 -1</clus>
<clus scale="   90.431">  7  8 -1 -1</clus>
<clus scale="   92.219">  5  6 -1 -1</clus>
<clus scale="  116.975">  1  7  2 -1</clus>
<clus scale="   24.236">  1  5  2 -1</clus>
</clustering>
</event>
<event>
 9    1  0.1315259E-005  0.1827312E+03  0.7546771E-02  0.1165456E+00
         21   -1    0    0  501  502  0.00000000000E+00  0.00000000000E+00  0.12927426083E+03  0.12927426083E+03  0.00000000000E+00 0.  1.
          1   -1    0    0  502    0 -0.00000000000E+00 -0.00000000000E+00 -0.38281125678E+03  0.38281125678E+03  0.00000000000E+00 0. -1.
         23    2    1    2    0    0  0.16324543993E+02 -0.13442853438E+03 -0.12277256915E+03  0.20437058610E+03  0.91415048737E+02 0.  0.
         23    2    1    2    0    0 -0.35001175117E+02  0.18664471046E+03 -0.13900944282E+03  0.25164955998E+03  0.89120960730E+02 0.  0.
        -11    1    3    3    0    0  0.53279047669E+02 -0.82295619141E+02 -0.87357915811E+02  0.13131120023E+03  0.00000000000E+00 0.  1.
         11    1    3    3    0    0 -0.36954503676E+02 -0.52132915235E+02 -0.35414653342E+02  0.73059385873E+02  0.00000000000E+00 0. -1.
        -13    1    4    4    0    0 -0.79677201113E+01  0.13036908231E+03 -0.13685634837E+03  0.18918044898E+03  0.00000000000E+00 0.  1.
         13    1    4    4    0    0 -0.27033455006E+02  0.56275628156E+02 -0.21530944486E+01  0.62469111004E+02  0.00000000000E+00 0. -1.
          1    1    1    2  501    0  0.18676631125E+02 -0.52216176089E+02  0.82450160269E+01  0.56065371530E+02  0.00000000000E+00 0. -1.
<scales pt_clust_5="13000.00000" pt_clust_6="13000.00000" pt_clust_7="13000.00000" pt_clust_8="13000.00000" pt_clust_9="55.45580"></scales>
<clustering>
<clus scale="   55.456">  1  9  2 -1</clus>
<clus scale="   89.121">  7  8 -1 -1</clus>
<clus scale="   91.415">  5  6 -1 -1</clus>
<clus scale="  181.594">  1  7  2 -1</clus>
<clus scale="   55.456">  1  5  2 -1</clus>
</clustering>
</event>
<event>
 9    1  0.1315259E-005  0.1104758E+03  0.7546771E-02  0.1260303E+00
          1   -1    0    0  502    0 -0.00000000000E+00  0.00000000000E+00  0.68428191638E+03  0.68428191638E+03  0.00000000000E+00 0. -1.
         21   -1    0    0  501  502  0.00000000000E+00 -0.00000000000E+00 -0.11844341640E+03  0.11844341640E+03  0.00000000000E+00 0. -1.
         23    2    1    2    0    0  0.62141708903E+02 -0.78314254710E+01  0.47471234846E+03  0.48745093323E+03  0.91288966013E+02 0.  0.
         23    2    1    2    0    0 -0.44153698478E+02 -0.94341813881E+02  0.14255003739E+03  0.19948426440E+03  0.92862972427E+02 0.  0.
        -11    1    4    4    0    0  0.20522453499E+02 -0.37688664365E+02  0.87314918329E+02  0.97290808826E+02  0.00000000000E+00 0. -1.
         11    1    4    4    0    0 -0.64676151978E+02 -0.56653149515E+02  0.55235119064E+02  0.10219345558E+03  0.00000000000E+00 0.  1.
        -13    1    3    3    0    0 -0.17349988402E+02  0.16604618220E+02  0.62970424949E+02  0.67394434949E+02  0.00000000000E+00 0.  1.
         13    1    3    3    0    0  0.79491697305E+02 -0.24436043691E+02  0.41174192351E+03  0.42005649828E+03  0.00000000000E+00 0. -1.
          1    1    1    2  501    0 -0.17988010425E+02  0.10217323935E+03 -0.51423885872E+02  0.11579013514E+03  0.00000000000E+00 0. -1.
<scales pt_clust_5="13000.00000" pt_clust_6="13000.00000" pt_clust_7="13000.00000" pt_clust_8="13000.00000" pt_clust_9="103.74459"></scales>
<clustering>
<clus scale="   91.289">  7  8 -1 -1</clus>
<clus scale="   92.863">  5  6 -1 -1</clus>
<clus scale="  103.745">  2  9  1 -1</clus>
<clus scale="  109.156">  1  7  2 -1</clus>
<clus scale="  103.745">  2  5  1 -1</clus>
</clustering>
</event>
<event>
 9    1  0.1315259E-005  0.1261693E+03  0.7546771E-02  0.1233704E+00
          1   -1    0    0  502    0 -0.00000000000E+00  0.00000000000E+00  0.29768148670E+03  0.29768148670E+03  0.00000000000E+00 0. -1.
         21   -1    0    0  501  502  0.00000000000E+00 -0.00000000000E+00 -0.14456765996E+03  0.14456765996E+03  0.00000000000E+00 0. -1.
         23    2    1    2    0    0 -0.76689722505E+02 -0.34004850081E+02  0.22341206492E+03  0.25538918346E+03  0.90956258242E+02 0.  0.
         23    2    1    2    0    0  0.93531659921E+02  0.58026334919E+02 -0.46844810179E+02  0.14930006604E+03  0.89335583762E+02 0.  0.
        -13    1    4    4    0    0  0.22880294339E+02  0.20364228746E+02  0.26663717838E+02  0.40609894489E+02  0.00000000000E+00 0.  1.
         13    1    4    4    0    0  0.70651365581E+02  0.37662106173E+02 -0.73508528017E+02  0.10869017155E+03  0.00000000000E+00 0. -1.
        -13    1    3    3    0    0 -0.13753687968E+01 -0.33102959947E+02  0.13611980575E+03  0.14009389392E+03  0.00000000000E+00 0.  1.
         13    1    3    3    0    0 -0.75314353709E+02 -0.90189013423E+00  0.87292259164E+02  0.11529528954E+03  0.00000000000E+00 0. -1.
          1    1    1    2  501    0 -0.16841937415E+02 -0.24021484838E+02 -0.23453427998E+02  0.37559897159E+02  0.00000000000E+00 0. -1.
<scales pt_clust_5="13000.00000" pt_clust_6="13000.00000" pt_clust_7="13000.00000" pt_clust_8="13000.00000" pt_clust_9="29.33739"></scales>
<clustering>
<clus scale="   29.337">  2  9  1 -1</clus>
<clus scale="   89.336">  5  6 -1 -1</clus>
<clus scale="   90.956">  7  8 -1 -1</clus>
<clus scale="  125.006">  2  5  1 -1</clus>
<clus scale="   29.337">  2  5  1 -1</clus>
</clustering>
</event>
<event>
 9    1  0.1315259E-005  0.1207284E+03  0.7546771E-02  0.1242978E+00
         21   -1    0    0  501  502  0.00000000000E+00  0.00000000000E+00  0.34908668504E+03  0.34908668504E+03  0.00000000000E+00 0.  1.
          1   -1    0    0  502    0 -0.00000000000E+00 -0.00000000000E+00 -0.13325803269E+03  0.13325803269E+03  0.00000000000E+00 0. -1.
         23    2    1    2    0    0  0.41296969892E+02 -0.66019695260E+02 -0.73894195684E+02  0.14282458156E+03  0.94204400417E+02 0.  0.
         23    2    1    2    0    0 -0.70042671847E+02  0.29290768824E+02  0.14347059164E+03  0.18601100967E+03  0.90842501261E+02 0.  0.
        -13    1    4    4    0    0 -0.70636610318E+02 -0.56977453262E+01  0.13085650805E+03  0.14881337547E+03  0.00000000000E+00 0.  1.
         13    1    4    4    0    0  0.59393847103E+00  0.34988514150E+02  0.12614083587E+02  0.37197634200E+02  0.00000000000E+00 0. -1.
        -13    1    3    3    0    0  0.25506105305E+02 -0.88855807567E+02 -0.45219551268E+02  0.10291124216E+03  0.00000000000E+00 0. -1.
         13    1    3    3    0    0  0.15790864587E+02  0.22836112307E+02 -0.28674644417E+02  0.39913339401E+02  0.00000000000E+00 0.  1.
          1    1    1    2  501    0  0.28745701955E+02  0.36728926436E+02  0.14625225639E+03  0.15350912650E+03  0.00000000000E+00 0. -1.
<scales pt_clust_5="13000.00000" pt_clust_6="13000.00000" pt_clust_7="13000.00000" pt_clust_8="13000.00000" pt_clust_9="46.64043"></scales>
<clustering>
<clus scale="   46.640">  1  9  2 -1</clus>
<clus scale="   90.843">  5  6 -1 -1</clus>
<clus scale="   94.204">  7  8 -1 -1</clus>
<clus scale="  118.124">  1  5  2 -1</clus>
<clus scale="   46.640">  1  5  2 -1</clus>
</clustering>
</event>
<event>
 9    1  0.1315259E-005  0.1167515E+03  0.7546771E-02  0.1257482E+00
         -4   -1    0    0    0  501 -0.00000000000E+00  0.00000000000E+00  0.16981852510E+03  0.16981852510E+03  0.00000000000E+00 0.  1.
         21   -1    0    0  501  502  0.00000000000E+00 -0.00000000000E+00 -0.12879717540E+03  0.12879717540E+03  0.00000000000E+00 0. -1.
         23    2    1    2    0    0  0.10935392780E+02  0.38531689555E+02  0.10849294595E+03  0.16088533231E+03  0.11184407413E+03 0.  0.
         23    2    1    2    0    0 -0.29465965924E+01 -0.15291341881E+02 -0.41531917898E+02  0.10199800839E+03  0.91848712258E+02 0.  0.
        -11    1    4    4    0    0 -0.31327721464E+02  0.31224325439E+01 -0.56752855901E+02  0.64900403466E+02  0.00000000000E+00 0. -1.
         11    1    4    4    0    0  0.28381124872E+02 -0.18413774425E+02  0.15220938002E+02  0.37097604926E+02  0.00000000000E+00 0.  1.
        -13    1    3    3    0    0 -0.48217123886E+02  0.23005166519E+02  0.29637810008E+02  0.61094422859E+02  0.00000000000E+00 0. -1.
         13    1    3    3    0    0  0.59152516666E+02  0.15526523036E+02  0.78855135938E+02  0.99790909452E+02  0.00000000000E+00 0.  1.
         -4    1    1    2    0  502 -0.79887961875E+01 -0.23240347674E+02 -0.25939678347E+02  0.35732359806E+02  0.00000000000E+00 0.  1.
<scales pt_clust_5="13000.00000" pt_clust_6="13000.00000" pt_clust_7="13000.00000" pt_clust_8="13000.00000" pt_clust_9="24.57508"></scales>
<clustering>
<clus scale="   24.575">  2  9  1 -1</clus>
<clus scale="   91.849">  5  6 -1 -1</clus>
<clus scale="   97.765">  2  5  1 -1</clus>
<clus scale="  111.844">  7  8 -1 -1</clus>
<clus scale="   24.575">  2  5  1 -1</clus>
</clustering>
</event>
<event>
 9    1  0.1315259E-005  0.2053920E+03  0.7546771E-02  0.1145490E+00
         -4   -1    0    0    0  501 -0.00000000000E+00  0.00000000000E+00  0.66246899235E+03  0.66246899235E+03  0.00000000000E+00 0.  1.
         21   -1    0    0  501  502  0.00000000000E+00 -0.00000000000E+00 -0.15983314338E+03  0.15983314338E+03  0.00000000000E+00 0. -1.
         23    2    1    2    0    0 -0.85321405248E+02  0.14953453461E+03  0.44894865474E+03  0.48983053393E+03  0.93481218122E+02 0.  0.
         23    2    1    2    0    0  0.13974560586E+03 -0.18481871507E+03  0.81412677296E+02  0.26193317671E+03  0.91072351685E+02 0.  0.
        -11    1    4    4    0    0  0.68347613525E+02 -0.40205313969E+02  0.59577589656E+02  0.99183429741E+02  0.00000000000E+00 0.  1.
         11    1    4    4    0    0  0.71397992334E+02 -0.14461340110E+03  0.21835087639E+02  0.16274974697E+03  0.00000000000E+00 0. -1.
        -11    1    3    3    0    0 -0.23755660778E+02  0.11688800243E+03  0.21676789244E+03  0.24741757360E+03  0.00000000000E+00 0. -1.
         11    1    3    3    0    0 -0.61565744469E+02  0.32646532180E+02  0.23218076230E+03  0.24241296033E+03  0.00000000000E+00 0.  1.
         -4    1    1    2    0  502 -0.54424200612E+02  0.35284180459E+02 -0.27725483066E+02  0.70538425090E+02  0.00000000000E+00 0.  1.
<scales pt_clust_5="13000.00000" pt_clust_6="13000.00000" pt_clust_7="13000.00000" pt_clust_8="13000.00000" pt_clust_9="64.86114"></scales>
<clustering>
<clus scale="   64.861">  2  9  1 -1</clus>
<clus scale="   91.072">  5  6 -1 -1</clus>
<clus scale="   93.481">  7  8 -1 -1</clus>
<clus scale="  204.307">  2  5  1 -1</clus>
<clus scale="   64.861">  2  5  1 -1</clus>
</clustering>
</event>
<event>
 9    1  0.1315259E-005  0.3044595E+03  0.7546771E-02  0.1115732E+00
         21   -1    0    0  501  502  0.00000000000E+00  0.00000000000E+00  0.24195568245E+03  0.24195568245E+03  0.00000000000E+00 0.  1.
          2   -1    0    0  502    0 -0.00000000000E+00 -0.00000000000E+00 -0.61683982760E+03  0.61683982760E+03  0.00000000000E+00 0. -1.
         23    2    1    2    0    0 -0.31631187478E+02  0.88736245717E+02 -0.13893521787E+03  0.19039296249E+03  0.89843375255E+02 0.  0.
         23    2    1    2    0    0  0.28841805952E+03 -0.11330659600E+03 -0.96168406762E+01  0.32522706302E+03  0.98269003962E+02 0.  0.
        -13    1    3    3    0    0  0.99516715638E+01  0.20086519379E+02  0.73037385298E+01  0.23576442145E+02  0.00000000000E+00 0.  1.
         13    1    3    3    0    0 -0.41582859042E+02  0.68649726337E+02 -0.14623895640E+03  0.16681652035E+03  0.00000000000E+00 0. -1.
        -13    1    4    4    0    0  0.19070016939E+03 -0.85407763318E+02 -0.51671758113E+02  0.21524639655E+03  0.00000000000E+00 0. -1.
         13    1    4    4    0    0  0.97717890125E+02 -0.27898832682E+02  0.42054917436E+02  0.10998066647E+03  0.00000000000E+00 0.  1.
          2    1    1    2  501    0 -0.25678687204E+03  0.24570350283E+02 -0.22633208661E+03  0.34317548454E+03  0.00000000000E+00 0. -1.
<scales pt_clust_5="13000.00000" pt_clust_6="13000.00000" pt_clust_7="13000.00000" pt_clust_8="13000.00000" pt_clust_9="288.16468"></scales>
<clustering>
<clus scale="   89.843">  5  6 -1 -1</clus>
<clus scale="   98.269">  7  8 -1 -1</clus>
<clus scale="  130.179">  2  5  1 -1</clus>
<clus scale="  288.165">  1  9  2 -1</clus>
<clus scale="  288.165">  1  5  2 -1</clus>
</clustering>
</event>
<event>
 9    1  0.1315259E-005  0.1115178E+03  0.7546771E-02  0.1259335E+00
         21   -1    0    0  501  502  0.00000000000E+00  0.00000000000E+00  0.13946675946E+03  0.13946675946E+03  0.00000000000E+00 0.  1.
         -2   -1    0    0    0  501 -0.00000000000E+00 -0.00000000000E+00 -0.14626924396E+03  0.14626924396E+03  0.00000000000E+00 0.  1.
         23    2    1    2    0    0 -0.41513650350E+02 -0.38692266876E+02 -0.52973962682E+02  0.12398610175E+03  0.96673874570E+02 0.  0.
         23    2    1    2    0    0  0.12296765193E+02  0.25196175628E+02  0.66525640560E+02  0.12367021176E+03  0.10041216422E+03 0.  0.
        -11    1    4    4    0    0  0.29975857438E+02 -0.13111421143E+02  0.73919800018E+02  0.80836861816E+02  0.00000000000E+00 0.  1.
         11    1    4    4    0    0 -0.17679092245E+02  0.38307596771E+02 -0.73941594582E+01  0.42833349940E+02  0.00000000000E+00 0. -1.
        -13    1    3    3    0    0 -0.67920745669E+02 -0.40153766960E+02 -0.19410517248E+02  0.81254666778E+02  0.00000000000E+00 0.  1.
         13    1    3    3    0    0  0.26407095319E+02  0.14615000844E+01 -0.33563445434E+02  0.42731434976E+02  0.00000000000E+00 0. -1.
         -2    1    1    2    0  502  0.29216885157E+02  0.13496091248E+02 -0.20354162380E+02  0.38079689907E+02  0.00000000000E+00 0.  1.
<scales pt_clust_5="13000.00000" pt_clust_6="13000.00000" pt_clust_7="13000.00000" pt_clust_8="13000.00000" pt_clust_9="32.18341"></scales>
<clustering>
<clus scale="   32.183">  1  9  2 -1</clus>
<clus scale="   96.674">  7  8 -1 -1</clus>
<clus scale="  100.412">  5  6 -1 -1</clus>
<clus scale="  108.164">  2  7  1 -1</clus>
<clus scale="   32.183">  1  5  2 -1</clus>
</clustering>
</event>
<event>
 9    1  0.1315259E-005  0.9522758E+02  0.7546771E-02  0.1291788E+00
          1   -1    0    0  502    0 -0.00000000000E+00  0.00000000000E+00  0.20559957207E+03  0.20559957207E+03  0.00000000000E+00 0. -1.
         21   -1    0    0  501  502  0.00000000000E+00 -0.00000000000E+00 -0.64900340573E+02  0.64900340573E+02  0.00000000000E+00 0. -1.
         23    2    1    2    0    0  0.27691898430E+01 -0.16290530983E+02  0.80848086676E+02  0.12302811954E+03  0.91249412412E+02 0.  0.
         23    2    1    2    0    0  0.16532203059E+02  0.40257447292E+02  0.61341382839E+02  0.11666306618E+03  0.89182565348E+02 0.  0.
        -13    1    3    3    0    0 -0.41636451968E+02  0.46589001968E+01  0.49160600238E+02  0.64591517239E+02  0.00000000000E+00 0.  1.
         13    1    3    3    0    0  0.44405641811E+02 -0.20949431180E+02  0.31687486438E+02  0.58436602298E+02  0.00000000000E+00 0. -1.
        -13    1    4    4    0    0 -0.20827732475E+02  0.27301840650E+02  0.68362161433E+02  0.76502091859E+02  0.00000000000E+00 0. -1.
         13    1    4    4    0    0  0.37359935534E+02  0.12955606643E+02 -0.70207785947E+01  0.40160974324E+02  0.00000000000E+00 0.  1.
          1    1    1    2  501    0 -0.19301392902E+02 -0.23966916309E+02 -0.14902380167E+01  0.30808726924E+02  0.00000000000E+00 0. -1.
<scales pt_clust_5="13000.00000" pt_clust_6="13000.00000" pt_clust_7="13000.00000" pt_clust_8="13000.00000" pt_clust_9="30.77266"></scales>
<clustering>
<clus scale="   30.773">  2  9  1 -1</clus>
<clus scale="   89.183">  7  8 -1 -1</clus>
<clus scale="   91.249">  5  6 -1 -1</clus>
<clus scale="   93.249">  2  7  1 -1</clus>
<clus scale="   30.773">  2  5  1 -1</clus>
</clustering>
</event>
<event>
 9    1  0.1315259E-005  0.1126873E+03  0.7546771E-02  0.1256704E+00
         21   -1    0    0  501  502  0.00000000000E+00  0.00000000000E+00  0.36549755227E+03  0.36549755227E+03  0.00000000000E+00 0.  1.
          3   -1    0    0  502    0 -0.00000000000E+00 -0.00000000000E+00 -0.14664116964E+03  0.14664116964E+03  0.00000000000E+00 0. -1.
         23    2    1    2    0    0  0.53616045961E+02 -0.28138548992E+02 -0.10028760070E+03  0.14814689238E+03  0.90683187770E+02 0.  0.
         23    2    1    2    0    0 -0.62828514705E+02  0.69631704684E+02  0.23514966426E+03  0.26985577276E+03  0.93438626554E+02 0.  0.
        -11    1    4    4    0    0 -0.28887760637E+02  0.84902214858E+02  0.19753748026E+03  0.21694226170E+03  0.00000000000E+00 0.  1.
         11    1    4    4    0    0 -0.33940754068E+02 -0.15270510173E+02  0.37612183998E+02  0.52913511061E+02  0.00000000000E+00 0. -1.
        -11    1    3    3    0    0  0.67744283254E+02  0.28183823857E+01 -0.89832926176E+02  0.11254859314E+03  0.00000000000E+00 0. -1.
         11    1    3    3    0    0 -0.14128237293E+02 -0.30956931377E+02 -0.10454674524E+02  0.35598299239E+02  0.00000000000E+00 0.  1.
          3    1    1    2  501    0  0.92124687442E+01 -0.41493155693E+02  0.83994319060E+02  0.94136056770E+02  0.00000000000E+00 0. -1.
<scales pt_clust_5="13000.00000" pt_clust_6="13000.00000" pt_clust_7="13000.00000" pt_clust_8="13000.00000" pt_clust_9="42.50355"></scales>
<clustering>
<clus scale="   42.504">  1  9  2 -1</clus>
<clus scale="   90.683">  7  8 -1 -1</clus>
<clus scale="   93.439">  5  6 -1 -1</clus>
<clus scale="  110.413">  2  7  1 -1</clus>
<clus scale="   42.504">  1  5  2 -1</clus>
</clustering>
</event>
<event>
 9    1  0.1315259E-005  0.1063346E+03  0.7546771E-02  0.1268309E+00
          1   -1    0    0  502    0 -0.00000000000E+00  0.00000000000E+00  0.16686519615E+03  0.16686519615E+03  0.00000000000E+00 0. -1.
         21   -1    0    0  501  502  0.00000000000E+00 -0.00000000000E+00 -0.40839801762E+03  0.40839801762E+03  0.00000000000E+00 0. -1.
         23    2    1    2    0    0  0.33954186826E+02  0.59183886509E+02  0.66659631322E+02  0.13090767809E+03  0.89653190175E+02 0.  0.
         23    2    1    2    0    0  0.12845834684E+02 -0.44254980423E+02  0.26670094686E+02  0.10590902595E+03  0.91552766564E+02 0.  0.
        -11    1    3    3    0    0  0.58992748819E+02  0.29842038190E+02  0.17437592321E+02  0.68372225958E+02  0.00000000000E+00 0.  1.
         11    1    3    3    0    0 -0.25038561993E+02  0.29341848319E+02  0.49222039001E+02  0.62535452128E+02  0.00000000000E+00 0. -1.
        -13    1    4    4    0    0 -0.35169321547E+02 -0.17866308645E+02 -0.90921830638E+01  0.40481526102E+02  0.00000000000E+00 0. -1.
         13    1    4    4    0    0  0.48015156231E+02 -0.26388671777E+02  0.35762277750E+02  0.65427499845E+02  0.00000000000E+00 0.  1.
          1    1    1    2  501    0 -0.46800021511E+02 -0.14928906086E+02 -0.33486254748E+03  0.33844650974E+03  0.00000000000E+00 0. -1.
<scales pt_clust_5="13000.00000" pt_clust_6="13000.00000" pt_clust_7="13000.00000" pt_clust_8="13000.00000" pt_clust_9="49.12346"></scales>
<clustering>
<clus scale="   49.123">  2  9  1 -1</clus>
<clus scale="   89.653">  5  6 -1 -1</clus>
<clus scale="   91.553">  7  8 -1 -1</clus>
<clus scale="  104.704">  1  5  2 -1</clus>
<clus scale="   49.123">  2  5  1 -1</clus>
</clustering>
</event>
<event>
 9    1  0.1315259E-005  0.1416295E+03  0.7546771E-02  0.1212732E+00
         -3   -1    0    0    0  501 -0.00000000000E+00  0.00000000000E+00  0.29102394312E+03  0.29102394312E+03  0.00000000000E+00 0.  1.
         21   -1    0    0  501  502  0.00000000000E+00 -0.00000000000E+00 -0.49223531065E+03  0.49223531065E+03  0.00000000000E+00 0.  1.
         23    2    1    2    0    0 -0.99169222524E+02 -0.56745833126E+02  0.25311160948E+03  0.29312067142E+03  0.93806273178E+02 0.  0.
         23    2    1    2    0    0  0.22665307596E+02  0.26595555414E+02 -0.16751586604E+03  0.19177603921E+03  0.86576232903E+02 0.  0.
        -11    1    4    4    0    0  0.13087656558E+01 -0.22638701114E+02 -0.11309023257E+03  0.11534133846E+03  0.00000000000E+00 0.  1.
         11    1    4    4    0    0  0.21356541940E+02  0.49234256528E+02 -0.54425633465E+02  0.76434700743E+02  0.00000000000E+00 0. -1.
        -13    1    3    3    0    0 -0.10589592983E+03 -0.17285361309E+02  0.17317079901E+03  0.20371759202E+03  0.00000000000E+00 0.  1.
         13    1    3    3    0    0  0.67267073056E+01 -0.39460471817E+02  0.79940810468E+02  0.89403079396E+02  0.00000000000E+00 0. -1.
         -3    1    1    2    0  502  0.76503914928E+02  0.30150277712E+02 -0.28680711098E+03  0.29836254314E+03  0.00000000000E+00 0.  1.
<scales pt_clust_5="13000.00000" pt_clust_6="13000.00000" pt_clust_7="13000.00000" pt_clust_8="13000.00000" pt_clust_9="82.23070"></scales>
<clustering>
<clus scale="   82.231">  2  9  1 -1</clus>
<clus scale="   86.576">  5  6 -1 -1</clus>
<clus scale="   93.806">  7  8 -1 -1</clus>
<clus scale="  136.948">  2  5  1 -1</clus>
<clus scale="   82.231">  2  5  1 -1</clus>
</clustering>
</event>
<event>
 9    1  0.1315259E-005  0.9625713E+02  0.7546771E-02  0.1289571E+00
         21   -1    0    0  501  502  0.00000000000E+00  0.00000000000E+00  0.48468532481E+02  0.48468532481E+02  0.00000000000E+00 0. -1.
         -2   -1    0    0    0  501 -0.00000000000E+00 -0.00000000000E+00 -0.28542501311E+03  0.28542501311E+03  0.00000000000E+00 0.  1.
         23    2    1    2    0    0 -0.22553605061E+02 -0.75762028678E+00 -0.12311337944E+03  0.15388316973E+03  0.89520314105E+02 0.  0.
         23    2    1    2    0    0  0.32116649651E+02 -0.25852146875E+02 -0.11358209380E+03  0.15173318267E+03  0.91772839161E+02 0.  0.
        -11    1    3    3    0    0 -0.29715151626E+02 -0.41378168574E+02 -0.72090170326E+02  0.88273074764E+02  0.00000000000E+00 0.  1.
         11    1    3    3    0    0  0.71615465652E+01  0.40620548287E+02 -0.51023209117E+02  0.65610094962E+02  0.00000000000E+00 0. -1.
        -13    1    4    4    0    0 -0.50281770021E+01 -0.36853881022E+02 -0.63702270437E+01  0.37736863978E+02  0.00000000000E+00 0. -1.
         13    1    4    4    0    0  0.37144826653E+02  0.11001734147E+02 -0.10721186676E+03  0.11399631869E+03  0.00000000000E+00 0.  1.
         -2    1    1    2    0  502 -0.95630445897E+01  0.26609767162E+02 -0.26100738496E+00  0.28277193197E+02  0.00000000000E+00 0.  1.
<scales pt_clust_5="13000.00000" pt_clust_6="13000.00000" pt_clust_7="13000.00000" pt_clust_8="13000.00000" pt_clust_9="28.27599"></scales>
<clustering>
<clus scale="   28.276">  1  9  2 -1</clus>
<clus scale="   89.520">  5  6 -1 -1</clus>
<clus scale="   91.773">  7  8 -1 -1</clus>
<clus scale="   94.112">  2  5  1 -1</clus>
<clus scale="   28.276">  1  5  2 -1</clus>
</clustering>
</event>
<event>
 9    1  0.1315259E-005  0.1083910E+03  0.7546771E-02  0.1263871E+00
         21   -1    0    0  501  502  0.00000000000E+00  0.00000000000E+00  0.73312372385E+02  0.73312372385E+02  0.00000000000E+00 0. -1.
          2   -1    0    0  502    0 -0.00000000000E+00 -0.00000000000E+00 -0.24804706180E+03  0.24804706180E+03  0.00000000000E+00 0. -1.
         23    2    1    2    0    0 -0.43426823402E+02 -0.54527126111E+02 -0.13752645163E+03  0.17910539166E+03  0.91137917193E+02 0.  0.
         23    2    1    2    0    0  0.24540950841E+02  0.34574336131E+02 -0.50318157971E+02  0.11181295158E+03  0.90402301593E+02 0.  0.
        -11    1    3    3    0    0 -0.55429256700E+01 -0.71484404431E+02 -0.72531428012E+02  0.10198800004E+03  0.00000000000E+00 0.  1.
         11    1    3    3    0    0 -0.37883897732E+02  0.16957278320E+02 -0.64995023621E+02  0.77117391625E+02  0.00000000000E+00 0. -1.
        -13    1    4    4    0    0 -0.13993579817E+02 -0.24578644827E+02 -0.75575626637E+01  0.29275361843E+02  0.00000000000E+00 0.  1.
         13    1    4    4    0    0  0.38534530658E+02  0.59152980958E+02 -0.42760595307E+02  0.82537589741E+02  0.00000000000E+00 0. -1.
          2    1    1    2  501    0  0.18885872562E+02  0.19952789980E+02  0.13109920187E+02  0.30441090942E+02  0.00000000000E+00 0. -1.
<scales pt_clust_5="13000.00000" pt_clust_6="13000.00000" pt_clust_7="13000.00000" pt_clust_8="13000.00000" pt_clust_9="27.47344"></scales>
<clustering>
<clus scale="   27.473">  1  9  2 -1</clus>
<clus scale="   90.402">  7  8 -1 -1</clus>
<clus scale="   91.138">  5  6 -1 -1</clus>
<clus scale="  107.773">  1  7  2 -1</clus>
<clus scale="   27.473">  1  5  2 -1</clus>
</clustering>
</event>
<event>
 9    1  0.1315259E-005  0.1018555E+03  0.7546771E-02  0.1277272E+00
          1   -1    0    0  502    0 -0.00000000000E+00  0.00000000000E+00  0.24056425979E+03  0.24056425979E+03  0.00000000000E+00 0. -1.
         21   -1    0    0  501  502  0.00000000000E+00 -0.00000000000E+00 -0.79674513159E+02  0.79674513159E+02  0.00000000000E+00 0. -1.
         23    2    1    2    0    0 -0.92927228000E+01 -0.25583993293E+02  0.84000087305E+02  0.12855909522E+03  0.93437309933E+02 0.  0.
         23    2    1    2    0    0  0.55011831343E+01  0.54038186415E+02  0.10634366076E+03  0.15055115867E+03  0.91685814531E+02 0.  0.
        -11    1    3    3    0    0  0.25207125954E+02 -0.37311945934E+02  0.80130279043E+02  0.91915407456E+02  0.00000000000E+00 0.  1.
         11    1    3    3    0    0 -0.34499848754E+02  0.11727952641E+02  0.38698082615E+01  0.36643687767E+02  0.00000000000E+00 0. -1.
        -11    1    4    4    0    0  0.22690144286E+02 -0.14927778854E+02  0.59559142016E+02  0.65459702313E+02  0.00000000000E+00 0.  1.
         11    1    4    4    0    0 -0.17188961151E+02  0.68965965269E+02  0.46784518749E+02  0.85091456360E+02  0.00000000000E+00 0. -1.
          1    1    1    2  501    0  0.37915396657E+01 -0.28454193122E+02 -0.29454001435E+02  0.41128519057E+02  0.00000000000E+00 0. -1.
<scales pt_clust_5="13000.00000" pt_clust_6="13000.00000" pt_clust_7="13000.00000" pt_clust_8="13000.00000" pt_clust_9="28.70569"></scales>
<clustering>
<clus scale="   28.706">  2  9  1 -1</clus>
<clus scale="   91.686">  7  8 -1 -1</clus>
<clus scale="   93.437">  5  6 -1 -1</clus>
<clus scale="  100.251">  2  7  1 -1</clus>
<clus scale="   28.706">  2  5  1 -1</clus>
</clustering>
</event>
<event>
 9    1  0.1315259E-005  0.3441239E+03  0.7546771E-02  0.1091375E+00
         21   -1    0    0  501  502  0.00000000000E+00  0.00000000000E+00  0.25921058042E+03  0.25921058042E+03  0.00000000000E+00 0. -1.
          2   -1    0    0  502    0 -0.00000000000E+00 -0.00000000000E+00 -0.73174461934E+03  0.73174461934E+03  0.00000000000E+00 0. -1.
         23    2    1    2    0    0 -0.11509967805E+03  0.80663545957E+02 -0.61515411037E+02  0.17977575122E+03  0.93705023328E+02 0.  0.
         23    2    1    2    0    0 -0.73001702249E+02 -0.34768018157E+03 -0.26859163959E+03  0.45485731906E+03  0.92428105366E+02 0.  0.
        -11    1    4    4    0    0 -0.39507358891E+02 -0.49145184437E+02 -0.72637899078E+02  0.96189110310E+02  0.00000000000E+00 0.  1.
         11    1    4    4    0    0 -0.33494343358E+02 -0.29853499713E+03 -0.19595374051E+03  0.35866820875E+03  0.00000000000E+00 0. -1.
        -13    1    3    3    0    0 -0.60459883405E+02  0.43173111710E+02  0.17827364827E+02  0.76401112640E+02  0.00000000000E+00 0. -1.
         13    1    3    3    0    0 -0.54639794645E+02  0.37490434247E+02 -0.79342775864E+02  0.10337463858E+03  0.00000000000E+00 0.  1.
          2    1    1    2  501    0  0.18810138030E+03  0.26701663561E+03 -0.14242698829E+03  0.35632212948E+03  0.00000000000E+00 0. -1.
<scales pt_clust_5="13000.00000" pt_clust_6="13000.00000" pt_clust_7="13000.00000" pt_clust_8="13000.00000" pt_clust_9="331.47899"></scales>
<clustering>
<clus scale="   92.428">  5  6 -1 -1</clus>
<clus scale="   93.705">  7  8 -1 -1</clus>
<clus scale="  168.924">  2  7  1 -1</clus>
<clus scale="  331.479">  1  9  2 -1</clus>
<clus scale="  331.479">  1  5  2 -1</clus>
</clustering>
</event>
<event>
 9    1  0.1315259E-005  0.1979838E+03  0.7546771E-02  0.1152254E+00
          1   -1    0    0  502    0 -0.00000000000E+00  0.00000000000E+00  0.48935705046E+03  0.48935705046E+03  0.00000000000E+00 0. -1.
         21   -1    0    0  501  502  0.00000000000E+00 -0.00000000000E+00 -0.15035578358E+03  0.15035578358E+03  0.00000000000E+00 0. -1.
         23    2    1    2    0    0  0.19185791459E+03  0.48987021405E+02  0.25892226214E+03  0.33585253274E+03  0.80913523310E+02 0.  0.
         23    2    1    2    0    0 -0.10418879103E+03 -0.11837234728E+03  0.50574366199E+02  0.18822846154E+03  0.89469941552E+02 0.  0.
        -13    1    3    3    0    0  0.40150256363E+02 -0.10016166026E+02  0.18073274814E+02  0.45155397577E+02  0.00000000000E+00 0.  1.
         13    1    3    3    0    0  0.15170765823E+03  0.59003187430E+02  0.24084898733E+03  0.29069713516E+03  0.00000000000E+00 0. -1.
        -13    1    4    4    0    0 -0.10125217600E+03 -0.67636482106E+02  0.61244520606E+02  0.13629962642E+03  0.00000000000E+00 0.  1.
         13    1    4    4    0    0 -0.29366150303E+01 -0.50735865171E+02 -0.10670154407E+02  0.51928835126E+02  0.00000000000E+00 0. -1.
          1    1    1    2  501    0 -0.87669123559E+02  0.69385325872E+02  0.29504638537E+02  0.11563183976E+03  0.00000000000E+00 0. -1.
<scales pt_clust_5="13000.00000" pt_clust_6="13000.00000" pt_clust_7="13000.00000" pt_clust_8="13000.00000" pt_clust_9="111.80429"></scales>
<clustering>
<clus scale="   80.914">  5  6 -1 -1</clus>
<clus scale="   89.470">  7  8 -1 -1</clus>
<clus scale="  111.804">  2  9  1 -1</clus>
<clus scale="  194.267">  1  5  2 -1</clus>
<clus scale="  111.804">  2  5  1 -1</clus>
</clustering>
</event>
<event>
 9    1  0.1315259E-005  0.1193221E+03  0.7546771E-02  0.1245994E+00
          2   -1    0    0  502    0 -0.00000000000E+00  0.00000000000E+00  0.78841961204E+02  0.78841961204E+02  0.00000000000E+00 0. -1.
         21   -1    0    0  501  502  0.00000000000E+00 -0.00000000000E+00 -0.51846557486E+03  0.51846557486E+03  0.00000000000E+00 0. -1.
         23    2    1    2    0    0 -0.75471169203E+02 -0.59659938763E+02 -0.17166616538E+02  0.13385423018E+03  0.91471616026E+02 0.  0.
         23    2    1    2    0    0  0.43807705195E+02  0.11533250486E+02 -0.11451233415E+03  0.15016642693E+03  0.85934569313E+02 0.  0.
        -13    1    4    4    0    0  0.17645000043E+02 -0.23347304210E+02 -0.18068155440E+01  0.29320764363E+02  0.00000000000E+00 0.  1.
         13    1    4    4    0    0  0.26162705152E+02  0.34880554696E+02 -0.11270551861E+03  0.12084566257E+03  0.00000000000E+00 0. -1.
        -13    1    3    3    0    0 -0.50837299558E+02 -0.40104814848E+01  0.27898117148E+02  0.58127617606E+02  0.00000000000E+00 0. -1.
         13    1    3    3    0    0 -0.24633869646E+02 -0.55649457278E+02 -0.45064733687E+02  0.75726612570E+02  0.00000000000E+00 0.  1.
          2    1    1    2  501    0  0.31663464008E+02  0.48126688277E+02 -0.30794466297E+03  0.31328687896E+03  0.00000000000E+00 0. -1.
<scales pt_clust_5="13000.00000" pt_clust_6="13000.00000" pt_clust_7="13000.00000" pt_clust_8="13000.00000" pt_clust_9="57.60862"></scales>
<clustering>
<clus scale="   57.609">  2  9  1 -1</clus>
<clus scale="   85.935">  5  6 -1 -1</clus>
<clus scale="   91.472">  7  8 -1 -1</clus>
<clus scale="  115.132">  2  5  1 -1</clus>
<clus scale="   57.609">  2  5  1 -1</clus>
</clustering>
</event>
<event>
 9    1  0.1315259E-005  0.1030056E+03  0.7546771E-02  0.1279877E+00
          2   -1    0    0  502    0 -0.00000000000E+00  0.00000000000E+00  0.59596157187E+03  0.59596157187E+03  0.00000000000E+00 0. -1.
         21   -1    0    0  501  502  0.00000000000E+00 -0.00000000000E+00 -0.83698069347E+02  0.83698069347E+02  0.00000000000E+00 0. -1.
         23    2    1    2    0    0 -0.12535140001E+01  0.12801117535E+02  0.51363802187E+03  0.52384032048E+03  0.10207459988E+03 0.  0.
         23    2    1    2    0    0 -0.38115711634E+02 -0.17502530017E+02  0.30544348142E+02  0.10491889530E+03  0.91191399585E+02 0.  0.
        -11    1    3    3    0    0 -0.51247065170E+02  0.20730996932E-02  0.24972512637E+03  0.25492920671E+03  0.00000000000E+00 0. -1.
         11    1    3    3    0    0  0.49993551169E+02  0.12799044435E+02  0.26391289551E+03  0.26891111377E+03  0.00000000000E+00 0.  1.
        -11    1    4    4    0    0 -0.40086538320E+02 -0.49753744376E+02  0.56748287176E+01  0.64144908722E+02  0.00000000000E+00 0. -1.
         11    1    4    4    0    0  0.19708266863E+01  0.32251214359E+02  0.24869519424E+02  0.40773986583E+02  0.00000000000E+00 0.  1.
          2    1    1    2  501    0  0.39369225634E+02  0.47014124821E+01 -0.31918867497E+02  0.50900425427E+02  0.00000000000E+00 0. -1.
<scales pt_clust_5="13000.00000" pt_clust_6="13000.00000" pt_clust_7="13000.00000" pt_clust_8="13000.00000" pt_clust_9="39.64895"></scales>
<clustering>
<clus scale="   39.649">  2  9  1 -1</clus>
<clus scale="   91.191">  7  8 -1 -1</clus>
<clus scale="   92.232">  2  7  1 -1</clus>
<clus scale="  102.075">  5  6 -1 -1</clus>
<clus scale="   39.649">  2  5  1 -1</clus>
</clustering>
</event>
<event>
 9    1  0.1315259E-005  0.2373952E+03  0.7546771E-02  0.1122040E+00
         -4   -1    0    0    0  501 -0.00000000000E+00  0.00000000000E+00  0.59975379075E+03  0.59975379075E+03  0.00000000000E+00 0.  1.
         21   -1    0    0  501  502  0.00000000000E+00 -0.00000000000E+00 -0.22359485829E+03  0.22359485829E+03  0.00000000000E+00 0.  1.
         23    2    1    2    0    0 -0.18855151840E+03  0.13554994314E+03  0.35993925650E+03  0.43798987476E+03  0.91396935661E+02 0.  0.
         23    2    1    2    0    0  0.81561898102E+02 -0.19862541270E+03  0.82354718762E+02  0.24464936593E+03  0.83466249192E+02 0.  0.
        -11    1    4    4    0    0  0.22722545419E+02 -0.15575739300E+03  0.60608845509E+02  0.16867160905E+03  0.00000000000E+00 0.  1.
         11    1    4    4    0    0  0.58839352683E+02 -0.42868019701E+02  0.21745873253E+02  0.75977756882E+02  0.00000000000E+00 0. -1.
        -13    1    3    3    0    0 -0.96056741911E+02  0.12132545242E+03  0.24489682843E+03  0.28969159402E+03  0.00000000000E+00 0.  1.
         13    1    3    3    0    0 -0.92494776492E+02  0.14224490716E+02  0.11504242807E+03  0.14829828074E+03  0.00000000000E+00 0. -1.
         -4    1    1    2    0  502  0.10698962030E+03  0.63075469564E+02 -0.66135042798E+02  0.14070940835E+03  0.00000000000E+00 0.  1.
<scales pt_clust_5="13000.00000" pt_clust_6="13000.00000" pt_clust_7="13000.00000" pt_clust_8="13000.00000" pt_clust_9="124.19861"></scales>
<clustering>
<clus scale="   83.466">  5  6 -1 -1</clus>
<clus scale="   91.397">  7  8 -1 -1</clus>
<clus scale="  124.199">  2  9  1 -1</clus>
<clus scale="  234.456">  2  5  1 -1</clus>
<clus scale="  124.199">  2  5  1 -1</clus>
</clustering>
</event>
<event>
 9    1  0.1315259E-005  0.1764448E+03  0.7546771E-02  0.1194972E+00
         21   -1    0    0  501  502  0.00000000000E+00  0.00000000000E+00  0.33355983460E+03  0.33355983460E+03  0.00000000000E+00 0.  1.
          1   -1    0    0  502    0 -0.00000000000E+00 -0.00000000000E+00 -0.50751180625E+03  0.50751180625E+03  0.00000000000E+00 0. -1.
         23    2    1    2    0    0  0.44645428293E+02 -0.60520490671E+01 -0.40304494786E+03  0.41622235484E+03  0.93626796947E+02 0.  0.
         23    2    1    2    0    0 -0.65380890006E+02  0.14794453975E+03  0.21244711970E+03  0.28048681574E+03  0.85888459721E+02 0.  0.
        -11    1    3    3    0    0  0.67488031574E+02  0.18666981574E+02 -0.28468216136E+03  0.29316722805E+03  0.00000000000E+00 0.  1.
         11    1    3    3    0    0 -0.22842603281E+02 -0.24719030642E+02 -0.11836278651E+03  0.12305512679E+03  0.00000000000E+00 0. -1.
        -13    1    4    4    0    0 -0.17994157256E+01  0.10806069443E+03  0.12645531978E+03  0.16634692506E+03  0.00000000000E+00 0.  1.
         13    1    4    4    0    0 -0.63581474281E+02  0.39883845321E+02  0.85991799920E+02  0.11413989067E+03  0.00000000000E+00 0. -1.
          1    1    1    2  501    0  0.20735461714E+02 -0.14189249068E+03  0.16645856506E+02  0.14436247027E+03  0.00000000000E+00 0. -1.
<scales pt_clust_5="13000.00000" pt_clust_6="13000.00000" pt_clust_7="13000.00000" pt_clust_8="13000.00000" pt_clust_9="154.12973"></scales>
<clustering>
<clus scale="   85.888">  7  8 -1 -1</clus>
<clus scale="   93.627">  5  6 -1 -1</clus>
<clus scale="  103.903">  2  5  1 -1</clus>
<clus scale="  154.130">  1  9  2 -1</clus>
<clus scale="  154.130">  1  5  2 -1</clus>
</clustering>
</event>
<event>
 9    1  0.1315259E-005  0.9096360E+02  0.7546771E-02  0.1303469E+00
         21   -1    0    0  501  502  0.00000000000E+00  0.00000000000E+00  0.16369703303E+03  0.16369703303E+03  0.00000000000E+00 0. -1.
          1   -1    0    0  502    0 -0.00000000000E+00 -0.00000000000E+00 -0.20189561197E+03  0.20189561197E+03  0.00000000000E+00 0. -1.
         23    2    1    2    0    0  0.14551333138E+01  0.28269190887E+00 -0.11981421549E+03  0.14716839924E+03  0.85445270053E+02 0.  0.
         23    2    1    2    0    0  0.51134754866E+02  0.13579220350E+02 -0.16816772246E+02  0.10596630672E+03  0.90260157046E+02 0.  0.
        -13    1    3    3    0    0  0.49542303371E+01 -0.35235348660E+02 -0.19242620088E+02  0.40451855597E+02  0.00000000000E+00 0.  1.
         13    1    3    3    0    0 -0.34990970234E+01  0.35518040569E+02 -0.10057159540E+03  0.10671654365E+03  0.00000000000E+00 0. -1.
        -13    1    4    4    0    0  0.23887476059E+02 -0.38025597256E+02 -0.15788661471E+02  0.47600833923E+02  0.00000000000E+00 0.  1.
         13    1    4    4    0    0  0.27247278807E+02  0.51604817607E+02 -0.10281107749E+01  0.58365472793E+02  0.00000000000E+00 0. -1.
          1    1    1    2  501    0 -0.52589888179E+02 -0.13861912259E+02  0.98432408803E+02  0.11245793904E+03  0.00000000000E+00 0. -1.
<scales pt_clust_5="13000.00000" pt_clust_6="13000.00000" pt_clust_7="13000.00000" pt_clust_8="13000.00000" pt_clust_9="54.38611"></scales>
<clustering>
<clus scale="   54.386">  1  9  2 -1</clus>
<clus scale="   85.445">  5  6 -1 -1</clus>
<clus scale="   86.188">  2  5  1 -1</clus>
<clus scale="   90.260">  7  8 -1 -1</clus>
<clus scale="   54.386">  1  5  2 -1</clus>
</clustering>
</event>
<event>
 9    1  0.1315259E-005  0.1221549E+03  0.7546771E-02  0.1240850E+00
          2   -1    0    0  502    0 -0.00000000000E+00  0.00000000000E+00  0.79116430634E+03  0.79116430634E+03  0.00000000000E+00 0. -1.
         21   -1    0    0  501  502  0.00000000000E+00 -0.00000000000E+00 -0.38323564430E+02  0.38323564430E+02  0.00000000000E+00 0. -1.
         23    2    1    2    0    0 -0.57584427535E+02 -0.29338928123E+02  0.37441065839E+03  0.39058334263E+03  0.90527716345E+02 0.  0.
         23    2    1    2    0    0  0.10112351647E+03  0.77600888146E+01  0.36193179742E+03  0.38758696764E+03  0.94566627007E+02 0.  0.
        -13    1    3    3    0    0 -0.16506922928E+02  0.29021461149E+02  0.65292654778E+02  0.73333856299E+02  0.00000000000E+00 0. -1.
         13    1    3    3    0    0 -0.41077504608E+02 -0.58360389272E+02  0.30911800361E+03  0.31724948633E+03  0.00000000000E+00 0.  1.
        -13    1    4    4    0    0  0.27286205901E+01  0.36152344589E+02  0.93300937907E+02  0.10009746452E+03  0.00000000000E+00 0.  1.
         13    1    4    4    0    0  0.98394895879E+02 -0.28392255774E+02  0.26863085951E+03  0.28748950312E+03  0.00000000000E+00 0. -1.
          2    1    1    2  501    0 -0.43539088934E+02  0.21578839308E+02  0.16498286106E+02  0.51317560499E+02  0.00000000000E+00 0. -1.
<scales pt_clust_5="13000.00000" pt_clust_6="13000.00000" pt_clust_7="13000.00000" pt_clust_8="13000.00000" pt_clust_9="48.59319"></scales>
<clustering>
<clus scale="   48.593">  2  9  1 -1</clus>
<clus scale="   90.528">  5  6 -1 -1</clus>
<clus scale="   94.567">  7  8 -1 -1</clus>
<clus scale="  119.056">  1  5  2 -1</clus>
<clus scale="   48.593">  2  5  1 -1</clus>
</clustering>
</event>
<event>
 9    1  0.1315259E-005  0.1067791E+03  0.7546771E-02  0.1266983E+00
          2   -1    0    0  502    0 -0.00000000000E+00  0.00000000000E+00  0.63505737570E+03  0.63505737570E+03  0.00000000000E+00 0. -1.
         21   -1    0    0  501  502  0.00000000000E+00 -0.00000000000E+00 -0.27187494161E+02  0.27187494161E+02  0.00000000000E+00 0. -1.
         23    2    1    2    0    0 -0.59485935891E+02  0.28235913792E+01  0.39997967549E+03  0.41461863815E+03  0.91533191038E+02 0.  0.
         23    2    1    2    0    0  0.37827011960E+02 -0.17089465883E+02  0.12541292201E+03  0.16116741756E+03  0.92323359980E+02 0.  0.
        -11    1    3    3    0    0 -0.16818238482E+02  0.45268563915E+02  0.15464273349E+03  0.16200762651E+03  0.00000000000E+00 0.  1.
         11    1    3    3    0    0 -0.42667697409E+02 -0.42444972536E+02  0.24533694199E+03  0.25261101164E+03  0.00000000000E+00 0. -1.
        -11    1    4    4    0    0  0.34190034306E+02  0.10255920582E+02  0.12854035551E+03  0.13340451771E+03  0.00000000000E+00 0.  1.
         11    1    4    4    0    0  0.36369776544E+01 -0.27345386465E+02 -0.31274335002E+01  0.27762899843E+02  0.00000000000E+00 0. -1.
          2    1    1    2  501    0  0.21658923930E+02  0.14265874504E+02  0.82477284041E+02  0.86458814148E+02  0.00000000000E+00 0. -1.
<scales pt_clust_5="13000.00000" pt_clust_6="13000.00000" pt_clust_7="13000.00000" pt_clust_8="13000.00000" pt_clust_9="25.93501"></scales>
<clustering>
<clus scale="   25.935">  2  9  1 -1</clus>
<clus scale="   91.533">  5  6 -1 -1</clus>
<clus scale="   92.323">  7  8 -1 -1</clus>
<clus scale="  106.097">  1  5  2 -1</clus>
<clus scale="   25.935">  2  5  1 -1</clus>
</clustering>
</event>
<event>
 9    1  0.1315259E-005  0.1004627E+03  0.7546771E-02  0.1282527E+00
         -1   -1    0    0    0  501 -0.00000000000E+00  0.00000000000E+00  0.78382545832E+02  0.78382545832E+02  0.00000000000E+00 0.  1.
         21   -1    0    0  501  502  0.00000000000E+00 -0.00000000000E+00 -0.20130330031E+03  0.20130330031E+03  0.00000000000E+00 0. -1.
         23    2    1    2    0    0 -0.21895030256E+02  0.11299276316E+02  0.12303823814E+01  0.94336547482E+02  0.91053854146E+02 0.  0.
         23    2    1    2    0    0  0.32115336699E+02  0.13622987297E+02 -0.69663625711E+02  0.12456720624E+03  0.97195614562E+02 0.  0.
        -13    1    4    4    0    0  0.26838465470E+02 -0.22681526186E+02  0.10276581633E+02  0.36610968151E+02  0.00000000000E+00 0.  1.
         13    1    4    4    0    0  0.52768712295E+01  0.36304513483E+02 -0.79940207344E+02  0.87956238093E+02  0.00000000000E+00 0. -1.
        -13    1    3    3    0    0 -0.27253668589E+02  0.41968367926E+02 -0.22816729144E+02  0.54997358907E+02  0.00000000000E+00 0. -1.
         13    1    3    3    0    0  0.53586383324E+01 -0.30669091611E+02  0.24047111525E+02  0.39339188575E+02  0.00000000000E+00 0.  1.
         -1    1    1    2    0  502 -0.10220306443E+02 -0.24922263613E+02 -0.54487511151E+02  0.60782092419E+02  0.00000000000E+00 0.  1.
<scales pt_clust_5="13000.00000" pt_clust_6="13000.00000" pt_clust_7="13000.00000" pt_clust_8="13000.00000" pt_clust_9="26.93648"></scales>
<clustering>
<clus scale="   26.936">  2  9  1 -1</clus>
<clus scale="   91.054">  7  8 -1 -1</clus>
<clus scale="   94.533">  1  7  2 -1</clus>
<clus scale="   97.196">  5  6 -1 -1</clus>
<clus scale="   26.936">  2  5  1 -1</clus>
</clustering>
</event>
<event>
 9    1  0.1421549E-005  0.1003410E+03  0.7546771E-02  0.1281507E+00
          1   -1    0    0  502    0 -0.00000000000E+00  0.00000000000E+00  0.11424363667E+03  0.11424363667E+03  0.00000000000E+00 0. -1.
         21   -1    0    0  501  502  0.00000000000E+00 -0.00000000000E+00 -0.36036994444E+03  0.36036994444E+03  0.00000000000E+00 0. -1.
         23    2    1    2    0    0 -0.44299647210E+02 -0.16831877210E+02  0.42761917399E+02  0.11419382622E+03  0.94688317834E+02 0.  0.
         23    2    1    2    0    0 -0.36897935746E+02 -0.45224022322E+02 -0.10939958442E+03  0.15387640761E+03  0.91120853214E+02 0.  0.
        -11    1    4    4    0    0  0.14242457130E+02  0.18558879125E+02 -0.41343637012E+02  0.47503430411E+02  0.00000000000E+00 0.  1.
         11    1    4    4    0    0 -0.51140392876E+02 -0.63782901448E+02 -0.68055947413E+02  0.10637297720E+03  0.00000000000E+00 0. -1.
        -13    1    3    3    0    0 -0.21401339547E+02  0.26821720172E+02 -0.15690162873E+02  0.37730666816E+02  0.00000000000E+00 0.  1.
         13    1    3    3    0    0 -0.22898307663E+02 -0.43653597382E+02  0.58452080272E+02  0.76463159406E+02  0.00000000000E+00 0. -1.
          1    1    1    2  501    0  0.81197582957E+02  0.62055899533E+02 -0.17948864075E+03  0.20654334727E+03  0.00000000000E+00 0. -1.
<scales pt_clust_5="13000.00000" pt_clust_6="13000.00000" pt_clust_7="13000.00000" pt_clust_8="13000.00000" pt_clust_9="102.19580"></scales>
<clustering>
<clus scale="   91.121">  5  6 -1 -1</clus>
<clus scale="   94.688">  7  8 -1 -1</clus>
<clus scale="  102.196">  2  9  1 -1</clus>
<clus scale="  102.196">  2  5  1 -1</clus>
<clus scale="  100.341">  2  5  1 -1</clus>
</clustering>
</event>
<event>
 9    1  0.1315259E-005  0.1135988E+03  0.7546771E-02  0.1256739E+00
          1   -1    0    0  502    0 -0.00000000000E+00  0.00000000000E+00  0.47350713698E+03  0.47350713698E+03  0.00000000000E+00 0. -1.
         21   -1    0    0  501  502  0.00000000000E+00 -0.00000000000E+00 -0.88990172177E+02  0.88990172177E+02  0.00000000000E+00 0. -1.
         23    2    1    2    0    0 -0.33982258754E+02 -0.47592247283E+02  0.27655698044E+03  0.29676763155E+03  0.90373933167E+02 0.  0.
         23    2    1    2    0    0  0.10326530413E+03 -0.20590736802E+02  0.81735703596E+02  0.16504813711E+03  0.97326568018E+02 0.  0.
        -13    1    3    3    0    0 -0.25253197163E+02  0.22206058836E+02  0.12885831545E+03  0.13317394068E+03  0.00000000000E+00 0. -1.
         13    1    3    3    0    0 -0.87290615913E+01 -0.69798306119E+02  0.14769866500E+03  0.16359369088E+03  0.00000000000E+00 0.  1.
        -13    1    4    4    0    0  0.22798828328E+02 -0.50228564360E+02  0.47219053218E+02  0.72610841047E+02  0.00000000000E+00 0. -1.
         13    1    4    4    0    0  0.80466475797E+02  0.29637827558E+02  0.34516650378E+02  0.92437296060E+02  0.00000000000E+00 0.  1.
          1    1    1    2  501    0 -0.69283045371E+02  0.68182984084E+02  0.26224280763E+02  0.10068154049E+03  0.00000000000E+00 0. -1.
<scales pt_clust_5="13000.00000" pt_clust_6="13000.00000" pt_clust_7="13000.00000" pt_clust_8="13000.00000" pt_clust_9="97.20627"></scales>
<clustering>
<clus scale="   90.374">  5  6 -1 -1</clus>
<clus scale="   97.206">  2  9  1 -1</clus>
<clus scale="   97.327">  7  8 -1 -1</clus>
<clus scale="  107.702">  1  5  2 -1</clus>
<clus scale="   97.206">  2  5  1 -1</clus>
</clustering>
</event>
<event>
 9    1  0.1315259E-005  0.1686682E+03  0.7546771E-02  0.1196974E+00
          2   -1    0    0  502    0 -0.00000000000E+00  0.00000000000E+00  0.31887399299E+03  0.31887399299E+03  0.00000000000E+00 0.  1.
         21   -1    0    0  501  502  0.00000000000E+00 -0.00000000000E+00 -0.32327187647E+03  0.32327187647E+03  0.00000000000E+00 0. -1.
         23    2    1    2    0    0 -0.59015622976E+02  0.28643296353E+01  0.18152360741E+03  0.21427398559E+03  0.97321491523E+02 0.  0.
         23    2    1    2    0    0 -0.63743920785E+02  0.11884568977E+03 -0.19644846673E+03  0.25468397543E+03  0.89912968172E+02 0.  0.
        -11    1    3    3    0    0  0.26564631795E+02 -0.56589262944E+01  0.34063701063E+02  0.43566487571E+02  0.00000000000E+00 0.  1.
         11    1    3    3    0    0 -0.85580254772E+02  0.85232559297E+01  0.14745990635E+03  0.17070749802E+03  0.00000000000E+00 0. -1.
        -11    1    4    4    0    0  0.21529241663E+02  0.22918233715E+02 -0.23223807083E+02  0.39090905575E+02  0.00000000000E+00 0.  1.
         11    1    4    4    0    0 -0.85273162449E+02  0.95927456059E+02 -0.17322465965E+03  0.21559306986E+03  0.00000000000E+00 0. -1.
          2    1    1    2  501    0  0.12275954376E+03 -0.12171001941E+03  0.10526975839E+02  0.17318790844E+03  0.00000000000E+00 0.  1.
<scales pt_clust_5="13000.00000" pt_clust_6="13000.00000" pt_clust_7="13000.00000" pt_clust_8="13000.00000" pt_clust_9="142.70470"></scales>
<clustering>
<clus scale="   89.913">  7  8 -1 -1</clus>
<clus scale="   97.321">  5  6 -1 -1</clus>
<clus scale="  113.853">  1  5  2 -1</clus>
<clus scale="  142.705">  2  9  1 -1</clus>
<clus scale="  142.705">  2  5  1 -1</clus>
</clustering>
</event>
<event>
 9    1  0.1315259E-005  0.1157429E+03  0.7546771E-02  0.1250756E+00
         -3   -1    0    0    0  501 -0.00000000000E+00  0.00000000000E+00  0.17045210806E+03  0.17045210806E+03  0.00000000000E+00 0.  1.
         21   -1    0    0  501  502  0.00000000000E+00 -0.00000000000E+00 -0.29797992830E+03  0.29797992830E+03  0.00000000000E+00 0.  1.
         23    2    1    2    0    0  0.39496656848E+02  0.53082452610E+02  0.11302443881E+03  0.15922808991E+03  0.90561184670E+02 0.  0.
         23    2    1    2    0    0 -0.81512062740E+02 -0.76368792373E+02 -0.19668160681E+03  0.24414872314E+03  0.91915916651E+02 0.  0.
        -11    1    4    4    0    0 -0.36044868680E+02 -0.38369967163E+02 -0.17214387596E+03  0.18001389104E+03  0.00000000000E+00 0.  1.
         11    1    4    4    0    0 -0.45467194060E+02 -0.37998825210E+02 -0.24537730851E+02  0.64134832099E+02  0.00000000000E+00 0. -1.
        -13    1    3    3    0    0 -0.12618585886E+02  0.54122319106E+02  0.80390582340E+02  0.97729728661E+02  0.00000000000E+00 0.  1.
         13    1    3    3    0    0  0.52115242734E+02 -0.10398664958E+01  0.32633856473E+02  0.61498361245E+02  0.00000000000E+00 0. -1.
         -3    1    1    2    0  502  0.42015405892E+02  0.23286339763E+02 -0.43870652240E+02  0.65055223309E+02  0.00000000000E+00 0.  1.
<scales pt_clust_5="13000.00000" pt_clust_6="13000.00000" pt_clust_7="13000.00000" pt_clust_8="13000.00000" pt_clust_9="48.03694"></scales>
<clustering>
<clus scale="   48.037">  2  9  1 -1</clus>
<clus scale="   90.561">  7  8 -1 -1</clus>
<clus scale="   91.916">  5  6 -1 -1</clus>
<clus scale="  114.670">  1  7  2 -1</clus>
<clus scale="   48.037">  2  5  1 -1</clus>
</clustering>
</event>
<event>
 9    1  0.1315259E-005  0.1004652E+03  0.7546771E-02  0.1280800E+00
          1   -1    0    0  502    0 -0.00000000000E+00  0.00000000000E+00  0.44550926263E+03  0.44550926263E+03  0.00000000000E+00 0. -1.
         21   -1    0    0  501  502  0.00000000000E+00 -0.00000000000E+00 -0.29308683367E+02  0.29308683367E+02  0.00000000000E+00 0.  1.
         23    2    1    2    0    0 -0.37286371421E+02  0.22014229546E+02  0.22086865548E+03  0.24160565424E+03  0.87837517000E+02 0.  0.
         23    2    1    2    0    0  0.45684865707E+02 -0.10830212458E-01  0.13998893197E+03  0.17306637725E+03  0.90928338754E+02 0.  0.
        -11    1    3    3    0    0  0.51042669606E+01 -0.30222372578E+02  0.67793566261E+02  0.74400355992E+02  0.00000000000E+00 0. -1.
         11    1    3    3    0    0 -0.42390638382E+02  0.52236602124E+02  0.15307508922E+03  0.16720529825E+03  0.00000000000E+00 0.  1.
        -13    1    4    4    0    0  0.13421262383E+02 -0.29983723777E+02  0.12052039469E+03  0.12491725065E+03  0.00000000000E+00 0. -1.
         13    1    4    4    0    0  0.32263603324E+02  0.29972893565E+02  0.19468537283E+02  0.48149126597E+02  0.00000000000E+00 0.  1.
          1    1    1    2  501    0 -0.83984942859E+01 -0.22003399334E+02  0.55342991820E+02  0.60145914509E+02  0.00000000000E+00 0. -1.
<scales pt_clust_5="13000.00000" pt_clust_6="13000.00000" pt_clust_7="13000.00000" pt_clust_8="13000.00000" pt_clust_9="23.55175"></scales>
<clustering>
<clus scale="   23.552">  2  9  1 -1</clus>
<clus scale="   87.838">  5  6 -1 -1</clus>
<clus scale="   90.928">  7  8 -1 -1</clus>
<clus scale="   97.677">  1  5  2 -1</clus>
<clus scale="   23.552">  2  5  1 -1</clus>
</clustering>
</event>
<event>
 9    1  0.1315259E-005  0.1022262E+03  0.7546771E-02  0.1276296E+00
         21   -1    0    0  501  502  0.00000000000E+00  0.00000000000E+00  0.34740318198E+03  0.34740318198E+03  0.00000000000E+00 0. -1.
          1   -1    0    0  502    0 -0.00000000000E+00 -0.00000000000E+00 -0.46246795413E+02  0.46246795413E+02  0.00000000000E+00 0. -1.
         23    2    1    2    0    0  0.29501633888E+02 -0.45993107011E+02  0.88299358303E+02  0.13872024022E+03  0.91982694431E+02 0.  0.
         23    2    1    2    0    0  0.54364018246E+01  0.31165704060E+02  0.12445182921E+03  0.15872164272E+03  0.93292263890E+02 0.  0.
        -11    1    3    3    0    0 -0.13773030740E+02  0.18861453442E+02  0.36536739326E+01  0.23638953761E+02  0.00000000000E+00 0.  1.
         11    1    3    3    0    0  0.43274664628E+02 -0.64854560453E+02  0.84645684370E+02  0.11508128646E+03  0.00000000000E+00 0. -1.
        -13    1    4    4    0    0 -0.34245487102E+02 -0.29023363735E+01  0.15165356912E+02  0.37565476086E+02  0.00000000000E+00 0.  1.
         13    1    4    4    0    0  0.39681888927E+02  0.34068040433E+02  0.10928647230E+03  0.12115616664E+03  0.00000000000E+00 0. -1.
          1    1    1    2  501    0 -0.34938035712E+02  0.14827402951E+02  0.88405199054E+02  0.96208094449E+02  0.00000000000E+00 0. -1.
<scales pt_clust_5="13000.00000" pt_clust_6="13000.00000" pt_clust_7="13000.00000" pt_clust_8="13000.00000" pt_clust_9="37.95416"></scales>
<clustering>
<clus scale="   37.954">  1  9  2 -1</clus>
<clus scale="   91.983">  5  6 -1 -1</clus>
<clus scale="   93.292">  7  8 -1 -1</clus>
<clus scale="  101.032">  2  5  1 -1</clus>
<clus scale="   37.954">  1  5  2 -1</clus>
</clustering>
</event>
<event>
 9    1  0.1315259E-005  0.1373901E+03  0.7546771E-02  0.1217134E+00
         21   -1    0    0  501  502  0.00000000000E+00  0.00000000000E+00  0.23939134723E+03  0.23939134723E+03  0.00000000000E+00 0. -1.
          1   -1    0    0  502    0 -0.00000000000E+00 -0.00000000000E+00 -0.21209589525E+03  0.21209589525E+03  0.00000000000E+00 0. -1.
         23    2    1    2    0    0 -0.68664298438E+02 -0.22273294455E+02 -0.21541632874E+02  0.11858756261E+03  0.91586475705E+02 0.  0.
         23    2    1    2    0    0  0.10653523092E+03  0.87966780680E+02 -0.79913186689E+02  0.18347921915E+03  0.90501914474E+02 0.  0.
        -11    1    3    3    0    0 -0.84908109769E+02 -0.38396622852E+02 -0.12681477363E+02  0.94045242405E+02  0.00000000000E+00 0.  1.
         11    1    3    3    0    0  0.16243811331E+02  0.16123328397E+02 -0.88601555107E+01  0.24542320201E+02  0.00000000000E+00 0. -1.
        -11    1    4    4    0    0  0.61715307706E+02  0.49228741217E+02 -0.93833155513E+02  0.12262507590E+03  0.00000000000E+00 0. -1.
         11    1    4    4    0    0  0.44819923211E+02  0.38738039463E+02  0.13919968824E+02  0.60854143245E+02  0.00000000000E+00 0.  1.
          1    1    1    2  501    0 -0.37870932478E+02 -0.65693486226E+02  0.12875027155E+03  0.14942046072E+03  0.00000000000E+00 0. -1.
<scales pt_clust_5="13000.00000" pt_clust_6="13000.00000" pt_clust_7="13000.00000" pt_clust_8="13000.00000" pt_clust_9="75.82771"></scales>
<clustering>
<clus scale="   75.828">  1  9  2 -1</clus>
<clus scale="   90.502">  7  8 -1 -1</clus>
<clus scale="   91.586">  5  6 -1 -1</clus>
<clus scale="  136.669">  1  7  2 -1</clus>
<clus scale="   75.828">  1  5  2 -1</clus>
</clustering>
</event>
<event>
 9    1  0.1315259E-005  0.1868843E+03  0.7546771E-02  0.1161307E+00
         21   -1    0    0  501  502  0.00000000000E+00  0.00000000000E+00  0.71655408149E+02  0.71655408149E+02  0.00000000000E+00 0. -1.
          1   -1    0    0  502    0 -0.00000000000E+00 -0.00000000000E+00 -0.14008803722E+04  0.14008803722E+04  0.00000000000E+00 0. -1.
         23    2    1    2    0    0 -0.17974254705E+03 -0.10155476272E+02 -0.73535538207E+03  0.76249493932E+03  0.90777076642E+02 0.  0.
         23    2    1    2    0    0  0.10194021559E+03  0.15222008536E+03 -0.44634386786E+03  0.49095320498E+03  0.90826423249E+02 0.  0.
        -13    1    3    3    0    0 -0.11516722081E+03 -0.46867703490E+02 -0.52108267466E+03  0.53571188544E+03  0.00000000000E+00 0.  1.
         13    1    3    3    0    0 -0.64575326246E+02  0.36712227218E+02 -0.21427270741E+03  0.22678305388E+03  0.00000000000E+00 0. -1.
        -13    1    4    4    0    0  0.15165165466E+02  0.68104913148E+02 -0.25720685046E+03  0.26650258040E+03  0.00000000000E+00 0.  1.
         13    1    4    4    0    0  0.86775050127E+02  0.84115172211E+02 -0.18913701740E+03  0.22445062457E+03  0.00000000000E+00 0. -1.
          1    1    1    2  501    0  0.77802331458E+02 -0.14206460909E+03 -0.14752571409E+03  0.21908763601E+03  0.00000000000E+00 0. -1.
<scales pt_clust_5="13000.00000" pt_clust_6="13000.00000" pt_clust_7="13000.00000" pt_clust_8="13000.00000" pt_clust_9="161.97394"></scales>
<clustering>
<clus scale="   90.777">  5  6 -1 -1</clus>
<clus scale="   90.826">  7  8 -1 -1</clus>
<clus scale="  161.974">  1  9  2 -1</clus>
<clus scale="  186.860">  2  5  1 -1</clus>
<clus scale="  161.974">  1  5  2 -1</clus>
</clustering>
</event>
<event>
 9    1  0.1315259E-005  0.1146012E+03  0.7546771E-02  0.1252737E+00
         -3   -1    0    0    0  501 -0.00000000000E+00  0.00000000000E+00  0.12157773053E+03  0.12157773053E+03  0.00000000000E+00 0.  1.
         21   -1    0    0  501  502  0.00000000000E+00 -0.00000000000E+00 -0.57163269053E+03  0.57163269053E+03  0.00000000000E+00 0. -1.
         23    2    1    2    0    0 -0.37118048198E+02  0.55370547218E+02  0.32353636974E+02  0.11610635736E+03  0.89388373920E+02 0.  0.
         23    2    1    2    0    0  0.10678912524E+03 -0.58791454414E+02 -0.48404079155E+03  0.50732995932E+03  0.90707482360E+02 0.  0.
        -11    1    3    3    0    0 -0.41961512304E+02  0.19671963375E+02 -0.21679998109E+02  0.51164215775E+02  0.00000000000E+00 0. -1.
         11    1    3    3    0    0  0.48434641065E+01  0.35698583842E+02  0.54033635084E+02  0.64942141582E+02  0.00000000000E+00 0.  1.
        -13    1    4    4    0    0  0.73804786319E+02 -0.40619188382E+02 -0.44568518832E+03  0.45357728342E+03  0.00000000000E+00 0. -1.
         13    1    4    4    0    0  0.32984338925E+02 -0.18172266033E+02 -0.38355603231E+02  0.53752675899E+02  0.00000000000E+00 0.  1.
         -3    1    1    2    0  502 -0.69671077046E+02  0.34209071965E+01  0.16321945708E+01  0.69774104379E+02  0.00000000000E+00 0.  1.
<scales pt_clust_5="13000.00000" pt_clust_6="13000.00000" pt_clust_7="13000.00000" pt_clust_8="13000.00000" pt_clust_9="69.75505"></scales>
<clustering>
<clus scale="   69.755">  2  9  1 -1</clus>
<clus scale="   89.388">  5  6 -1 -1</clus>
<clus scale="   90.707">  7  8 -1 -1</clus>
<clus scale="  113.560">  1  5  2 -1</clus>
<clus scale="   69.755">  2  5  1 -1</clus>
</clustering>
</event>
<event>
 9    1  0.1315259E-005  0.2265860E+03  0.7546771E-02  0.1129206E+00
          2   -1    0    0  502    0 -0.00000000000E+00  0.00000000000E+00  0.15408397477E+04  0.15408397477E+04  0.00000000000E+00 0. -1.
         21   -1    0    0  501  502  0.00000000000E+00 -0.00000000000E+00 -0.66935744876E+02  0.66935744876E+02  0.00000000000E+00 0.  1.
         23    2    1    2    0    0 -0.13169324555E+03 -0.15703957856E+03  0.10788558863E+04  0.11017877109E+04  0.89451642749E+02 0.  0.
         23    2    1    2    0    0  0.15463368505E+03  0.14876592052E+03  0.41395038297E+03  0.47513307603E+03  0.91398275232E+02 0.  0.
        -11    1    3    3    0    0 -0.27446382393E+02 -0.10176397973E+03  0.48439030748E+03  0.49572490502E+03  0.00000000000E+00 0. -1.
         11    1    3    3    0    0 -0.10424686315E+03 -0.55275598838E+02  0.59446557877E+03  0.60606280586E+03  0.00000000000E+00 0.  1.
        -13    1    4    4    0    0  0.37302352548E+02  0.86197367315E+02  0.11904041676E+03  0.15163137030E+03  0.00000000000E+00 0.  1.
         13    1    4    4    0    0  0.11733133250E+03  0.62568553200E+02  0.29490996621E+03  0.32350170573E+03  0.00000000000E+00 0. -1.
          2    1    1    2  501    0 -0.22940439505E+02  0.82736580479E+01 -0.18902266444E+02  0.30854705620E+02  0.00000000000E+00 0. -1.
<scales pt_clust_5="13000.00000" pt_clust_6="13000.00000" pt_clust_7="13000.00000" pt_clust_8="13000.00000" pt_clust_9="24.38682"></scales>
<clustering>
<clus scale="   24.387">  2  9  1 -1</clus>
<clus scale="   89.452">  5  6 -1 -1</clus>
<clus scale="   91.398">  7  8 -1 -1</clus>
<clus scale="  225.808">  1  5  2 -1</clus>
<clus scale="   24.387">  2  5  1 -1</clus>
</clustering>
</event>
<event>
 9    1  0.1315259E-005  0.9237124E+02  0.7546771E-02  0.1297521E+00
         21   -1    0    0  501  502  0.00000000000E+00  0.00000000000E+00  0.36766609016E+03  0.36766609016E+03  0.00000000000E+00 0. -1.
         -4   -1    0    0    0  501 -0.00000000000E+00 -0.00000000000E+00 -0.61005592847E+02  0.61005592847E+02  0.00000000000E+00 0.  1.
         23    2    1    2    0    0 -0.68518553830E+01 -0.45859038263E+01 -0.67650422283E+01  0.91806208113E+02  0.91184623790E+02 0.  0.
         23    2    1    2    0    0  0.22664801414E+02  0.19283322771E+02  0.28686399800E+03  0.30263714050E+03  0.91721021072E+02 0.  0.
        -11    1    4    4    0    0  0.49479967101E+02  0.36708901700E+02  0.22088548293E+03  0.22931682707E+03  0.00000000000E+00 0. -1.
         11    1    4    4    0    0 -0.26815165687E+02 -0.17425578930E+02  0.65978515068E+02  0.73320313436E+02  0.00000000000E+00 0.  1.
        -11    1    3    3    0    0  0.35275822052E+01  0.25841475132E+02 -0.38584936842E+02  0.46572771276E+02  0.00000000000E+00 0.  1.
         11    1    3    3    0    0 -0.10379437588E+02 -0.30427378958E+02  0.31819894614E+02  0.45233436838E+02  0.00000000000E+00 0. -1.
         -4    1    1    2    0  502 -0.15812946031E+02 -0.14697418944E+02  0.26561541550E+02  0.34228334393E+02  0.00000000000E+00 0.  1.
<scales pt_clust_5="13000.00000" pt_clust_6="13000.00000" pt_clust_7="13000.00000" pt_clust_8="13000.00000" pt_clust_9="21.58850"></scales>
<clustering>
<clus scale="   21.589">  1  9  2 -1</clus>
<clus scale="   91.185">  7  8 -1 -1</clus>
<clus scale="   91.721">  5  6 -1 -1</clus>
<clus scale="   91.839">  2  7  1 -1</clus>
<clus scale="   21.589">  1  5  2 -1</clus>
</clustering>
</event>
<event>
 9    1  0.1315259E-005  0.1070950E+03  0.7546771E-02  0.1266517E+00
          1   -1    0    0  502    0 -0.00000000000E+00  0.00000000000E+00  0.14658316289E+03  0.14658316289E+03  0.00000000000E+00 0. -1.
         21   -1    0    0  501  502  0.00000000000E+00 -0.00000000000E+00 -0.29635576199E+03  0.29635576199E+03  0.00000000000E+00 0. -1.
         23    2    1    2    0    0 -0.46726854342E+02  0.85580663567E+01  0.56250949038E+02  0.11602046586E+03  0.89665711476E+02 0.  0.
         23    2    1    2    0    0  0.72036612313E+02 -0.20939327711E+02  0.11857423461E+01  0.11780229621E+03  0.90819854925E+02 0.  0.
        -11    1    3    3    0    0  0.88546084606E+01 -0.30803252711E+02  0.95626541829E+01  0.33446805881E+02  0.00000000000E+00 0.  1.
         11    1    3    3    0    0 -0.55581462803E+02  0.39361319068E+02  0.46688294855E+02  0.82573659981E+02  0.00000000000E+00 0. -1.
        -11    1    4    4    0    0  0.44639290531E+02 -0.23133421030E+02  0.44075485492E+02  0.66861572289E+02  0.00000000000E+00 0. -1.
         11    1    4    4    0    0  0.27397321782E+02  0.21940933189E+01 -0.42889743146E+02  0.50940723920E+02  0.00000000000E+00 0.  1.
          1    1    1    2  501    0 -0.25309757971E+02  0.12381261354E+02 -0.20720929049E+03  0.20911616280E+03  0.00000000000E+00 0. -1.
<scales pt_clust_5="13000.00000" pt_clust_6="13000.00000" pt_clust_7="13000.00000" pt_clust_8="13000.00000" pt_clust_9="28.17587"></scales>
<clustering>
<clus scale="   28.176">  2  9  1 -1</clus>
<clus scale="   89.666">  5  6 -1 -1</clus>
<clus scale="   90.820">  7  8 -1 -1</clus>
<clus scale="  106.118">  1  5  2 -1</clus>
<clus scale="   28.176">  2  5  1 -1</clus>
</clustering>
</event>
<event>
 9    1  0.1315259E-005  0.1278894E+03  0.7546771E-02  0.1231168E+00
         -1   -1    0    0    0  501 -0.00000000000E+00  0.00000000000E+00  0.58173672664E+03  0.58173672664E+03  0.00000000000E+00 0.  1.
         21   -1    0    0  501  502  0.00000000000E+00 -0.00000000000E+00 -0.89611130952E+02  0.89611130952E+02  0.00000000000E+00 0.  1.
         23    2    1    2    0    0 -0.84364078290E+02 -0.78212496822E+01  0.42761550378E+03  0.44535734545E+03  0.91157426540E+02 0.  0.
         23    2    1    2    0    0  0.10787325902E+03  0.22673343141E+02  0.10532345331E+03  0.17660431237E+03  0.89136596463E+02 0.  0.
        -11    1    3    3    0    0 -0.70894853897E+02  0.34647251098E+02  0.29930061685E+03  0.30952765880E+03  0.00000000000E+00 0.  1.
         11    1    3    3    0    0 -0.13469224393E+02 -0.42468500780E+02  0.12831488693E+03  0.13582968664E+03  0.00000000000E+00 0. -1.
        -13    1    4    4    0    0  0.82549257335E+02  0.29302344460E+02  0.11844960194E+03  0.14732045166E+03  0.00000000000E+00 0. -1.
         13    1    4    4    0    0  0.25324001689E+02 -0.66290013186E+01 -0.13126148633E+02  0.29283860708E+02  0.00000000000E+00 0.  1.
         -1    1    1    2    0  502 -0.23509180733E+02 -0.14852093459E+02 -0.40813361408E+02  0.49386199775E+02  0.00000000000E+00 0.  1.
<scales pt_clust_5="13000.00000" pt_clust_6="13000.00000" pt_clust_7="13000.00000" pt_clust_8="13000.00000" pt_clust_9="27.80767"></scales>
<clustering>
<clus scale="   27.808">  2  9  1 -1</clus>
<clus scale="   89.137">  7  8 -1 -1</clus>
<clus scale="   91.157">  5  6 -1 -1</clus>
<clus scale="  126.457">  2  7  1 -1</clus>
<clus scale="   27.808">  2  5  1 -1</clus>
</clustering>
</event>
<event>
 9    1  0.1315259E-005  0.1075511E+03  0.7546771E-02  0.1266012E+00
          1   -1    0    0  502    0 -0.00000000000E+00  0.00000000000E+00  0.47076896940E+03  0.47076896940E+03  0.00000000000E+00 0. -1.
         21   -1    0    0  501  502  0.00000000000E+00 -0.00000000000E+00 -0.11491646183E+03  0.11491646183E+03  0.00000000000E+00 0. -1.
         23    2    1    2    0    0 -0.68323344160E+02  0.26338858947E+01  0.28502722663E+03  0.30697143519E+03  0.91191695827E+02 0.  0.
         23    2    1    2    0    0  0.32343615988E+02  0.21319683466E+02  0.15449125034E+03  0.18454229775E+03  0.93207697261E+02 0.  0.
        -11    1    4    4    0    0  0.15884410402E+02 -0.27436363159E+02  0.11607072542E+03  0.12032240779E+03  0.00000000000E+00 0.  1.
         11    1    4    4    0    0  0.16459205586E+02  0.48756046625E+02  0.38420524918E+02  0.64219889956E+02  0.00000000000E+00 0. -1.
        -13    1    3    3    0    0 -0.31016266588E+02  0.42647031480E+02  0.88959997943E+02  0.10341498596E+03  0.00000000000E+00 0.  1.
         13    1    3    3    0    0 -0.37307077572E+02 -0.40013145585E+02  0.19606722869E+03  0.20355644923E+03  0.00000000000E+00 0. -1.
          1    1    1    2  501    0  0.35979728172E+02 -0.23953569361E+02 -0.83665969395E+02  0.94171698292E+02  0.00000000000E+00 0. -1.
<scales pt_clust_5="13000.00000" pt_clust_6="13000.00000" pt_clust_7="13000.00000" pt_clust_8="13000.00000" pt_clust_9="43.22400"></scales>
<clustering>
<clus scale="   43.224">  2  9  1 -1</clus>
<clus scale="   91.192">  7  8 -1 -1</clus>
<clus scale="   93.208">  5  6 -1 -1</clus>
<clus scale="  105.809">  1  7  2 -1</clus>
<clus scale="   43.224">  2  5  1 -1</clus>
</clustering>
</event>
<event>
 9    1  0.1315259E-005  0.1771957E+03  0.7546771E-02  0.1199060E+00
          3   -1    0    0  502    0 -0.00000000000E+00  0.00000000000E+00  0.38162292902E+03  0.38162292902E+03  0.00000000000E+00 0. -1.
         21   -1    0    0  501  502  0.00000000000E+00 -0.00000000000E+00 -0.23587281981E+03  0.23587281981E+03  0.00000000000E+00 0. -1.
         23    2    1    2    0    0 -0.23644066030E+02 -0.81765342532E+00  0.98291075972E+02  0.13588578121E+03  0.90797023648E+02 0.  0.
         23    2    1    2    0    0  0.16592851414E+03 -0.50817243109E+02  0.19136156523E+03  0.27275842843E+03  0.87539977320E+02 0.  0.
        -13    1    3    3    0    0 -0.45390387407E+02 -0.16841753827E+02  0.18809963278E+02  0.51939836921E+02  0.00000000000E+00 0.  1.
         13    1    3    3    0    0  0.21746321376E+02  0.16024100402E+02  0.79481112694E+02  0.83945944287E+02  0.00000000000E+00 0. -1.
        -13    1    4    4    0    0  0.74943401651E+02  0.19584421581E+01  0.13246496980E+03  0.15220813767E+03  0.00000000000E+00 0. -1.
         13    1    4    4    0    0  0.90985112487E+02 -0.52775685267E+02  0.58896595428E+02  0.12055029076E+03  0.00000000000E+00 0.  1.
          3    1    1    2  501    0 -0.14228444811E+03  0.51634896535E+02 -0.14390253199E+03  0.20885153920E+03  0.00000000000E+00 0. -1.
<scales pt_clust_5="13000.00000" pt_clust_6="13000.00000" pt_clust_7="13000.00000" pt_clust_8="13000.00000" pt_clust_9="154.06192"></scales>
<clustering>
<clus scale="   87.540">  7  8 -1 -1</clus>
<clus scale="   90.797">  5  6 -1 -1</clus>
<clus scale="   93.829">  1  5  2 -1</clus>
<clus scale="  154.062">  2  9  1 -1</clus>
<clus scale="  154.062">  2  5  1 -1</clus>
</clustering>
</event>
<event>
 9    1  0.1315259E-005  0.1299568E+03  0.7546771E-02  0.1227663E+00
          1   -1    0    0  502    0 -0.00000000000E+00  0.00000000000E+00  0.11319137789E+03  0.11319137789E+03  0.00000000000E+00 0. -1.
         21   -1    0    0  501  502  0.00000000000E+00 -0.00000000000E+00 -0.52994645407E+03  0.52994645407E+03  0.00000000000E+00 0.  1.
         23    2    1    2    0    0 -0.80735968424E+02  0.44632770272E+02  0.57003381461E+02  0.14077136969E+03  0.89759747363E+02 0.  0.
         23    2    1    2    0    0  0.89615844457E+02 -0.66834268852E+02 -0.39743705401E+03  0.42238699372E+03  0.89200568902E+02 0.  0.
        -11    1    4    4    0    0  0.10435803742E+03 -0.46255439942E+02 -0.35575721815E+03  0.37362195327E+03  0.00000000000E+00 0.  1.
         11    1    4    4    0    0 -0.14742192967E+02 -0.20578828910E+02 -0.41679835863E+02  0.48765040453E+02  0.00000000000E+00 0. -1.
        -11    1    3    3    0    0 -0.42528761650E+02  0.68638298103E+02  0.22073686519E+02  0.83708775947E+02  0.00000000000E+00 0. -1.
         11    1    3    3    0    0 -0.38207206774E+02 -0.24005527831E+02  0.34929694942E+02  0.57062593743E+02  0.00000000000E+00 0.  1.
          1    1    1    2  501    0 -0.88798760331E+01  0.22201498579E+02 -0.76321403623E+02  0.79979468544E+02  0.00000000000E+00 0. -1.
<scales pt_clust_5="13000.00000" pt_clust_6="13000.00000" pt_clust_7="13000.00000" pt_clust_8="13000.00000" pt_clust_9="23.91148"></scales>
<clustering>
<clus scale="   23.911">  2  9  1 -1</clus>
<clus scale="   89.201">  5  6 -1 -1</clus>
<clus scale="   89.760">  7  8 -1 -1</clus>
<clus scale="  129.571">  2  5  1 -1</clus>
<clus scale="   23.911">  2  5  1 -1</clus>
</clustering>
</event>
<event>
 9    1  0.1315259E-005  0.1043228E+03  0.7546771E-02  0.1275848E+00
          1   -1    0    0  502    0 -0.00000000000E+00  0.00000000000E+00  0.73542057680E+03  0.73542057680E+03  0.00000000000E+00 0. -1.
         21   -1    0    0  501  502  0.00000000000E+00 -0.00000000000E+00 -0.17184099776E+02  0.17184099776E+02  0.00000000000E+00 0.  1.
         23    2    1    2    0    0 -0.47778392463E+02 -0.33754703440E+02  0.36864616206E+03  0.38204282551E+03  0.81452887787E+02 0.  0.
         23    2    1    2    0    0  0.36767662848E+02  0.16053544685E+02  0.25691335858E+03  0.27556929645E+03  0.91238073205E+02 0.  0.
        -13    1    3    3    0    0  0.21591246605E+02 -0.20249801101E+02  0.11129817628E+03  0.11516735830E+03  0.00000000000E+00 0.  1.
         13    1    3    3    0    0 -0.69369639069E+02 -0.13504902339E+02  0.25734798579E+03  0.26687546721E+03  0.00000000000E+00 0. -1.
        -13    1    4    4    0    0  0.44885154125E+02  0.47974113438E+02  0.15153742533E+03  0.16516592838E+03  0.00000000000E+00 0.  1.
         13    1    4    4    0    0 -0.81174912768E+01 -0.31920568753E+02  0.10537593324E+03  0.11040336807E+03  0.00000000000E+00 0. -1.
          1    1    1    2  501    0  0.11010729615E+02  0.17701158755E+02  0.92676956388E+02  0.94992554620E+02  0.00000000000E+00 0. -1.
<scales pt_clust_5="13000.00000" pt_clust_6="13000.00000" pt_clust_7="13000.00000" pt_clust_8="13000.00000" pt_clust_9="20.84629"></scales>
<clustering>
<clus scale="   20.846">  2  9  1 -1</clus>
<clus scale="   81.453">  5  6 -1 -1</clus>
<clus scale="   91.238">  7  8 -1 -1</clus>
<clus scale="   95.882">  1  5  2 -1</clus>
<clus scale="   20.846">  2  5  1 -1</clus>
</clustering>
</event>
<event>
 9    1  0.1315259E-005  0.1045197E+03  0.7546771E-02  0.1273658E+00
          2   -1    0    0  502    0 -0.00000000000E+00  0.00000000000E+00  0.25449725935E+03  0.25449725935E+03  0.00000000000E+00 0. -1.
         21   -1    0    0  501  502  0.00000000000E+00 -0.00000000000E+00 -0.98478424226E+02  0.98478424226E+02  0.00000000000E+00 0.  1.
         23    2    1    2    0    0  0.14216921726E+02 -0.58204930628E+01  0.10190838426E+03  0.14326119162E+03  0.99511060890E+02 0.  0.
         23    2    1    2    0    0 -0.88137926963E+01  0.82536340286E+02  0.37925329355E+02  0.13112395068E+03  0.94155347307E+02 0.  0.
        -11    1    3    3    0    0 -0.38948363177E+02  0.11135125726E+02  0.64199315962E+02  0.75911252058E+02  0.00000000000E+00 0.  1.
         11    1    3    3    0    0  0.53165284902E+02 -0.16955618789E+02  0.37709068299E+02  0.67349939564E+02  0.00000000000E+00 0. -1.
        -11    1    4    4    0    0  0.36684127108E+02  0.65911425637E+02  0.12648563253E+02  0.76485471585E+02  0.00000000000E+00 0.  1.
         11    1    4    4    0    0 -0.45497919805E+02  0.16624914650E+02  0.25276766102E+02  0.54638479099E+02  0.00000000000E+00 0. -1.
          2    1    1    2  501    0 -0.54031290292E+01 -0.76715847224E+02  0.16185121504E+02  0.78590541267E+02  0.00000000000E+00 0. -1.
<scales pt_clust_5="13000.00000" pt_clust_6="13000.00000" pt_clust_7="13000.00000" pt_clust_8="13000.00000" pt_clust_9="76.90588"></scales>
<clustering>
<clus scale="   76.906">  2  9  1 -1</clus>
<clus scale="   94.155">  7  8 -1 -1</clus>
<clus scale="   99.434">  2  7  1 -1</clus>
<clus scale="   99.511">  5  6 -1 -1</clus>
<clus scale="   76.906">  2  5  1 -1</clus>
</clustering>
</event>
<event>
 9    1  0.1315259E-005  0.1204398E+03  0.7546771E-02  0.1243597E+00
         21   -1    0    0  501  502  0.00000000000E+00  0.00000000000E+00  0.20073315094E+03  0.20073315094E+03  0.00000000000E+00 0.  1.
          1   -1    0    0  502    0 -0.00000000000E+00 -0.00000000000E+00 -0.14742904124E+03  0.14742904124E+03  0.00000000000E+00 0. -1.
         23    2    1    2    0    0 -0.45286349148E+02  0.95151697282E+02 -0.47579320288E+02  0.14897530714E+03  0.93942277511E+02 0.  0.
         23    2    1    2    0    0  0.17650798094E+02 -0.23884488538E+02  0.49047473212E+02  0.10683048222E+03  0.90139213652E+02 0.  0.
        -11    1    3    3    0    0 -0.21287146888E+02  0.13585711954E+02 -0.58054511330E+02  0.63309086850E+02  0.00000000000E+00 0. -1.
         11    1    3    3    0    0 -0.23999202260E+02  0.81565985328E+02  0.10475191043E+02  0.85666220291E+02  0.00000000000E+00 0.  1.
        -11    1    4    4    0    0 -0.19650681015E+02  0.26013682505E+02  0.17353921244E+02  0.36932634951E+02  0.00000000000E+00 0.  1.
         11    1    4    4    0    0  0.37301479109E+02 -0.49898171043E+02  0.31693551968E+02  0.69897847274E+02  0.00000000000E+00 0. -1.
          1    1    1    2  501    0  0.27635551053E+02 -0.71267208744E+02  0.51835956776E+02  0.92356402805E+02  0.00000000000E+00 0. -1.
<scales pt_clust_5="13000.00000" pt_clust_6="13000.00000" pt_clust_7="13000.00000" pt_clust_8="13000.00000" pt_clust_9="76.43781"></scales>
<clustering>
<clus scale="   76.438">  1  9  2 -1</clus>
<clus scale="   90.139">  7  8 -1 -1</clus>
<clus scale="   93.942">  5  6 -1 -1</clus>
<clus scale="  117.498">  1  7  2 -1</clus>
<clus scale="   76.438">  1  5  2 -1</clus>
</clustering>
</event>
<event>
 9    1  0.1315259E-005  0.2188488E+03  0.7546771E-02  0.1134918E+00
         21   -1    0    0  501  502  0.00000000000E+00  0.00000000000E+00  0.53706708232E+02  0.53706708232E+02  0.00000000000E+00 0.  1.
          1   -1    0    0  502    0 -0.00000000000E+00 -0.00000000000E+00 -0.12513434763E+04  0.12513434763E+04  0.00000000000E+00 0. -1.
         23    2    1    2    0    0 -0.13900954455E+03  0.10034475383E+03 -0.45789154360E+03  0.49747639732E+03  0.91789852902E+02 0.  0.
         23    2    1    2    0    0  0.17355269082E+03 -0.15941359227E+03 -0.54497319095E+03  0.60113129723E+03  0.93967163203E+02 0.  0.
        -11    1    4    4    0    0  0.12067895238E+02 -0.37699732371E+02 -0.36185663833E+02  0.53631205314E+02  0.00000000000E+00 0.  1.
         11    1    4    4    0    0  0.16148479558E+03 -0.12171385990E+03 -0.50878752712E+03  0.54750009192E+03  0.00000000000E+00 0. -1.
        -11    1    3    3    0    0 -0.89148825568E+02  0.55179203481E+02 -0.38168491559E+03  0.39582272848E+03  0.00000000000E+00 0.  1.
         11    1    3    3    0    0 -0.49860718982E+02  0.45165550345E+02 -0.76206628014E+02  0.10165366884E+03  0.00000000000E+00 0. -1.
          1    1    1    2  501    0 -0.34543146271E+02  0.59068838446E+02 -0.19477203352E+03  0.20644248999E+03  0.00000000000E+00 0. -1.
<scales pt_clust_5="13000.00000" pt_clust_6="13000.00000" pt_clust_7="13000.00000" pt_clust_8="13000.00000" pt_clust_9="68.42778"></scales>
<clustering>
<clus scale="   68.428">  1  9  2 -1</clus>
<clus scale="   91.790">  7  8 -1 -1</clus>
<clus scale="   93.967">  5  6 -1 -1</clus>
<clus scale="  217.923">  2  7  1 -1</clus>
<clus scale="   68.428">  1  5  2 -1</clus>
</clustering>
</event>
<event>
 9    1  0.1315259E-005  0.1032461E+03  0.7546771E-02  0.1274083E+00
         21   -1    0    0  501  502  0.00000000000E+00  0.00000000000E+00  0.11414039585E+03  0.11414039585E+03  0.00000000000E+00 0.  1.
         -1   -1    0    0    0  501 -0.00000000000E+00 -0.00000000000E+00 -0.23688317210E+03  0.23688317210E+03  0.00000000000E+00 0.  1.
         23    2    1    2    0    0 -0.37878338277E+02 -0.32257298316E+02 -0.14395594907E+03  0.17757952966E+03  0.91300998230E+02 0.  0.
         23    2    1    2    0    0  0.45172270544E+02  0.21934555529E+01 -0.35556723995E+02  0.10879222259E+03  0.92337001259E+02 0.  0.
        -11    1    3    3    0    0 -0.35866398510E+02 -0.62156799465E+02 -0.83474595489E+02  0.11008121708E+03  0.00000000000E+00 0.  1.
         11    1    3    3    0    0 -0.20119397665E+01  0.29899501150E+02 -0.60481353580E+02  0.67498312582E+02  0.00000000000E+00 0. -1.
        -11    1    4    4    0    0  0.68191017569E+01  0.28046862602E+02  0.21026056368E+02  0.35710246387E+02  0.00000000000E+00 0. -1.
         11    1    4    4    0    0  0.38353168787E+02 -0.25853407049E+02 -0.56582780364E+02  0.73081976203E+02  0.00000000000E+00 0.  1.
         -1    1    1    2    0  502 -0.72939322670E+01  0.30063842763E+02  0.56769896815E+02  0.64651815705E+02  0.00000000000E+00 0.  1.
<scales pt_clust_5="13000.00000" pt_clust_6="13000.00000" pt_clust_7="13000.00000" pt_clust_8="13000.00000" pt_clust_9="30.93600"></scales>
<clustering>
<clus scale="   30.936">  1  9  2 -1</clus>
<clus scale="   91.301">  5  6 -1 -1</clus>
<clus scale="   92.337">  7  8 -1 -1</clus>
<clus scale="  102.321">  2  5  1 -1</clus>
<clus scale="   30.936">  1  5  2 -1</clus>
</clustering>
</event>
<event>
 9    1  0.1315259E-005  0.1198640E+03  0.7546771E-02  0.1243620E+00
         -2   -1    0    0    0  501 -0.00000000000E+00  0.00000000000E+00  0.15802169099E+03  0.15802169099E+03  0.00000000000E+00 0.  1.
         21   -1    0    0  501  502  0.00000000000E+00 -0.00000000000E+00 -0.14066210544E+03  0.14066210544E+03  0.00000000000E+00 0. -1.
         23    2    1    2    0    0  0.36049307711E+02  0.76826184308E+02  0.74920530312E+02  0.14494613754E+03  0.90523376781E+02 0.  0.
         23    2    1    2    0    0 -0.10282551995E+02 -0.62385592678E+02 -0.35010801243E+02  0.11657631663E+03  0.91469056764E+02 0.  0.
        -11    1    4    4    0    0 -0.43490064865E+02 -0.64036808778E+02 -0.19169961943E+02  0.79747012868E+02  0.00000000000E+00 0. -1.
         11    1    4    4    0    0  0.33207512870E+02  0.16512161003E+01 -0.15840839299E+02  0.36829303759E+02  0.00000000000E+00 0.  1.
        -13    1    3    3    0    0  0.32275833802E+02 -0.12398635119E+02  0.24673138300E+02  0.42476103329E+02  0.00000000000E+00 0. -1.
         13    1    3    3    0    0  0.37734739085E+01  0.89224819428E+02  0.50247392012E+02  0.10247003421E+03  0.00000000000E+00 0.  1.
         -2    1    1    2    0  502 -0.25766755716E+02 -0.14440591630E+02 -0.22550143517E+02  0.37161342271E+02  0.00000000000E+00 0.  1.
<scales pt_clust_5="13000.00000" pt_clust_6="13000.00000" pt_clust_7="13000.00000" pt_clust_8="13000.00000" pt_clust_9="29.53737"></scales>
<clustering>
<clus scale="   29.537">  2  9  1 -1</clus>
<clus scale="   90.523">  7  8 -1 -1</clus>
<clus scale="   91.469">  5  6 -1 -1</clus>
<clus scale="  119.144">  1  7  2 -1</clus>
<clus scale="   29.537">  2  5  1 -1</clus>
</clustering>
</event>
<event>
 9    1  0.1315259E-005  0.1241359E+03  0.7546771E-02  0.1236687E+00
         21   -1    0    0  501  502  0.00000000000E+00  0.00000000000E+00  0.11441551436E+03  0.11441551436E+03  0.00000000000E+00 0. -1.
          2   -1    0    0  502    0 -0.00000000000E+00 -0.00000000000E+00 -0.32009570837E+03  0.32009570837E+03  0.00000000000E+00 0. -1.
         23    2    1    2    0    0 -0.89131022506E+01  0.67043644803E+02 -0.13276255687E+03  0.17452131971E+03  0.90870791929E+02 0.  0.
         23    2    1    2    0    0  0.80198706301E+02 -0.11023064702E+03 -0.63268543375E+02  0.17608603234E+03  0.91764667330E+02 0.  0.
        -11    1    4    4    0    0 -0.17705223086E+02 -0.39118279605E+02 -0.21933005459E+02  0.48215883816E+02  0.00000000000E+00 0.  1.
         11    1    4    4    0    0  0.97903929387E+02 -0.71112367413E+02 -0.41335537916E+02  0.12787014852E+03  0.00000000000E+00 0. -1.
        -13    1    3    3    0    0 -0.18434273347E+02 -0.19075566076E+02 -0.27983261307E+02  0.38558560247E+02  0.00000000000E+00 0.  1.
         13    1    3    3    0    0  0.95211710961E+01  0.86119210879E+02 -0.10477929557E+03  0.13596275946E+03  0.00000000000E+00 0. -1.
          2    1    1    2  501    0 -0.71285604050E+02  0.43187002215E+02 -0.96490937677E+01  0.83903870684E+02  0.00000000000E+00 0. -1.
<scales pt_clust_5="13000.00000" pt_clust_6="13000.00000" pt_clust_7="13000.00000" pt_clust_8="13000.00000" pt_clust_9="83.34719"></scales>
<clustering>
<clus scale="   83.347">  1  9  2 -1</clus>
<clus scale="   90.871">  7  8 -1 -1</clus>
<clus scale="   91.765">  5  6 -1 -1</clus>
<clus scale="  123.477">  2  7  1 -1</clus>
<clus scale="   83.347">  1  5  2 -1</clus>
</clustering>
</event>
<event>
 9    1  0.1315259E-005  0.1410346E+03  0.7546771E-02  0.1227851E+00
          2   -1    0    0  502    0 -0.00000000000E+00  0.00000000000E+00  0.56089482487E+03  0.56089482487E+03  0.00000000000E+00 0. -1.
         21   -1    0    0  501  502  0.00000000000E+00 -0.00000000000E+00 -0.13010902265E+03  0.13010902265E+03  0.00000000000E+00 0. -1.
         23    2    1    2    0    0 -0.26693593008E+02 -0.41395740498E+02  0.15897693762E+03  0.18833660768E+03  0.88152458046E+02 0.  0.
         23    2    1    2    0    0 -0.73448611129E+02  0.80463484717E+02  0.34452613023E+03  0.37288838791E+03  0.92078361042E+02 0.  0.
        -11    1    3    3    0    0  0.14706103667E+02 -0.40319812497E+02  0.28685724055E+02  0.51621967508E+02  0.00000000000E+00 0. -1.
         11    1    3    3    0    0 -0.41399696676E+02 -0.10759280009E+01  0.13029121356E+03  0.13671464017E+03  0.00000000000E+00 0.  1.
        -11    1    4    4    0    0  0.64263234766E+00  0.36476985550E+02  0.31436069905E+02  0.48158176276E+02  0.00000000000E+00 0.  1.
         11    1    4    4    0    0 -0.74091243476E+02  0.43986499167E+02  0.31309006033E+03  0.32473021163E+03  0.00000000000E+00 0. -1.
          2    1    1    2  501    0  0.10014220414E+03 -0.39067744219E+02 -0.72717265628E+02  0.12977885193E+03  0.00000000000E+00 0. -1.
<scales pt_clust_5="13000.00000" pt_clust_6="13000.00000" pt_clust_7="13000.00000" pt_clust_8="13000.00000" pt_clust_9="106.82848"></scales>
<clustering>
<clus scale="   88.152">  5  6 -1 -1</clus>
<clus scale="   92.078">  7  8 -1 -1</clus>
<clus scale="  100.980">  1  5  2 -1</clus>
<clus scale="  106.828">  2  9  1 -1</clus>
<clus scale="  106.828">  2  5  1 -1</clus>
</clustering>
</event>
<event>
 9    1  0.1315259E-005  0.9446698E+02  0.7546771E-02  0.1292419E+00
         -2   -1    0    0    0  501 -0.00000000000E+00  0.00000000000E+00  0.31059291174E+03  0.31059291174E+03  0.00000000000E+00 0.  1.
         21   -1    0    0  501  502  0.00000000000E+00 -0.00000000000E+00 -0.61294330976E+02  0.61294330976E+02  0.00000000000E+00 0.  1.
         23    2    1    2    0    0 -0.10162796127E+02 -0.25960789385E+02  0.18914262282E+03  0.21199647808E+03  0.91598744207E+02 0.  0.
         23    2    1    2    0    0  0.20940447360E+02  0.34820641425E+01  0.83453997938E+02  0.12576966380E+03  0.91666850354E+02 0.  0.
        -13    1    3    3    0    0  0.40173817046E+02 -0.18915309000E+02  0.77295568634E+02  0.89142186540E+02  0.00000000000E+00 0.  1.
         13    1    3    3    0    0 -0.50336613173E+02 -0.70454803842E+01  0.11184705419E+03  0.12285429154E+03  0.00000000000E+00 0. -1.
        -13    1    4    4    0    0 -0.65403166131E+01 -0.40954986524E+02  0.42509128414E+02  0.59389499586E+02  0.00000000000E+00 0.  1.
         13    1    4    4    0    0  0.27480763973E+02  0.44437050667E+02  0.40944869524E+02  0.66380164212E+02  0.00000000000E+00 0. -1.
         -2    1    1    2    0  502 -0.10777651233E+02  0.22478725242E+02 -0.23298039996E+02  0.34121100836E+02  0.00000000000E+00 0.  1.
<scales pt_clust_5="13000.00000" pt_clust_6="13000.00000" pt_clust_7="13000.00000" pt_clust_8="13000.00000" pt_clust_9="24.92892"></scales>
<clustering>
<clus scale="   24.929">  2  9  1 -1</clus>
<clus scale="   91.599">  5  6 -1 -1</clus>
<clus scale="   91.667">  7  8 -1 -1</clus>
<clus scale="   94.401">  1  5  2 -1</clus>
<clus scale="   24.929">  2  5  1 -1</clus>
</clustering>
</event>
<event>
 9    1  0.1315259E-005  0.1056133E+03  0.7546771E-02  0.1269995E+00
         21   -1    0    0  501  502  0.00000000000E+00  0.00000000000E+00  0.35041282583E+02  0.35041282583E+02  0.00000000000E+00 0.  1.
          2   -1    0    0  502    0 -0.00000000000E+00 -0.00000000000E+00 -0.53716133142E+03  0.53716133142E+03  0.00000000000E+00 0. -1.
         23    2    1    2    0    0  0.10891989490E+02  0.51405259341E+02 -0.37798357883E+03  0.39166065267E+03  0.88121194182E+02 0.  0.
         23    2    1    2    0    0  0.71644220043E+01 -0.61438972347E+02 -0.11074712777E+03  0.15592522154E+03  0.90673436768E+02 0.  0.
        -11    1    4    4    0    0 -0.10667954605E+02  0.20216249491E+02 -0.98056062870E+01  0.24872714239E+02  0.00000000000E+00 0. -1.
         11    1    4    4    0    0  0.17832376610E+02 -0.81655221838E+02 -0.10094152149E+03  0.13105250730E+03  0.00000000000E+00 0.  1.
        -11    1    3    3    0    0  0.34555064396E+02  0.18112925627E+01 -0.62609463614E+02  0.71535153527E+02  0.00000000000E+00 0.  1.
         11    1    3    3    0    0 -0.23663074906E+02  0.49593966779E+02 -0.31537411521E+03  0.32012549914E+03  0.00000000000E+00 0. -1.
          2    1    1    2  501    0 -0.18056411495E+02  0.10033713006E+02 -0.13389342238E+02  0.24616739799E+02  0.00000000000E+00 0. -1.
<scales pt_clust_5="13000.00000" pt_clust_6="13000.00000" pt_clust_7="13000.00000" pt_clust_8="13000.00000" pt_clust_9="20.65695"></scales>
<clustering>
<clus scale="   20.657">  1  9  2 -1</clus>
<clus scale="   88.121">  7  8 -1 -1</clus>
<clus scale="   90.673">  5  6 -1 -1</clus>
<clus scale="  103.430">  2  7  1 -1</clus>
<clus scale="   20.657">  1  5  2 -1</clus>
</clustering>
</event>
<event>
 9    1  0.1315259E-005  0.1045624E+03  0.7546771E-02  0.1271145E+00
         21   -1    0    0  501  502  0.00000000000E+00  0.00000000000E+00  0.19904876299E+03  0.19904876299E+03  0.00000000000E+00 0. -1.
          1   -1    0    0  502    0 -0.00000000000E+00 -0.00000000000E+00 -0.18444555358E+03  0.18444555358E+03  0.00000000000E+00 0. -1.
         23    2    1    2    0    0  0.84765020522E+01  0.46178571761E+02 -0.69604556541E+02  0.12282215475E+03  0.89644720033E+02 0.  0.
         23    2    1    2    0    0 -0.53297214878E+02 -0.45643808726E+02 -0.45927951297E+02  0.12303318778E+03  0.90021320792E+02 0.  0.
        -13    1    4    4    0    0 -0.76654360298E+02 -0.38741874896E+02 -0.48341689752E+02  0.98558321776E+02  0.00000000000E+00 0.  1.
         13    1    4    4    0    0  0.23357145420E+02 -0.69019338297E+01  0.24137384548E+01  0.24474866008E+02  0.00000000000E+00 0. -1.
        -13    1    3    3    0    0 -0.22188027633E+02  0.61155356957E+02 -0.33623608379E+02  0.73231368246E+02  0.00000000000E+00 0. -1.
         13    1    3    3    0    0  0.30664529685E+02 -0.14976785196E+02 -0.35980948162E+02  0.49590786506E+02  0.00000000000E+00 0.  1.
          1    1    1    2  501    0  0.44820712826E+02 -0.53476303471E+00  0.13013571725E+03  0.13763897404E+03  0.00000000000E+00 0. -1.
<scales pt_clust_5="13000.00000" pt_clust_6="13000.00000" pt_clust_7="13000.00000" pt_clust_8="13000.00000" pt_clust_9="44.82390"></scales>
<clustering>
<clus scale="   44.824">  1  9  2 -1</clus>
<clus scale="   89.645">  7  8 -1 -1</clus>
<clus scale="   90.021">  5  6 -1 -1</clus>
<clus scale="  104.238">  2  7  1 -1</clus>
<clus scale="   44.824">  1  5  2 -1</clus>
</clustering>
</event>
<event>
 9    1  0.1315259E-005  0.1516371E+03  0.7546771E-02  0.1198693E+00
         21   -1    0    0  501  502  0.00000000000E+00  0.00000000000E+00  0.63936847142E+02  0.63936847142E+02  0.00000000000E+00 0. -1.
          1   -1    0    0  502    0 -0.00000000000E+00 -0.00000000000E+00 -0.10104393751E+04  0.10104393751E+04  0.00000000000E+00 0. -1.
         23    2    1    2    0    0  0.11255059712E+03 -0.44764909076E+02 -0.57871153048E+03  0.59871297118E+03  0.94226601099E+02 0.  0.
         23    2    1    2    0    0 -0.93409394442E+02  0.72753447859E+02 -0.40091127039E+03  0.42826392172E+03  0.93068581045E+02 0.  0.
        -11    1    3    3    0    0  0.22588549530E+02 -0.38638861115E+02 -0.77844552373E+02  0.89794089407E+02  0.00000000000E+00 0.  1.
         11    1    3    3    0    0  0.89962047593E+02 -0.61260479612E+01 -0.50086697810E+03  0.50891888177E+03  0.00000000000E+00 0. -1.
        -13    1    4    4    0    0 -0.10184489486E+03  0.30062021729E+02 -0.26220349358E+03  0.28289004897E+03  0.00000000000E+00 0.  1.
         13    1    4    4    0    0  0.84355004158E+01  0.42691426130E+02 -0.13870777681E+03  0.14537387276E+03  0.00000000000E+00 0. -1.
          1    1    1    2  501    0 -0.19141202681E+02 -0.27988538782E+02  0.33120272916E+02  0.47399329334E+02  0.00000000000E+00 0. -1.
<scales pt_clust_5="13000.00000" pt_clust_6="13000.00000" pt_clust_7="13000.00000" pt_clust_8="13000.00000" pt_clust_9="33.90787"></scales>
<clustering>
<clus scale="   33.908">  1  9  2 -1</clus>
<clus scale="   93.069">  7  8 -1 -1</clus>
<clus scale="   94.227">  5  6 -1 -1</clus>
<clus scale="  150.920">  1  7  2 -1</clus>
<clus scale="   33.908">  1  5  2 -1</clus>
</clustering>
</event>
<event>
 9    1  0.1315259E-005  0.1156114E+03  0.7546771E-02  0.1259378E+00
         -1   -1    0    0    0  501 -0.00000000000E+00  0.00000000000E+00  0.14932864734E+03  0.14932864734E+03  0.00000000000E+00 0.  1.
         21   -1    0    0  501  502  0.00000000000E+00 -0.00000000000E+00 -0.20696635547E+03  0.20696635547E+03  0.00000000000E+00 0.  1.
         23    2    1    2    0    0 -0.12436604277E+02  0.29264284792E+02  0.33304282669E+02  0.10385598697E+03  0.93090403888E+02 0.  0.
         23    2    1    2    0    0 -0.13415681238E+02 -0.24801102862E+02  0.37178413592E+02  0.12166019996E+03  0.11235610624E+03 0.  0.
        -11    1    3    3    0    0 -0.57394552049E+01 -0.32737404091E+02  0.23552669636E+02  0.40735822314E+02  0.00000000000E+00 0. -1.
         11    1    3    3    0    0 -0.66971490717E+01  0.62001688882E+02  0.97516130331E+01  0.63120164660E+02  0.00000000000E+00 0.  1.
        -13    1    4    4    0    0 -0.44818594271E+02 -0.55091240162E+02  0.31390232468E+02  0.77647265434E+02  0.00000000000E+00 0.  1.
         13    1    4    4    0    0  0.31402913033E+02  0.30290137300E+02  0.57881811235E+01  0.44012934523E+02  0.00000000000E+00 0. -1.
         -1    1    1    2    0  502  0.25852285514E+02 -0.44631819298E+01 -0.12812040440E+03  0.13077881588E+03  0.00000000000E+00 0.  1.
<scales pt_clust_5="13000.00000" pt_clust_6="13000.00000" pt_clust_7="13000.00000" pt_clust_8="13000.00000" pt_clust_9="26.23472"></scales>
<clustering>
<clus scale="   26.235">  2  9  1 -1</clus>
<clus scale="   93.090">  5  6 -1 -1</clus>
<clus scale="   96.994">  1  5  2 -1</clus>
<clus scale="  112.356">  7  8 -1 -1</clus>
<clus scale="   26.235">  2  5  1 -1</clus>
</clustering>
</event>
<event>
 9    1  0.1315259E-005  0.9705072E+02  0.7546771E-02  0.1287565E+00
         -1   -1    0    0    0  501 -0.00000000000E+00  0.00000000000E+00  0.16346987589E+03  0.16346987589E+03  0.00000000000E+00 0.  1.
         21   -1    0    0  501  502  0.00000000000E+00 -0.00000000000E+00 -0.24069063886E+03  0.24069063886E+03  0.00000000000E+00 0. -1.
         23    2    1    2    0    0 -0.28953930211E+02 -0.27449556982E+02  0.12621021378E+03  0.15916956036E+03  0.88397526156E+02 0.  0.
         23    2    1    2    0    0  0.50715348925E+02  0.48836446575E+01 -0.12372553357E+03  0.15934203486E+03  0.86521556940E+02 0.  0.
        -13    1    3    3    0    0 -0.27464783627E+02  0.10693080653E+01 -0.22460205498E+01  0.27577207396E+02  0.00000000000E+00 0. -1.
         13    1    3    3    0    0 -0.14891465840E+01 -0.28518865047E+02  0.12845623433E+03  0.13159235297E+03  0.00000000000E+00 0.  1.
        -13    1    4    4    0    0  0.68574119820E+02  0.16621126042E+02 -0.61676285003E+02  0.93715718381E+02  0.00000000000E+00 0. -1.
         13    1    4    4    0    0 -0.17858770895E+02 -0.11737481384E+02 -0.62049248568E+02  0.65626316482E+02  0.00000000000E+00 0.  1.
         -1    1    1    2    0  502 -0.21761418714E+02  0.22565912324E+02 -0.79705443175E+02  0.85648919522E+02  0.00000000000E+00 0.  1.
<scales pt_clust_5="13000.00000" pt_clust_6="13000.00000" pt_clust_7="13000.00000" pt_clust_8="13000.00000" pt_clust_9="31.34932"></scales>
<clustering>
<clus scale="   31.349">  2  9  1 -1</clus>
<clus scale="   86.522">  7  8 -1 -1</clus>
<clus scale="   88.398">  5  6 -1 -1</clus>
<clus scale="   95.345">  2  7  1 -1</clus>
<clus scale="   31.349">  2  5  1 -1</clus>
</clustering>
</event>
<event>
 9    1  0.1315259E-005  0.1206808E+03  0.7546771E-02  0.1242999E+00
          1   -1    0    0  502    0 -0.00000000000E+00  0.00000000000E+00  0.71613589281E+03  0.71613589281E+03  0.00000000000E+00 0. -1.
         21   -1    0    0  501  502  0.00000000000E+00 -0.00000000000E+00 -0.40506298773E+02  0.40506298773E+02  0.00000000000E+00 0.  1.
         23    2    1    2    0    0  0.39159850523E+02  0.76869965446E+02  0.40989875468E+03  0.42907986471E+03  0.93005675775E+02 0.  0.
         23    2    1    2    0    0 -0.16848604619E+02 -0.55679415939E+02  0.27362596771E+03  0.29579498305E+03  0.96121948357E+02 0.  0.
        -13    1    4    4    0    0  0.25035041712E+02 -0.53639390458E+02  0.21941006890E+03  0.22725473781E+03  0.00000000000E+00 0.  1.
         13    1    4    4    0    0 -0.41883646331E+02 -0.20400254811E+01  0.54215898811E+02  0.68540245242E+02  0.00000000000E+00 0. -1.
        -13    1    3    3    0    0 -0.27988050692E+02  0.36669702332E+02  0.19475644494E+03  0.20014512459E+03  0.00000000000E+00 0. -1.
         13    1    3    3    0    0  0.67147901216E+02  0.40200263114E+02  0.21514230974E+03  0.22893474011E+03  0.00000000000E+00 0.  1.
          1    1    1    2  501    0 -0.22311245904E+02 -0.21190549508E+02 -0.78951283521E+01  0.31767343829E+02  0.00000000000E+00 0. -1.
<scales pt_clust_5="13000.00000" pt_clust_6="13000.00000" pt_clust_7="13000.00000" pt_clust_8="13000.00000" pt_clust_9="30.77062"></scales>
<clustering>
<clus scale="   30.771">  2  9  1 -1</clus>
<clus scale="   93.006">  7  8 -1 -1</clus>
<clus scale="   96.122">  5  6 -1 -1</clus>
<clus scale="  118.214">  1  7  2 -1</clus>
<clus scale="   30.771">  2  5  1 -1</clus>
</clustering>
</event>
<event>
 9    1  0.1315259E-005  0.1145302E+03  0.7546771E-02  0.1252598E+00
         21   -1    0    0  501  502  0.00000000000E+00  0.00000000000E+00  0.61215251128E+02  0.61215251128E+02  0.00000000000E+00 0. -1.
          1   -1    0    0  502    0 -0.00000000000E+00 -0.00000000000E+00 -0.36141359032E+03  0.36141359032E+03  0.00000000000E+00 0. -1.
         23    2    1    2    0    0 -0.47309200745E+02 -0.35617299610E+02 -0.18309696765E+03  0.21293980034E+03  0.91170754635E+02 0.  0.
         23    2    1    2    0    0  0.71923909728E+02  0.44322837182E+02 -0.13036402300E+03  0.18040477560E+03  0.91725361165E+02 0.  0.
        -11    1    4    4    0    0  0.34743558900E+02  0.69008638889E+02 -0.63464913367E+02  0.99985510725E+02  0.00000000000E+00 0.  1.
         11    1    4    4    0    0  0.37180350828E+02 -0.24685801706E+02 -0.66899109637E+02  0.80419264880E+02  0.00000000000E+00 0. -1.
        -13    1    3    3    0    0 -0.21705135142E+02  0.26830696065E+02 -0.30396875469E+02  0.45988794082E+02  0.00000000000E+00 0.  1.
         13    1    3    3    0    0 -0.25604065603E+02 -0.62447995675E+02 -0.15270009218E+03  0.16695100626E+03  0.00000000000E+00 0. -1.
          1    1    1    2  501    0 -0.24614708983E+02 -0.87055375722E+01  0.13262651455E+02  0.29284265508E+02  0.00000000000E+00 0. -1.
<scales pt_clust_5="13000.00000" pt_clust_6="13000.00000" pt_clust_7="13000.00000" pt_clust_8="13000.00000" pt_clust_9="26.10882"></scales>
<clustering>
<clus scale="   26.109">  1  9  2 -1</clus>
<clus scale="   91.171">  7  8 -1 -1</clus>
<clus scale="   91.725">  5  6 -1 -1</clus>
<clus scale="  114.087">  2  7  1 -1</clus>
<clus scale="   26.109">  1  5  2 -1</clus>
</clustering>
</event>
<event>
 9    1  0.1315259E-005  0.1339325E+03  0.7546771E-02  0.1222022E+00
          1   -1    0    0  502    0 -0.00000000000E+00  0.00000000000E+00  0.14869431543E+03  0.14869431543E+03  0.00000000000E+00 0. -1.
         21   -1    0    0  501  502  0.00000000000E+00 -0.00000000000E+00 -0.19861907810E+03  0.19861907810E+03  0.00000000000E+00 0. -1.
         23    2    1    2    0    0 -0.65786618561E+02  0.84999329948E+02  0.56765250049E+02  0.15189102410E+03  0.91081415859E+02 0.  0.
         23    2    1    2    0    0  0.68831202743E+02 -0.42929338839E+02 -0.72552582047E+02  0.14115895802E+03  0.89896115953E+02 0.  0.
        -11    1    4    4    0    0  0.48874183391E+02  0.21512441934E+02 -0.27788537493E+02  0.60196958196E+02  0.00000000000E+00 0. -1.
         11    1    4    4    0    0  0.19957019353E+02 -0.64441780773E+02 -0.44764044554E+02  0.80961999824E+02  0.00000000000E+00 0.  1.
        -13    1    3    3    0    0 -0.18783023250E+02 -0.14347160081E+02 -0.72243195578E+01  0.24715051242E+02  0.00000000000E+00 0.  1.
         13    1    3    3    0    0 -0.47003595311E+02  0.99346490030E+02  0.63989569607E+02  0.12717597286E+03  0.00000000000E+00 0. -1.
          1    1    1    2  501    0 -0.30445841822E+01 -0.42069991109E+02 -0.34137430670E+02  0.54263411407E+02  0.00000000000E+00 0. -1.
<scales pt_clust_5="13000.00000" pt_clust_6="13000.00000" pt_clust_7="13000.00000" pt_clust_8="13000.00000" pt_clust_9="42.18001"></scales>
<clustering>
<clus scale="   42.180">  2  9  1 -1</clus>
<clus scale="   89.896">  5  6 -1 -1</clus>
<clus scale="   91.081">  7  8 -1 -1</clus>
<clus scale="  133.129">  2  5  1 -1</clus>
<clus scale="   42.180">  2  5  1 -1</clus>
</clustering>
</event>
<event>
 9    1  0.1315259E-005  0.1558443E+03  0.7546771E-02  0.1206480E+00
         21   -1    0    0  501  502  0.00000000000E+00  0.00000000000E+00  0.59260082363E+02  0.59260082363E+02  0.00000000000E+00 0.  1.
         -3   -1    0    0    0  501 -0.00000000000E+00 -0.00000000000E+00 -0.83442035186E+03  0.83442035186E+03  0.00000000000E+00 0.  1.
         23    2    1    2    0    0  0.69709345908E+02  0.16514747273E+02 -0.19069219420E+03  0.22397592092E+03  0.93110528068E+02 0.  0.
         23    2    1    2    0    0 -0.10277724901E+03  0.96595598630E+02 -0.48691395918E+03  0.51672006267E+03  0.10010268194E+03 0.  0.
        -11    1    3    3    0    0  0.63578645779E+02 -0.22450948626E+02 -0.70836137368E+02  0.97795949050E+02  0.00000000000E+00 0. -1.
         11    1    3    3    0    0  0.61307001295E+01  0.38965695899E+02 -0.11985605684E+03  0.12617997187E+03  0.00000000000E+00 0.  1.
        -11    1    4    4    0    0 -0.75048857025E+02  0.95388573691E+02 -0.46711857177E+03  0.48262933088E+03  0.00000000000E+00 0.  1.
         11    1    4    4    0    0 -0.27728391986E+02  0.12070249394E+01 -0.19795387409E+02  0.34090731790E+02  0.00000000000E+00 0. -1.
         -3    1    1    2    0  502  0.33067903102E+02 -0.11311034590E+03 -0.97554116116E+02  0.15298445064E+03  0.00000000000E+00 0.  1.
<scales pt_clust_5="13000.00000" pt_clust_6="13000.00000" pt_clust_7="13000.00000" pt_clust_8="13000.00000" pt_clust_9="119.44410"></scales>
<clustering>
<clus scale="   93.111">  5  6 -1 -1</clus>
<clus scale="  100.103">  7  8 -1 -1</clus>
<clus scale="  117.481">  2  5  1 -1</clus>
<clus scale="  119.444">  1  9  2 -1</clus>
<clus scale="  119.444">  1  5  2 -1</clus>
</clustering>
</event>
<event>
 9    1  0.1315259E-005  0.1845649E+03  0.7546771E-02  0.1173765E+00
          1   -1    0    0  502    0 -0.00000000000E+00  0.00000000000E+00  0.70126803191E+03  0.70126803191E+03  0.00000000000E+00 0. -1.
         21   -1    0    0  501  502  0.00000000000E+00 -0.00000000000E+00 -0.26177257269E+03  0.26177257269E+03  0.00000000000E+00 0. -1.
         23    2    1    2    0    0 -0.11130236381E+03 -0.16501266790E+02  0.15017018862E+03  0.20924370687E+03  0.92581506363E+02 0.  0.
         23    2    1    2    0    0  0.11465254321E+03 -0.14523082690E+03  0.46891271122E+03  0.51209430639E+03  0.90134616779E+02 0.  0.
        -13    1    3    3    0    0 -0.35617855318E+02  0.34241136760E+02  0.80855030230E+02  0.94755596022E+02  0.00000000000E+00 0.  1.
         13    1    3    3    0    0 -0.75684508489E+02 -0.50742403550E+02  0.69315158395E+02  0.11448811085E+03  0.00000000000E+00 0. -1.
        -13    1    4    4    0    0  0.85400031305E+02 -0.38760967403E+02  0.24760758221E+03  0.26477366317E+03  0.00000000000E+00 0.  1.
         13    1    4    4    0    0  0.29252511907E+02 -0.10646985950E+03  0.22130512901E+03  0.24732064322E+03  0.00000000000E+00 0. -1.
          1    1    1    2  501    0 -0.33501794052E+01  0.16173209369E+03 -0.17958744063E+03  0.24170259135E+03  0.00000000000E+00 0. -1.
<scales pt_clust_5="13000.00000" pt_clust_6="13000.00000" pt_clust_7="13000.00000" pt_clust_8="13000.00000" pt_clust_9="161.05886"></scales>
<clustering>
<clus scale="   90.135">  7  8 -1 -1</clus>
<clus scale="   92.582">  5  6 -1 -1</clus>
<clus scale="  145.712">  1  5  2 -1</clus>
<clus scale="  161.059">  2  9  1 -1</clus>
<clus scale="  161.059">  2  5  1 -1</clus>
</clustering>
</event>
<event>
 9    1  0.1315259E-005  0.9818467E+02  0.7546771E-02  0.1284325E+00
         -1   -1    0    0    0  501 -0.00000000000E+00  0.00000000000E+00  0.15260716055E+03  0.15260716055E+03  0.00000000000E+00 0.  1.
         21   -1    0    0  501  502  0.00000000000E+00 -0.00000000000E+00 -0.24394920206E+03  0.24394920206E+03  0.00000000000E+00 0.  1.
         23    2    1    2    0    0  0.31208728104E+02  0.37811133338E+02  0.65966032446E+02  0.12303640227E+03  0.91557481024E+02 0.  0.
         23    2    1    2    0    0 -0.14105891642E+02 -0.10715174498E+02  0.18549683480E+02  0.94766921630E+02  0.91229860981E+02 0.  0.
        -13    1    3    3    0    0 -0.43415247892E+01  0.61134224532E+02  0.37035628283E+02  0.71609217346E+02  0.00000000000E+00 0.  1.
         13    1    3    3    0    0  0.35550252894E+02 -0.23323091194E+02  0.28930404163E+02  0.51427184919E+02  0.00000000000E+00 0. -1.
        -13    1    4    4    0    0  0.29065866084E+02  0.23633701629E+02  0.11265364306E+02  0.39118855516E+02  0.00000000000E+00 0.  1.
         13    1    4    4    0    0 -0.43171757727E+02 -0.34348876127E+02  0.72843191747E+01  0.55648066114E+02  0.00000000000E+00 0. -1.
         -1    1    1    2    0  502 -0.17102836462E+02 -0.27095958840E+02 -0.17585775744E+03  0.17875303872E+03  0.00000000000E+00 0.  1.
<scales pt_clust_5="13000.00000" pt_clust_6="13000.00000" pt_clust_7="13000.00000" pt_clust_8="13000.00000" pt_clust_9="32.04213"></scales>
<clustering>
<clus scale="   32.042">  2  9  1 -1</clus>
<clus scale="   91.230">  7  8 -1 -1</clus>
<clus scale="   91.557">  5  6 -1 -1</clus>
<clus scale="   97.879">  2  7  1 -1</clus>
<clus scale="   32.042">  2  5  1 -1</clus>
</clustering>
</event>
<event>
 9    1  0.1315259E-005  0.1504570E+03  0.7546771E-02  0.1221372E+00
          4   -1    0    0  502    0 -0.00000000000E+00  0.00000000000E+00  0.92388199338E+02  0.92388199338E+02  0.00000000000E+00 0. -1.
         21   -1    0    0  501  502  0.00000000000E+00 -0.00000000000E+00 -0.48914955833E+03  0.48914955833E+03  0.00000000000E+00 0. -1.
         23    2    1    2    0    0 -0.32745393014E+01  0.26361717481E+02  0.11661995054E+02  0.95904657950E+02  0.91411369816E+02 0.  0.
         23    2    1    2    0    0  0.10690117091E+03 -0.45925533991E+02 -0.22038404055E+03  0.27004088021E+03  0.10399969537E+03 0.  0.
        -11    1    4    4    0    0  0.28733982958E+02 -0.21013565415E+01  0.33714373602E+01  0.29007310558E+02  0.00000000000E+00 0.  1.
         11    1    4    4    0    0  0.78167187953E+02 -0.43824177450E+02 -0.22375547791E+03  0.24103356965E+03  0.00000000000E+00 0. -1.
        -11    1    3    3    0    0 -0.22886292766E+02 -0.27972617872E+02  0.12172971834E+02  0.38137002904E+02  0.00000000000E+00 0.  1.
         11    1    3    3    0    0  0.19611753465E+02  0.54334335353E+02 -0.51097678033E+00  0.57767655046E+02  0.00000000000E+00 0. -1.
          4    1    1    2  501    0 -0.10362663161E+03  0.19563816510E+02 -0.18803931349E+03  0.21559221951E+03  0.00000000000E+00 0. -1.
<scales pt_clust_5="13000.00000" pt_clust_6="13000.00000" pt_clust_7="13000.00000" pt_clust_8="13000.00000" pt_clust_9="108.72608"></scales>
<clustering>
<clus scale="   91.411">  7  8 -1 -1</clus>
<clus scale="   95.193">  1  7  2 -1</clus>
<clus scale="  104.000">  5  6 -1 -1</clus>
<clus scale="  108.726">  2  9  1 -1</clus>
<clus scale="  108.726">  2  5  1 -1</clus>
</clustering>
</event>
<event>
 9    1  0.1315259E-005  0.1097642E+03  0.7546771E-02  0.1262848E+00
          4   -1    0    0  502    0 -0.00000000000E+00  0.00000000000E+00  0.47649889258E+02  0.47649889258E+02  0.00000000000E+00 0. -1.
         21   -1    0    0  501  502  0.00000000000E+00 -0.00000000000E+00 -0.36271556057E+03  0.36271556057E+03  0.00000000000E+00 0.  1.
         23    2    1    2    0    0 -0.33308783230E+02  0.31378304237E+02 -0.95093737439E+02  0.14111958312E+03  0.93690153279E+02 0.  0.
         23    2    1    2    0    0  0.36919830020E+02 -0.63280898581E+02 -0.13044019086E+03  0.17413147142E+03  0.89104320735E+02 0.  0.
        -11    1    4    4    0    0  0.17626082120E+02 -0.84602736169E+02 -0.93538319332E+02  0.12734880809E+03  0.00000000000E+00 0.  1.
         11    1    4    4    0    0  0.19293747900E+02  0.21321837588E+02 -0.36901871528E+02  0.46782663332E+02  0.00000000000E+00 0. -1.
        -13    1    3    3    0    0 -0.53264443994E+02  0.46475895532E+02 -0.91825580029E+02  0.11588376507E+03  0.00000000000E+00 0. -1.
         13    1    3    3    0    0  0.19955660764E+02 -0.15097591296E+02 -0.32681574101E+01  0.25235818043E+02  0.00000000000E+00 0.  1.
          4    1    1    2  501    0 -0.36110467906E+01  0.31902594344E+02 -0.89531743011E+02  0.95114395290E+02  0.00000000000E+00 0. -1.
<scales pt_clust_5="13000.00000" pt_clust_6="13000.00000" pt_clust_7="13000.00000" pt_clust_8="13000.00000" pt_clust_9="32.10631"></scales>
<clustering>
<clus scale="   32.106">  2  9  1 -1</clus>
<clus scale="   89.104">  5  6 -1 -1</clus>
<clus scale="   93.690">  7  8 -1 -1</clus>
<clus scale="  105.877">  2  5  1 -1</clus>
<clus scale="   32.106">  2  5  1 -1</clus>
</clustering>
</event>
<event>
 9    1  0.1502038E-005  0.9908497E+02  0.7546771E-02  0.1283225E+00
         21   -1    0    0  501  502  0.00000000000E+00  0.00000000000E+00  0.31416728930E+03  0.31416728930E+03  0.00000000000E+00 0. -1.
          1   -1    0    0  502    0 -0.00000000000E+00 -0.00000000000E+00 -0.25135269751E+03  0.25135269751E+03  0.00000000000E+00 0. -1.
         23    2    1    2    0    0 -0.29377221194E+01 -0.41884027100E+02 -0.17454922932E+03  0.20151695964E+03  0.91535510213E+02 0.  0.
         23    2    1    2    0    0 -0.22151187531E+01  0.88339971757E+01 -0.26834391641E+02  0.97695776280E+02  0.93495635572E+02 0.  0.
        -11    1    3    3    0    0  0.24793161816E+02  0.18277564904E+02 -0.32484621794E+02  0.44766292059E+02  0.00000000000E+00 0.  1.
         11    1    3    3    0    0 -0.27730883935E+02 -0.60161592003E+02 -0.14206460753E+03  0.15675066759E+03  0.00000000000E+00 0. -1.
        -13    1    4    4    0    0  0.71641584865E+01  0.47460695956E+02  0.28543155604E+01  0.48083156560E+02  0.00000000000E+00 0.  1.
         13    1    4    4    0    0 -0.93792772396E+01 -0.38626698780E+02 -0.29688707201E+02  0.49612619720E+02  0.00000000000E+00 0. -1.
          1    1    1    2  501    0  0.51528408724E+01  0.33050029924E+02  0.26419821276E+03  0.26630725088E+03  0.00000000000E+00 0. -1.
<scales pt_clust_5="13000.00000" pt_clust_6="13000.00000" pt_clust_7="13000.00000" pt_clust_8="13000.00000" pt_clust_9="33.44931"></scales>
<clustering>
<clus scale="   33.449">  1  9  2 -1</clus>
<clus scale="   91.536">  5  6 -1 -1</clus>
<clus scale="   93.496">  7  8 -1 -1</clus>
<clus scale="   97.238">  2  5  1 -1</clus>
<clus scale="   33.449">  1  5  2 -1</clus>
</clustering>
</event>
<event>
 9    1  0.1315259E-005  0.1110508E+03  0.7546771E-02  0.1261330E+00
         21   -1    0    0  501  502  0.00000000000E+00  0.00000000000E+00  0.17534887493E+02  0.17534887493E+02  0.00000000000E+00 0.  1.
          2   -1    0    0  502    0 -0.00000000000E+00 -0.00000000000E+00 -0.10348963661E+04  0.10348963661E+04  0.00000000000E+00 0. -1.
         23    2    1    2    0    0  0.49277291901E+02  0.13298064931E+02 -0.41307342701E+03  0.42564548185E+03  0.89102918548E+02 0.  0.
         23    2    1    2    0    0 -0.63581371816E+02  0.31094164675E+02 -0.45847015685E+03  0.47369058834E+03  0.95804231853E+02 0.  0.
        -11    1    3    3    0    0  0.48992568376E+02 -0.28957729447E+02 -0.18033146629E+03  0.18909854464E+03  0.00000000000E+00 0.  1.
         11    1    3    3    0    0  0.28472352477E+00  0.42255794377E+02 -0.23274196071E+03  0.23654693721E+03  0.00000000000E+00 0. -1.
        -13    1    4    4    0    0 -0.88242588238E+02  0.14595099489E+02 -0.34410189924E+03  0.35553605776E+03  0.00000000000E+00 0. -1.
         13    1    4    4    0    0  0.24661216422E+02  0.16499065186E+02 -0.11436825761E+03  0.11815453058E+03  0.00000000000E+00 0.  1.
          2    1    1    2  501    0  0.14304079915E+02 -0.44392229606E+02 -0.14581789477E+03  0.15309518342E+03  0.00000000000E+00 0. -1.
<scales pt_clust_5="13000.00000" pt_clust_6="13000.00000" pt_clust_7="13000.00000" pt_clust_8="13000.00000" pt_clust_9="46.63986"></scales>
<clustering>
<clus scale="   46.640">  1  9  2 -1</clus>
<clus scale="   89.103">  5  6 -1 -1</clus>
<clus scale="   95.804">  7  8 -1 -1</clus>
<clus scale="  105.324">  2  5  1 -1</clus>
<clus scale="   46.640">  1  5  2 -1</clus>
</clustering>
</event>
<event>
 9    1  0.1315259E-005  0.1966457E+03  0.7546771E-02  0.1152700E+00
         21   -1    0    0  501  502  0.00000000000E+00  0.00000000000E+00  0.23346373249E+03  0.23346373249E+03  0.00000000000E+00 0. -1.
         -3   -1    0    0    0  501 -0.00000000000E+00 -0.00000000000E+00 -0.25633726799E+03  0.25633726799E+03  0.00000000000E+00 0.  1.
         23    2    1    2    0    0 -0.19457148815E+02 -0.17712222743E+03 -0.12667674215E+03  0.23693172500E+03  0.91316927339E+02 0.  0.
         23    2    1    2    0    0 -0.12424255050E+01  0.16422413823E+03  0.51725821109E+02  0.19536373517E+03  0.92305564568E+02 0.  0.
        -11    1    3    3    0    0 -0.35585019755E+02 -0.10696712415E+03 -0.30471796808E+02  0.11677666582E+03  0.00000000000E+00 0. -1.
         11    1    3    3    0    0  0.16127870940E+02 -0.70155103281E+02 -0.96204945343E+02  0.12015505918E+03  0.00000000000E+00 0.  1.
        -11    1    4    4    0    0  0.23019687053E+02  0.15463929093E+03  0.25566053014E+02  0.15841981997E+03  0.00000000000E+00 0. -1.
         11    1    4    4    0    0 -0.24262112558E+02  0.95848472994E+01  0.26159768095E+02  0.36943915200E+02  0.00000000000E+00 0.  1.
         -3    1    1    2    0  502  0.20699574320E+02  0.12898089197E+02  0.52077385548E+02  0.57505540320E+02  0.00000000000E+00 0.  1.
<scales pt_clust_5="13000.00000" pt_clust_6="13000.00000" pt_clust_7="13000.00000" pt_clust_8="13000.00000" pt_clust_9="24.38920"></scales>
<clustering>
<clus scale="   24.389">  1  9  2 -1</clus>
<clus scale="   91.317">  5  6 -1 -1</clus>
<clus scale="   92.306">  7  8 -1 -1</clus>
<clus scale="  196.184">  2  5  1 -1</clus>
<clus scale="   24.389">  1  5  2 -1</clus>
</clustering>
</event>
<event>
 9    1  0.1315259E-005  0.9175930E+02  0.7546771E-02  0.1299372E+00
          1   -1    0    0  502    0 -0.00000000000E+00  0.00000000000E+00  0.39014039895E+03  0.39014039895E+03  0.00000000000E+00 0. -1.
         21   -1    0    0  501  502  0.00000000000E+00 -0.00000000000E+00 -0.66602262267E+02  0.66602262267E+02  0.00000000000E+00 0. -1.
         23    2    1    2    0    0 -0.47494872239E+01 -0.86300562916E+01  0.30339916084E+03  0.31690853406E+03  0.91010618399E+02 0.  0.
         23    2    1    2    0    0  0.30098144916E+02 -0.26877449842E+00  0.43526867893E+02  0.10421479068E+03  0.89778415000E+02 0.  0.
        -11    1    4    4    0    0 -0.19659354602E+02 -0.25686077750E+02  0.35062634896E+02  0.47703806760E+02  0.00000000000E+00 0.  1.
         11    1    4    4    0    0  0.49757499518E+02  0.25417303252E+02  0.84642329971E+01  0.56510983916E+02  0.00000000000E+00 0. -1.
        -11    1    3    3    0    0 -0.38593282602E+02 -0.23513545345E+02  0.94345209230E+02  0.10461045254E+03  0.00000000000E+00 0.  1.
         11    1    3    3    0    0  0.33843795378E+02  0.14883489054E+02  0.20905395161E+03  0.21229808152E+03  0.00000000000E+00 0. -1.
          1    1    1    2  501    0 -0.25348657692E+02  0.88988307900E+01 -0.23387892055E+02  0.35619336476E+02  0.00000000000E+00 0. -1.
<scales pt_clust_5="13000.00000" pt_clust_6="13000.00000" pt_clust_7="13000.00000" pt_clust_8="13000.00000" pt_clust_9="26.86529"></scales>
<clustering>
<clus scale="   26.865">  2  9  1 -1</clus>
<clus scale="   89.778">  5  6 -1 -1</clus>
<clus scale="   90.537">  2  5  1 -1</clus>
<clus scale="   91.011">  7  8 -1 -1</clus>
<clus scale="   26.865">  2  5  1 -1</clus>
</clustering>
</event>
<event>
 9    1  0.1315259E-005  0.1421034E+03  0.7546771E-02  0.1213095E+00
          1   -1    0    0  502    0 -0.00000000000E+00  0.00000000000E+00  0.62046920154E+03  0.62046920154E+03  0.00000000000E+00 0. -1.
         21   -1    0    0  501  502  0.00000000000E+00 -0.00000000000E+00 -0.12064840075E+03  0.12064840075E+03  0.00000000000E+00 0. -1.
         23    2    1    2    0    0 -0.67346861846E+02 -0.82604891485E+02  0.43286376705E+03  0.45283067103E+03  0.79532433008E+02 0.  0.
         23    2    1    2    0    0 -0.43500345021E+01  0.15020249430E+03  0.70584831800E+02  0.18968144576E+03  0.91744865205E+02 0.  0.
        -13    1    3    3    0    0 -0.92446202869E+01 -0.47508111357E+02  0.80031490617E+02  0.93528194355E+02  0.00000000000E+00 0.  1.
         13    1    3    3    0    0 -0.58102241559E+02 -0.35096780127E+02  0.35283227643E+03  0.35930247667E+03  0.00000000000E+00 0. -1.
        -13    1    4    4    0    0  0.18156545441E+02  0.20419630887E+02 -0.16365874227E+02  0.31850640608E+02  0.00000000000E+00 0.  1.
         13    1    4    4    0    0 -0.22506579943E+02  0.12978286341E+03  0.86950706027E+02  0.15783080515E+03  0.00000000000E+00 0. -1.
          1    1    1    2  501    0  0.71696896348E+02 -0.67597602811E+02 -0.36277980575E+01  0.98605485499E+02  0.00000000000E+00 0. -1.
<scales pt_clust_5="13000.00000" pt_clust_6="13000.00000" pt_clust_7="13000.00000" pt_clust_8="13000.00000" pt_clust_9="98.53873"></scales>
<clustering>
<clus scale="   79.532">  5  6 -1 -1</clus>
<clus scale="   91.745">  7  8 -1 -1</clus>
<clus scale="   98.539">  2  9  1 -1</clus>
<clus scale="  134.542">  1  5  2 -1</clus>
<clus scale="   98.539">  2  5  1 -1</clus>
</clustering>
</event>
<event>
 9    1  0.1315259E-005  0.1825817E+03  0.7546771E-02  0.1165607E+00
          1   -1    0    0  502    0 -0.00000000000E+00  0.00000000000E+00  0.57507649276E+03  0.57507649276E+03  0.00000000000E+00 0. -1.
         21   -1    0    0  501  502  0.00000000000E+00 -0.00000000000E+00 -0.23670560103E+03  0.23670560103E+03  0.00000000000E+00 0. -1.
         23    2    1    2    0    0 -0.28161272016E+02 -0.14912880581E+03  0.31570134049E+03  0.36293391231E+03  0.94980157686E+02 0.  0.
         23    2    1    2    0    0  0.50694984426E+02  0.15530062826E+03  0.19744342698E+03  0.27251960403E+03  0.92707934597E+02 0.  0.
        -13    1    4    4    0    0  0.41244325146E+02  0.11771400395E+03  0.19770452316E+03  0.23376218590E+03  0.00000000000E+00 0. -1.
         13    1    4    4    0    0  0.94506592791E+01  0.37586624316E+02 -0.26109617902E+00  0.38757418122E+02  0.00000000000E+00 0.  1.
        -13    1    3    3    0    0 -0.22324998463E+02 -0.52098765711E+01  0.10023794986E+02  0.25020488328E+02  0.00000000000E+00 0.  1.
         13    1    3    3    0    0 -0.58362735532E+01 -0.14391892924E+03  0.30567754551E+03  0.33791342398E+03  0.00000000000E+00 0. -1.
          1    1    1    2  501    0 -0.22533712410E+02 -0.61718224541E+01 -0.17477387574E+03  0.17632857745E+03  0.00000000000E+00 0. -1.
<scales pt_clust_5="13000.00000" pt_clust_6="13000.00000" pt_clust_7="13000.00000" pt_clust_8="13000.00000" pt_clust_9="23.36364"></scales>
<clustering>
<clus scale="   23.364">  2  9  1 -1</clus>
<clus scale="   92.708">  5  6 -1 -1</clus>
<clus scale="   94.980">  7  8 -1 -1</clus>
<clus scale="  181.410">  2  5  1 -1</clus>
<clus scale="   23.364">  2  5  1 -1</clus>
</clustering>
</event>
<event>
 9    1  0.1315259E-005  0.1341932E+03  0.7546771E-02  0.1222189E+00
          3   -1    0    0  502    0 -0.00000000000E+00  0.00000000000E+00  0.26841912643E+03  0.26841912643E+03  0.00000000000E+00 0. -1.
         21   -1    0    0  501  502  0.00000000000E+00 -0.00000000000E+00 -0.23069750919E+03  0.23069750919E+03  0.00000000000E+00 0. -1.
         23    2    1    2    0    0 -0.67819280450E+02 -0.55089898883E+02  0.10818621642E+03  0.16475326290E+03  0.88346072083E+02 0.  0.
         23    2    1    2    0    0  0.10445978185E+03  0.48951357077E+02  0.87956685205E+02  0.17164425466E+03  0.91745791732E+02 0.  0.
        -11    1    4    4    0    0  0.15454040946E+02  0.44538753203E+02  0.10309103724E+01  0.47154964687E+02  0.00000000000E+00 0.  1.
         11    1    4    4    0    0  0.89005740906E+02  0.44126038741E+01  0.86925774833E+02  0.12448928997E+03  0.00000000000E+00 0. -1.
        -13    1    3    3    0    0 -0.24076747804E+02 -0.12140328073E+02 -0.12247093401E+02  0.29615344794E+02  0.00000000000E+00 0.  1.
         13    1    3    3    0    0 -0.43742532646E+02 -0.42949570810E+02  0.12043330982E+03  0.13513791810E+03  0.00000000000E+00 0. -1.
          3    1    1    2  501    0 -0.36640501402E+02  0.61385418058E+01 -0.15842128439E+03  0.16271911807E+03  0.00000000000E+00 0. -1.
<scales pt_clust_5="13000.00000" pt_clust_6="13000.00000" pt_clust_7="13000.00000" pt_clust_8="13000.00000" pt_clust_9="37.15115"></scales>
<clustering>
<clus scale="   37.151">  2  9  1 -1</clus>
<clus scale="   88.346">  7  8 -1 -1</clus>
<clus scale="   91.746">  5  6 -1 -1</clus>
<clus scale="  131.892">  1  7  2 -1</clus>
<clus scale="   37.151">  2  5  1 -1</clus>
</clustering>
</event>
<event>
 9    1  0.1315259E-005  0.2000195E+03  0.7546771E-02  0.1150332E+00
         21   -1    0    0  501  502  0.00000000000E+00  0.00000000000E+00  0.23529920150E+03  0.23529920150E+03  0.00000000000E+00 0. -1.
          3   -1    0    0  502    0 -0.00000000000E+00 -0.00000000000E+00 -0.32338882037E+03  0.32338882037E+03  0.00000000000E+00 0. -1.
         23    2    1    2    0    0  0.81216399137E+01 -0.17747072565E+03 -0.12246609159E+03  0.23422045208E+03  0.91101356103E+02 0.  0.
         23    2    1    2    0    0 -0.72745343361E+02  0.16022552603E+03  0.10535348668E+03  0.22694138630E+03  0.97154163523E+02 0.  0.
        -13    1    4    4    0    0 -0.54788241915E+02  0.68515036024E+02  0.10044386762E+03  0.13336053448E+03  0.00000000000E+00 0.  1.
         13    1    4    4    0    0 -0.17957101446E+02  0.91710490003E+02  0.49096190578E+01  0.93580851824E+02  0.00000000000E+00 0. -1.
        -13    1    3    3    0    0  0.36030856495E+02 -0.31447206600E+02 -0.48712013276E+02  0.68264263419E+02  0.00000000000E+00 0.  1.
         13    1    3    3    0    0 -0.27909216581E+02 -0.14602351905E+03 -0.73754078314E+02  0.16595618866E+03  0.00000000000E+00 0. -1.
          3    1    1    2  501    0  0.64623703447E+02  0.17245199622E+02 -0.70977013955E+02  0.97526183496E+02  0.00000000000E+00 0. -1.
<scales pt_clust_5="13000.00000" pt_clust_6="13000.00000" pt_clust_7="13000.00000" pt_clust_8="13000.00000" pt_clust_9="66.88516"></scales>
<clustering>
<clus scale="   66.885">  1  9  2 -1</clus>
<clus scale="   91.101">  7  8 -1 -1</clus>
<clus scale="   97.154">  5  6 -1 -1</clus>
<clus scale="  197.151">  2  7  1 -1</clus>
<clus scale="   66.885">  1  5  2 -1</clus>
</clustering>
</event>
<event>
 9    1  0.1315259E-005  0.1162609E+03  0.7546771E-02  0.1253496E+00
         21   -1    0    0  501  502  0.00000000000E+00  0.00000000000E+00  0.13268913823E+03  0.13268913823E+03  0.00000000000E+00 0.  1.
          1   -1    0    0  502    0 -0.00000000000E+00 -0.00000000000E+00 -0.16837785311E+03  0.16837785311E+03  0.00000000000E+00 0. -1.
         23    2    1    2    0    0 -0.59934278129E+02  0.19941789470E+02 -0.59870314826E+02  0.12599994486E+03  0.91113878438E+02 0.  0.
         23    2    1    2    0    0  0.71434768142E+02 -0.51564119865E+02 -0.19399942656E+02  0.12000722534E+03  0.79142856916E+02 0.  0.
        -11    1    3    3    0    0 -0.29252739050E+02 -0.53750383309E-01  0.21808033427E+02  0.36487202592E+02  0.00000000000E+00 0.  1.
         11    1    3    3    0    0 -0.30681539079E+02  0.19995539853E+02 -0.81678348253E+02  0.89512742264E+02  0.00000000000E+00 0. -1.
        -13    1    4    4    0    0  0.79437867368E+02 -0.30261029767E+02 -0.35509970506E+02  0.92125255494E+02  0.00000000000E+00 0.  1.
         13    1    4    4    0    0 -0.80030992260E+01 -0.21303090098E+02  0.16110027850E+02  0.27881969842E+02  0.00000000000E+00 0. -1.
          1    1    1    2  501    0 -0.11500490013E+02  0.31622330395E+02  0.43581542601E+02  0.55059821155E+02  0.00000000000E+00 0. -1.
<scales pt_clust_5="13000.00000" pt_clust_6="13000.00000" pt_clust_7="13000.00000" pt_clust_8="13000.00000" pt_clust_9="33.64867"></scales>
<clustering>
<clus scale="   33.649">  1  9  2 -1</clus>
<clus scale="   79.143">  7  8 -1 -1</clus>
<clus scale="   91.114">  5  6 -1 -1</clus>
<clus scale="  107.137">  1  7  2 -1</clus>
<clus scale="   33.649">  1  5  2 -1</clus>
</clustering>
</event>
<event>
 9    1  0.1315259E-005  0.9304514E+02  0.7546771E-02  0.1296237E+00
         21   -1    0    0  501  502  0.00000000000E+00  0.00000000000E+00  0.50791114718E+02  0.50791114718E+02  0.00000000000E+00 0.  1.
          2   -1    0    0  502    0 -0.00000000000E+00 -0.00000000000E+00 -0.40086582396E+03  0.40086582396E+03  0.00000000000E+00 0. -1.
         23    2    1    2    0    0  0.16885007051E+02  0.73427659378E+01 -0.29086702622E+03  0.30542846917E+03  0.91344967914E+02 0.  0.
         23    2    1    2    0    0 -0.72851415138E+00 -0.26822597918E+02 -0.71333876372E+02  0.11816531426E+03  0.90302475518E+02 0.  0.
        -11    1    4    4    0    0 -0.35029690197E+02 -0.20411158114E+02 -0.72703099467E+02  0.83243229412E+02  0.00000000000E+00 0.  1.
         11    1    4    4    0    0  0.34301176045E+02 -0.64114398043E+01  0.13692230952E+01  0.34922084851E+02  0.00000000000E+00 0. -1.
        -13    1    3    3    0    0  0.53464447730E+02  0.25029314562E+01 -0.20691895908E+03  0.21372919189E+03  0.00000000000E+00 0. -1.
         13    1    3    3    0    0 -0.36579440679E+02  0.48398344816E+01 -0.83948067138E+02  0.91699277284E+02  0.00000000000E+00 0.  1.
          2    1    1    2  501    0 -0.16156492899E+02  0.19479831980E+02  0.12126193353E+02  0.28063155240E+02  0.00000000000E+00 0. -1.
<scales pt_clust_5="13000.00000" pt_clust_6="13000.00000" pt_clust_7="13000.00000" pt_clust_8="13000.00000" pt_clust_9="25.30802"></scales>
<clustering>
<clus scale="   25.308">  1  9  2 -1</clus>
<clus scale="   90.302">  5  6 -1 -1</clus>
<clus scale="   91.345">  7  8 -1 -1</clus>
<clus scale="   92.022">  1  5  2 -1</clus>
<clus scale="   25.308">  1  5  2 -1</clus>
</clustering>
</event>
<event>
 9    1  0.1315259E-005  0.1286897E+03  0.7546771E-02  0.1232542E+00
         -1   -1    0    0    0  501 -0.00000000000E+00  0.00000000000E+00  0.23165272295E+03  0.23165272295E+03  0.00000000000E+00 0.  1.
         21   -1    0    0  501  502  0.00000000000E+00 -0.00000000000E+00 -0.14655834850E+03  0.14655834850E+03  0.00000000000E+00 0. -1.
         23    2    1    2    0    0  0.99973989981E+02  0.26479343812E+02  0.15198574451E+03  0.19967069126E+03  0.77927941664E+02 0.  0.
         23    2    1    2    0    0 -0.59381313388E+02  0.13343878156E+02 -0.40552474375E+02  0.11587147380E+03  0.89874889704E+02 0.  0.
        -13    1    3    3    0    0  0.20270622801E+02  0.43385549349E+02  0.60620518508E+02  0.77253163723E+02  0.00000000000E+00 0. -1.
         13    1    3    3    0    0  0.79703367180E+02 -0.16906205538E+02  0.91365226004E+02  0.12241752754E+03  0.00000000000E+00 0.  1.
        -13    1    4    4    0    0 -0.78956249073E+02 -0.81370256933E+01 -0.31943870917E+02  0.85561155579E+02  0.00000000000E+00 0.  1.
         13    1    4    4    0    0  0.19574935686E+02  0.21480903849E+02 -0.86086034584E+01  0.30310318223E+02  0.00000000000E+00 0. -1.
         -1    1    1    2    0  502 -0.40592676593E+02 -0.39823221968E+02 -0.26338895686E+02  0.62668906380E+02  0.00000000000E+00 0.  1.
<scales pt_clust_5="13000.00000" pt_clust_6="13000.00000" pt_clust_7="13000.00000" pt_clust_8="13000.00000" pt_clust_9="56.86523"></scales>
<clustering>
<clus scale="   56.865">  2  9  1 -1</clus>
<clus scale="   77.928">  5  6 -1 -1</clus>
<clus scale="   89.875">  7  8 -1 -1</clus>
<clus scale="  120.649">  1  5  2 -1</clus>
<clus scale="   56.865">  2  5  1 -1</clus>
</clustering>
</event>
<event>
 9    1  0.1315259E-005  0.9301748E+02  0.7546771E-02  0.1295998E+00
         21   -1    0    0  501  502  0.00000000000E+00  0.00000000000E+00  0.16151131234E+02  0.16151131234E+02  0.00000000000E+00 0. -1.
         -1   -1    0    0    0  501 -0.00000000000E+00 -0.00000000000E+00 -0.75305575244E+03  0.75305575244E+03  0.00000000000E+00 0.  1.
         23    2    1    2    0    0 -0.10075452979E+01 -0.62822122007E+01 -0.31331698676E+03  0.32654306443E+03  0.91773402452E+02 0.  0.
         23    2    1    2    0    0  0.23625161190E+02 -0.13838406073E+02 -0.28527303694E+03  0.30107524727E+03  0.92281900681E+02 0.  0.
        -13    1    4    4    0    0  0.35718085803E+02  0.20663599703E+02 -0.23675804243E+03  0.24032714508E+03  0.00000000000E+00 0. -1.
         13    1    4    4    0    0 -0.12092924613E+02 -0.34502005776E+02 -0.48514994507E+02  0.60748102195E+02  0.00000000000E+00 0.  1.
        -13    1    3    3    0    0 -0.13334385136E+02  0.40533695828E+02 -0.16986059819E+03  0.17513825722E+03  0.00000000000E+00 0.  1.
         13    1    3    3    0    0  0.12326839838E+02 -0.46815908029E+02 -0.14345638856E+03  0.15140480720E+03  0.00000000000E+00 0. -1.
         -1    1    1    2    0  502 -0.22617615892E+02  0.20120618274E+02 -0.13831459751E+03  0.14158857197E+03  0.00000000000E+00 0.  1.
<scales pt_clust_5="13000.00000" pt_clust_6="13000.00000" pt_clust_7="13000.00000" pt_clust_8="13000.00000" pt_clust_9="30.27205"></scales>
<clustering>
<clus scale="   30.272">  1  9  2 -1</clus>
<clus scale="   91.773">  7  8 -1 -1</clus>
<clus scale="   92.282">  5  6 -1 -1</clus>
<clus scale="   92.513">  2  7  1 -1</clus>
<clus scale="   30.272">  1  5  2 -1</clus>
</clustering>
</event>
<event>
 9    1  0.1315259E-005  0.1094051E+03  0.7546771E-02  0.1263216E+00
         21   -1    0    0  501  502  0.00000000000E+00  0.00000000000E+00  0.11515241473E+03  0.11515241473E+03  0.00000000000E+00 0.  1.
         -4   -1    0    0    0  501 -0.00000000000E+00 -0.00000000000E+00 -0.13918952184E+03  0.13918952184E+03  0.00000000000E+00 0.  1.
         23    2    1    2    0    0  0.34529381696E+02 -0.26342746058E+02 -0.15228599710E+02  0.10182998576E+03  0.90836211281E+02 0.  0.
         23    2    1    2    0    0 -0.40755880685E+02  0.55448687261E+02 -0.23483931633E+02  0.11932621323E+03  0.94613167100E+02 0.  0.
        -13    1    3    3    0    0 -0.80569007899E+01 -0.47715726601E+02 -0.22953806557E+02  0.53559139751E+02  0.00000000000E+00 0.  1.
         13    1    3    3    0    0  0.42586282486E+02  0.21372980543E+02  0.77252068469E+01  0.48270846006E+02  0.00000000000E+00 0. -1.
        -13    1    4    4    0    0 -0.19439623338E+02  0.89455152132E+01  0.35374806038E+02  0.41343658524E+02  0.00000000000E+00 0. -1.
         13    1    4    4    0    0 -0.21316257346E+02  0.46503172048E+02 -0.58858737670E+02  0.77982554702E+02  0.00000000000E+00 0.  1.
         -4    1    1    2    0  502  0.62264989885E+01 -0.29105941203E+02  0.14675424233E+02  0.33185737590E+02  0.00000000000E+00 0.  1.
<scales pt_clust_5="13000.00000" pt_clust_6="13000.00000" pt_clust_7="13000.00000" pt_clust_8="13000.00000" pt_clust_9="29.76449"></scales>
<clustering>
<clus scale="   29.764">  1  9  2 -1</clus>
<clus scale="   90.836">  5  6 -1 -1</clus>
<clus scale="   94.613">  7  8 -1 -1</clus>
<clus scale="  106.156">  2  5  1 -1</clus>
<clus scale="   29.764">  1  5  2 -1</clus>
</clustering>
</event>
<event>
 9    1  0.1315259E-005  0.3184732E+03  0.7546771E-02  0.1118657E+00
         -1   -1    0    0    0  501 -0.00000000000E+00  0.00000000000E+00  0.37188059131E+03  0.37188059131E+03  0.00000000000E+00 0.  1.
         21   -1    0    0  501  502  0.00000000000E+00 -0.00000000000E+00 -0.60292003684E+03  0.60292003684E+03  0.00000000000E+00 0.  1.
         23    2    1    2    0    0  0.46246353880E+02 -0.18198803547E+02  0.17973172691E+03  0.20849742447E+03  0.93261785603E+02 0.  0.
         23    2    1    2    0    0  0.15894270705E+03  0.25009939223E+03 -0.98091849306E+02  0.32624776074E+03  0.94884668774E+02 0.  0.
        -11    1    3    3    0    0 -0.28153280538E+02 -0.50319173485E+01  0.34716596354E+02  0.44979656064E+02  0.00000000000E+00 0.  1.
         11    1    3    3    0    0  0.74399634417E+02 -0.13166886199E+02  0.14501513056E+03  0.16351776841E+03  0.00000000000E+00 0. -1.
        -13    1    4    4    0    0  0.22125583250E+02  0.11803286042E+03 -0.50140743805E+02  0.13013605097E+03  0.00000000000E+00 0. -1.
         13    1    4    4    0    0  0.13681712380E+03  0.13206653181E+03 -0.47951105501E+02  0.19611170977E+03  0.00000000000E+00 0.  1.
         -1    1    1    2    0  502 -0.20518906093E+03 -0.23190058868E+03 -0.31267932314E+03  0.44005544295E+03  0.00000000000E+00 0.  1.
<scales pt_clust_5="13000.00000" pt_clust_6="13000.00000" pt_clust_7="13000.00000" pt_clust_8="13000.00000" pt_clust_9="304.00999"></scales>
<clustering>
<clus scale="   93.262">  5  6 -1 -1</clus>
<clus scale="   94.885">  7  8 -1 -1</clus>
<clus scale="  105.677">  1  5  2 -1</clus>
<clus scale="  304.010">  2  9  1 -1</clus>
<clus scale="  304.010">  2  5  1 -1</clus>
</clustering>
</event>
<event>
 9    1  0.1315259E-005  0.1109320E+03  0.7546771E-02  0.1259578E+00
         21   -1    0    0  501  502  0.00000000000E+00  0.00000000000E+00  0.14301054638E+03  0.14301054638E+03  0.00000000000E+00 0.  1.
          2   -1    0    0  502    0 -0.00000000000E+00 -0.00000000000E+00 -0.20603595867E+03  0.20603595867E+03  0.00000000000E+00 0. -1.
         23    2    1    2    0    0  0.19752402349E+02 -0.52917446105E+02 -0.80232391029E+02  0.13301959827E+03  0.89814049311E+02 0.  0.
         23    2    1    2    0    0 -0.51288468613E+02  0.52845416240E+02 -0.60422473291E+02  0.13223633161E+03  0.91719284169E+02 0.  0.
        -11    1    4    4    0    0 -0.76567436888E+02  0.27335652246E+02 -0.46919899219E+02  0.93868456992E+02  0.00000000000E+00 0.  1.
         11    1    4    4    0    0  0.25278968275E+02  0.25509763994E+02 -0.13502574072E+02  0.38367874617E+02  0.00000000000E+00 0. -1.
        -13    1    3    3    0    0  0.39653745362E+02  0.57911787331E+01 -0.14370288925E+02  0.42573025217E+02  0.00000000000E+00 0. -1.
         13    1    3    3    0    0 -0.19901343013E+02 -0.58708624838E+02 -0.65862102104E+02  0.90446573057E+02  0.00000000000E+00 0.  1.
          2    1    1    2  501    0  0.31536066264E+02  0.72029865056E-01  0.77629452029E+02  0.83790575162E+02  0.00000000000E+00 0. -1.
<scales pt_clust_5="13000.00000" pt_clust_6="13000.00000" pt_clust_7="13000.00000" pt_clust_8="13000.00000" pt_clust_9="31.53615"></scales>
<clustering>
<clus scale="   31.536">  1  9  2 -1</clus>
<clus scale="   89.814">  7  8 -1 -1</clus>
<clus scale="   91.719">  5  6 -1 -1</clus>
<clus scale="  109.362">  2  7  1 -1</clus>
<clus scale="   31.536">  1  5  2 -1</clus>
</clustering>
</event>
<event>
 9    1  0.1315259E-005  0.4075153E+03  0.7546771E-02  0.1041311E+00
         21   -1    0    0  501  502  0.00000000000E+00  0.00000000000E+00  0.34728380959E+03  0.34728380959E+03  0.00000000000E+00 0. -1.
          2   -1    0    0  502    0 -0.00000000000E+00 -0.00000000000E+00 -0.15246161369E+04  0.15246161369E+04  0.00000000000E+00 0. -1.
         23    2    1    2    0    0  0.36460537507E+03 -0.16012940440E+03 -0.11281830116E+04  0.11995217637E+04  0.86469927229E+02 0.  0.
         23    2    1    2    0    0 -0.37059907725E+03  0.13310784851E+03 -0.24616882116E+03  0.47342398086E+03  0.92031525816E+02 0.  0.
        -13    1    3    3    0    0  0.34811279371E+03 -0.12973443746E+03 -0.10007599860E+04  0.10674896210E+04  0.00000000000E+00 0. -1.
         13    1    3    3    0    0  0.16492581354E+02 -0.30394966938E+02 -0.12742302559E+03  0.13203214269E+03  0.00000000000E+00 0.  1.
        -13    1    4    4    0    0 -0.83624575076E+02 -0.90811989257E+01 -0.52152259960E+02  0.98971692668E+02  0.00000000000E+00 0. -1.
         13    1    4    4    0    0 -0.28697450218E+03  0.14218904744E+03 -0.19401656120E+03  0.37445228819E+03  0.00000000000E+00 0.  1.
          2    1    1    2  501    0  0.59937021866E+01  0.27021555883E+02  0.19701950542E+03  0.19895420193E+03  0.00000000000E+00 0. -1.
<scales pt_clust_5="13000.00000" pt_clust_6="13000.00000" pt_clust_7="13000.00000" pt_clust_8="13000.00000" pt_clust_9="27.67831"></scales>
<clustering>
<clus scale="   27.678">  1  9  2 -1</clus>
<clus scale="   86.470">  5  6 -1 -1</clus>
<clus scale="   92.032">  7  8 -1 -1</clus>
<clus scale="  406.295">  2  5  1 -1</clus>
<clus scale="   27.678">  1  5  2 -1</clus>
</clustering>
</event>
<event>
 9    1  0.1315259E-005  0.9921046E+02  0.7546771E-02  0.1282363E+00
         -3   -1    0    0    0  501 -0.00000000000E+00  0.00000000000E+00  0.37887497289E+03  0.37887497289E+03  0.00000000000E+00 0.  1.
         21   -1    0    0  501  502  0.00000000000E+00 -0.00000000000E+00 -0.76251611087E+02  0.76251611087E+02  0.00000000000E+00 0. -1.
         23    2    1    2    0    0 -0.28069662446E+02 -0.96173409302E+01  0.25301527633E+03  0.27073298050E+03  0.91647244793E+02 0.  0.
         23    2    1    2    0    0  0.56266080499E+02  0.37570453963E+02  0.76285415079E+02  0.13655957339E+03  0.90838547464E+02 0.  0.
        -11    1    4    4    0    0  0.58035129180E+02  0.58809460632E+02  0.79905953178E+02  0.11494168187E+03  0.00000000000E+00 0. -1.
         11    1    4    4    0    0 -0.17690486804E+01 -0.21239006669E+02 -0.36205380991E+01  0.21617891517E+02  0.00000000000E+00 0.  1.
        -13    1    3    3    0    0 -0.40566222517E+02 -0.43914131089E+02  0.15306515939E+03  0.16432593325E+03  0.00000000000E+00 0.  1.
         13    1    3    3    0    0  0.12496560071E+02  0.34296790159E+02  0.99950116938E+02  0.10640704725E+03  0.00000000000E+00 0. -1.
         -3    1    1    2    0  502 -0.28196418053E+02 -0.27953113033E+02 -0.26677329606E+02  0.47834030085E+02  0.00000000000E+00 0.  1.
<scales pt_clust_5="13000.00000" pt_clust_6="13000.00000" pt_clust_7="13000.00000" pt_clust_8="13000.00000" pt_clust_9="39.70409"></scales>
<clustering>
<clus scale="   39.704">  2  9  1 -1</clus>
<clus scale="   90.839">  5  6 -1 -1</clus>
<clus scale="   91.647">  7  8 -1 -1</clus>
<clus scale="   98.464">  2  5  1 -1</clus>
<clus scale="   39.704">  2  5  1 -1</clus>
</clustering>
</event>
<event>
 9    1  0.1315259E-005  0.1122471E+03  0.7546771E-02  0.1257530E+00
         21   -1    0    0  501  502  0.00000000000E+00  0.00000000000E+00  0.13350997955E+03  0.13350997955E+03  0.00000000000E+00 0. -1.
          2   -1    0    0  502    0 -0.00000000000E+00 -0.00000000000E+00 -0.39753793613E+03  0.39753793613E+03  0.00000000000E+00 0. -1.
         23    2    1    2    0    0  0.32531082636E+02 -0.65822132837E+02 -0.19384092210E+03  0.22628244573E+03  0.90766831243E+02 0.  0.
         23    2    1    2    0    0  0.48744679226E+01  0.63399702275E+02 -0.16802806052E+03  0.19998994915E+03  0.87859364630E+02 0.  0.
        -11    1    4    4    0    0 -0.23752847835E+02 -0.12392851311E+02 -0.51688614302E+02  0.58219355822E+02  0.00000000000E+00 0.  1.
         11    1    4    4    0    0  0.28627315757E+02  0.75792553586E+02 -0.11633944622E+03  0.14177059333E+03  0.00000000000E+00 0. -1.
        -13    1    3    3    0    0  0.60658057452E+02 -0.56305239632E+02 -0.16642422578E+03  0.18586743360E+03  0.00000000000E+00 0.  1.
         13    1    3    3    0    0 -0.28126974815E+02 -0.95168932042E+01 -0.27416696320E+02  0.40415012132E+02  0.00000000000E+00 0. -1.
          2    1    1    2  501    0 -0.37405550559E+02  0.24224305616E+01  0.97841026038E+02  0.10477552080E+03  0.00000000000E+00 0. -1.
<scales pt_clust_5="13000.00000" pt_clust_6="13000.00000" pt_clust_7="13000.00000" pt_clust_8="13000.00000" pt_clust_9="37.48391"></scales>
<clustering>
<clus scale="   37.484">  1  9  2 -1</clus>
<clus scale="   87.859">  5  6 -1 -1</clus>
<clus scale="   90.767">  7  8 -1 -1</clus>
<clus scale="  109.909">  1  5  2 -1</clus>
<clus scale="   37.484">  1  5  2 -1</clus>
</clustering>
</event>
<event>
 9    1  0.1315259E-005  0.1417981E+03  0.7546771E-02  0.1211734E+00
         21   -1    0    0  501  502  0.00000000000E+00  0.00000000000E+00  0.36210710213E+03  0.36210710213E+03  0.00000000000E+00 0.  1.
         -1   -1    0    0    0  501 -0.00000000000E+00 -0.00000000000E+00 -0.88188076477E+02  0.88188076477E+02  0.00000000000E+00 0.  1.
         23    2    1    2    0    0  0.93355484126E+02 -0.66091249747E+02  0.60586006958E+02  0.15982259200E+03  0.93751250469E+02 0.  0.
         23    2    1    2    0    0 -0.40848892242E+02  0.94405610662E+02  0.15994300922E+03  0.21041549238E+03  0.90065875396E+02 0.  0.
        -11    1    3    3    0    0  0.10312597706E+03 -0.25645058181E+02  0.44639973284E+02  0.11526215064E+03  0.00000000000E+00 0.  1.
         11    1    3    3    0    0 -0.97704929386E+01 -0.40446191565E+02  0.15946033675E+02  0.44560441362E+02  0.00000000000E+00 0. -1.
        -11    1    4    4    0    0 -0.14475778263E+02  0.10033077394E+03  0.90472629301E+02  0.13587166374E+03  0.00000000000E+00 0.  1.
         11    1    4    4    0    0 -0.26373113979E+02 -0.59251632772E+01  0.69470379924E+02  0.74543828635E+02  0.00000000000E+00 0. -1.
         -1    1    1    2    0  502 -0.52506591884E+02 -0.28314360916E+02  0.53390009470E+02  0.80057094230E+02  0.00000000000E+00 0.  1.
<scales pt_clust_5="13000.00000" pt_clust_6="13000.00000" pt_clust_7="13000.00000" pt_clust_8="13000.00000" pt_clust_9="59.65438"></scales>
<clustering>
<clus scale="   59.654">  1  9  2 -1</clus>
<clus scale="   90.066">  7  8 -1 -1</clus>
<clus scale="   93.751">  5  6 -1 -1</clus>
<clus scale="  139.389">  1  7  2 -1</clus>
<clus scale="   59.654">  1  5  2 -1</clus>
</clustering>
</event>
<event>
 9    1  0.1315259E-005  0.1992986E+03  0.7546771E-02  0.1150502E+00
         -1   -1    0    0    0  501 -0.00000000000E+00  0.00000000000E+00  0.33732802379E+03  0.33732802379E+03  0.00000000000E+00 0.  1.
         21   -1    0    0  501  502  0.00000000000E+00 -0.00000000000E+00 -0.17111918579E+03  0.17111918579E+03  0.00000000000E+00 0.  1.
         23    2    1    2    0    0 -0.18077223035E+03 -0.14002858968E+02  0.12154388912E+03  0.23720980652E+03  0.92848780304E+02 0.  0.
         23    2    1    2    0    0  0.16482911496E+03  0.28282024180E+02 -0.30683949048E+02  0.19290775410E+03  0.91122921560E+02 0.  0.
        -13    1    3    3    0    0 -0.60056912401E+02 -0.24673039244E+02 -0.90187122641E+00  0.64933850682E+02  0.00000000000E+00 0. -1.
         13    1    3    3    0    0 -0.12071531795E+03  0.10670180276E+02  0.12244576035E+03  0.17227595584E+03  0.00000000000E+00 0.  1.
        -13    1    4    4    0    0  0.83944083788E+02 -0.38784054209E+01 -0.57504281570E+02  0.10182530938E+03  0.00000000000E+00 0.  1.
         13    1    4    4    0    0  0.80885031175E+02  0.32160429601E+02  0.26820332523E+02  0.91082444724E+02  0.00000000000E+00 0. -1.
         -1    1    1    2    0  502  0.15943115384E+02 -0.14279165212E+02  0.75348897926E+02  0.78329648959E+02  0.00000000000E+00 0.  1.
<scales pt_clust_5="13000.00000" pt_clust_6="13000.00000" pt_clust_7="13000.00000" pt_clust_8="13000.00000" pt_clust_9="21.40276"></scales>
<clustering>
<clus scale="   21.403">  2  9  1 -1</clus>
<clus scale="   91.123">  7  8 -1 -1</clus>
<clus scale="   92.849">  5  6 -1 -1</clus>
<clus scale="  198.500">  2  7  1 -1</clus>
<clus scale="   21.403">  2  5  1 -1</clus>
</clustering>
</event>
<event>
 9    1  0.1315259E-005  0.1152686E+03  0.7546771E-02  0.1251292E+00
         21   -1    0    0  501  502  0.00000000000E+00  0.00000000000E+00  0.46583159966E+03  0.46583159966E+03  0.00000000000E+00 0. -1.
          2   -1    0    0  502    0 -0.00000000000E+00 -0.00000000000E+00 -0.74183742264E+02  0.74183742264E+02  0.00000000000E+00 0. -1.
         23    2    1    2    0    0 -0.66352330727E+02  0.61073519433E+02  0.43502031788E+02  0.13463964680E+03  0.90015560614E+02 0.  0.
         23    2    1    2    0    0 -0.16975852396E+02 -0.63641925382E+02  0.12846883752E+03  0.17041152358E+03  0.90539333579E+02 0.  0.
        -11    1    3    3    0    0 -0.33025219021E+02  0.79908035198E+02  0.17103805782E+02  0.88139090946E+02  0.00000000000E+00 0.  1.
         11    1    3    3    0    0 -0.33327111705E+02 -0.18834515764E+02  0.26398226005E+02  0.46500555856E+02  0.00000000000E+00 0. -1.
        -13    1    4    4    0    0  0.27484776175E+02 -0.58833631361E+01  0.74767721161E+02  0.79876398334E+02  0.00000000000E+00 0.  1.
         13    1    4    4    0    0 -0.44460628571E+02 -0.57758562245E+02  0.53701116360E+02  0.90535125249E+02  0.00000000000E+00 0. -1.
          2    1    1    2  501    0  0.83328183123E+02  0.25684059481E+01  0.21967698808E+03  0.23496417154E+03  0.00000000000E+00 0. -1.
<scales pt_clust_5="13000.00000" pt_clust_6="13000.00000" pt_clust_7="13000.00000" pt_clust_8="13000.00000" pt_clust_9="83.36776"></scales>
<clustering>
<clus scale="   83.368">  1  9  2 -1</clus>
<clus scale="   90.016">  5  6 -1 -1</clus>
<clus scale="   90.539">  7  8 -1 -1</clus>
<clus scale="  114.858">  2  5  1 -1</clus>
<clus scale="   83.368">  1  5  2 -1</clus>
</clustering>
</event>
<event>
 9    1  0.1315259E-005  0.1097959E+03  0.7546771E-02  0.1261799E+00
         21   -1    0    0  501  502  0.00000000000E+00  0.00000000000E+00  0.12054167529E+03  0.12054167529E+03  0.00000000000E+00 0.  1.
          2   -1    0    0  502    0 -0.00000000000E+00 -0.00000000000E+00 -0.22458370162E+03  0.22458370162E+03  0.00000000000E+00 0. -1.
         23    2    1    2    0    0 -0.22389722251E+02 -0.42655209768E+02 -0.12612880822E+03  0.16392094291E+03  0.92956079293E+02 0.  0.
         23    2    1    2    0    0  0.43810950667E+02  0.81989910581E+02 -0.27723335627E+01  0.12997882188E+03  0.90802331849E+02 0.  0.
        -13    1    4    4    0    0  0.70391006474E+02  0.44977412663E+02 -0.88769131187E+01  0.84003934603E+02  0.00000000000E+00 0. -1.
         13    1    4    4    0    0 -0.26580055807E+02  0.37012497918E+02  0.61045795560E+01  0.45974887280E+02  0.00000000000E+00 0.  1.
        -13    1    3    3    0    0  0.36556530526E+02 -0.16991533885E+02 -0.52024938998E+02  0.65815548509E+02  0.00000000000E+00 0.  1.
         13    1    3    3    0    0 -0.58946252776E+02 -0.25663675884E+02 -0.74103869227E+02  0.98105394401E+02  0.00000000000E+00 0. -1.
          2    1    1    2  501    0 -0.21421228417E+02 -0.39334700812E+02  0.24859115464E+02  0.51225612115E+02  0.00000000000E+00 0. -1.
<scales pt_clust_5="13000.00000" pt_clust_6="13000.00000" pt_clust_7="13000.00000" pt_clust_8="13000.00000" pt_clust_9="44.78937"></scales>
<clustering>
<clus scale="   44.789">  1  9  2 -1</clus>
<clus scale="   90.802">  5  6 -1 -1</clus>
<clus scale="   92.956">  7  8 -1 -1</clus>
<clus scale="  107.979">  1  5  2 -1</clus>
<clus scale="   44.789">  1  5  2 -1</clus>
</clustering>
</event>
<event>
 9    1  0.1315259E-005  0.1491750E+03  0.7546771E-02  0.1201540E+00
         21   -1    0    0  501  502  0.00000000000E+00  0.00000000000E+00  0.64277799927E+03  0.64277799927E+03  0.00000000000E+00 0.  1.
         -1   -1    0    0    0  501 -0.00000000000E+00 -0.00000000000E+00 -0.51204592296E+02  0.51204592296E+02  0.00000000000E+00 0.  1.
         23    2    1    2    0    0 -0.92228527130E+02  0.60444960083E+02  0.13552493408E+03  0.19761252311E+03  0.92325549657E+02 0.  0.
         23    2    1    2    0    0  0.99577196427E+02 -0.90928208182E+02  0.39989581253E+03  0.43205558624E+03  0.92584078731E+02 0.  0.
        -13    1    4    4    0    0  0.45298753496E+02 -0.45506862857E+02  0.71414184373E+02  0.96035604674E+02  0.00000000000E+00 0.  1.
         13    1    4    4    0    0  0.54278442931E+02 -0.45421345325E+02  0.32848162815E+03  0.33601998157E+03  0.00000000000E+00 0. -1.
        -13    1    3    3    0    0 -0.12772765315E+02  0.27385103797E+02 -0.70952311560E+01  0.31039164758E+02  0.00000000000E+00 0.  1.
         13    1    3    3    0    0 -0.79455761816E+02  0.33059856286E+02  0.14262016523E+03  0.16657335836E+03  0.00000000000E+00 0. -1.
         -1    1    1    2    0  502 -0.73486692967E+01  0.30483248100E+02  0.56152660370E+02  0.64314482209E+02  0.00000000000E+00 0.  1.
<scales pt_clust_5="13000.00000" pt_clust_6="13000.00000" pt_clust_7="13000.00000" pt_clust_8="13000.00000" pt_clust_9="31.35652"></scales>
<clustering>
<clus scale="   31.357">  1  9  2 -1</clus>
<clus scale="   92.326">  7  8 -1 -1</clus>
<clus scale="   92.584">  5  6 -1 -1</clus>
<clus scale="  149.015">  2  7  1 -1</clus>
<clus scale="   31.357">  1  5  2 -1</clus>
</clustering>
</event>
<event>
 9    1  0.1315259E-005  0.1272467E+03  0.7546771E-02  0.1233130E+00
         -1   -1    0    0    0  501 -0.00000000000E+00  0.00000000000E+00  0.21788281913E+03  0.21788281913E+03  0.00000000000E+00 0.  1.
         21   -1    0    0  501  502  0.00000000000E+00 -0.00000000000E+00 -0.12346260727E+03  0.12346260727E+03  0.00000000000E+00 0.  1.
         23    2    1    2    0    0 -0.41254447365E+02 -0.65291257386E+02  0.62875327888E+02  0.13169492982E+03  0.86170586418E+02 0.  0.
         23    2    1    2    0    0  0.61524410047E+02  0.80129879406E+02  0.77756695752E+02  0.15705213503E+03  0.91723599891E+02 0.  0.
        -11    1    3    3    0    0  0.19534757452E+02 -0.47262865321E+02  0.18854931988E+02  0.54505904702E+02  0.00000000000E+00 0. -1.
         11    1    3    3    0    0 -0.60789204817E+02 -0.18028392065E+02  0.44020395900E+02  0.77189025114E+02  0.00000000000E+00 0.  1.
        -13    1    4    4    0    0 -0.23826251942E+02  0.23181564072E+02  0.12844754002E+02  0.35637941857E+02  0.00000000000E+00 0. -1.
         13    1    4    4    0    0  0.85350661989E+02  0.56948315335E+02  0.64911941750E+02  0.12141419317E+03  0.00000000000E+00 0.  1.
         -1    1    1    2    0  502 -0.20269962682E+02 -0.14838622020E+02 -0.46211811778E+02  0.52598361556E+02  0.00000000000E+00 0.  1.
<scales pt_clust_5="13000.00000" pt_clust_6="13000.00000" pt_clust_7="13000.00000" pt_clust_8="13000.00000" pt_clust_9="25.12083"></scales>
<clustering>
<clus scale="   25.121">  2  9  1 -1</clus>
<clus scale="   86.171">  5  6 -1 -1</clus>
<clus scale="   91.724">  7  8 -1 -1</clus>
<clus scale="  123.304">  1  5  2 -1</clus>
<clus scale="   25.121">  2  5  1 -1</clus>
</clustering>
</event>
<event>
 9    1  0.1315259E-005  0.1489651E+03  0.7546771E-02  0.1202793E+00
         -4   -1    0    0    0  501 -0.00000000000E+00  0.00000000000E+00  0.11238529098E+04  0.11238529098E+04  0.00000000000E+00 0.  1.
         21   -1    0    0  501  502  0.00000000000E+00 -0.00000000000E+00 -0.36204637719E+02  0.36204637719E+02  0.00000000000E+00 0. -1.
         23    2    1    2    0    0  0.65774049935E+02  0.86212745959E+02  0.81775836501E+03  0.83055112642E+03  0.96579329252E+02 0.  0.
         23    2    1    2    0    0 -0.73561981991E+02 -0.10900651979E+03  0.25524139563E+03  0.30131445597E+03  0.91369824244E+02 0.  0.
        -11    1    3    3    0    0  0.46145178807E+02 -0.98002731196E+01  0.27474708574E+03  0.27876761649E+03  0.00000000000E+00 0. -1.
         11    1    3    3    0    0  0.19628871128E+02  0.96013019078E+02  0.54301127927E+03  0.55178350993E+03  0.00000000000E+00 0.  1.
        -11    1    4    4    0    0 -0.13841181557E+02 -0.90198359961E+02  0.19061110205E+03  0.21132892530E+03  0.00000000000E+00 0.  1.
         11    1    4    4    0    0 -0.59720800434E+02 -0.18808159825E+02  0.64630293586E+02  0.89985530668E+02  0.00000000000E+00 0. -1.
         -4    1    1    2    0  502  0.77879320560E+01  0.22793773827E+02  0.14648511452E+02  0.28191965145E+02  0.00000000000E+00 0.  1.
<scales pt_clust_5="13000.00000" pt_clust_6="13000.00000" pt_clust_7="13000.00000" pt_clust_8="13000.00000" pt_clust_9="24.08751"></scales>
<clustering>
<clus scale="   24.088">  2  9  1 -1</clus>
<clus scale="   91.370">  7  8 -1 -1</clus>
<clus scale="   96.579">  5  6 -1 -1</clus>
<clus scale="  145.642">  2  7  1 -1</clus>
<clus scale="   24.088">  2  5  1 -1</clus>
</clustering>
</event>
<event>
 9    1  0.1315259E-005  0.1028992E+03  0.7546771E-02  0.1274346E+00
         -1   -1    0    0    0  501 -0.00000000000E+00  0.00000000000E+00  0.15999073927E+03  0.15999073927E+03  0.00000000000E+00 0.  1.
         21   -1    0    0  501  502  0.00000000000E+00 -0.00000000000E+00 -0.16527235023E+03  0.16527235023E+03  0.00000000000E+00 0.  1.
         23    2    1    2    0    0  0.35834916586E+00  0.39814558808E+02  0.62952275402E+02  0.11823144982E+03  0.91816987764E+02 0.  0.
         23    2    1    2    0    0 -0.29805926013E+02 -0.53648946441E+02  0.20724433374E+02  0.11231029724E+03  0.91746923912E+02 0.  0.
        -11    1    3    3    0    0 -0.26589748297E+02 -0.13095337924E+02 -0.26382634676E+01  0.29756730734E+02  0.00000000000E+00 0.  1.
         11    1    3    3    0    0  0.26948097463E+02  0.52909896732E+02  0.65590538870E+02  0.88474719091E+02  0.00000000000E+00 0. -1.
        -13    1    4    4    0    0 -0.18557904488E+02 -0.11982586203E+02 -0.35268284075E+02  0.41615262256E+02  0.00000000000E+00 0. -1.
         13    1    4    4    0    0 -0.11248021525E+02 -0.41666360238E+02  0.55992717449E+02  0.70695034982E+02  0.00000000000E+00 0.  1.
         -1    1    1    2    0  502  0.29447576847E+02  0.13834387633E+02 -0.88958319731E+02  0.94721342435E+02  0.00000000000E+00 0.  1.
<scales pt_clust_5="13000.00000" pt_clust_6="13000.00000" pt_clust_7="13000.00000" pt_clust_8="13000.00000" pt_clust_9="32.53537"></scales>
<clustering>
<clus scale="   32.535">  2  9  1 -1</clus>
<clus scale="   91.747">  7  8 -1 -1</clus>
<clus scale="   91.817">  5  6 -1 -1</clus>
<clus scale="  102.837">  2  7  1 -1</clus>
<clus scale="   32.535">  2  5  1 -1</clus>
</clustering>
</event>
<event>
 9    1  0.1315259E-005  0.1042813E+03  0.7546771E-02  0.1271696E+00
         -2   -1    0    0    0  501 -0.00000000000E+00  0.00000000000E+00  0.32174838190E+02  0.32174838190E+02  0.00000000000E+00 0.  1.
         21   -1    0    0  501  502  0.00000000000E+00 -0.00000000000E+00 -0.46695325941E+03  0.46695325941E+03  0.00000000000E+00 0. -1.
         23    2    1    2    0    0 -0.33719906214E+02 -0.38010467742E+02 -0.15347289030E+03  0.18538137787E+03  0.90722100232E+02 0.  0.
         23    2    1    2    0    0  0.51056864863E+02  0.20606643883E+02 -0.17388077073E+03  0.20354897782E+03  0.90367177228E+02 0.  0.
        -11    1    4    4    0    0 -0.57260652025E+01  0.40550562651E+02 -0.10128150337E+03  0.10924778661E+03  0.00000000000E+00 0.  1.
         11    1    4    4    0    0  0.56782930065E+02 -0.19943918767E+02 -0.72599267359E+02  0.94301191210E+02  0.00000000000E+00 0. -1.
        -13    1    3    3    0    0  0.13039194598E+01 -0.28220522644E+02 -0.61525945156E+00  0.28257329111E+02  0.00000000000E+00 0.  1.
         13    1    3    3    0    0 -0.35023825674E+02 -0.97899450980E+01 -0.15285763084E+03  0.15712404875E+03  0.00000000000E+00 0. -1.
         -2    1    1    2    0  502 -0.17336958649E+02  0.17403823859E+02 -0.10742476019E+03  0.11019774191E+03  0.00000000000E+00 0.  1.
<scales pt_clust_5="13000.00000" pt_clust_6="13000.00000" pt_clust_7="13000.00000" pt_clust_8="13000.00000" pt_clust_9="24.56549"></scales>
<clustering>
<clus scale="   24.565">  2  9  1 -1</clus>
<clus scale="   90.367">  5  6 -1 -1</clus>
<clus scale="   90.722">  7  8 -1 -1</clus>
<clus scale="  103.973">  2  5  1 -1</clus>
<clus scale="   24.565">  2  5  1 -1</clus>
</clustering>
</event>
<event>
 9    1  0.1315259E-005  0.1704121E+03  0.7546771E-02  0.1190983E+00
         21   -1    0    0  501  502  0.00000000000E+00  0.00000000000E+00  0.16859220189E+03  0.16859220189E+03  0.00000000000E+00 0. -1.
          2   -1    0    0  502    0 -0.00000000000E+00 -0.00000000000E+00 -0.55899562829E+03  0.55899562829E+03  0.00000000000E+00 0. -1.
         23    2    1    2    0    0 -0.79394801060E+02  0.32605676331E+02 -0.15251951948E+03  0.19777128318E+03  0.92111953966E+02 0.  0.
         23    2    1    2    0    0  0.61882672167E+02 -0.17268938792E+03 -0.30979555477E+03  0.37138231455E+03  0.91106794448E+02 0.  0.
        -11    1    3    3    0    0 -0.80797124636E+02 -0.53918483655E+01 -0.13120385412E+03  0.15418073393E+03  0.00000000000E+00 0. -1.
         11    1    3    3    0    0  0.14023235761E+01  0.37997524696E+02 -0.21315665364E+02  0.43590549255E+02  0.00000000000E+00 0.  1.
        -13    1    4    4    0    0 -0.19503756165E+02 -0.14240654164E+02 -0.20660214934E+02  0.31781082685E+02  0.00000000000E+00 0.  1.
         13    1    4    4    0    0  0.81386428331E+02 -0.15844873376E+03 -0.28913533983E+03  0.33960123187E+03  0.00000000000E+00 0. -1.
          2    1    1    2  501    0  0.17512128893E+02  0.14008371159E+03  0.71911647848E+02  0.15843423244E+03  0.00000000000E+00 0. -1.
<scales pt_clust_5="13000.00000" pt_clust_6="13000.00000" pt_clust_7="13000.00000" pt_clust_8="13000.00000" pt_clust_9="144.01335"></scales>
<clustering>
<clus scale="   91.107">  7  8 -1 -1</clus>
<clus scale="   92.112">  5  6 -1 -1</clus>
<clus scale="  125.902">  2  5  1 -1</clus>
<clus scale="  144.013">  1  9  2 -1</clus>
<clus scale="  144.013">  1  5  2 -1</clus>
</clustering>
</event>
<event>
 9    1  0.1315259E-005  0.2703712E+03  0.7546771E-02  0.1101129E+00
          2   -1    0    0  502    0 -0.00000000000E+00  0.00000000000E+00  0.14941578353E+04  0.14941578353E+04  0.00000000000E+00 0. -1.
         21   -1    0    0  501  502  0.00000000000E+00 -0.00000000000E+00 -0.12287269850E+03  0.12287269850E+03  0.00000000000E+00 0. -1.
         23    2    1    2    0    0 -0.20813294157E+03 -0.16383359304E+03  0.10972470925E+04  0.11325462631E+04  0.92461281232E+02 0.  0.
         23    2    1    2    0    0  0.86201316698E+02  0.22574220373E+03  0.20955978146E+03  0.33329748687E+03  0.93710742201E+02 0.  0.
        -13    1    3    3    0    0 -0.32716529783E+02 -0.18284928712E+02  0.61548399015E+02  0.72061885629E+02  0.00000000000E+00 0.  1.
         13    1    3    3    0    0 -0.17541641179E+03 -0.14554866433E+03  0.10356986935E+04  0.10604843775E+04  0.00000000000E+00 0. -1.
        -13    1    4    4    0    0  0.10331472586E+03  0.17080000122E+03  0.14442949450E+03  0.24638679323E+03  0.00000000000E+00 0. -1.
         13    1    4    4    0    0 -0.17113409162E+02  0.54942202505E+02  0.65130286959E+02  0.86910693638E+02  0.00000000000E+00 0.  1.
          2    1    1    2  501    0  0.12193162487E+03 -0.61908610688E+02  0.64478262856E+02  0.15118678382E+03  0.00000000000E+00 0. -1.
<scales pt_clust_5="13000.00000" pt_clust_6="13000.00000" pt_clust_7="13000.00000" pt_clust_8="13000.00000" pt_clust_9="136.74793"></scales>
<clustering>
<clus scale="   92.461">  5  6 -1 -1</clus>
<clus scale="   93.711">  7  8 -1 -1</clus>
<clus scale="  136.748">  2  9  1 -1</clus>
<clus scale="  269.941">  1  5  2 -1</clus>
<clus scale="  136.748">  2  5  1 -1</clus>
</clustering>
</event>
<event>
 9    1  0.1315259E-005  0.1025015E+03  0.7546771E-02  0.1278573E+00
          2   -1    0    0  502    0 -0.00000000000E+00  0.00000000000E+00  0.20644275392E+03  0.20644275392E+03  0.00000000000E+00 0. -1.
         21   -1    0    0  501  502  0.00000000000E+00 -0.00000000000E+00 -0.86586283459E+02  0.86586283459E+02  0.00000000000E+00 0.  1.
         23    2    1    2    0    0  0.20970103838E+02  0.24255712119E+01  0.91405596186E+02  0.12985986037E+03  0.89794051420E+02 0.  0.
         23    2    1    2    0    0 -0.63992585092E+02  0.35040484113E+01  0.29416028426E+02  0.11972926674E+03  0.96759833006E+02 0.  0.
        -13    1    4    4    0    0 -0.51369956522E+02  0.47597374780E+02  0.14658007131E+02  0.71548862269E+02  0.00000000000E+00 0. -1.
         13    1    4    4    0    0 -0.12622628570E+02 -0.44093326368E+02  0.14758021295E+02  0.48180404469E+02  0.00000000000E+00 0.  1.
        -13    1    3    3    0    0 -0.28507827543E+02 -0.53302102684E+01  0.69285067969E+02  0.75110105953E+02  0.00000000000E+00 0.  1.
         13    1    3    3    0    0  0.49477931381E+02  0.77557814803E+01  0.22120528217E+02  0.54749754417E+02  0.00000000000E+00 0. -1.
          2    1    1    2  501    0  0.43022481254E+02 -0.59296196232E+01 -0.96515414706E+00  0.43439910275E+02  0.00000000000E+00 0. -1.
<scales pt_clust_5="13000.00000" pt_clust_6="13000.00000" pt_clust_7="13000.00000" pt_clust_8="13000.00000" pt_clust_9="43.42919"></scales>
<clustering>
<clus scale="   43.429">  2  9  1 -1</clus>
<clus scale="   89.794">  7  8 -1 -1</clus>
<clus scale="   95.953">  1  7  2 -1</clus>
<clus scale="   96.760">  5  6 -1 -1</clus>
<clus scale="   43.429">  2  5  1 -1</clus>
</clustering>
</event>
<event>
 9    1  0.1315259E-005  0.9435733E+02  0.7546771E-02  0.1296830E+00
         21   -1    0    0  501  502  0.00000000000E+00  0.00000000000E+00  0.97997036197E+02  0.97997036197E+02  0.00000000000E+00 0.  1.
          3   -1    0    0  502    0 -0.00000000000E+00 -0.00000000000E+00 -0.25020993764E+03  0.25020993764E+03  0.00000000000E+00 0. -1.
         23    2    1    2    0    0 -0.12070954013E+02 -0.14435094831E+02 -0.16331334579E+03  0.18928333277E+03  0.93823511233E+02 0.  0.
         23    2    1    2    0    0 -0.44506750008E+02 -0.77260161349E+01  0.57422864815E+01  0.97924778064E+02  0.86693403343E+02 0.  0.
        -11    1    4    4    0    0 -0.22993742598E+02  0.39361741779E+02  0.71126775548E+01  0.46137285318E+02  0.00000000000E+00 0. -1.
         11    1    4    4    0    0 -0.21513007410E+02 -0.47087757914E+02 -0.13703910733E+01  0.51787492745E+02  0.00000000000E+00 0.  1.
        -11    1    3    3    0    0  0.17516717876E+02 -0.20706845478E+02 -0.43505480669E+01  0.27468820930E+02  0.00000000000E+00 0. -1.
         11    1    3    3    0    0 -0.29587671889E+02  0.62717506475E+01 -0.15896279772E+03  0.16181451184E+03  0.00000000000E+00 0.  1.
          3    1    1    2  501    0  0.56577704021E+02  0.22161110966E+02  0.53581578642E+01  0.60998862999E+02  0.00000000000E+00 0. -1.
<scales pt_clust_5="13000.00000" pt_clust_6="13000.00000" pt_clust_7="13000.00000" pt_clust_8="13000.00000" pt_clust_9="60.76308"></scales>
<clustering>
<clus scale="   60.763">  1  9  2 -1</clus>
<clus scale="   86.693">  5  6 -1 -1</clus>
<clus scale="   87.271">  1  5  2 -1</clus>
<clus scale="   93.824">  7  8 -1 -1</clus>
<clus scale="   60.763">  1  5  2 -1</clus>
</clustering>
</event>
<event>
 9    1  0.1315259E-005  0.1030737E+03  0.7546771E-02  0.1274233E+00
         21   -1    0    0  501  502  0.00000000000E+00  0.00000000000E+00  0.77306309851E+02  0.77306309851E+02  0.00000000000E+00 0.  1.
          4   -1    0    0  502    0 -0.00000000000E+00 -0.00000000000E+00 -0.20601235835E+03  0.20601235835E+03  0.00000000000E+00 0. -1.
         23    2    1    2    0    0 -0.48897241956E+02 -0.17876088672E+02 -0.86258894560E+02  0.13608431034E+03  0.91475941174E+02 0.  0.
         23    2    1    2    0    0  0.41585631518E+02 -0.12662432659E+01 -0.62301728343E+02  0.11870204909E+03  0.92074442609E+02 0.  0.
        -11    1    4    4    0    0  0.20992655641E+02  0.44780123123E+02 -0.39740597733E+02  0.63444985034E+02  0.00000000000E+00 0. -1.
         11    1    4    4    0    0  0.20592975878E+02 -0.46046366389E+02 -0.22561130610E+02  0.55257064051E+02  0.00000000000E+00 0.  1.
        -11    1    3    3    0    0 -0.62443398082E+02  0.11209304575E+02 -0.27519284698E+02  0.69153000682E+02  0.00000000000E+00 0. -1.
         11    1    3    3    0    0  0.13546156126E+02 -0.29085393247E+02 -0.58739609862E+02  0.66931309661E+02  0.00000000000E+00 0.  1.
          4    1    1    2  501    0  0.73116104373E+01  0.19142331938E+02  0.19854574404E+02  0.28532308774E+02  0.00000000000E+00 0. -1.
<scales pt_clust_5="13000.00000" pt_clust_6="13000.00000" pt_clust_7="13000.00000" pt_clust_8="13000.00000" pt_clust_9="20.49118"></scales>
<clustering>
<clus scale="   20.491">  1  9  2 -1</clus>
<clus scale="   91.476">  7  8 -1 -1</clus>
<clus scale="   92.074">  5  6 -1 -1</clus>
<clus scale="  102.539">  2  7  1 -1</clus>
<clus scale="   20.491">  1  5  2 -1</clus>
</clustering>
</event>
<event>
 9    1  0.1315259E-005  0.1015789E+03  0.7546771E-02  0.1277225E+00
          1   -1    0    0  502    0 -0.00000000000E+00  0.00000000000E+00  0.34501582510E+02  0.34501582510E+02  0.00000000000E+00 0. -1.
         21   -1    0    0  501  502  0.00000000000E+00 -0.00000000000E+00 -0.62323159500E+03  0.62323159500E+03  0.00000000000E+00 0. -1.
         23    2    1    2    0    0 -0.19562323884E+02 -0.25720688394E+02 -0.26967140115E+03  0.28597539477E+03  0.89526663545E+02 0.  0.
         23    2    1    2    0    0  0.15461660347E+02  0.64506877790E+02 -0.31289783606E+03  0.33227184751E+03  0.89996247792E+02 0.  0.
        -11    1    4    4    0    0  0.26426267707E+01 -0.20242569288E+02 -0.27296715867E+02  0.34086005702E+02  0.00000000000E+00 0.  1.
         11    1    4    4    0    0  0.12819033576E+02  0.84749447077E+02 -0.28560112019E+03  0.29818584181E+03  0.00000000000E+00 0. -1.
        -13    1    3    3    0    0  0.25339739164E+02  0.18930394081E+02 -0.80754243284E+02  0.86727792600E+02  0.00000000000E+00 0. -1.
         13    1    3    3    0    0 -0.44902063048E+02 -0.44651082475E+02 -0.18891715787E+03  0.19924760217E+03  0.00000000000E+00 0.  1.
          1    1    1    2  501    0  0.41006635372E+01 -0.38786189395E+02 -0.61607752846E+01  0.39485935235E+02  0.00000000000E+00 0. -1.
<scales pt_clust_5="13000.00000" pt_clust_6="13000.00000" pt_clust_7="13000.00000" pt_clust_8="13000.00000" pt_clust_9="39.00238"></scales>
<clustering>
<clus scale="   39.002">  2  9  1 -1</clus>
<clus scale="   89.527">  7  8 -1 -1</clus>
<clus scale="   89.996">  5  6 -1 -1</clus>
<clus scale="  101.163">  1  7  2 -1</clus>
<clus scale="   39.002">  2  5  1 -1</clus>
</clustering>
</event>
<event>
 9    1  0.1315259E-005  0.1238880E+03  0.7546771E-02  0.1236995E+00
         -1   -1    0    0    0  501 -0.00000000000E+00  0.00000000000E+00  0.10982869027E+03  0.10982869027E+03  0.00000000000E+00 0.  1.
         21   -1    0    0  501  502  0.00000000000E+00 -0.00000000000E+00 -0.22062256449E+03  0.22062256449E+03  0.00000000000E+00 0. -1.
         23    2    1    2    0    0 -0.31139153482E+02  0.70834627365E+02  0.15636825068E+02  0.12210740976E+03  0.93158563244E+02 0.  0.
         23    2    1    2    0    0  0.63568749302E+02 -0.71048805591E+02 -0.96595762124E+02  0.16427744020E+03  0.92560344831E+02 0.  0.
        -11    1    3    3    0    0 -0.19693911665E+02  0.34779114914E+02  0.54689346341E+02  0.67737446025E+02  0.00000000000E+00 0.  1.
         11    1    3    3    0    0 -0.11445241817E+02  0.36055512451E+02 -0.39052521272E+02  0.54369963731E+02  0.00000000000E+00 0. -1.
        -13    1    4    4    0    0  0.19746582952E+02  0.10855847240E+02 -0.60603352803E+02  0.64657121251E+02  0.00000000000E+00 0.  1.
         13    1    4    4    0    0  0.43822166350E+02 -0.81904652832E+02 -0.35992409321E+02  0.99620318951E+02  0.00000000000E+00 0. -1.
         -1    1    1    2    0  502 -0.32429595820E+02  0.21417822620E+00 -0.29834937161E+02  0.44066404809E+02  0.00000000000E+00 0.  1.
<scales pt_clust_5="13000.00000" pt_clust_6="13000.00000" pt_clust_7="13000.00000" pt_clust_8="13000.00000" pt_clust_9="32.43030"></scales>
<clustering>
<clus scale="   32.430">  2  9  1 -1</clus>
<clus scale="   92.560">  7  8 -1 -1</clus>
<clus scale="   93.159">  5  6 -1 -1</clus>
<clus scale="  123.439">  2  7  1 -1</clus>
<clus scale="   32.430">  2  5  1 -1</clus>
</clustering>
</event>
<event>
 9    1  0.1315259E-005  0.1106339E+03  0.7546771E-02  0.1259906E+00
         21   -1    0    0  501  502  0.00000000000E+00  0.00000000000E+00  0.44887212841E+02  0.44887212841E+02  0.00000000000E+00 0.  1.
          4   -1    0    0  502    0 -0.00000000000E+00 -0.00000000000E+00 -0.62310292070E+03  0.62310292070E+03  0.00000000000E+00 0. -1.
         23    2    1    2    0    0  0.56221677519E+02  0.31131248257E+02 -0.46553801444E+03  0.47945228676E+03  0.94967472054E+02 0.  0.
         23    2    1    2    0    0 -0.17880313500E+02 -0.23644941057E+02 -0.11037659316E+03  0.14940473992E+03  0.96228868568E+02 0.  0.
        -13    1    3    3    0    0  0.35361174955E+02 -0.27500170278E+02 -0.11469081506E+03  0.12312861210E+03  0.00000000000E+00 0.  1.
         13    1    3    3    0    0  0.20860502564E+02  0.58631418535E+02 -0.35084719938E+03  0.35632367465E+03  0.00000000000E+00 0. -1.
        -13    1    4    4    0    0  0.36932468508E+02 -0.17960309763E+02 -0.69745669153E+02  0.80938484805E+02  0.00000000000E+00 0.  1.
         13    1    4    4    0    0 -0.54812782008E+02 -0.56846312933E+01 -0.40630924006E+02  0.68466255119E+02  0.00000000000E+00 0. -1.
          4    1    1    2  501    0 -0.38341364020E+02 -0.74863072002E+01 -0.23011002661E+01  0.39133106864E+02  0.00000000000E+00 0. -1.
<scales pt_clust_5="13000.00000" pt_clust_6="13000.00000" pt_clust_7="13000.00000" pt_clust_8="13000.00000" pt_clust_9="39.06539"></scales>
<clustering>
<clus scale="   39.065">  1  9  2 -1</clus>
<clus scale="   94.967">  5  6 -1 -1</clus>
<clus scale="   96.229">  7  8 -1 -1</clus>
<clus scale="  109.539">  2  5  1 -1</clus>
<clus scale="   39.065">  1  5  2 -1</clus>
</clustering>
</event>
<event>
 9    1  0.1315259E-005  0.1538450E+03  0.7546771E-02  0.1206665E+00
          2   -1    0    0  502    0 -0.00000000000E+00  0.00000000000E+00  0.21387853526E+03  0.21387853526E+03  0.00000000000E+00 0. -1.
         21   -1    0    0  501  502  0.00000000000E+00 -0.00000000000E+00 -0.10763175981E+04  0.10763175981E+04  0.00000000000E+00 0. -1.
         23    2    1    2    0    0  0.79633227560E+01 -0.79135341434E+02  0.16226448323E+03  0.20279264683E+03  0.92028682052E+02 0.  0.
         23    2    1    2    0    0 -0.99144739809E+02 -0.16235424383E+02 -0.14715288646E+03  0.19998881797E+03  0.90820079736E+02 0.  0.
        -11    1    4    4    0    0 -0.41140331361E+02 -0.41258839421E+02 -0.26947754356E+02  0.64195016627E+02  0.00000000000E+00 0.  1.
         11    1    4    4    0    0 -0.58004408448E+02  0.25023415038E+02 -0.12020513210E+03  0.13579380134E+03  0.00000000000E+00 0. -1.
        -13    1    3    3    0    0 -0.24312507087E+02 -0.23452568596E+02  0.12265125677E+03  0.12721812670E+03  0.00000000000E+00 0. -1.
         13    1    3    3    0    0  0.32275829843E+02 -0.55682772838E+02  0.39613226459E+02  0.75574520134E+02  0.00000000000E+00 0.  1.
          2    1    1    2  501    0  0.91181417053E+02  0.95370765817E+02 -0.87755065962E+03  0.88741466857E+03  0.00000000000E+00 0. -1.
<scales pt_clust_5="13000.00000" pt_clust_6="13000.00000" pt_clust_7="13000.00000" pt_clust_8="13000.00000" pt_clust_9="124.17728"></scales>
<clustering>
<clus scale="   90.820">  5  6 -1 -1</clus>
<clus scale="   92.029">  7  8 -1 -1</clus>
<clus scale="  121.635">  1  7  2 -1</clus>
<clus scale="  124.177">  2  9  1 -1</clus>
<clus scale="  124.177">  2  5  1 -1</clus>
</clustering>
</event>
<event>
 9    1  0.1315259E-005  0.1204849E+03  0.7546771E-02  0.1242442E+00
         -1   -1    0    0    0  501 -0.00000000000E+00  0.00000000000E+00  0.16930726739E+03  0.16930726739E+03  0.00000000000E+00 0.  1.
         21   -1    0    0  501  502  0.00000000000E+00 -0.00000000000E+00 -0.28086128340E+03  0.28086128340E+03  0.00000000000E+00 0. -1.
         23    2    1    2    0    0 -0.63659405264E+02 -0.20692016451E+02  0.70291882801E+02  0.13252882736E+03  0.90234482711E+02 0.  0.
         23    2    1    2    0    0  0.10014396727E+03  0.50308417057E+02 -0.15755722611E+02  0.14502975536E+03  0.90695292802E+02 0.  0.
        -13    1    3    3    0    0  0.19476779212E+02  0.12152548848E+02  0.13824720634E+02  0.26798363244E+02  0.00000000000E+00 0. -1.
         13    1    3    3    0    0 -0.83136184475E+02 -0.32844565299E+02  0.56467162168E+02  0.10573046412E+03  0.00000000000E+00 0.  1.
        -13    1    4    4    0    0  0.10295737782E+03  0.27029584208E+02  0.13761801096E+02  0.10733222833E+03  0.00000000000E+00 0. -1.
         13    1    4    4    0    0 -0.28134105491E+01  0.23278832849E+02 -0.29517523707E+02  0.37697527022E+02  0.00000000000E+00 0.  1.
         -1    1    1    2    0  502 -0.36484562007E+02 -0.29616400606E+02 -0.16609017619E+03  0.17260996807E+03  0.00000000000E+00 0.  1.
<scales pt_clust_5="13000.00000" pt_clust_6="13000.00000" pt_clust_7="13000.00000" pt_clust_8="13000.00000" pt_clust_9="46.99207"></scales>
<clustering>
<clus scale="   46.992">  2  9  1 -1</clus>
<clus scale="   90.234">  5  6 -1 -1</clus>
<clus scale="   90.695">  7  8 -1 -1</clus>
<clus scale="  120.138">  1  5  2 -1</clus>
<clus scale="   46.992">  2  5  1 -1</clus>
</clustering>
</event>
<event>
 9    1  0.1315259E-005  0.2242903E+03  0.7546771E-02  0.1167026E+00
          2   -1    0    0  502    0 -0.00000000000E+00  0.00000000000E+00  0.27315459248E+03  0.27315459248E+03  0.00000000000E+00 0. -1.
         21   -1    0    0  501  502  0.00000000000E+00 -0.00000000000E+00 -0.72476332197E+03  0.72476332197E+03  0.00000000000E+00 0. -1.
         23    2    1    2    0    0 -0.25530350380E+02  0.78164951710E+01  0.13690004707E+03  0.16647015873E+03  0.90872407653E+02 0.  0.
         23    2    1    2    0    0  0.21986015088E+03  0.47826142687E+02 -0.38351191152E+02  0.24533040972E+03  0.89946485189E+02 0.  0.
        -13    1    4    4    0    0  0.19028426992E+03  0.17444585244E+02 -0.46008101408E+01  0.19113760590E+03  0.00000000000E+00 0. -1.
         13    1    4    4    0    0  0.29575880960E+02  0.30381557443E+02 -0.33750381011E+02  0.54192803817E+02  0.00000000000E+00 0.  1.
        -13    1    3    3    0    0 -0.41918186528E+02 -0.31281037986E+02  0.74030252400E+02  0.90642793259E+02  0.00000000000E+00 0. -1.
         13    1    3    3    0    0  0.16387836147E+02  0.39097533157E+02  0.62869794666E+02  0.75827365469E+02  0.00000000000E+00 0.  1.
          2    1    1    2  501    0 -0.19432980050E+03 -0.55642637858E+02 -0.55015758541E+03  0.58611734601E+03  0.00000000000E+00 0. -1.
<scales pt_clust_5="13000.00000" pt_clust_6="13000.00000" pt_clust_7="13000.00000" pt_clust_8="13000.00000" pt_clust_9="205.46479"></scales>
<clustering>
<clus scale="   89.946">  5  6 -1 -1</clus>
<clus scale="   90.872">  7  8 -1 -1</clus>
<clus scale="   94.714">  1  7  2 -1</clus>
<clus scale="  205.465">  2  9  1 -1</clus>
<clus scale="  205.465">  2  5  1 -1</clus>
</clustering>
</event>
<event>
 9    1  0.1315259E-005  0.1289876E+03  0.7546771E-02  0.1229624E+00
         21   -1    0    0  501  502  0.00000000000E+00  0.00000000000E+00  0.22180005671E+03  0.22180005671E+03  0.00000000000E+00 0.  1.
          2   -1    0    0  502    0 -0.00000000000E+00 -0.00000000000E+00 -0.33702503073E+03  0.33702503073E+03  0.00000000000E+00 0. -1.
         23    2    1    2    0    0 -0.47853579367E+02  0.73411539331E+02 -0.28626148668E+03  0.31282067924E+03  0.90729925826E+02 0.  0.
         23    2    1    2    0    0  0.40513213426E+02 -0.10395186979E+03  0.13812408817E+03  0.20050912885E+03  0.93157583287E+02 0.  0.
        -11    1    3    3    0    0 -0.73308607430E+02  0.39467398407E+02 -0.20183017575E+03  0.21832830166E+03  0.00000000000E+00 0. -1.
         11    1    3    3    0    0  0.25455028063E+02  0.33944140924E+02 -0.84431310926E+02  0.94492377584E+02  0.00000000000E+00 0.  1.
        -13    1    4    4    0    0 -0.11449648522E+02 -0.87849780185E+02  0.10250915578E+03  0.13548728852E+03  0.00000000000E+00 0.  1.
         13    1    4    4    0    0  0.51962861949E+02 -0.16102089606E+02  0.35614932391E+02  0.65021840337E+02  0.00000000000E+00 0. -1.
          2    1    1    2  501    0  0.73403659402E+01  0.30540330460E+02  0.32912424492E+02  0.45495279345E+02  0.00000000000E+00 0. -1.
<scales pt_clust_5="13000.00000" pt_clust_6="13000.00000" pt_clust_7="13000.00000" pt_clust_8="13000.00000" pt_clust_9="31.41007"></scales>
<clustering>
<clus scale="   31.410">  1  9  2 -1</clus>
<clus scale="   90.730">  5  6 -1 -1</clus>
<clus scale="   93.158">  7  8 -1 -1</clus>
<clus scale="  127.245">  2  5  1 -1</clus>
<clus scale="   31.410">  1  5  2 -1</clus>
</clustering>
</event>
<event>
 9    1  0.1315259E-005  0.1055936E+03  0.7546771E-02  0.1269008E+00
         21   -1    0    0  501  502  0.00000000000E+00  0.00000000000E+00  0.10153098866E+03  0.10153098866E+03  0.00000000000E+00 0.  1.
          2   -1    0    0  502    0 -0.00000000000E+00 -0.00000000000E+00 -0.36850649296E+03  0.36850649296E+03  0.00000000000E+00 0. -1.
         23    2    1    2    0    0 -0.80744225254E+01  0.49910492363E+02 -0.20903799844E+03  0.23368826994E+03  0.91417007000E+02 0.  0.
         23    2    1    2    0    0 -0.81473332366E+02 -0.63315704645E+02 -0.25132106351E+02  0.14004399708E+03  0.91290284291E+02 0.  0.
        -13    1    3    3    0    0  0.23561730554E+02 -0.16500246892E+02 -0.81879693904E+02  0.86785353419E+02  0.00000000000E+00 0.  1.
         13    1    3    3    0    0 -0.31636153080E+02  0.66410739255E+02 -0.12715830454E+03  0.14690291652E+03  0.00000000000E+00 0. -1.
        -13    1    4    4    0    0 -0.26142900057E+02 -0.23650549683E+02  0.34658258172E+02  0.49436773593E+02  0.00000000000E+00 0.  1.
         13    1    4    4    0    0 -0.55330432309E+02 -0.39665154962E+02 -0.59790364523E+02  0.90607223484E+02  0.00000000000E+00 0. -1.
          2    1    1    2  501    0  0.89547754892E+02  0.13405212282E+02 -0.32805399503E+02  0.96305214599E+02  0.00000000000E+00 0. -1.
<scales pt_clust_5="13000.00000" pt_clust_6="13000.00000" pt_clust_7="13000.00000" pt_clust_8="13000.00000" pt_clust_9="90.54557"></scales>
<clustering>
<clus scale="   90.546">  1  9  2 -1</clus>
<clus scale="   91.290">  7  8 -1 -1</clus>
<clus scale="   91.417">  5  6 -1 -1</clus>
<clus scale="  105.484">  1  7  2 -1</clus>
<clus scale="   90.546">  1  5  2 -1</clus>
</clustering>
</event>
<event>
 9    1  0.1315259E-005  0.9184136E+02  0.7546771E-02  0.1300586E+00
         21   -1    0    0  501  502  0.00000000000E+00  0.00000000000E+00  0.32148267615E+03  0.32148267615E+03  0.00000000000E+00 0. -1.
          1   -1    0    0  502    0 -0.00000000000E+00 -0.00000000000E+00 -0.38276360365E+03  0.38276360365E+03  0.00000000000E+00 0. -1.
         23    2    1    2    0    0 -0.15525676635E+02 -0.40838079951E+01 -0.30700331072E+03  0.31970626659E+03  0.87768673101E+02 0.  0.
         23    2    1    2    0    0 -0.26759024270E+02  0.34892612251E+01 -0.34387924977E+02  0.10125546690E+03  0.91334111202E+02 0.  0.
        -11    1    3    3    0    0 -0.49783687885E+01  0.41423292723E+02 -0.12379769622E+03  0.13063897935E+03  0.00000000000E+00 0.  1.
         11    1    3    3    0    0 -0.10547307847E+02 -0.45507100718E+02 -0.18320561450E+03  0.18906728724E+03  0.00000000000E+00 0. -1.
        -13    1    4    4    0    0 -0.49242847139E+02 -0.12426552588E+02  0.72792522787E+01  0.51305601228E+02  0.00000000000E+00 0. -1.
         13    1    4    4    0    0  0.22483822870E+02  0.15915813813E+02 -0.41667177255E+02  0.49949865672E+02  0.00000000000E+00 0.  1.
          1    1    1    2  501    0  0.42284700905E+02  0.59454677002E+00  0.28011030820E+03  0.28328454631E+03  0.00000000000E+00 0. -1.
<scales pt_clust_5="13000.00000" pt_clust_6="13000.00000" pt_clust_7="13000.00000" pt_clust_8="13000.00000" pt_clust_9="42.28888"></scales>
<clustering>
<clus scale="   42.289">  1  9  2 -1</clus>
<clus scale="   87.769">  5  6 -1 -1</clus>
<clus scale="   88.296">  2  5  1 -1</clus>
<clus scale="   91.334">  7  8 -1 -1</clus>
<clus scale="   42.289">  1  5  2 -1</clus>
</clustering>
</event>
<event>
 9    1  0.1315259E-005  0.1098411E+03  0.7546771E-02  0.1268125E+00
          4   -1    0    0  502    0 -0.00000000000E+00  0.00000000000E+00  0.28641309048E+03  0.28641309048E+03  0.00000000000E+00 0. -1.
         21   -1    0    0  501  502  0.00000000000E+00 -0.00000000000E+00 -0.65712706683E+02  0.65712706683E+02  0.00000000000E+00 0.  1.
         23    2    1    2    0    0 -0.73203588285E+02 -0.78736887462E+01  0.15289086740E+03  0.19307889599E+03  0.92103650465E+02 0.  0.
         23    2    1    2    0    0  0.42636875612E+02 -0.29457092620E+02  0.63590937568E+02  0.11061439588E+03  0.74203192442E+02 0.  0.
        -11    1    4    4    0    0  0.16419436530E+02  0.23971240772E+02  0.10603004250E+02  0.30929629471E+02  0.00000000000E+00 0. -1.
         11    1    4    4    0    0  0.26217439082E+02 -0.53428333392E+02  0.52987933318E+02  0.79684766413E+02  0.00000000000E+00 0.  1.
        -13    1    3    3    0    0 -0.27117987254E+02 -0.47640496537E+02  0.91238834306E+02  0.10644025098E+03  0.00000000000E+00 0.  1.
         13    1    3    3    0    0 -0.46085601031E+02  0.39766807791E+02  0.61652033095E+02  0.86638645009E+02  0.00000000000E+00 0. -1.
          4    1    1    2  501    0  0.30566712673E+02  0.37330781366E+02  0.42185788234E+01  0.48432505287E+02  0.00000000000E+00 0. -1.
<scales pt_clust_5="13000.00000" pt_clust_6="13000.00000" pt_clust_7="13000.00000" pt_clust_8="13000.00000" pt_clust_9="48.24843"></scales>
<clustering>
<clus scale="   48.248">  2  9  1 -1</clus>
<clus scale="   74.203">  5  6 -1 -1</clus>
<clus scale="   92.104">  7  8 -1 -1</clus>
<clus scale="   95.331">  2  5  1 -1</clus>
<clus scale="   48.248">  2  5  1 -1</clus>
</clustering>
</event>
<event>
 9    1  0.1315259E-005  0.9282294E+02  0.7546771E-02  0.1297948E+00
          1   -1    0    0  502    0 -0.00000000000E+00  0.00000000000E+00  0.30851238590E+03  0.30851238590E+03  0.00000000000E+00 0. -1.
         21   -1    0    0  501  502  0.00000000000E+00 -0.00000000000E+00 -0.81355415933E+02  0.81355415933E+02  0.00000000000E+00 0. -1.
         23    2    1    2    0    0 -0.18402770466E+01 -0.17420399563E+02  0.18023164844E+03  0.20243865595E+03  0.90504725758E+02 0.  0.
         23    2    1    2    0    0  0.30949775815E+02  0.14799413597E+02  0.93461783995E+02  0.13247575814E+03  0.87394565972E+02 0.  0.
        -11    1    3    3    0    0  0.83598060362E+01 -0.35503980853E+02  0.17783707266E+03  0.18153909614E+03  0.00000000000E+00 0. -1.
         11    1    3    3    0    0 -0.10200083083E+02  0.18083581289E+02  0.23945757709E+01  0.20899559810E+02  0.00000000000E+00 0.  1.
        -13    1    4    4    0    0  0.54885083641E+02  0.14207084445E+01  0.28274898908E+02  0.61756463039E+02  0.00000000000E+00 0. -1.
         13    1    4    4    0    0 -0.23935307826E+02  0.13378705152E+02  0.65186885087E+02  0.70719295101E+02  0.00000000000E+00 0.  1.
          1    1    1    2  501    0 -0.29109498768E+02  0.26209859662E+01 -0.46536462462E+02  0.54953387743E+02  0.00000000000E+00 0. -1.
<scales pt_clust_5="13000.00000" pt_clust_6="13000.00000" pt_clust_7="13000.00000" pt_clust_8="13000.00000" pt_clust_9="29.22726"></scales>
<clustering>
<clus scale="   29.227">  2  9  1 -1</clus>
<clus scale="   87.395">  7  8 -1 -1</clus>
<clus scale="   89.793">  2  7  1 -1</clus>
<clus scale="   90.505">  5  6 -1 -1</clus>
<clus scale="   29.227">  2  5  1 -1</clus>
</clustering>
</event>
<event>
 9    1  0.1315259E-005  0.1315282E+03  0.7546771E-02  0.1225232E+00
         -1   -1    0    0    0  501 -0.00000000000E+00  0.00000000000E+00  0.16555072453E+03  0.16555072453E+03  0.00000000000E+00 0.  1.
         21   -1    0    0  501  502  0.00000000000E+00 -0.00000000000E+00 -0.23182834035E+03  0.23182834035E+03  0.00000000000E+00 0. -1.
         23    2    1    2    0    0 -0.40568862623E+02  0.45736712906E+02 -0.34667275485E+02  0.11595285887E+03  0.92225625335E+02 0.  0.
         23    2    1    2    0    0  0.82064673370E+02 -0.12421062331E+03 -0.64766508311E+02  0.18666657116E+03  0.92123930823E+02 0.  0.
        -11    1    3    3    0    0 -0.40831362263E+02 -0.21682268250E+01 -0.50974684251E+02  0.65347683864E+02  0.00000000000E+00 0. -1.
         11    1    3    3    0    0  0.26249963973E+00  0.47904939731E+02  0.16307408766E+02  0.50605175006E+02  0.00000000000E+00 0.  1.
        -11    1    4    4    0    0  0.10014252944E+03 -0.83110221077E+02 -0.49714278806E+02  0.13931024574E+03  0.00000000000E+00 0. -1.
         11    1    4    4    0    0 -0.18077856074E+02 -0.41100402232E+02 -0.15052229505E+02  0.47356325416E+02  0.00000000000E+00 0.  1.
         -1    1    1    2    0  502 -0.41495810746E+02  0.78473910402E+02  0.33156167978E+02  0.94759634858E+02  0.00000000000E+00 0.  1.
<scales pt_clust_5="13000.00000" pt_clust_6="13000.00000" pt_clust_7="13000.00000" pt_clust_8="13000.00000" pt_clust_9="88.76973"></scales>
<clustering>
<clus scale="   88.770">  2  9  1 -1</clus>
<clus scale="   92.124">  7  8 -1 -1</clus>
<clus scale="   92.226">  5  6 -1 -1</clus>
<clus scale="  131.457">  2  7  1 -1</clus>
<clus scale="   88.770">  2  5  1 -1</clus>
</clustering>
</event>
<event>
 9    1  0.1315259E-005  0.2252651E+03  0.7546771E-02  0.1163933E+00
         21   -1    0    0  501  502  0.00000000000E+00  0.00000000000E+00  0.29828623309E+03  0.29828623309E+03  0.00000000000E+00 0. -1.
          3   -1    0    0  502    0 -0.00000000000E+00 -0.00000000000E+00 -0.41457966176E+03  0.41457966176E+03  0.00000000000E+00 0. -1.
         23    2    1    2    0    0  0.31042124728E+02  0.26451503532E+02 -0.23916392521E+03  0.25938268971E+03  0.91742580372E+02 0.  0.
         23    2    1    2    0    0  0.11992628386E+03 -0.16821067138E+03  0.35267841460E+02  0.22862470022E+03  0.91368973848E+02 0.  0.
        -13    1    3    3    0    0 -0.89956788805E+01  0.45405998289E+02 -0.17763167227E+03  0.18356371622E+03  0.00000000000E+00 0.  1.
         13    1    3    3    0    0  0.40037803609E+02 -0.18954494757E+02 -0.61532252935E+02  0.75818973487E+02  0.00000000000E+00 0. -1.
        -13    1    4    4    0    0 -0.19752210916E-01 -0.46208165190E+02  0.34274731099E+02  0.57532183274E+02  0.00000000000E+00 0. -1.
         13    1    4    4    0    0  0.11994603607E+03 -0.12200250619E+03  0.99311036074E+00  0.17109251695E+03  0.00000000000E+00 0.  1.
          3    1    1    2  501    0 -0.15096840859E+03  0.14175916785E+03  0.87602655072E+02  0.22485850493E+03  0.00000000000E+00 0. -1.
<scales pt_clust_5="13000.00000" pt_clust_6="13000.00000" pt_clust_7="13000.00000" pt_clust_8="13000.00000" pt_clust_9="205.90313"></scales>
<clustering>
<clus scale="   91.369">  7  8 -1 -1</clus>
<clus scale="   91.743">  5  6 -1 -1</clus>
<clus scale="  100.399">  2  5  1 -1</clus>
<clus scale="  205.903">  1  9  2 -1</clus>
<clus scale="  205.903">  1  5  2 -1</clus>
</clustering>
</event>
<event>
 9    1  0.1791985E-005  0.9729391E+02  0.7546771E-02  0.1288197E+00
         21   -1    0    0  501  502  0.00000000000E+00  0.00000000000E+00  0.16660268789E+03  0.16660268789E+03  0.00000000000E+00 0.  1.
          1   -1    0    0  502    0 -0.00000000000E+00 -0.00000000000E+00 -0.12594355484E+03  0.12594355484E+03  0.00000000000E+00 0. -1.
         23    2    1    2    0    0 -0.77364585018E+01  0.29796861068E+02 -0.77903119449E+02  0.12519563999E+03  0.93044863012E+02 0.  0.
         23    2    1    2    0    0 -0.15346459125E+02 -0.20118375134E+02  0.99161348085E+02  0.13568217575E+03  0.89086570459E+02 0.  0.
        -11    1    3    3    0    0 -0.20627134829E+02 -0.29860491193E+02 -0.22068887484E+02  0.42475444910E+02  0.00000000000E+00 0.  1.
         11    1    3    3    0    0  0.12890676328E+02  0.59657352261E+02 -0.55834231965E+02  0.82720195080E+02  0.00000000000E+00 0. -1.
        -13    1    4    4    0    0 -0.25415107541E+01 -0.55200286940E+02  0.59916496769E+02  0.81507775949E+02  0.00000000000E+00 0.  1.
         13    1    4    4    0    0 -0.12804948371E+02  0.35081911806E+02  0.39244851316E+02  0.54174399799E+02  0.00000000000E+00 0. -1.
          1    1    1    2  501    0  0.23082917626E+02 -0.96784859343E+01  0.19400904413E+02  0.31668426992E+02  0.00000000000E+00 0. -1.
<scales pt_clust_5="13000.00000" pt_clust_6="13000.00000" pt_clust_7="13000.00000" pt_clust_8="13000.00000" pt_clust_9="25.02987"></scales>
<clustering>
<clus scale="   25.030">  1  9  2 -1</clus>
<clus scale="   89.087">  7  8 -1 -1</clus>
<clus scale="   93.045">  5  6 -1 -1</clus>
<clus scale="   93.516">  1  7  2 -1</clus>
<clus scale="   25.030">  1  5  2 -1</clus>
</clustering>
</event>
<event>
 9    1  0.1315259E-005  0.1460646E+03  0.7546771E-02  0.1205606E+00
          3   -1    0    0  502    0 -0.00000000000E+00  0.00000000000E+00  0.46298729248E+03  0.46298729248E+03  0.00000000000E+00 0. -1.
         21   -1    0    0  501  502  0.00000000000E+00 -0.00000000000E+00 -0.10912510329E+03  0.10912510329E+03  0.00000000000E+00 0. -1.
         23    2    1    2    0    0  0.78974967578E+02 -0.57243088150E+02  0.20864576693E+03  0.24804182756E+03  0.92075379553E+02 0.  0.
         23    2    1    2    0    0 -0.16626976398E+03  0.21498443085E+02  0.12356332854E+03  0.22728773089E+03  0.91016476430E+02 0.  0.
        -11    1    4    4    0    0 -0.15393241264E+03 -0.63683402203E+01  0.12243798315E+03  0.19679126794E+03  0.00000000000E+00 0. -1.
         11    1    4    4    0    0 -0.12337351339E+02  0.27866783305E+02  0.11253453852E+01  0.30496462944E+02  0.00000000000E+00 0.  1.
        -13    1    3    3    0    0  0.17568393455E+02  0.25545473327E+02  0.45341187735E+02  0.54927615653E+02  0.00000000000E+00 0.  1.
         13    1    3    3    0    0  0.61406574123E+02 -0.82788561477E+02  0.16330457919E+03  0.19311421191E+03  0.00000000000E+00 0. -1.
          3    1    1    2  501    0  0.87294796406E+02  0.35744645065E+02  0.21653093723E+02  0.96782837312E+02  0.00000000000E+00 0. -1.
<scales pt_clust_5="13000.00000" pt_clust_6="13000.00000" pt_clust_7="13000.00000" pt_clust_8="13000.00000" pt_clust_9="94.32953"></scales>
<clustering>
<clus scale="   91.016">  5  6 -1 -1</clus>
<clus scale="   92.075">  7  8 -1 -1</clus>
<clus scale="   94.330">  2  9  1 -1</clus>
<clus scale="  145.399">  2  5  1 -1</clus>
<clus scale="   94.330">  2  5  1 -1</clus>
</clustering>
</event>
<event>
 9    1  0.1315259E-005  0.1051554E+03  0.7546771E-02  0.1275709E+00
         21   -1    0    0  501  502  0.00000000000E+00  0.00000000000E+00  0.12659488172E+03  0.12659488172E+03  0.00000000000E+00 0.  1.
          1   -1    0    0  502    0 -0.00000000000E+00 -0.00000000000E+00 -0.33278251401E+03  0.33278251401E+03  0.00000000000E+00 0. -1.
         23    2    1    2    0    0  0.76221303421E+00 -0.30461923336E+02 -0.24704049745E+03  0.26916001797E+03  0.10241873927E+03 0.  0.
         23    2    1    2    0    0  0.10355051349E+02  0.61196318613E+01 -0.43736545205E+02  0.10149585238E+03  0.90795625888E+02 0.  0.
        -11    1    3    3    0    0 -0.38018851992E+02 -0.15902081868E+02 -0.38005397169E+02  0.56059963686E+02  0.00000000000E+00 0. -1.
         11    1    3    3    0    0  0.38781065026E+02 -0.14559841468E+02 -0.20903510028E+03  0.21310005429E+03  0.00000000000E+00 0.  1.
        -13    1    4    4    0    0 -0.23618245211E+02 -0.21216711077E+02 -0.48141922400E+02  0.57668145697E+02  0.00000000000E+00 0. -1.
         13    1    4    4    0    0  0.33973296560E+02  0.27336342938E+02  0.44053771951E+01  0.43827706678E+02  0.00000000000E+00 0.  1.
          1    1    1    2  501    0 -0.11117264383E+02  0.24342291475E+02  0.84589410359E+02  0.88721525384E+02  0.00000000000E+00 0. -1.
<scales pt_clust_5="13000.00000" pt_clust_6="13000.00000" pt_clust_7="13000.00000" pt_clust_8="13000.00000" pt_clust_9="26.76081"></scales>
<clustering>
<clus scale="   26.761">  1  9  2 -1</clus>
<clus scale="   90.796">  7  8 -1 -1</clus>
<clus scale="   93.872">  1  7  2 -1</clus>
<clus scale="  102.419">  5  6 -1 -1</clus>
<clus scale="   26.761">  1  5  2 -1</clus>
</clustering>
</event>
<event>
 9    1  0.1315259E-005  0.1115720E+03  0.7546771E-02  0.1261877E+00
         -1   -1    0    0    0  501 -0.00000000000E+00  0.00000000000E+00  0.69837631672E+03  0.69837631672E+03  0.00000000000E+00 0.  1.
         21   -1    0    0  501  502  0.00000000000E+00 -0.00000000000E+00 -0.48085456217E+02  0.48085456217E+02  0.00000000000E+00 0.  1.
         23    2    1    2    0    0 -0.44543816230E+02  0.63712807577E+02  0.50015827142E+03  0.51220103801E+03  0.78410034147E+02 0.  0.
         23    2    1    2    0    0  0.49120440052E+02  0.12927918519E+02  0.86011599963E+02  0.13422950166E+03  0.89663900654E+02 0.  0.
        -13    1    3    3    0    0 -0.23718817455E+02 -0.11562412785E+02  0.66103764860E+02  0.71175694022E+02  0.00000000000E+00 0. -1.
         13    1    3    3    0    0 -0.20824998775E+02  0.75275220362E+02  0.43405450656E+03  0.44102534399E+03  0.00000000000E+00 0.  1.
        -13    1    4    4    0    0 -0.11447334649E+02 -0.27371212370E+02  0.31886402401E+02  0.43554189181E+02  0.00000000000E+00 0. -1.
         13    1    4    4    0    0  0.60567774701E+02  0.40299130889E+02  0.54125197562E+02  0.90675312482E+02  0.00000000000E+00 0.  1.
         -1    1    1    2    0  502 -0.45766238220E+01 -0.76640726096E+02  0.64120989115E+02  0.10003123326E+03  0.00000000000E+00 0.  1.
<scales pt_clust_5="13000.00000" pt_clust_6="13000.00000" pt_clust_7="13000.00000" pt_clust_8="13000.00000" pt_clust_9="76.77725"></scales>
<clustering>
<clus scale="   76.777">  2  9  1 -1</clus>
<clus scale="   78.410">  5  6 -1 -1</clus>
<clus scale="   89.664">  7  8 -1 -1</clus>
<clus scale="  102.746">  1  5  2 -1</clus>
<clus scale="   76.777">  2  5  1 -1</clus>
</clustering>
</event>
<event>
 9    1  0.1315259E-005  0.1152445E+03  0.7546771E-02  0.1251775E+00
         21   -1    0    0  501  502  0.00000000000E+00  0.00000000000E+00  0.35784568673E+02  0.35784568673E+02  0.00000000000E+00 0.  1.
         -2   -1    0    0    0  501 -0.00000000000E+00 -0.00000000000E+00 -0.54760791298E+03  0.54760791298E+03  0.00000000000E+00 0.  1.
         23    2    1    2    0    0 -0.69474147339E+02  0.42904687142E+02 -0.30682086671E+03  0.33002853466E+03  0.90068419066E+02 0.  0.
         23    2    1    2    0    0  0.28287971879E+02 -0.47537638679E+02 -0.14156831148E+03  0.17759021329E+03  0.91851296105E+02 0.  0.
        -11    1    3    3    0    0 -0.19028611069E+02 -0.27413370897E+02 -0.62787956427E+02  0.71104911331E+02  0.00000000000E+00 0. -1.
         11    1    3    3    0    0 -0.50445536270E+02  0.70318058038E+02 -0.24403291028E+03  0.25892362333E+03  0.00000000000E+00 0.  1.
        -13    1    4    4    0    0 -0.24030173387E+02  0.56059282996E+01 -0.10553017580E+02  0.26837321870E+02  0.00000000000E+00 0. -1.
         13    1    4    4    0    0  0.52318145265E+02 -0.53143566979E+02 -0.13101529390E+03  0.15075289142E+03  0.00000000000E+00 0.  1.
         -2    1    1    2    0  502  0.41186175460E+02  0.46329515375E+01 -0.63434166118E+02  0.75773733708E+02  0.00000000000E+00 0.  1.
<scales pt_clust_5="13000.00000" pt_clust_6="13000.00000" pt_clust_7="13000.00000" pt_clust_8="13000.00000" pt_clust_9="41.44593"></scales>
<clustering>
<clus scale="   41.446">  1  9  2 -1</clus>
<clus scale="   90.068">  5  6 -1 -1</clus>
<clus scale="   91.851">  7  8 -1 -1</clus>
<clus scale="  113.829">  2  5  1 -1</clus>
<clus scale="   41.446">  1  5  2 -1</clus>
</clustering>
</event>
<event>
 9    1  0.1315259E-005  0.1007293E+03  0.7546771E-02  0.1281407E+00
          2   -1    0    0  502    0 -0.00000000000E+00  0.00000000000E+00  0.94562703227E+02  0.94562703227E+02  0.00000000000E+00 0. -1.
         21   -1    0    0  501  502  0.00000000000E+00 -0.00000000000E+00 -0.12950847940E+03  0.12950847940E+03  0.00000000000E+00 0.  1.
         23    2    1    2    0    0  0.27726534569E+02 -0.15893588517E+02 -0.56138885886E+01  0.93662400280E+02  0.87862179611E+02 0.  0.
         23    2    1    2    0    0 -0.47720765097E+02  0.63446168044E+01 -0.24174594815E+02  0.10765906182E+03  0.93212322008E+02 0.  0.
        -11    1    4    4    0    0 -0.37712858369E+02  0.34536145725E+02 -0.47446399389E+02  0.69757908963E+02  0.00000000000E+00 0.  1.
         11    1    4    4    0    0 -0.10007906729E+02 -0.28191528921E+02  0.23271804573E+02  0.37901152860E+02  0.00000000000E+00 0. -1.
        -13    1    3    3    0    0 -0.44586248604E+01  0.33883121551E+02 -0.34236715798E+01  0.34346277655E+02  0.00000000000E+00 0.  1.
         13    1    3    3    0    0  0.32185159430E+02 -0.49776710068E+02 -0.21902170089E+01  0.59316122625E+02  0.00000000000E+00 0. -1.
          2    1    1    2  501    0  0.19994230528E+02  0.95489717130E+01 -0.51572927677E+01  0.22749720523E+02  0.00000000000E+00 0. -1.
<scales pt_clust_5="13000.00000" pt_clust_6="13000.00000" pt_clust_7="13000.00000" pt_clust_8="13000.00000" pt_clust_9="22.15744"></scales>
<clustering>
<clus scale="   22.157">  2  9  1 -1</clus>
<clus scale="   87.862">  7  8 -1 -1</clus>
<clus scale="   93.212">  5  6 -1 -1</clus>
<clus scale="   95.800">  1  7  2 -1</clus>
<clus scale="   22.157">  2  5  1 -1</clus>
</clustering>
</event>
<event>
 9    1  0.1315259E-005  0.1070111E+03  0.7546771E-02  0.1275451E+00
         21   -1    0    0  501  502  0.00000000000E+00  0.00000000000E+00  0.39049492899E+03  0.39049492899E+03  0.00000000000E+00 0.  1.
          1   -1    0    0  502    0 -0.00000000000E+00 -0.00000000000E+00 -0.41523699508E+02  0.41523699508E+02  0.00000000000E+00 0. -1.
         23    2    1    2    0    0  0.13487782872E+02  0.64012796287E+02  0.85320519247E+02  0.14277132089E+03  0.93938813537E+02 0.  0.
         23    2    1    2    0    0  0.25917512101E+01 -0.32356789519E+02  0.14914221420E+03  0.16936048663E+03  0.73388659694E+02 0.  0.
        -11    1    3    3    0    0  0.53935045427E+02  0.39781553285E+02  0.44927286018E+02  0.80684708192E+02  0.00000000000E+00 0.  1.
         11    1    3    3    0    0 -0.40447262556E+02  0.24231243002E+02  0.40393233228E+02  0.62086612698E+02  0.00000000000E+00 0. -1.
        -11    1    4    4    0    0  0.30035694395E+02 -0.30626876007E+02  0.47227406124E+02  0.63801068651E+02  0.00000000000E+00 0. -1.
         11    1    4    4    0    0 -0.27443943185E+02 -0.17299135115E+01  0.10191480808E+03  0.10555941798E+03  0.00000000000E+00 0.  1.
          1    1    1    2  501    0 -0.16079534082E+02 -0.31656006768E+02  0.11450849604E+03  0.11988682098E+03  0.00000000000E+00 0. -1.
<scales pt_clust_5="13000.00000" pt_clust_6="13000.00000" pt_clust_7="13000.00000" pt_clust_8="13000.00000" pt_clust_9="35.50569"></scales>
<clustering>
<clus scale="   35.506">  1  9  2 -1</clus>
<clus scale="   73.389">  7  8 -1 -1</clus>
<clus scale="   89.514">  1  7  2 -1</clus>
<clus scale="   93.939">  5  6 -1 -1</clus>
<clus scale="   35.506">  1  5  2 -1</clus>
</clustering>
</event>
<event>
 9    1  0.1315259E-005  0.1124540E+03  0.7546771E-02  0.1257001E+00
         21   -1    0    0  501  502  0.00000000000E+00  0.00000000000E+00  0.70206558867E+02  0.70206558867E+02  0.00000000000E+00 0. -1.
          2   -1    0    0  502    0 -0.00000000000E+00 -0.00000000000E+00 -0.53856858975E+03  0.53856858975E+03  0.00000000000E+00 0. -1.
         23    2    1    2    0    0 -0.55373220241E+02 -0.35729131775E+02 -0.30591787660E+03  0.32609602710E+03  0.91706637118E+02 0.  0.
         23    2    1    2    0    0  0.66842048143E+02  0.96355571374E+01 -0.20376872888E+03  0.23247823392E+03  0.89239738997E+02 0.  0.
        -11    1    4    4    0    0  0.31750254693E+02 -0.39501791571E+02 -0.10737444495E+03  0.11873391107E+03  0.00000000000E+00 0.  1.
         11    1    4    4    0    0  0.35091793450E+02  0.49137348709E+02 -0.96394283930E+02  0.11374432285E+03  0.00000000000E+00 0. -1.
        -13    1    3    3    0    0 -0.51301904462E+00 -0.37366813127E+02 -0.40681567254E+02  0.55240671847E+02  0.00000000000E+00 0.  1.
         13    1    3    3    0    0 -0.54860201197E+02  0.16376813524E+01 -0.26523630934E+03  0.27085535525E+03  0.00000000000E+00 0. -1.
          2    1    1    2  501    0 -0.11468827902E+02  0.26093574638E+02  0.41324574590E+02  0.50200887600E+02  0.00000000000E+00 0. -1.
<scales pt_clust_5="13000.00000" pt_clust_6="13000.00000" pt_clust_7="13000.00000" pt_clust_8="13000.00000" pt_clust_9="28.50278"></scales>
<clustering>
<clus scale="   28.503">  1  9  2 -1</clus>
<clus scale="   89.240">  5  6 -1 -1</clus>
<clus scale="   91.707">  7  8 -1 -1</clus>
<clus scale="  110.451">  1  5  2 -1</clus>
<clus scale="   28.503">  1  5  2 -1</clus>
</clustering>
</event>
<event>
 9    1  0.1315259E-005  0.1213232E+03  0.7546771E-02  0.1246466E+00
          2   -1    0    0  502    0 -0.00000000000E+00  0.00000000000E+00  0.33769368728E+03  0.33769368728E+03  0.00000000000E+00 0. -1.
         21   -1    0    0  501  502  0.00000000000E+00 -0.00000000000E+00 -0.53051327352E+02  0.53051327352E+02  0.00000000000E+00 0.  1.
         23    2    1    2    0    0 -0.51387489174E+02  0.20698893799E+02  0.12888754150E+03  0.16698348018E+03  0.90566914772E+02 0.  0.
         23    2    1    2    0    0  0.66039231423E+02 -0.47247255998E+01  0.15880359659E+03  0.20187220717E+03  0.10559499333E+03 0.  0.
        -13    1    3    3    0    0  0.21154524088E+02  0.20124955720E+02  0.17454872670E+02  0.34017647068E+02  0.00000000000E+00 0.  1.
         13    1    3    3    0    0 -0.72542013262E+02  0.57393807862E+00  0.11143266883E+03  0.13296583311E+03  0.00000000000E+00 0. -1.
        -13    1    4    4    0    0  0.70606013732E+02  0.36953363726E+02  0.12390967385E+03  0.14732402227E+03  0.00000000000E+00 0.  1.
         13    1    4    4    0    0 -0.45667823090E+01 -0.41678089326E+02  0.34893922748E+02  0.54548184895E+02  0.00000000000E+00 0. -1.
          2    1    1    2  501    0 -0.14651742249E+02 -0.15974168199E+02 -0.30487781686E+01  0.21889327283E+02  0.00000000000E+00 0. -1.
<scales pt_clust_5="13000.00000" pt_clust_6="13000.00000" pt_clust_7="13000.00000" pt_clust_8="13000.00000" pt_clust_9="21.67597"></scales>
<clustering>
<clus scale="   21.676">  2  9  1 -1</clus>
<clus scale="   90.567">  5  6 -1 -1</clus>
<clus scale="  105.595">  7  8 -1 -1</clus>
<clus scale="  108.496">  1  5  2 -1</clus>
<clus scale="   21.676">  2  5  1 -1</clus>
</clustering>
</event>
<event>
 9    1  0.1315259E-005  0.1422269E+03  0.7546771E-02  0.1211111E+00
          2   -1    0    0  502    0 -0.00000000000E+00  0.00000000000E+00  0.71721774264E+03  0.71721774264E+03  0.00000000000E+00 0. -1.
         21   -1    0    0  501  502  0.00000000000E+00 -0.00000000000E+00 -0.40609556566E+02  0.40609556566E+02  0.00000000000E+00 0. -1.
         23    2    1    2    0    0  0.10330785969E+03 -0.17948726568E+02  0.40172789795E+03  0.42470303443E+03  0.89401861317E+02 0.  0.
         23    2    1    2    0    0 -0.10320140395E+03  0.56287890876E+02  0.21683488138E+03  0.26356010664E+03  0.92885454150E+02 0.  0.
        -11    1    4    4    0    0 -0.24187138973E+02  0.49136533193E+02  0.15046555830E+03  0.16012276796E+03  0.00000000000E+00 0. -1.
         11    1    4    4    0    0 -0.79014264974E+02  0.71513576829E+01  0.66369323080E+02  0.10343733868E+03  0.00000000000E+00 0.  1.
        -11    1    3    3    0    0  0.63040235525E+02  0.32062575797E+02  0.16716333788E+03  0.18150939808E+03  0.00000000000E+00 0.  1.
         11    1    3    3    0    0  0.40267624168E+02 -0.50011302365E+02  0.23456456007E+03  0.24319363635E+03  0.00000000000E+00 0. -1.
          2    1    1    2  501    0 -0.10645574560E+00 -0.38339164307E+02  0.58045406748E+02  0.69564158136E+02  0.00000000000E+00 0. -1.
<scales pt_clust_5="13000.00000" pt_clust_6="13000.00000" pt_clust_7="13000.00000" pt_clust_8="13000.00000" pt_clust_9="38.33931"></scales>
<clustering>
<clus scale="   38.339">  2  9  1 -1</clus>
<clus scale="   89.402">  7  8 -1 -1</clus>
<clus scale="   92.885">  5  6 -1 -1</clus>
<clus scale="  139.977">  1  7  2 -1</clus>
<clus scale="   38.339">  2  5  1 -1</clus>
</clustering>
</event>
<event>
 9    1  0.1315259E-005  0.1024838E+03  0.7546771E-02  0.1275326E+00
         21   -1    0    0  501  502  0.00000000000E+00  0.00000000000E+00  0.18641901192E+03  0.18641901192E+03  0.00000000000E+00 0. -1.
          3   -1    0    0  502    0 -0.00000000000E+00 -0.00000000000E+00 -0.27674686761E+03  0.27674686761E+03  0.00000000000E+00 0. -1.
         23    2    1    2    0    0  0.47663535193E+02 -0.10027879466E+02 -0.20932187311E+03  0.23380931111E+03  0.92080271755E+02 0.  0.
         23    2    1    2    0    0 -0.27784027106E+02  0.19434569745E+02 -0.10194316404E+02  0.98309606375E+02  0.91712594311E+02 0.  0.
        -11    1    4    4    0    0  0.26873357110E+02  0.14789921400E+02 -0.27077448186E+02  0.40915856311E+02  0.00000000000E+00 0. -1.
         11    1    4    4    0    0 -0.54657384217E+02  0.46446483450E+01  0.16883131782E+02  0.57393750064E+02  0.00000000000E+00 0.  1.
        -13    1    3    3    0    0 -0.14462999281E+01 -0.44207885663E+02 -0.94159463486E+02  0.10403092570E+03  0.00000000000E+00 0.  1.
         13    1    3    3    0    0  0.49109835121E+02  0.34180006198E+02 -0.11516240962E+03  0.12977838541E+03  0.00000000000E+00 0. -1.
          3    1    1    2  501    0 -0.19879508087E+02 -0.94066902788E+01  0.12918833382E+03  0.13104696204E+03  0.00000000000E+00 0. -1.
<scales pt_clust_5="13000.00000" pt_clust_6="13000.00000" pt_clust_7="13000.00000" pt_clust_8="13000.00000" pt_clust_9="21.99274"></scales>
<clustering>
<clus scale="   21.993">  1  9  2 -1</clus>
<clus scale="   91.713">  5  6 -1 -1</clus>
<clus scale="   92.080">  7  8 -1 -1</clus>
<clus scale="  102.154">  1  5  2 -1</clus>
<clus scale="   21.993">  1  5  2 -1</clus>
</clustering>
</event>
<event>
 9    1  0.1315259E-005  0.1880861E+03  0.7546771E-02  0.1160266E+00
          1   -1    0    0  502    0 -0.00000000000E+00  0.00000000000E+00  0.13490047860E+03  0.13490047860E+03  0.00000000000E+00 0. -1.
         21   -1    0    0  501  502  0.00000000000E+00 -0.00000000000E+00 -0.56628831206E+03  0.56628831206E+03  0.00000000000E+00 0. -1.
         23    2    1    2    0    0  0.48670754063E+02 -0.15066972678E+03 -0.46319668365E+02  0.18835056442E+03  0.90885722577E+02 0.  0.
         23    2    1    2    0    0 -0.32291951984E+01  0.17674856607E+03 -0.99556855644E+02  0.22255948271E+03  0.91491379533E+02 0.  0.
        -11    1    4    4    0    0 -0.30840165631E+02  0.15985304041E+03 -0.98276426873E+02  0.19016405134E+03  0.00000000000E+00 0. -1.
         11    1    4    4    0    0  0.27610970433E+02  0.16895525661E+02 -0.12804287707E+01  0.32395431366E+02  0.00000000000E+00 0.  1.
        -11    1    3    3    0    0  0.68826725118E+02 -0.71916029611E+02 -0.12584171788E+02  0.10033640807E+03  0.00000000000E+00 0. -1.
         11    1    3    3    0    0 -0.20155971055E+02 -0.78753697171E+02 -0.33735496577E+02  0.88014156342E+02  0.00000000000E+00 0.  1.
          1    1    1    2  501    0 -0.45441558865E+02 -0.26078839284E+02 -0.28551130945E+03  0.29027874354E+03  0.00000000000E+00 0. -1.
<scales pt_clust_5="13000.00000" pt_clust_6="13000.00000" pt_clust_7="13000.00000" pt_clust_8="13000.00000" pt_clust_9="52.39314"></scales>
<clustering>
<clus scale="   52.393">  2  9  1 -1</clus>
<clus scale="   90.886">  7  8 -1 -1</clus>
<clus scale="   91.491">  5  6 -1 -1</clus>
<clus scale="  187.792">  1  7  2 -1</clus>
<clus scale="   52.393">  2  5  1 -1</clus>
</clustering>
</event>
<event>
 9    1  0.1315259E-005  0.9095272E+02  0.7546771E-02  0.1301786E+00
         -3   -1    0    0    0  501 -0.00000000000E+00  0.00000000000E+00  0.10191506744E+03  0.10191506744E+03  0.00000000000E+00 0.  1.
         21   -1    0    0  501  502  0.00000000000E+00 -0.00000000000E+00 -0.13848256153E+03  0.13848256153E+03  0.00000000000E+00 0. -1.
         23    2    1    2    0    0  0.90341335218E+01  0.17311529712E+02  0.30674359781E+02  0.95308857513E+02  0.88099701151E+02 0.  0.
         23    2    1    2    0    0  0.11012170327E+02 -0.23473532370E+01 -0.22126348364E+02  0.93502051152E+02  0.90145883518E+02 0.  0.
        -11    1    4    4    0    0 -0.12677264358E+02 -0.33775403055E+02  0.15304580311E+02  0.39188277094E+02  0.00000000000E+00 0.  1.
         11    1    4    4    0    0  0.23689434685E+02  0.31428049818E+02 -0.37430928675E+02  0.54313774058E+02  0.00000000000E+00 0. -1.
        -13    1    3    3    0    0 -0.95170201934E+01  0.37527333946E+02 -0.15414508245E+02  0.41671111467E+02  0.00000000000E+00 0. -1.
         13    1    3    3    0    0  0.18551153715E+02 -0.20215804234E+02  0.46088868026E+02  0.53637746046E+02  0.00000000000E+00 0.  1.
         -3    1    1    2    0  502 -0.20046303848E+02 -0.14964176475E+02 -0.45115505506E+02  0.51586720313E+02  0.00000000000E+00 0.  1.
<scales pt_clust_5="13000.00000" pt_clust_6="13000.00000" pt_clust_7="13000.00000" pt_clust_8="13000.00000" pt_clust_9="25.01561"></scales>
<clustering>
<clus scale="   25.016">  2  9  1 -1</clus>
<clus scale="   88.100">  7  8 -1 -1</clus>
<clus scale="   88.925">  1  7  2 -1</clus>
<clus scale="   90.146">  5  6 -1 -1</clus>
<clus scale="   25.016">  2  5  1 -1</clus>
</clustering>
</event>
<event>
 9    1  0.1315259E-005  0.1615830E+03  0.7546771E-02  0.1205000E+00
         21   -1    0    0  501  502  0.00000000000E+00  0.00000000000E+00  0.40862061537E+03  0.40862061537E+03  0.00000000000E+00 0. -1.
          1   -1    0    0  502    0 -0.00000000000E+00 -0.00000000000E+00 -0.22791292163E+03  0.22791292163E+03  0.00000000000E+00 0. -1.
         23    2    1    2    0    0  0.48983246078E+02 -0.31077976676E+02 -0.14486080675E+03  0.18117518243E+03  0.92057560075E+02 0.  0.
         23    2    1    2    0    0 -0.45519293523E+02 -0.10842953863E+03  0.74514232681E+02  0.16812571161E+03  0.94259817010E+02 0.  0.
        -13    1    3    3    0    0  0.45972427397E+02  0.21800044904E+02 -0.98160602190E+02  0.11056314875E+03  0.00000000000E+00 0. -1.
         13    1    3    3    0    0  0.30108186809E+01 -0.52878021580E+02 -0.46700204556E+02  0.70612033684E+02  0.00000000000E+00 0.  1.
        -13    1    4    4    0    0 -0.70579644657E+02 -0.74401177749E+02  0.72920994004E+02  0.12583518132E+03  0.00000000000E+00 0. -1.
         13    1    4    4    0    0  0.25060351134E+02 -0.34028360882E+02  0.15932386773E+01  0.42290530297E+02  0.00000000000E+00 0.  1.
          1    1    1    2  501    0 -0.34639525545E+01  0.13950751531E+03  0.25105426781E+03  0.28723264295E+03  0.00000000000E+00 0. -1.
<scales pt_clust_5="13000.00000" pt_clust_6="13000.00000" pt_clust_7="13000.00000" pt_clust_8="13000.00000" pt_clust_9="131.24085"></scales>
<clustering>
<clus scale="   92.058">  5  6 -1 -1</clus>
<clus scale="   94.260">  7  8 -1 -1</clus>
<clus scale="  108.811">  2  5  1 -1</clus>
<clus scale="  131.241">  1  9  2 -1</clus>
<clus scale="  131.241">  1  5  2 -1</clus>
</clustering>
</event>
<event>
 9    1  0.1317183E-005  0.9510680E+02  0.7546771E-02  0.1291265E+00
          2   -1    0    0  502    0 -0.00000000000E+00  0.00000000000E+00  0.49080024717E+03  0.49080024717E+03  0.00000000000E+00 0. -1.
         21   -1    0    0  501  502  0.00000000000E+00 -0.00000000000E+00 -0.12301271728E+03  0.12301271728E+03  0.00000000000E+00 0. -1.
         23    2    1    2    0    0  0.30216900788E+02 -0.25483754546E+01  0.32834631087E+03  0.34203002262E+03  0.90849772720E+02 0.  0.
         23    2    1    2    0    0  0.49178479874E+00 -0.60441618211E+02  0.12165161051E+03  0.16375835601E+03  0.91456294265E+02 0.  0.
        -11    1    3    3    0    0  0.46473870271E+02 -0.20164275923E+02  0.30275994910E+03  0.30696906264E+03  0.00000000000E+00 0. -1.
         11    1    3    3    0    0 -0.16256969483E+02  0.17615900469E+02  0.25586361771E+02  0.35060959981E+02  0.00000000000E+00 0.  1.
        -13    1    4    4    0    0  0.37998511694E+02 -0.99386423044E+00  0.55251533966E+02  0.67064198069E+02  0.00000000000E+00 0.  1.
         13    1    4    4    0    0 -0.37506726895E+02 -0.59447753980E+02  0.66400076543E+02  0.96694157944E+02  0.00000000000E+00 0. -1.
          2    1    1    2  501    0 -0.30708685587E+02  0.62989993665E+02 -0.82210391486E+02  0.10802458582E+03  0.00000000000E+00 0. -1.
<scales pt_clust_5="13000.00000" pt_clust_6="13000.00000" pt_clust_7="13000.00000" pt_clust_8="13000.00000" pt_clust_9="70.07683"></scales>
<clustering>
<clus scale="   70.077">  2  9  1 -1</clus>
<clus scale="   90.850">  5  6 -1 -1</clus>
<clus scale="   91.456">  7  8 -1 -1</clus>
<clus scale="   94.524">  1  5  2 -1</clus>
<clus scale="   70.077">  2  5  1 -1</clus>
</clustering>
</event>
<event>
 9    1  0.1315259E-005  0.9486841E+02  0.7546771E-02  0.1297149E+00
          1   -1    0    0  502    0 -0.00000000000E+00  0.00000000000E+00  0.93311953709E+02  0.93311953709E+02  0.00000000000E+00 0. -1.
         21   -1    0    0  501  502  0.00000000000E+00 -0.00000000000E+00 -0.16042273246E+03  0.16042273246E+03  0.00000000000E+00 0.  1.
         23    2    1    2    0    0  0.26880125085E+01 -0.11065298439E+02  0.26167740114E+02  0.88717149143E+02  0.84001879078E+02 0.  0.
         23    2    1    2    0    0  0.24449860746E+02  0.22362195001E+02 -0.46289244540E+02  0.10959122614E+03  0.93646565505E+02 0.  0.
        -11    1    4    4    0    0  0.30872494867E+02 -0.13953221872E+02 -0.61088037536E+02  0.69853787799E+02  0.00000000000E+00 0.  1.
         11    1    4    4    0    0 -0.64226341207E+01  0.36315416873E+02  0.14798792996E+02  0.39737438340E+02  0.00000000000E+00 0. -1.
        -13    1    3    3    0    0  0.36654111974E+02 -0.50715918650E+01  0.37234502856E+02  0.52494315613E+02  0.00000000000E+00 0.  1.
         13    1    3    3    0    0 -0.33966099466E+02 -0.59937065737E+01 -0.11066762742E+02  0.36222833531E+02  0.00000000000E+00 0. -1.
          1    1    1    2  501    0 -0.27137873255E+02 -0.11296896562E+02 -0.46989274323E+02  0.55426310883E+02  0.00000000000E+00 0. -1.
<scales pt_clust_5="13000.00000" pt_clust_6="13000.00000" pt_clust_7="13000.00000" pt_clust_8="13000.00000" pt_clust_9="29.39531"></scales>
<clustering>
<clus scale="   29.395">  2  9  1 -1</clus>
<clus scale="   84.002">  7  8 -1 -1</clus>
<clus scale="   85.362">  1  7  2 -1</clus>
<clus scale="   93.647">  5  6 -1 -1</clus>
<clus scale="   29.395">  2  5  1 -1</clus>
</clustering>
</event>
<event>
 9    1  0.1315259E-005  0.1808765E+03  0.7546771E-02  0.1167334E+00
         21   -1    0    0  501  502  0.00000000000E+00  0.00000000000E+00  0.90934658409E+02  0.90934658409E+02  0.00000000000E+00 0.  1.
         -3   -1    0    0    0  501 -0.00000000000E+00 -0.00000000000E+00 -0.74775395468E+03  0.74775395468E+03  0.00000000000E+00 0.  1.
         23    2    1    2    0    0  0.10784594492E+02  0.17054446192E+03 -0.46546460486E+03  0.50483743144E+03  0.94877883782E+02 0.  0.
         23    2    1    2    0    0 -0.89163983092E+02 -0.10895782461E+03 -0.15213810672E+03  0.22673356888E+03  0.91869931514E+02 0.  0.
        -11    1    3    3    0    0  0.43486917060E+02  0.13946318853E+03 -0.30548878543E+03  0.33862145670E+03  0.00000000000E+00 0.  1.
         11    1    3    3    0    0 -0.32702322568E+02  0.31081273389E+02 -0.15997581943E+03  0.16621597474E+03  0.00000000000E+00 0. -1.
        -13    1    4    4    0    0  0.88801320684E+01 -0.20435641166E+02  0.35450435751E+01  0.22561903940E+02  0.00000000000E+00 0. -1.
         13    1    4    4    0    0 -0.98044115161E+02 -0.88522183448E+02 -0.15568315029E+03  0.20417166494E+03  0.00000000000E+00 0.  1.
         -3    1    1    2    0  502  0.78379388601E+02 -0.61586637302E+02 -0.39216584697E+02  0.10711761278E+03  0.00000000000E+00 0.  1.
<scales pt_clust_5="13000.00000" pt_clust_6="13000.00000" pt_clust_7="13000.00000" pt_clust_8="13000.00000" pt_clust_9="99.68070"></scales>
<clustering>
<clus scale="   91.870">  7  8 -1 -1</clus>
<clus scale="   94.878">  5  6 -1 -1</clus>
<clus scale="   99.681">  1  9  2 -1</clus>
<clus scale="  179.317">  1  7  2 -1</clus>
<clus scale="   99.681">  1  5  2 -1</clus>
</clustering>
</event>
<event>
 9    1  0.1315259E-005  0.1266341E+03  0.7546771E-02  0.1248273E+00
         21   -1    0    0  501  502  0.00000000000E+00  0.00000000000E+00  0.40262960347E+03  0.40262960347E+03  0.00000000000E+00 0. -1.
          2   -1    0    0  502    0 -0.00000000000E+00 -0.00000000000E+00 -0.23237581563E+03  0.23237581563E+03  0.00000000000E+00 0. -1.
         23    2    1    2    0    0 -0.17305995774E+02 -0.21341890340E+02 -0.66972812433E+02  0.11380473605E+03  0.87813362136E+02 0.  0.
         23    2    1    2    0    0  0.50967833008E+02 -0.64465212348E+02 -0.10949155512E+03  0.16243967983E+03  0.87434348712E+02 0.  0.
        -11    1    4    4    0    0  0.30788683615E+02 -0.33030347421E+02 -0.11603971729E+03  0.12451571338E+03  0.00000000000E+00 0. -1.
         11    1    4    4    0    0  0.20179149393E+02 -0.31434864928E+02  0.65481621701E+01  0.37923966447E+02  0.00000000000E+00 0.  1.
        -13    1    3    3    0    0  0.23804203698E+02 -0.38870254297E+02 -0.22788483257E+02  0.50959314673E+02  0.00000000000E+00 0. -1.
         13    1    3    3    0    0 -0.41110199471E+02  0.17528363956E+02 -0.44184329176E+02  0.62845421379E+02  0.00000000000E+00 0.  1.
          2    1    1    2  501    0 -0.33661837234E+02  0.85807102689E+02  0.34671815539E+03  0.35876100322E+03  0.00000000000E+00 0. -1.
<scales pt_clust_5="13000.00000" pt_clust_6="13000.00000" pt_clust_7="13000.00000" pt_clust_8="13000.00000" pt_clust_9="91.60471"></scales>
<clustering>
<clus scale="   87.434">  5  6 -1 -1</clus>
<clus scale="   87.813">  7  8 -1 -1</clus>
<clus scale="   92.012">  2  7  1 -1</clus>
<clus scale="   91.605">  1  9  2 -1</clus>
<clus scale="   91.605">  1  5  2 -1</clus>
</clustering>
</event>
<event>
 9    1  0.1315259E-005  0.9770303E+02  0.7546771E-02  0.1285358E+00
          2   -1    0    0  502    0 -0.00000000000E+00  0.00000000000E+00  0.45883974583E+03  0.45883974583E+03  0.00000000000E+00 0. -1.
         21   -1    0    0  501  502  0.00000000000E+00 -0.00000000000E+00 -0.86000272697E+02  0.86000272697E+02  0.00000000000E+00 0.  1.
         23    2    1    2    0    0  0.24784279702E+02  0.84022629881E+01  0.25970778388E+03  0.27622599673E+03  0.90375935515E+02 0.  0.
         23    2    1    2    0    0 -0.10383041451E+03 -0.48273505173E+02  0.33376555309E+02  0.14945493162E+03  0.90064953567E+02 0.  0.
        -13    1    4    4    0    0 -0.96457361142E+02 -0.71850511792E+02  0.33108430169E+02  0.12475049784E+03  0.00000000000E+00 0.  1.
         13    1    4    4    0    0 -0.73730533686E+01  0.23577006619E+02  0.26812514018E+00  0.24704433776E+02  0.00000000000E+00 0. -1.
        -13    1    3    3    0    0 -0.24805802632E+02  0.27634351590E+02  0.14669621313E+03  0.15132337618E+03  0.00000000000E+00 0.  1.
         13    1    3    3    0    0  0.49590082333E+02 -0.19232088602E+02  0.11301157075E+03  0.12490262055E+03  0.00000000000E+00 0. -1.
          2    1    1    2  501    0  0.79046134809E+02  0.39871242185E+02  0.79755133944E+02  0.11915909018E+03  0.00000000000E+00 0. -1.
<scales pt_clust_5="13000.00000" pt_clust_6="13000.00000" pt_clust_7="13000.00000" pt_clust_8="13000.00000" pt_clust_9="88.53252"></scales>
<clustering>
<clus scale="   88.533">  2  9  1 -1</clus>
<clus scale="   90.065">  5  6 -1 -1</clus>
<clus scale="   90.376">  7  8 -1 -1</clus>
<clus scale="   97.415">  2  5  1 -1</clus>
<clus scale="   88.533">  2  5  1 -1</clus>
</clustering>
</event>
<event>
 9    1  0.1315259E-005  0.1087553E+03  0.7546771E-02  0.1269100E+00
          2   -1    0    0  502    0 -0.00000000000E+00  0.00000000000E+00  0.30138024550E+02  0.30138024550E+02  0.00000000000E+00 0. -1.
         21   -1    0    0  501  502  0.00000000000E+00 -0.00000000000E+00 -0.51269838076E+03  0.51269838076E+03  0.00000000000E+00 0.  1.
         23    2    1    2    0    0  0.31679566561E+02  0.33407105375E+02 -0.13959911596E+03  0.17238011773E+03  0.90040891737E+02 0.  0.
         23    2    1    2    0    0 -0.16528747105E+02 -0.19165502649E+01 -0.27109407184E+03  0.29054325806E+03  0.10318195760E+03 0.  0.
        -11    1    3    3    0    0  0.51312297174E+02 -0.10912558929E+02 -0.77895170146E+02  0.93913222262E+02  0.00000000000E+00 0.  1.
         11    1    3    3    0    0 -0.19632730612E+02  0.44319664305E+02 -0.61703945818E+02  0.78466895472E+02  0.00000000000E+00 0. -1.
        -13    1    4    4    0    0 -0.59943773329E+02  0.40548377212E+01 -0.14101982647E+03  0.15328499316E+03  0.00000000000E+00 0. -1.
         13    1    4    4    0    0  0.43415026224E+02 -0.59713879861E+01 -0.13007424536E+03  0.13725826490E+03  0.00000000000E+00 0.  1.
          2    1    1    2  501    0 -0.15150819456E+02 -0.31490555110E+02 -0.71867168413E+02  0.79913029520E+02  0.00000000000E+00 0. -1.
<scales pt_clust_5="13000.00000" pt_clust_6="13000.00000" pt_clust_7="13000.00000" pt_clust_8="13000.00000" pt_clust_9="34.94571"></scales>
<clustering>
<clus scale="   34.946">  2  9  1 -1</clus>
<clus scale="   90.041">  5  6 -1 -1</clus>
<clus scale="   96.377">  1  5  2 -1</clus>
<clus scale="  103.182">  7  8 -1 -1</clus>
<clus scale="   34.946">  2  5  1 -1</clus>
</clustering>
</event>
<event>
 9    1  0.1315259E-005  0.9457563E+02  0.7546771E-02  0.1292572E+00
          1   -1    0    0  502    0 -0.00000000000E+00  0.00000000000E+00  0.64800619641E+02  0.64800619641E+02  0.00000000000E+00 0. -1.
         21   -1    0    0  501  502  0.00000000000E+00 -0.00000000000E+00 -0.31973771468E+03  0.31973771468E+03  0.00000000000E+00 0. -1.
         23    2    1    2    0    0 -0.77907318015E+01  0.27386121195E+02  0.42514901287E+01  0.95550646118E+02  0.91110678129E+02 0.  0.
         23    2    1    2    0    0 -0.23255841600E+02 -0.16240513411E+02 -0.18571309671E+03  0.20844725303E+03  0.90312316790E+02 0.  0.
        -13    1    4    4    0    0 -0.47103925347E+02 -0.29158750269E+02 -0.16577076449E+03  0.17478260457E+03  0.00000000000E+00 0. -1.
         13    1    4    4    0    0  0.23848083747E+02  0.12918236858E+02 -0.19942332217E+02  0.33664648464E+02  0.00000000000E+00 0.  1.
        -13    1    3    3    0    0  0.27334097264E+02 -0.21701037405E+02  0.45025093983E+01  0.35190346525E+02  0.00000000000E+00 0.  1.
         13    1    3    3    0    0 -0.35124829065E+02  0.49087158600E+02 -0.25101926966E+00  0.60360299593E+02  0.00000000000E+00 0. -1.
          1    1    1    2  501    0  0.31046573401E+02 -0.11145607784E+02 -0.73475488464E+02  0.80540435173E+02  0.00000000000E+00 0. -1.
<scales pt_clust_5="13000.00000" pt_clust_6="13000.00000" pt_clust_7="13000.00000" pt_clust_8="13000.00000" pt_clust_9="32.98658"></scales>
<clustering>
<clus scale="   32.987">  2  9  1 -1</clus>
<clus scale="   90.312">  5  6 -1 -1</clus>
<clus scale="   91.111">  7  8 -1 -1</clus>
<clus scale="   93.807">  2  5  1 -1</clus>
<clus scale="   32.987">  2  5  1 -1</clus>
</clustering>
</event>
<event>
 9    1  0.1315259E-005  0.1283755E+03  0.7546771E-02  0.1246448E+00
         -1   -1    0    0    0  501 -0.00000000000E+00  0.00000000000E+00  0.15896885875E+03  0.15896885875E+03  0.00000000000E+00 0.  1.
         21   -1    0    0  501  502  0.00000000000E+00 -0.00000000000E+00 -0.27875885461E+03  0.27875885461E+03  0.00000000000E+00 0.  1.
         23    2    1    2    0    0 -0.19994290305E+02  0.14381336226E+02 -0.34338219096E+02  0.97835891229E+02  0.88239185430E+02 0.  0.
         23    2    1    2    0    0 -0.73005095727E+02 -0.38522626380E+02  0.83137884759E+02  0.14584501936E+03  0.86862679247E+02 0.  0.
        -13    1    3    3    0    0 -0.52399338969E+02  0.23533238426E+02 -0.16680035976E+02  0.59814108999E+02  0.00000000000E+00 0.  1.
         13    1    3    3    0    0  0.32405048664E+02 -0.91519022002E+01 -0.17658183120E+02  0.38021782229E+02  0.00000000000E+00 0. -1.
        -13    1    4    4    0    0 -0.47261595956E+02 -0.37612482902E+02  0.98724961165E+02  0.11573666351E+03  0.00000000000E+00 0.  1.
         13    1    4    4    0    0 -0.25743499771E+02 -0.91014347798E+00 -0.15587076407E+02  0.30108355858E+02  0.00000000000E+00 0. -1.
         -1    1    1    2    0  502  0.92999386032E+02  0.24141290154E+02 -0.16858966152E+03  0.19404680277E+03  0.00000000000E+00 0.  1.
<scales pt_clust_5="13000.00000" pt_clust_6="13000.00000" pt_clust_7="13000.00000" pt_clust_8="13000.00000" pt_clust_9="94.52592"></scales>
<clustering>
<clus scale="   86.863">  7  8 -1 -1</clus>
<clus scale="   88.239">  5  6 -1 -1</clus>
<clus scale="   91.612">  1  5  2 -1</clus>
<clus scale="   94.526">  2  9  1 -1</clus>
<clus scale="   94.526">  2  5  1 -1</clus>
</clustering>
</event>
<event>
 9    1  0.1315259E-005  0.9447953E+02  0.7546771E-02  0.1292625E+00
         -4   -1    0    0    0  501 -0.00000000000E+00  0.00000000000E+00  0.49438414274E+03  0.49438414274E+03  0.00000000000E+00 0.  1.
         21   -1    0    0  501  502  0.00000000000E+00 -0.00000000000E+00 -0.74154250319E+02  0.74154250319E+02  0.00000000000E+00 0.  1.
         23    2    1    2    0    0 -0.33778355919E+02  0.19334308994E+01  0.28815317179E+03  0.30403581749E+03  0.90889011550E+02 0.  0.
         23    2    1    2    0    0  0.10648987385E+02  0.22713874147E+01  0.18498131193E+03  0.20661005476E+03  0.91384182607E+02 0.  0.
        -13    1    4    4    0    0 -0.36537144375E+02 -0.15812561073E+02  0.10146178965E+03  0.10899309504E+03  0.00000000000E+00 0.  1.
         13    1    4    4    0    0  0.47186131759E+02  0.18083948487E+02  0.83519522277E+02  0.97616959719E+02  0.00000000000E+00 0. -1.
        -13    1    3    3    0    0  0.11481036279E+01 -0.36439854701E+02  0.61284155427E+02  0.71308687121E+02  0.00000000000E+00 0. -1.
         13    1    3    3    0    0 -0.34926459547E+02  0.38373285600E+02  0.22686901636E+03  0.23272713037E+03  0.00000000000E+00 0.  1.
         -4    1    1    2    0  502  0.23129368535E+02 -0.42048183141E+01 -0.52904591296E+02  0.57892520813E+02  0.00000000000E+00 0.  1.
<scales pt_clust_5="13000.00000" pt_clust_6="13000.00000" pt_clust_7="13000.00000" pt_clust_8="13000.00000" pt_clust_9="23.50847"></scales>
<clustering>
<clus scale="   23.508">  2  9  1 -1</clus>
<clus scale="   90.889">  7  8 -1 -1</clus>
<clus scale="   91.384">  5  6 -1 -1</clus>
<clus scale="   94.001">  1  7  2 -1</clus>
<clus scale="   23.508">  2  5  1 -1</clus>
</clustering>
</event>
<event>
 9    1  0.1315259E-005  0.1290269E+03  0.7546771E-02  0.1229850E+00
         -3   -1    0    0    0  501 -0.00000000000E+00  0.00000000000E+00  0.44970101075E+02  0.44970101075E+02  0.00000000000E+00 0.  1.
         21   -1    0    0  501  502  0.00000000000E+00 -0.00000000000E+00 -0.75421824383E+03  0.75421824383E+03  0.00000000000E+00 0.  1.
         23    2    1    2    0    0 -0.80856059580E+02 -0.41032295645E+02 -0.81970474192E+02  0.15231478272E+03  0.90880596059E+02 0.  0.
         23    2    1    2    0    0  0.95848769153E+02  0.22312526498E+02 -0.56556364350E+03  0.58066304953E+03  0.87306969043E+02 0.  0.
        -11    1    4    4    0    0  0.29932370961E+02  0.44390100547E+02 -0.14873624762E+03  0.15807877534E+03  0.00000000000E+00 0.  1.
         11    1    4    4    0    0  0.65916398192E+02 -0.22077574049E+02 -0.41682739588E+03  0.42258427418E+03  0.00000000000E+00 0. -1.
        -13    1    3    3    0    0 -0.50516187622E+02 -0.12511422704E+02  0.84899656151E+01  0.52730450654E+02  0.00000000000E+00 0.  1.
         13    1    3    3    0    0 -0.30339871958E+02 -0.28520872941E+02 -0.90460439807E+02  0.99584332070E+02  0.00000000000E+00 0. -1.
         -3    1    1    2    0  502 -0.14992709573E+02  0.18719769147E+02 -0.61714025053E+02  0.66210512651E+02  0.00000000000E+00 0.  1.
<scales pt_clust_5="13000.00000" pt_clust_6="13000.00000" pt_clust_7="13000.00000" pt_clust_8="13000.00000" pt_clust_9="23.98356"></scales>
<clustering>
<clus scale="   23.984">  2  9  1 -1</clus>
<clus scale="   87.307">  5  6 -1 -1</clus>
<clus scale="   90.881">  7  8 -1 -1</clus>
<clus scale="  126.535">  2  5  1 -1</clus>
<clus scale="   23.984">  2  5  1 -1</clus>
</clustering>
</event>
<event>
 9    1  0.1315259E-005  0.1390142E+03  0.7546771E-02  0.1215515E+00
         21   -1    0    0  501  502  0.00000000000E+00  0.00000000000E+00  0.67954384180E+03  0.67954384180E+03  0.00000000000E+00 0.  1.
          3   -1    0    0  502    0 -0.00000000000E+00 -0.00000000000E+00 -0.49322252918E+02  0.49322252918E+02  0.00000000000E+00 0. -1.
         23    2    1    2    0    0  0.95400620743E+02 -0.40025432262E+02  0.98303787563E+02  0.17160298804E+03  0.95292377391E+02 0.  0.
         23    2    1    2    0    0 -0.95537300766E+02  0.16104939654E+02  0.36412482705E+03  0.38777360594E+03  0.91622785750E+02 0.  0.
        -13    1    4    4    0    0  0.35344666356E+01 -0.24865890297E+02  0.51955905985E+02  0.57708068079E+02  0.00000000000E+00 0.  1.
         13    1    4    4    0    0 -0.99071767401E+02  0.40970829951E+02  0.31216892106E+03  0.33006553786E+03  0.00000000000E+00 0. -1.
        -13    1    3    3    0    0  0.80402428551E+02  0.92342628912E+01  0.30555052789E+02  0.86506840071E+02  0.00000000000E+00 0. -1.
         13    1    3    3    0    0  0.14998192192E+02 -0.49259695153E+02  0.67748734774E+02  0.85096147968E+02  0.00000000000E+00 0.  1.
          3    1    1    2  501    0  0.13668002292E+00  0.23920492608E+02  0.16779297427E+03  0.16948950074E+03  0.00000000000E+00 0. -1.
<scales pt_clust_5="13000.00000" pt_clust_6="13000.00000" pt_clust_7="13000.00000" pt_clust_8="13000.00000" pt_clust_9="23.92088"></scales>
<clustering>
<clus scale="   23.921">  1  9  2 -1</clus>
<clus scale="   91.623">  5  6 -1 -1</clus>
<clus scale="   95.292">  7  8 -1 -1</clus>
<clus scale="  136.525">  1  5  2 -1</clus>
<clus scale="   23.921">  1  5  2 -1</clus>
</clustering>
</event>
<event>
 9    1  0.1315259E-005  0.9626524E+02  0.7546771E-02  0.1289813E+00
         21   -1    0    0  501  502  0.00000000000E+00  0.00000000000E+00  0.30224394229E+03  0.30224394229E+03  0.00000000000E+00 0.  1.
         -1   -1    0    0    0  501 -0.00000000000E+00 -0.00000000000E+00 -0.54576733591E+02  0.54576733591E+02  0.00000000000E+00 0.  1.
         23    2    1    2    0    0  0.20958549444E+02  0.87614588045E+00  0.29951494821E+02  0.10080146027E+03  0.93935158080E+02 0.  0.
         23    2    1    2    0    0 -0.15189758726E+02  0.33581192755E+02  0.17554882495E+03  0.20125943426E+03  0.91266339138E+02 0.  0.
        -11    1    4    4    0    0 -0.32853343866E+01  0.61951410135E+02  0.14585536366E+03  0.15850097081E+03  0.00000000000E+00 0.  1.
         11    1    4    4    0    0 -0.11904424339E+02 -0.28370217381E+02  0.29693461297E+02  0.42758463453E+02  0.00000000000E+00 0. -1.
        -11    1    3    3    0    0 -0.13969601747E+02  0.36187106856E+02  0.33158415359E+02  0.51030745484E+02  0.00000000000E+00 0.  1.
         11    1    3    3    0    0  0.34928151191E+02 -0.35310960975E+02 -0.32069205379E+01  0.49770714783E+02  0.00000000000E+00 0. -1.
         -1    1    1    2    0  502 -0.57687907187E+01 -0.34457338635E+02  0.42166888923E+02  0.54759781351E+02  0.00000000000E+00 0.  1.
<scales pt_clust_5="13000.00000" pt_clust_6="13000.00000" pt_clust_7="13000.00000" pt_clust_8="13000.00000" pt_clust_9="34.93690"></scales>
<clustering>
<clus scale="   34.937">  1  9  2 -1</clus>
<clus scale="   91.266">  5  6 -1 -1</clus>
<clus scale="   93.663">  1  5  2 -1</clus>
<clus scale="   93.935">  7  8 -1 -1</clus>
<clus scale="   34.937">  1  5  2 -1</clus>
</clustering>
</event>
<event>
 9    1  0.1315259E-005  0.1613260E+03  0.7546771E-02  0.1187874E+00
         -1   -1    0    0    0  501 -0.00000000000E+00  0.00000000000E+00  0.80760616358E+03  0.80760616358E+03  0.00000000000E+00 0.  1.
         21   -1    0    0  501  502  0.00000000000E+00 -0.00000000000E+00 -0.48565133769E+02  0.48565133769E+02  0.00000000000E+00 0.  1.
         23    2    1    2    0    0 -0.12780604589E+03  0.31517548786E+02  0.44067335679E+03  0.46924919086E+03  0.93134604133E+02 0.  0.
         23    2    1    2    0    0  0.10308238230E+03 -0.81771682771E+02  0.24632424018E+03  0.29566974357E+03  0.97120442327E+02 0.  0.
        -13    1    4    4    0    0  0.41738517451E+02 -0.75169077271E+02  0.20248284660E+03  0.21998135644E+03  0.00000000000E+00 0.  1.
         13    1    4    4    0    0  0.61343864852E+02 -0.66026055006E+01  0.43841393581E+02  0.75688387124E+02  0.00000000000E+00 0. -1.
        -13    1    3    3    0    0 -0.26904323368E+02  0.39389238375E+02  0.67896484701E+02  0.82977631627E+02  0.00000000000E+00 0. -1.
         13    1    3    3    0    0 -0.10090172252E+03 -0.78716895887E+01  0.37277687209E+03  0.38627155923E+03  0.00000000000E+00 0.  1.
         -1    1    1    2    0  502  0.24723663585E+02  0.50254133985E+02  0.72043432841E+02  0.91252362924E+02  0.00000000000E+00 0.  1.
<scales pt_clust_5="13000.00000" pt_clust_6="13000.00000" pt_clust_7="13000.00000" pt_clust_8="13000.00000" pt_clust_9="56.00658"></scales>
<clustering>
<clus scale="   56.007">  2  9  1 -1</clus>
<clus scale="   93.135">  7  8 -1 -1</clus>
<clus scale="   97.120">  5  6 -1 -1</clus>
<clus scale="  158.958">  1  7  2 -1</clus>
<clus scale="   56.007">  2  5  1 -1</clus>
</clustering>
</event>
<event>
 9    1  0.1315259E-005  0.1429980E+03  0.7546771E-02  0.1210293E+00
         21   -1    0    0  501  502  0.00000000000E+00  0.00000000000E+00  0.31439712390E+03  0.31439712390E+03  0.00000000000E+00 0.  1.
          2   -1    0    0  502    0 -0.00000000000E+00 -0.00000000000E+00 -0.86764108509E+02  0.86764108509E+02  0.00000000000E+00 0. -1.
         23    2    1    2    0    0  0.62808906293E+02 -0.75148701408E+02  0.48133599552E+02  0.14520048600E+03  0.95781270069E+02 0.  0.
         23    2    1    2    0    0 -0.66297683443E+02  0.10056057906E+03  0.12686173190E+03  0.19740597835E+03  0.91473539228E+02 0.  0.
        -11    1    3    3    0    0  0.22554318817E+02 -0.14967029260E+02  0.65388089194E+02  0.70769424688E+02  0.00000000000E+00 0.  1.
         11    1    3    3    0    0  0.40254587475E+02 -0.60181672148E+02 -0.17254489642E+02  0.74431061313E+02  0.00000000000E+00 0. -1.
        -13    1    4    4    0    0 -0.81041875940E+02  0.45117282999E+02  0.66498413914E+02  0.11412884795E+03  0.00000000000E+00 0.  1.
         13    1    4    4    0    0  0.14744192497E+02  0.55443296056E+02  0.60363317988E+02  0.83277130405E+02  0.00000000000E+00 0. -1.
          2    1    1    2  501    0  0.34887771507E+01 -0.25411877647E+02  0.52637683940E+02  0.58554768057E+02  0.00000000000E+00 0. -1.
<scales pt_clust_5="13000.00000" pt_clust_6="13000.00000" pt_clust_7="13000.00000" pt_clust_8="13000.00000" pt_clust_9="25.65025"></scales>
<clustering>
<clus scale="   25.650">  1  9  2 -1</clus>
<clus scale="   91.474">  7  8 -1 -1</clus>
<clus scale="   95.781">  5  6 -1 -1</clus>
<clus scale="  140.149">  1  7  2 -1</clus>
<clus scale="   25.650">  1  5  2 -1</clus>
</clustering>
</event>
<event>
 9    1  0.1315259E-005  0.1207835E+03  0.7546771E-02  0.1242392E+00
         21   -1    0    0  501  502  0.00000000000E+00  0.00000000000E+00  0.53341466706E+03  0.53341466706E+03  0.00000000000E+00 0.  1.
          2   -1    0    0  502    0 -0.00000000000E+00 -0.00000000000E+00 -0.72638432488E+02  0.72638432488E+02  0.00000000000E+00 0. -1.
         23    2    1    2    0    0 -0.62273036559E+02  0.18861555049E+02  0.29053844656E+02  0.11734585382E+03  0.93232152069E+02 0.  0.
         23    2    1    2    0    0  0.10710991079E+03 -0.72645150941E+02  0.28320869189E+03  0.32451425263E+03  0.91391936503E+02 0.  0.
        -11    1    4    4    0    0  0.47271172494E+02 -0.10333195392E+02  0.19551693575E+03  0.20141551787E+03  0.00000000000E+00 0.  1.
         11    1    4    4    0    0  0.59838738294E+02 -0.62311955549E+02  0.87691756141E+02  0.12309873476E+03  0.00000000000E+00 0. -1.
        -11    1    3    3    0    0 -0.16639782573E+02 -0.17082738103E+02  0.50160437398E+02  0.55540721864E+02  0.00000000000E+00 0.  1.
         11    1    3    3    0    0 -0.45633253986E+02  0.35944293152E+02 -0.21106592742E+02  0.61805131961E+02  0.00000000000E+00 0. -1.
          2    1    1    2  501    0 -0.44836874230E+02  0.53783595892E+02  0.14851369802E+03  0.16419299309E+03  0.00000000000E+00 0. -1.
<scales pt_clust_5="13000.00000" pt_clust_6="13000.00000" pt_clust_7="13000.00000" pt_clust_8="13000.00000" pt_clust_9="70.02157"></scales>
<clustering>
<clus scale="   70.022">  1  9  2 -1</clus>
<clus scale="   91.392">  5  6 -1 -1</clus>
<clus scale="   93.232">  7  8 -1 -1</clus>
<clus scale="  119.369">  1  5  2 -1</clus>
<clus scale="   70.022">  1  5  2 -1</clus>
</clustering>
</event>
<event>
 9    1  0.1315259E-005  0.1975003E+03  0.7546771E-02  0.1157566E+00
          2   -1    0    0  502    0 -0.00000000000E+00  0.00000000000E+00  0.27683377714E+03  0.27683377714E+03  0.00000000000E+00 0. -1.
         21   -1    0    0  501  502  0.00000000000E+00 -0.00000000000E+00 -0.47572129185E+03  0.47572129185E+03  0.00000000000E+00 0. -1.
         23    2    1    2    0    0 -0.14563150888E+03 -0.15781367537E+02 -0.23979999323E+03  0.29553813872E+03  0.91548712422E+02 0.  0.
         23    2    1    2    0    0  0.61568686182E+02 -0.15538830332E+03  0.14539949532E+03  0.23957003777E+03  0.91195185352E+02 0.  0.
        -11    1    4    4    0    0 -0.21223148461E+02 -0.34952865691E+02  0.14544605456E+02  0.43401271853E+02  0.00000000000E+00 0.  1.
         11    1    4    4    0    0  0.82791834643E+02 -0.12043543763E+03  0.13085488986E+03  0.19616876591E+03  0.00000000000E+00 0. -1.
        -13    1    3    3    0    0 -0.67594061974E+02  0.36188741476E+02 -0.84240558602E+02  0.11390809426E+03  0.00000000000E+00 0.  1.
         13    1    3    3    0    0 -0.78037446904E+02 -0.51970109013E+02 -0.15555943462E+03  0.18163004446E+03  0.00000000000E+00 0. -1.
          2    1    1    2  501    0  0.84062822696E+02  0.17116967085E+03 -0.10448701680E+03  0.21744689251E+03  0.00000000000E+00 0. -1.
<scales pt_clust_5="13000.00000" pt_clust_6="13000.00000" pt_clust_7="13000.00000" pt_clust_8="13000.00000" pt_clust_9="175.18503"></scales>
<clustering>
<clus scale="   91.195">  5  6 -1 -1</clus>
<clus scale="   91.549">  7  8 -1 -1</clus>
<clus scale="  172.739">  1  7  2 -1</clus>
<clus scale="  175.185">  2  9  1 -1</clus>
<clus scale="  175.185">  2  5  1 -1</clus>
</clustering>
</event>
<event>
 9    1  0.1315259E-005  0.1024377E+03  0.7546771E-02  0.1275809E+00
         21   -1    0    0  501  502  0.00000000000E+00  0.00000000000E+00  0.65566393817E+02  0.65566393817E+02  0.00000000000E+00 0.  1.
          1   -1    0    0  502    0 -0.00000000000E+00 -0.00000000000E+00 -0.28076092934E+03  0.28076092934E+03  0.00000000000E+00 0. -1.
         23    2    1    2    0    0 -0.18088475241E+02  0.46045895169E+02 -0.19854509981E+03  0.22318513501E+03  0.89129290547E+02 0.  0.
         23    2    1    2    0    0 -0.19749534341E+01 -0.46917089532E+02 -0.12130541136E+02  0.10255771443E+03  0.90364932523E+02 0.  0.
        -11    1    4    4    0    0  0.13659701569E+02 -0.63642284175E+02  0.15262228014E+02  0.66857036922E+02  0.00000000000E+00 0.  1.
         11    1    4    4    0    0 -0.15634655003E+02  0.16725194643E+02 -0.27392769150E+02  0.35700677510E+02  0.00000000000E+00 0. -1.
        -11    1    3    3    0    0  0.26642020176E+02  0.37232260982E+02 -0.14891312556E+03  0.15579203273E+03  0.00000000000E+00 0. -1.
         11    1    3    3    0    0 -0.44730495417E+02  0.88136341871E+01 -0.49631974249E+02  0.67393102286E+02  0.00000000000E+00 0.  1.
          1    1    1    2  501    0  0.20063428675E+02  0.87119436348E+00 -0.45188945753E+01  0.20584473712E+02  0.00000000000E+00 0. -1.
<scales pt_clust_5="13000.00000" pt_clust_6="13000.00000" pt_clust_7="13000.00000" pt_clust_8="13000.00000" pt_clust_9="20.08233"></scales>
<clustering>
<clus scale="   20.082">  1  9  2 -1</clus>
<clus scale="   89.129">  7  8 -1 -1</clus>
<clus scale="   90.365">  5  6 -1 -1</clus>
<clus scale="  101.349">  2  7  1 -1</clus>
<clus scale="   20.082">  1  5  2 -1</clus>
</clustering>
</event>
<event>
 9    1  0.1315259E-005  0.1301416E+03  0.7546771E-02  0.1238957E+00
         -3   -1    0    0    0  501 -0.00000000000E+00  0.00000000000E+00  0.26573696988E+03  0.26573696988E+03  0.00000000000E+00 0.  1.
         21   -1    0    0  501  502  0.00000000000E+00 -0.00000000000E+00 -0.98272719941E+02  0.98272719941E+02  0.00000000000E+00 0. -1.
         23    2    1    2    0    0  0.30269785411E+02 -0.24337920488E+02  0.95269628731E+02  0.13617454629E+03  0.89211045377E+02 0.  0.
         23    2    1    2    0    0 -0.76458113775E+02  0.44453880529E+02  0.12444592894E+02  0.14968094077E+03  0.12011463475E+03 0.  0.
        -11    1    4    4    0    0 -0.10137220494E+03  0.55163380630E+02  0.27532268971E+02  0.11864800181E+03  0.00000000000E+00 0. -1.
         11    1    4    4    0    0  0.24914091169E+02 -0.10709500102E+02 -0.15087676077E+02  0.31032938962E+02  0.00000000000E+00 0.  1.
        -11    1    3    3    0    0  0.46184085381E+02  0.16478731673E+02  0.29740749018E+02  0.57350069679E+02  0.00000000000E+00 0.  1.
         11    1    3    3    0    0 -0.15914299971E+02 -0.40816652160E+02  0.65528879713E+02  0.78824476614E+02  0.00000000000E+00 0. -1.
         -3    1    1    2    0  502  0.46188328365E+02 -0.20115960041E+02  0.59750028314E+02  0.78154202760E+02  0.00000000000E+00 0.  1.
<scales pt_clust_5="13000.00000" pt_clust_6="13000.00000" pt_clust_7="13000.00000" pt_clust_8="13000.00000" pt_clust_9="50.37873"></scales>
<clustering>
<clus scale="   50.379">  2  9  1 -1</clus>
<clus scale="   89.211">  7  8 -1 -1</clus>
<clus scale="  102.313">  1  7  2 -1</clus>
<clus scale="  120.115">  5  6 -1 -1</clus>
<clus scale="   50.379">  2  5  1 -1</clus>
</clustering>
</event>
<event>
 9    1  0.1315259E-005  0.1296122E+03  0.7546771E-02  0.1230180E+00
          2   -1    0    0  502    0 -0.00000000000E+00  0.00000000000E+00  0.32502558747E+03  0.32502558747E+03  0.00000000000E+00 0. -1.
         21   -1    0    0  501  502  0.00000000000E+00 -0.00000000000E+00 -0.10220154139E+03  0.10220154139E+03  0.00000000000E+00 0. -1.
         23    2    1    2    0    0 -0.85610889518E+02  0.11488665943E+02  0.10640994837E+03  0.16400900289E+03  0.90081419104E+02 0.  0.
         23    2    1    2    0    0  0.53558230387E+02 -0.90713276443E+02  0.10284676233E+03  0.17668498517E+03  0.97686974043E+02 0.  0.
        -11    1    3    3    0    0 -0.36611597264E+02  0.23928143057E+02  0.10465288864E+03  0.11342483055E+03  0.00000000000E+00 0.  1.
         11    1    3    3    0    0 -0.48999292254E+02 -0.12439477115E+02  0.17570597258E+01  0.50584172339E+02  0.00000000000E+00 0. -1.
        -13    1    4    4    0    0 -0.26421442967E+02 -0.13920408407E+02  0.37662200785E+02  0.48065702811E+02  0.00000000000E+00 0.  1.
         13    1    4    4    0    0  0.79979673354E+02 -0.76792868036E+02  0.65184561545E+02  0.12861928236E+03  0.00000000000E+00 0. -1.
          2    1    1    2  501    0  0.32052659132E+02  0.79224610501E+02  0.13567335386E+02  0.86533140795E+02  0.00000000000E+00 0. -1.
<scales pt_clust_5="13000.00000" pt_clust_6="13000.00000" pt_clust_7="13000.00000" pt_clust_8="13000.00000" pt_clust_9="85.46293"></scales>
<clustering>
<clus scale="   85.463">  2  9  1 -1</clus>
<clus scale="   90.081">  5  6 -1 -1</clus>
<clus scale="   97.687">  7  8 -1 -1</clus>
<clus scale="  123.981">  1  5  2 -1</clus>
<clus scale="   85.463">  2  5  1 -1</clus>
</clustering>
</event>
<event>
 9    1  0.1315259E-005  0.1004797E+03  0.7546771E-02  0.1280033E+00
         21   -1    0    0  501  502  0.00000000000E+00  0.00000000000E+00  0.26432593318E+02  0.26432593318E+02  0.00000000000E+00 0.  1.
          2   -1    0    0  502    0 -0.00000000000E+00 -0.00000000000E+00 -0.62658714033E+03  0.62658714033E+03  0.00000000000E+00 0. -1.
         23    2    1    2    0    0 -0.27956075815E+02 -0.14232469122E+02 -0.33555453736E+03  0.34869877992E+03  0.89497967684E+02 0.  0.
         23    2    1    2    0    0  0.62794478856E+02  0.25870616800E+02 -0.20049155775E+03  0.23043553965E+03  0.91056234380E+02 0.  0.
        -11    1    3    3    0    0 -0.56659294617E+02 -0.20912041815E+02 -0.16695743117E+03  0.17754541104E+03  0.00000000000E+00 0.  1.
         11    1    3    3    0    0  0.28703218802E+02  0.66795726926E+01 -0.16859710619E+03  0.17115336888E+03  0.00000000000E+00 0. -1.
        -13    1    4    4    0    0 -0.41068982969E+01 -0.26309139302E+02 -0.30794371314E+02  0.40710327057E+02  0.00000000000E+00 0.  1.
         13    1    4    4    0    0  0.66901377153E+02  0.52179756102E+02 -0.16969718643E+03  0.18972521260E+03  0.00000000000E+00 0. -1.
          2    1    1    2  501    0 -0.34838403041E+02 -0.11638147678E+02 -0.64108451904E+02  0.73885414077E+02  0.00000000000E+00 0. -1.
<scales pt_clust_5="13000.00000" pt_clust_6="13000.00000" pt_clust_7="13000.00000" pt_clust_8="13000.00000" pt_clust_9="36.73092"></scales>
<clustering>
<clus scale="   36.731">  1  9  2 -1</clus>
<clus scale="   89.498">  5  6 -1 -1</clus>
<clus scale="   91.056">  7  8 -1 -1</clus>
<clus scale="   99.070">  2  5  1 -1</clus>
<clus scale="   36.731">  1  5  2 -1</clus>
</clustering>
</event>
<event>
 9    1  0.1315259E-005  0.1642586E+03  0.7546771E-02  0.1184091E+00
         21   -1    0    0  501  502  0.00000000000E+00  0.00000000000E+00  0.38496967647E+02  0.38496967647E+02  0.00000000000E+00 0.  1.
          2   -1    0    0  502    0 -0.00000000000E+00 -0.00000000000E+00 -0.10911189465E+04  0.10911189465E+04  0.00000000000E+00 0. -1.
         23    2    1    2    0    0  0.44446490070E+02  0.11736912426E+03 -0.42095631079E+03  0.44866767182E+03  0.91364447835E+02 0.  0.
         23    2    1    2    0    0  0.15729152857E+02 -0.15655812979E+03 -0.46467073922E+03  0.49916762616E+03  0.92149708969E+02 0.  0.
        -11    1    4    4    0    0  0.49418328955E+02 -0.13110007050E+03 -0.35454124606E+03  0.38122027081E+03  0.00000000000E+00 0.  1.
         11    1    4    4    0    0 -0.33689176097E+02 -0.25458059298E+02 -0.11012949316E+03  0.11794735534E+03  0.00000000000E+00 0. -1.
        -13    1    3    3    0    0 -0.72000218986E+01  0.98998075654E+02 -0.24405064371E+03  0.26346380395E+03  0.00000000000E+00 0. -1.
         13    1    3    3    0    0  0.51646511968E+02  0.18371048605E+02 -0.17690566708E+03  0.18520386786E+03  0.00000000000E+00 0.  1.
          2    1    1    2  501    0 -0.60175642927E+02  0.39189005535E+02 -0.16699492882E+03  0.18178061615E+03  0.00000000000E+00 0. -1.
<scales pt_clust_5="13000.00000" pt_clust_6="13000.00000" pt_clust_7="13000.00000" pt_clust_8="13000.00000" pt_clust_9="71.81146"></scales>
<clustering>
<clus scale="   71.811">  1  9  2 -1</clus>
<clus scale="   91.364">  7  8 -1 -1</clus>
<clus scale="   92.150">  5  6 -1 -1</clus>
<clus scale="  163.819">  2  7  1 -1</clus>
<clus scale="   71.811">  1  5  2 -1</clus>
</clustering>
</event>
<event>
 9    1  0.1315259E-005  0.1716129E+03  0.7546771E-02  0.1200599E+00
         21   -1    0    0  501  502  0.00000000000E+00  0.00000000000E+00  0.66279816354E+03  0.66279816354E+03  0.00000000000E+00 0.  1.
         -2   -1    0    0    0  501 -0.00000000000E+00 -0.00000000000E+00 -0.99422326065E+02  0.99422326065E+02  0.00000000000E+00 0.  1.
         23    2    1    2    0    0  0.35276333760E+02  0.35346168846E+01  0.48121704866E+02  0.11087795776E+03  0.93387953178E+02 0.  0.
         23    2    1    2    0    0 -0.11687526470E+03 -0.12020232618E+03  0.10494157266E+03  0.21703142587E+03  0.89339125934E+02 0.  0.
        -11    1    4    4    0    0 -0.20313714702E+02 -0.81964871661E+02  0.32865761433E+02  0.90614819240E+02  0.00000000000E+00 0.  1.
         11    1    4    4    0    0 -0.96561550000E+02 -0.38237454518E+02  0.72075811227E+02  0.12641660662E+03  0.00000000000E+00 0. -1.
        -13    1    3    3    0    0  0.17960692184E+02 -0.44531599335E+02  0.30254667131E+02  0.56753807681E+02  0.00000000000E+00 0. -1.
         13    1    3    3    0    0  0.17315641576E+02  0.48066216220E+02  0.17867037735E+02  0.54124150084E+02  0.00000000000E+00 0.  1.
         -2    1    1    2    0  502  0.81598930942E+02  0.11666770929E+03  0.41031255995E+03  0.43431110598E+03  0.00000000000E+00 0.  1.
<scales pt_clust_5="13000.00000" pt_clust_6="13000.00000" pt_clust_7="13000.00000" pt_clust_8="13000.00000" pt_clust_9="146.52471"></scales>
<clustering>
<clus scale="   89.339">  5  6 -1 -1</clus>
<clus scale="   93.388">  7  8 -1 -1</clus>
<clus scale="   99.891">  2  7  1 -1</clus>
<clus scale="  146.525">  1  9  2 -1</clus>
<clus scale="  146.525">  1  5  2 -1</clus>
</clustering>
</event>
<event>
 9    1  0.1315259E-005  0.1213672E+03  0.7546771E-02  0.1244085E+00
         -3   -1    0    0    0  501 -0.00000000000E+00  0.00000000000E+00  0.59470091896E+03  0.59470091896E+03  0.00000000000E+00 0.  1.
         21   -1    0    0  501  502  0.00000000000E+00 -0.00000000000E+00 -0.38429429386E+02  0.38429429386E+02  0.00000000000E+00 0. -1.
         23    2    1    2    0    0  0.45348102332E+02  0.68038271767E+02  0.39887188605E+03  0.41836054970E+03  0.96130698812E+02 0.  0.
         23    2    1    2    0    0 -0.45268295644E+02 -0.42799418506E+02  0.15684331913E+03  0.18952468951E+03  0.86248318024E+02 0.  0.
        -13    1    4    4    0    0 -0.18562026851E+02  0.26315215420E+02  0.51279916088E+02  0.60553027978E+02  0.00000000000E+00 0.  1.
         13    1    4    4    0    0 -0.26706268793E+02 -0.69114633926E+02  0.10556340305E+03  0.12897166153E+03  0.00000000000E+00 0. -1.
        -13    1    3    3    0    0  0.93479801895E+01  0.71319545101E+02  0.35143034980E+03  0.35871597819E+03  0.00000000000E+00 0.  1.
         13    1    3    3    0    0  0.36000122142E+02 -0.32812733340E+01  0.47441536245E+02  0.59644571507E+02  0.00000000000E+00 0. -1.
         -3    1    1    2    0  502 -0.79806687803E-01 -0.25238853261E+02  0.55628439268E+00  0.25245109138E+02  0.00000000000E+00 0.  1.
<scales pt_clust_5="13000.00000" pt_clust_6="13000.00000" pt_clust_7="13000.00000" pt_clust_8="13000.00000" pt_clust_9="25.23898"></scales>
<clustering>
<clus scale="   25.239">  2  9  1 -1</clus>
<clus scale="   86.248">  5  6 -1 -1</clus>
<clus scale="   96.131">  7  8 -1 -1</clus>
<clus scale="  113.700">  2  5  1 -1</clus>
<clus scale="   25.239">  2  5  1 -1</clus>
</clustering>
</event>
<event>
 9    1  0.1315259E-005  0.9669965E+02  0.7546771E-02  0.1287963E+00
          2   -1    0    0  502    0 -0.00000000000E+00  0.00000000000E+00  0.33819223136E+03  0.33819223136E+03  0.00000000000E+00 0.  1.
         21   -1    0    0  501  502  0.00000000000E+00 -0.00000000000E+00 -0.81703560812E+02  0.81703560812E+02  0.00000000000E+00 0.  1.
         23    2    1    2    0    0  0.26708493881E+02 -0.41251819702E+01  0.20332797956E+03  0.22437111058E+03  0.90938260487E+02 0.  0.
         23    2    1    2    0    0 -0.24163216049E+02  0.36252611182E+02  0.97327064476E+02  0.14085001932E+03  0.92022049728E+02 0.  0.
        -13    1    3    3    0    0  0.21925983866E+02  0.42422271312E+02  0.11193934965E+03  0.12169969545E+03  0.00000000000E+00 0.  1.
         13    1    3    3    0    0  0.47825100147E+01 -0.46547453282E+02  0.91388629910E+02  0.10267141514E+03  0.00000000000E+00 0. -1.
        -13    1    4    4    0    0 -0.48019852794E+02  0.51302474062E+02  0.84395230993E+02  0.10981987580E+03  0.00000000000E+00 0.  1.
         13    1    4    4    0    0  0.23856636745E+02 -0.15049862881E+02  0.12931833483E+02  0.31030143518E+02  0.00000000000E+00 0. -1.
          2    1    1    2  501    0 -0.25452778317E+01 -0.32127429211E+02 -0.44166373488E+02  0.54674662268E+02  0.00000000000E+00 0.  1.
<scales pt_clust_5="13000.00000" pt_clust_6="13000.00000" pt_clust_7="13000.00000" pt_clust_8="13000.00000" pt_clust_9="32.22810"></scales>
<clustering>
<clus scale="   32.228">  2  9  1 -1</clus>
<clus scale="   90.938">  5  6 -1 -1</clus>
<clus scale="   92.022">  7  8 -1 -1</clus>
<clus scale="   95.669">  1  5  2 -1</clus>
<clus scale="   32.228">  2  5  1 -1</clus>
</clustering>
</event>
<event>
 9    1  0.1315259E-005  0.9755293E+02  0.7546771E-02  0.1286801E+00
         21   -1    0    0  501  502  0.00000000000E+00  0.00000000000E+00  0.17066652964E+03  0.17066652964E+03  0.00000000000E+00 0.  1.
          1   -1    0    0  502    0 -0.00000000000E+00 -0.00000000000E+00 -0.11770684820E+03  0.11770684820E+03  0.00000000000E+00 0. -1.
         23    2    1    2    0    0  0.20950294013E+02 -0.28225709227E+02 -0.52588995856E+02  0.11299500871E+03  0.93630465280E+02 0.  0.
         23    2    1    2    0    0 -0.83485417023E+01  0.73631762672E+01  0.31056402606E+02  0.97000129600E+02  0.91217380396E+02 0.  0.
        -11    1    3    3    0    0  0.17596095583E+02  0.33526501781E+02 -0.15731848446E+02  0.41001706757E+02  0.00000000000E+00 0.  1.
         11    1    3    3    0    0  0.33541984304E+01 -0.61752211008E+02 -0.36857147410E+02  0.71993301957E+02  0.00000000000E+00 0. -1.
        -11    1    4    4    0    0 -0.46451643799E+02  0.69550543199E+01  0.35164168292E+02  0.58674071990E+02  0.00000000000E+00 0.  1.
         11    1    4    4    0    0  0.38103102097E+02  0.40812194732E+00 -0.41077656861E+01  0.38326057609E+02  0.00000000000E+00 0. -1.
          1    1    1    2  501    0 -0.12601752311E+02  0.20862532960E+02  0.74492274687E+02  0.78378239524E+02  0.00000000000E+00 0. -1.
<scales pt_clust_5="13000.00000" pt_clust_6="13000.00000" pt_clust_7="13000.00000" pt_clust_8="13000.00000" pt_clust_9="24.37313"></scales>
<clustering>
<clus scale="   24.373">  1  9  2 -1</clus>
<clus scale="   91.217">  7  8 -1 -1</clus>
<clus scale="   93.630">  5  6 -1 -1</clus>
<clus scale="   95.239">  1  7  2 -1</clus>
<clus scale="   24.373">  1  5  2 -1</clus>
</clustering>
</event>
<event>
 9    1  0.1315259E-005  0.1133214E+03  0.7546771E-02  0.1255900E+00
         21   -1    0    0  501  502  0.00000000000E+00  0.00000000000E+00  0.35385440445E+02  0.35385440445E+02  0.00000000000E+00 0. -1.
          3   -1    0    0  502    0 -0.00000000000E+00 -0.00000000000E+00 -0.76560871210E+03  0.76560871210E+03  0.00000000000E+00 0. -1.
         23    2    1    2    0    0 -0.47512705637E+02  0.35146821259E+02 -0.39484894623E+03  0.40931921098E+03  0.90242838486E+02 0.  0.
         23    2    1    2    0    0  0.73760459105E+02 -0.36541182701E+02 -0.34391466206E+03  0.36403753655E+03  0.86430144499E+02 0.  0.
        -11    1    3    3    0    0  0.11621098612E+01  0.53245456926E+02 -0.24515858495E+03  0.25087678442E+03  0.00000000000E+00 0. -1.
         11    1    3    3    0    0 -0.48674815498E+02 -0.18098635667E+02 -0.14969036128E+03  0.15844242657E+03  0.00000000000E+00 0.  1.
        -11    1    4    4    0    0  0.49769919373E+02  0.22867765123E+02 -0.17545289885E+03  0.18380342563E+03  0.00000000000E+00 0. -1.
         11    1    4    4    0    0  0.23990539731E+02 -0.59408947824E+02 -0.16846176321E+03  0.18023411093E+03  0.00000000000E+00 0.  1.
          3    1    1    2  501    0 -0.26247753468E+02  0.13943614424E+01  0.85403366362E+01  0.27637405012E+02  0.00000000000E+00 0. -1.
<scales pt_clust_5="13000.00000" pt_clust_6="13000.00000" pt_clust_7="13000.00000" pt_clust_8="13000.00000" pt_clust_9="26.28476"></scales>
<clustering>
<clus scale="   26.285">  1  9  2 -1</clus>
<clus scale="   86.430">  7  8 -1 -1</clus>
<clus scale="   90.243">  5  6 -1 -1</clus>
<clus scale="  110.309">  1  7  2 -1</clus>
<clus scale="   26.285">  1  5  2 -1</clus>
</clustering>
</event>
<event>
 9    1  0.1315259E-005  0.1170953E+03  0.7546771E-02  0.1248541E+00
         -1   -1    0    0    0  501 -0.00000000000E+00  0.00000000000E+00  0.43818699183E+03  0.43818699183E+03  0.00000000000E+00 0.  1.
         21   -1    0    0  501  502  0.00000000000E+00 -0.00000000000E+00 -0.65933668099E+02  0.65933668099E+02  0.00000000000E+00 0. -1.
         23    2    1    2    0    0  0.49924836051E+02 -0.60871125784E+02  0.33848963293E+03  0.35900048093E+03  0.90046268650E+02 0.  0.
         23    2    1    2    0    0 -0.26964292673E+02  0.45458100243E+02  0.45273993112E+02  0.11516629831E+03  0.91760720670E+02 0.  0.
        -11    1    4    4    0    0  0.30743965656E+02  0.35957641441E+02  0.22737286453E+02  0.52489309364E+02  0.00000000000E+00 0. -1.
         11    1    4    4    0    0 -0.57708258329E+02  0.95004588023E+01  0.22536706659E+02  0.62676988950E+02  0.00000000000E+00 0.  1.
        -13    1    3    3    0    0 -0.12139483092E+01 -0.67681155124E+02  0.20508786220E+03  0.21597046939E+03  0.00000000000E+00 0. -1.
         13    1    3    3    0    0  0.51138784360E+02  0.68100293398E+01  0.13340177074E+03  0.14303001154E+03  0.00000000000E+00 0.  1.
         -1    1    1    2    0  502 -0.22960543377E+02  0.15413025541E+02 -0.11510302315E+02  0.29953880682E+02  0.00000000000E+00 0.  1.
<scales pt_clust_5="13000.00000" pt_clust_6="13000.00000" pt_clust_7="13000.00000" pt_clust_8="13000.00000" pt_clust_9="27.65408"></scales>
<clustering>
<clus scale="   27.654">  2  9  1 -1</clus>
<clus scale="   90.046">  7  8 -1 -1</clus>
<clus scale="   91.761">  5  6 -1 -1</clus>
<clus scale="  115.757">  1  7  2 -1</clus>
<clus scale="   27.654">  2  5  1 -1</clus>
</clustering>
</event>
<event>
 9    1  0.1315259E-005  0.9302322E+02  0.7546771E-02  0.1300824E+00
         21   -1    0    0  501  502  0.00000000000E+00  0.00000000000E+00  0.23030298485E+03  0.23030298485E+03  0.00000000000E+00 0.  1.
          2   -1    0    0  502    0 -0.00000000000E+00 -0.00000000000E+00 -0.62214798544E+02  0.62214798544E+02  0.00000000000E+00 0. -1.
         23    2    1    2    0    0 -0.26027725098E+02 -0.88725586745E+01  0.25714135834E+02  0.99109771571E+02  0.91680779163E+02 0.  0.
         23    2    1    2    0    0 -0.15174166789E+02  0.98254248234E+01  0.11819954106E+03  0.14562819648E+03  0.83124279203E+02 0.  0.
        -11    1    4    4    0    0 -0.43764674247E+02  0.58862443404E+01  0.10496942342E+03  0.11387964892E+03  0.00000000000E+00 0.  1.
         11    1    4    4    0    0  0.28590507458E+02  0.39391804830E+01  0.13230117637E+02  0.31748547562E+02  0.00000000000E+00 0. -1.
        -11    1    3    3    0    0  0.15948547156E+02 -0.34803748168E+02  0.31305568151E+02  0.49453974968E+02  0.00000000000E+00 0. -1.
         11    1    3    3    0    0 -0.41976272254E+02  0.25931189493E+02 -0.55914323170E+01  0.49655796602E+02  0.00000000000E+00 0.  1.
          2    1    1    2  501    0  0.41201891887E+02 -0.95286614891E+00  0.24174509415E+02  0.47779815345E+02  0.00000000000E+00 0. -1.
<scales pt_clust_5="13000.00000" pt_clust_6="13000.00000" pt_clust_7="13000.00000" pt_clust_8="13000.00000" pt_clust_9="41.21293"></scales>
<clustering>
<clus scale="   41.213">  1  9  2 -1</clus>
<clus scale="   83.124">  5  6 -1 -1</clus>
<clus scale="   84.603">  1  5  2 -1</clus>
<clus scale="   91.681">  7  8 -1 -1</clus>
<clus scale="   41.213">  1  5  2 -1</clus>
</clustering>
</event>
<event>
 9    1  0.1315259E-005  0.1177014E+03  0.7546771E-02  0.1247964E+00
         -2   -1    0    0    0  501 -0.00000000000E+00  0.00000000000E+00  0.10260838781E+04  0.10260838781E+04  0.00000000000E+00 0.  1.
         21   -1    0    0  501  502  0.00000000000E+00 -0.00000000000E+00 -0.52623678112E+02  0.52623678112E+02  0.00000000000E+00 0.  1.
         23    2    1    2    0    0 -0.26202309503E+02  0.72954177332E+02  0.62926715892E+03  0.64114471339E+03  0.95291726833E+02 0.  0.
         23    2    1    2    0    0  0.72733569528E+02  0.16065624584E+02  0.53722849795E+02  0.13021513206E+03  0.92312293859E+02 0.  0.
        -13    1    4    4    0    0  0.87207893628E+02 -0.10729815106E+02  0.35808008677E+02  0.94881816639E+02  0.00000000000E+00 0.  1.
         13    1    4    4    0    0 -0.14474324100E+02  0.26795439690E+02  0.17914841118E+02  0.35333315420E+02  0.00000000000E+00 0. -1.
        -13    1    3    3    0    0 -0.53549231751E+02  0.78152300664E+02  0.46799876068E+03  0.47749151020E+03  0.00000000000E+00 0.  1.
         13    1    3    3    0    0  0.27346922248E+02 -0.51981233324E+01  0.16126839824E+03  0.16365320319E+03  0.00000000000E+00 0. -1.
         -2    1    1    2    0  502 -0.46531260025E+02 -0.89019801915E+02  0.29047019131E+03  0.30734771080E+03  0.00000000000E+00 0.  1.
<scales pt_clust_5="13000.00000" pt_clust_6="13000.00000" pt_clust_7="13000.00000" pt_clust_8="13000.00000" pt_clust_9="100.44747"></scales>
<clustering>
<clus scale="   92.312">  5  6 -1 -1</clus>
<clus scale="   95.292">  7  8 -1 -1</clus>
<clus scale="  100.447">  2  9  1 -1</clus>
<clus scale="  115.303">  2  5  1 -1</clus>
<clus scale="  100.447">  2  5  1 -1</clus>
</clustering>
</event>
<event>
 9    1  0.1315259E-005  0.9786238E+02  0.7546771E-02  0.1285242E+00
          2   -1    0    0  502    0 -0.00000000000E+00  0.00000000000E+00  0.36175301513E+03  0.36175301513E+03  0.00000000000E+00 0. -1.
         21   -1    0    0  501  502  0.00000000000E+00 -0.00000000000E+00 -0.18829592588E+03  0.18829592588E+03  0.00000000000E+00 0. -1.
         23    2    1    2    0    0  0.21379702318E+01  0.18845212918E+02  0.21481602846E+03  0.23492814445E+03  0.93196534304E+02 0.  0.
         23    2    1    2    0    0 -0.40788932074E+01 -0.52375523937E+02  0.11416288920E+03  0.15601363754E+03  0.92451376131E+02 0.  0.
        -13    1    4    4    0    0  0.38596370339E+02 -0.18987115477E+01  0.55558104805E+02  0.67675608002E+02  0.00000000000E+00 0.  1.
         13    1    4    4    0    0 -0.42675263546E+02 -0.50476812390E+02  0.58604784398E+02  0.88338029534E+02  0.00000000000E+00 0. -1.
        -13    1    3    3    0    0  0.32232991554E+02 -0.25750329258E+02  0.97048714454E+02  0.10545377271E+03  0.00000000000E+00 0.  1.
         13    1    3    3    0    0 -0.30095021322E+02  0.44595542176E+02  0.11776731401E+03  0.12947437174E+03  0.00000000000E+00 0. -1.
          2    1    1    2  501    0  0.19409229756E+01  0.33530311019E+02 -0.15552182841E+03  0.15910715902E+03  0.00000000000E+00 0. -1.
<scales pt_clust_5="13000.00000" pt_clust_6="13000.00000" pt_clust_7="13000.00000" pt_clust_8="13000.00000" pt_clust_9="33.58644"></scales>
<clustering>
<clus scale="   33.586">  2  9  1 -1</clus>
<clus scale="   92.451">  5  6 -1 -1</clus>
<clus scale="   93.197">  7  8 -1 -1</clus>
<clus scale="   97.153">  2  5  1 -1</clus>
<clus scale="   33.586">  2  5  1 -1</clus>
</clustering>
</event>
<event>
 9    1  0.1315259E-005  0.1213408E+03  0.7546771E-02  0.1241214E+00
         21   -1    0    0  501  502  0.00000000000E+00  0.00000000000E+00  0.17994030949E+03  0.17994030949E+03  0.00000000000E+00 0. -1.
         -3   -1    0    0    0  501 -0.00000000000E+00 -0.00000000000E+00 -0.23401477856E+03  0.23401477856E+03  0.00000000000E+00 0.  1.
         23    2    1    2    0    0 -0.10403550137E+02  0.70191287399E+02 -0.15146525977E+03  0.19097071828E+03  0.92157689010E+02 0.  0.
         23    2    1    2    0    0  0.13462520363E+02 -0.10692267319E+03  0.29117050101E+02  0.14539664099E+03  0.93159449925E+02 0.  0.
        -11    1    4    4    0    0 -0.37076840671E+02 -0.20660690850E+02  0.10040323887E+02  0.43616102122E+02  0.00000000000E+00 0.  1.
         11    1    4    4    0    0  0.50539361034E+02 -0.86261982336E+02  0.19076726214E+02  0.10178053887E+03  0.00000000000E+00 0. -1.
        -11    1    3    3    0    0 -0.49510130218E+01  0.91303880974E+02 -0.10242883257E+03  0.13730468657E+03  0.00000000000E+00 0.  1.
         11    1    3    3    0    0 -0.54525371150E+01 -0.21112593574E+02 -0.49036427194E+02  0.53666031718E+02  0.00000000000E+00 0. -1.
         -3    1    1    2    0  502 -0.30589702264E+01  0.36731385787E+02  0.68273740598E+02  0.77587728771E+02  0.00000000000E+00 0.  1.
<scales pt_clust_5="13000.00000" pt_clust_6="13000.00000" pt_clust_7="13000.00000" pt_clust_8="13000.00000" pt_clust_9="36.85854"></scales>
<clustering>
<clus scale="   36.859">  1  9  2 -1</clus>
<clus scale="   92.158">  7  8 -1 -1</clus>
<clus scale="   93.159">  5  6 -1 -1</clus>
<clus scale="  120.573">  2  7  1 -1</clus>
<clus scale="   36.859">  1  5  2 -1</clus>
</clustering>
</event>
<event>
 9    1  0.1315259E-005  0.1086880E+03  0.7546771E-02  0.1266060E+00
         -2   -1    0    0    0  501 -0.00000000000E+00  0.00000000000E+00  0.20328899821E+03  0.20328899821E+03  0.00000000000E+00 0.  1.
         21   -1    0    0  501  502  0.00000000000E+00 -0.00000000000E+00 -0.12608832802E+03  0.12608832802E+03  0.00000000000E+00 0.  1.
         23    2    1    2    0    0 -0.70543514700E+02  0.15883384544E+02  0.87053089473E+02  0.15003150678E+03  0.98501488659E+02 0.  0.
         23    2    1    2    0    0  0.18576119166E+02 -0.11585415642E+02  0.44419096603E+02  0.10408307853E+03  0.91547457831E+02 0.  0.
        -13    1    3    3    0    0  0.18743319563E+02 -0.10159242980E+02  0.41079262658E+02  0.46282049076E+02  0.00000000000E+00 0. -1.
         13    1    3    3    0    0 -0.89286834263E+02  0.26042627524E+02  0.45973826815E+02  0.10374945770E+03  0.00000000000E+00 0.  1.
        -13    1    4    4    0    0  0.52475880072E+02  0.89235397665E+01  0.16917548725E+02  0.55852940891E+02  0.00000000000E+00 0. -1.
         13    1    4    4    0    0 -0.33899760906E+02 -0.20508955409E+02  0.27501547878E+02  0.48230137644E+02  0.00000000000E+00 0.  1.
         -2    1    1    2    0  502  0.51967395534E+02 -0.42979689018E+01 -0.54271515883E+02  0.75262740925E+02  0.00000000000E+00 0.  1.
<scales pt_clust_5="13000.00000" pt_clust_6="13000.00000" pt_clust_7="13000.00000" pt_clust_8="13000.00000" pt_clust_9="52.14482"></scales>
<clustering>
<clus scale="   52.145">  2  9  1 -1</clus>
<clus scale="   91.547">  7  8 -1 -1</clus>
<clus scale="   98.501">  5  6 -1 -1</clus>
<clus scale="  102.428">  2  7  1 -1</clus>
<clus scale="   52.145">  2  5  1 -1</clus>
</clustering>
</event>
<event>
 9    1  0.1346603E-005  0.1563348E+03  0.7546771E-02  0.1192996E+00
         21   -1    0    0  501  502  0.00000000000E+00  0.00000000000E+00  0.96962368552E+02  0.96962368552E+02  0.00000000000E+00 0.  1.
          2   -1    0    0  502    0 -0.00000000000E+00 -0.00000000000E+00 -0.79292251474E+03  0.79292251474E+03  0.00000000000E+00 0. -1.
         23    2    1    2    0    0  0.71933779332E+02  0.10344683564E+03 -0.68516287511E+03  0.70261717234E+03  0.91361967097E+02 0.  0.
         23    2    1    2    0    0 -0.58921129752E+02 -0.12226263132E+03 -0.15135055215E+02  0.16398296085E+03  0.90782658050E+02 0.  0.
        -13    1    4    4    0    0 -0.37229588338E+02 -0.13367496275E+03 -0.12214257794E+02  0.13929905242E+03  0.00000000000E+00 0. -1.
         13    1    4    4    0    0 -0.21691541414E+02  0.11412331423E+02 -0.29207974208E+01  0.24683908422E+02  0.00000000000E+00 0.  1.
        -13    1    3    3    0    0 -0.38295187178E+01  0.57566976326E+02 -0.16103672644E+03  0.17105978265E+03  0.00000000000E+00 0.  1.
         13    1    3    3    0    0  0.75763298050E+02  0.45879859317E+02 -0.52412614867E+03  0.53155738970E+03  0.00000000000E+00 0. -1.
          2    1    1    2  501    0 -0.13012649581E+02  0.18815795680E+02  0.43377841326E+01  0.23284750103E+02  0.00000000000E+00 0. -1.
<scales pt_clust_5="13000.00000" pt_clust_6="13000.00000" pt_clust_7="13000.00000" pt_clust_8="13000.00000" pt_clust_9="22.87713"></scales>
<clustering>
<clus scale="   22.877">  1  9  2 -1</clus>
<clus scale="   90.783">  5  6 -1 -1</clus>
<clus scale="   91.362">  7  8 -1 -1</clus>
<clus scale="  155.997">  1  5  2 -1</clus>
<clus scale="   22.877">  1  5  2 -1</clus>
</clustering>
</event>
<event>
 9    1  0.1315259E-005  0.1088510E+03  0.7546771E-02  0.1267754E+00
         21   -1    0    0  501  502  0.00000000000E+00  0.00000000000E+00  0.18383756260E+03  0.18383756260E+03  0.00000000000E+00 0.  1.
          1   -1    0    0  502    0 -0.00000000000E+00 -0.00000000000E+00 -0.10968820673E+03  0.10968820673E+03  0.00000000000E+00 0. -1.
         23    2    1    2    0    0  0.15582917240E+02 -0.28702683012E+02  0.60531610199E+01  0.90374486001E+02  0.84049007370E+02 0.  0.
         23    2    1    2    0    0 -0.65413868080E+02  0.61929550046E+02  0.46077745687E+02  0.13933936863E+03  0.95802180014E+02 0.  0.
        -11    1    3    3    0    0  0.15054583469E+02  0.25358673042E+02  0.18609722778E+02  0.34871543753E+02  0.00000000000E+00 0. -1.
         11    1    3    3    0    0  0.52833377106E+00 -0.54061356054E+02 -0.12556561758E+02  0.55502942248E+02  0.00000000000E+00 0.  1.
        -13    1    4    4    0    0 -0.41441758619E+02  0.21002843499E+02 -0.25860402221E+02  0.53172353677E+02  0.00000000000E+00 0. -1.
         13    1    4    4    0    0 -0.23972109461E+02  0.40926706547E+02  0.71938147908E+02  0.86167014949E+02  0.00000000000E+00 0.  1.
          1    1    1    2  501    0  0.49830950841E+02 -0.33226867034E+02  0.22018449155E+02  0.63811914701E+02  0.00000000000E+00 0. -1.
<scales pt_clust_5="13000.00000" pt_clust_6="13000.00000" pt_clust_7="13000.00000" pt_clust_8="13000.00000" pt_clust_9="59.89281"></scales>
<clustering>
<clus scale="   59.893">  1  9  2 -1</clus>
<clus scale="   84.049">  5  6 -1 -1</clus>
<clus scale="   95.802">  7  8 -1 -1</clus>
<clus scale="   98.665">  2  5  1 -1</clus>
<clus scale="   59.893">  1  5  2 -1</clus>
</clustering>
</event>
<event>
 9    1  0.1315259E-005  0.9184831E+02  0.7546771E-02  0.1299366E+00
         21   -1    0    0  501  502  0.00000000000E+00  0.00000000000E+00  0.23651133338E+03  0.23651133338E+03  0.00000000000E+00 0. -1.
          1   -1    0    0  502    0 -0.00000000000E+00 -0.00000000000E+00 -0.19064886225E+03  0.19064886225E+03  0.00000000000E+00 0. -1.
         23    2    1    2    0    0 -0.12810093656E+02  0.27549032809E+02 -0.11846362914E+03  0.15126887069E+03  0.89025794597E+02 0.  0.
         23    2    1    2    0    0 -0.14216129204E+02  0.21576288327E+02 -0.81081826841E+01  0.94570350324E+02  0.90610010410E+02 0.  0.
        -11    1    4    4    0    0 -0.24231884372E+02  0.44508373846E+02 -0.32030740762E+02  0.59951212801E+02  0.00000000000E+00 0.  1.
         11    1    4    4    0    0  0.10015755168E+02 -0.22932085519E+02  0.23922558078E+02  0.34619137522E+02  0.00000000000E+00 0. -1.
        -11    1    3    3    0    0  0.27728019062E+02  0.93542403454E+00 -0.91857980290E+02  0.95956274428E+02  0.00000000000E+00 0. -1.
         11    1    3    3    0    0 -0.40538112719E+02  0.26613608774E+02 -0.26605648848E+02  0.55312596264E+02  0.00000000000E+00 0.  1.
          1    1    1    2  501    0  0.27026222861E+02 -0.49125321136E+02  0.17243428295E+03  0.18132097462E+03  0.00000000000E+00 0. -1.
<scales pt_clust_5="13000.00000" pt_clust_6="13000.00000" pt_clust_7="13000.00000" pt_clust_8="13000.00000" pt_clust_9="56.06883"></scales>
<clustering>
<clus scale="   56.069">  1  9  2 -1</clus>
<clus scale="   89.026">  7  8 -1 -1</clus>
<clus scale="   90.286">  2  7  1 -1</clus>
<clus scale="   90.610">  5  6 -1 -1</clus>
<clus scale="   56.069">  1  5  2 -1</clus>
</clustering>
</event>
<event>
 9    1  0.1315259E-005  0.9343147E+02  0.7546771E-02  0.1298532E+00
          2   -1    0    0  502    0 -0.00000000000E+00  0.00000000000E+00  0.21971377643E+03  0.21971377643E+03  0.00000000000E+00 0. -1.
         21   -1    0    0  501  502  0.00000000000E+00 -0.00000000000E+00 -0.15705147633E+03  0.15705147633E+03  0.00000000000E+00 0. -1.
         23    2    1    2    0    0 -0.68510184386E+01  0.16482393426E+02  0.99465101263E+02  0.13692785957E+03  0.92397654794E+02 0.  0.
         23    2    1    2    0    0  0.21490354972E+02  0.16221003535E+02  0.78243697264E+02  0.11934042580E+03  0.85994794935E+02 0.  0.
        -11    1    4    4    0    0 -0.29134980395E+02 -0.51225701558E+01  0.89439196256E+01  0.30904392986E+02  0.00000000000E+00 0.  1.
         11    1    4    4    0    0  0.50625335367E+02  0.21343573691E+02  0.69299777639E+02  0.88436032813E+02  0.00000000000E+00 0. -1.
        -11    1    3    3    0    0  0.33496599374E+02 -0.19804011293E+02  0.32234598144E+02  0.50530093513E+02  0.00000000000E+00 0.  1.
         11    1    3    3    0    0 -0.40347617813E+02  0.36286404720E+02  0.67230503119E+02  0.86397766061E+02  0.00000000000E+00 0. -1.
          2    1    1    2  501    0 -0.14639336533E+02 -0.32703396961E+02 -0.11504649843E+03  0.12049696738E+03  0.00000000000E+00 0. -1.
<scales pt_clust_5="13000.00000" pt_clust_6="13000.00000" pt_clust_7="13000.00000" pt_clust_8="13000.00000" pt_clust_9="35.83047"></scales>
<clustering>
<clus scale="   35.830">  2  9  1 -1</clus>
<clus scale="   85.995">  5  6 -1 -1</clus>
<clus scale="   87.105">  2  5  1 -1</clus>
<clus scale="   92.398">  7  8 -1 -1</clus>
<clus scale="   35.830">  2  5  1 -1</clus>
</clustering>
</event>
<event>
 9    1  0.1315259E-005  0.1218015E+03  0.7546771E-02  0.1241072E+00
          2   -1    0    0  502    0 -0.00000000000E+00  0.00000000000E+00  0.61448889466E+03  0.61448889466E+03  0.00000000000E+00 0. -1.
         21   -1    0    0  501  502  0.00000000000E+00 -0.00000000000E+00 -0.51823525308E+02  0.51823525308E+02  0.00000000000E+00 0.  1.
         23    2    1    2    0    0  0.35520732510E+02  0.67785801617E+02  0.42888475411E+03  0.44556061546E+03  0.93410344197E+02 0.  0.
         23    2    1    2    0    0 -0.69669085987E+02 -0.58929296001E+02  0.66257657082E+02  0.14456848864E+03  0.90462850484E+02 0.  0.
        -11    1    3    3    0    0  0.14858915315E+01  0.79218804984E+02  0.22510682501E+03  0.23864389706E+03  0.00000000000E+00 0.  1.
         11    1    3    3    0    0  0.34034840979E+02 -0.11433003368E+02  0.20377792910E+03  0.20691671841E+03  0.00000000000E+00 0. -1.
        -11    1    4    4    0    0 -0.40619205536E+02  0.15856955799E+02  0.55448654728E+01  0.43955755467E+02  0.00000000000E+00 0.  1.
         11    1    4    4    0    0 -0.29049880451E+02 -0.74786251800E+02  0.60712791609E+02  0.10061273318E+03  0.00000000000E+00 0. -1.
          2    1    1    2  501    0  0.34148353477E+02 -0.88565056158E+01  0.67522958155E+02  0.76183315857E+02  0.00000000000E+00 0. -1.
<scales pt_clust_5="13000.00000" pt_clust_6="13000.00000" pt_clust_7="13000.00000" pt_clust_8="13000.00000" pt_clust_9="35.27817"></scales>
<clustering>
<clus scale="   35.278">  2  9  1 -1</clus>
<clus scale="   90.463">  7  8 -1 -1</clus>
<clus scale="   93.410">  5  6 -1 -1</clus>
<clus scale="  119.556">  2  7  1 -1</clus>
<clus scale="   35.278">  2  5  1 -1</clus>
</clustering>
</event>
<event>
 9    1  0.1315259E-005  0.1525906E+03  0.7546771E-02  0.1200109E+00
         21   -1    0    0  501  502  0.00000000000E+00  0.00000000000E+00  0.69685627139E+02  0.69685627139E+02  0.00000000000E+00 0. -1.
          2   -1    0    0  502    0 -0.00000000000E+00 -0.00000000000E+00 -0.10881047721E+04  0.10881047721E+04  0.00000000000E+00 0. -1.
         23    2    1    2    0    0 -0.61813341595E+01  0.12144500315E+03 -0.71499827185E+03  0.73258262713E+03  0.10328445739E+03 0.  0.
         23    2    1    2    0    0 -0.10010231479E+02 -0.99374509436E+02 -0.34797056949E+03  0.37292059462E+03  0.89502820035E+02 0.  0.
        -13    1    3    3    0    0  0.24713289682E+02  0.48383872319E+01 -0.42902796067E+02  0.49747427957E+02  0.00000000000E+00 0.  1.
         13    1    3    3    0    0 -0.30894623841E+02  0.11660661591E+03 -0.67209547578E+03  0.68283519917E+03  0.00000000000E+00 0. -1.
        -13    1    4    4    0    0  0.33668459284E+02 -0.78810649162E+02 -0.21447329508E+03  0.23096207021E+03  0.00000000000E+00 0. -1.
         13    1    4    4    0    0 -0.43678690763E+02 -0.20563860274E+02 -0.13349727441E+03  0.14195852441E+03  0.00000000000E+00 0.  1.
          2    1    1    2  501    0  0.16191565638E+02 -0.22070493710E+02  0.44549696344E+02  0.52287177537E+02  0.00000000000E+00 0. -1.
<scales pt_clust_5="13000.00000" pt_clust_6="13000.00000" pt_clust_7="13000.00000" pt_clust_8="13000.00000" pt_clust_9="27.37286"></scales>
<clustering>
<clus scale="   27.373">  1  9  2 -1</clus>
<clus scale="   89.503">  7  8 -1 -1</clus>
<clus scale="  103.284">  5  6 -1 -1</clus>
<clus scale="  143.621">  1  7  2 -1</clus>
<clus scale="   27.373">  1  5  2 -1</clus>
</clustering>
</event>
<event>
 9    1  0.1315259E-005  0.9793488E+02  0.7546771E-02  0.1285432E+00
          1   -1    0    0  502    0 -0.00000000000E+00  0.00000000000E+00  0.27053804516E+03  0.27053804516E+03  0.00000000000E+00 0. -1.
         21   -1    0    0  501  502  0.00000000000E+00 -0.00000000000E+00 -0.14601521708E+03  0.14601521708E+03  0.00000000000E+00 0. -1.
         23    2    1    2    0    0  0.17304471371E+01  0.39051401120E+02  0.13765707975E+03  0.17090005012E+03  0.93430986017E+02 0.  0.
         23    2    1    2    0    0  0.33360357275E+01 -0.18195492648E+02  0.96099293144E+02  0.13433113218E+03  0.92019421014E+02 0.  0.
        -11    1    4    4    0    0  0.36399417756E+02 -0.10073825888E+02  0.92720775155E+02  0.10011763944E+03  0.00000000000E+00 0.  1.
         11    1    4    4    0    0 -0.33063382028E+02 -0.81216667598E+01  0.33785179892E+01  0.34213492747E+02  0.00000000000E+00 0. -1.
        -11    1    3    3    0    0  0.41420908090E+02  0.17240197516E+02  0.10750735386E+03  0.11649354991E+03  0.00000000000E+00 0. -1.
         11    1    3    3    0    0 -0.39690460953E+02  0.21811203604E+02  0.30149725894E+02  0.54406500207E+02  0.00000000000E+00 0.  1.
          1    1    1    2  501    0 -0.50664828647E+01 -0.20855908471E+02 -0.10923354482E+03  0.11132207993E+03  0.00000000000E+00 0. -1.
<scales pt_clust_5="13000.00000" pt_clust_6="13000.00000" pt_clust_7="13000.00000" pt_clust_8="13000.00000" pt_clust_9="21.46248"></scales>
<clustering>
<clus scale="   21.462">  2  9  1 -1</clus>
<clus scale="   92.019">  5  6 -1 -1</clus>
<clus scale="   93.431">  7  8 -1 -1</clus>
<clus scale="   96.589">  2  5  1 -1</clus>
<clus scale="   21.462">  2  5  1 -1</clus>
</clustering>
</event>
<event>
 9    1  0.1315259E-005  0.2317430E+03  0.7546771E-02  0.1125453E+00
          1   -1    0    0  502    0 -0.00000000000E+00  0.00000000000E+00  0.61668586046E+03  0.61668586046E+03  0.00000000000E+00 0. -1.
         21   -1    0    0  501  502  0.00000000000E+00 -0.00000000000E+00 -0.10679193468E+03  0.10679193468E+03  0.00000000000E+00 0. -1.
         23    2    1    2    0    0  0.48867305802E+02 -0.20142689679E+03  0.31798625376E+03  0.39011984767E+03  0.90096779307E+02 0.  0.
         23    2    1    2    0    0 -0.76079566200E+02  0.21224518126E+03  0.16356201083E+03  0.29260234782E+03  0.89596234288E+02 0.  0.
        -13    1    4    4    0    0 -0.41670070552E+02  0.30635660471E+02  0.65191009793E+02  0.83215420627E+02  0.00000000000E+00 0.  1.
         13    1    4    4    0    0 -0.34409495648E+02  0.18160952079E+03  0.98371001038E+02  0.20938692719E+03  0.00000000000E+00 0. -1.
        -13    1    3    3    0    0  0.65254768785E+02 -0.89301577346E+02  0.18353886127E+03  0.21428828751E+03  0.00000000000E+00 0.  1.
         13    1    3    3    0    0 -0.16387462983E+02 -0.11212531945E+03  0.13444739249E+03  0.17583156017E+03  0.00000000000E+00 0. -1.
          1    1    1    2  501    0  0.27212260398E+02 -0.10818284467E+02  0.28345661188E+02  0.40755599651E+02  0.00000000000E+00 0. -1.
<scales pt_clust_5="13000.00000" pt_clust_6="13000.00000" pt_clust_7="13000.00000" pt_clust_8="13000.00000" pt_clust_9="29.28382"></scales>
<clustering>
<clus scale="   29.284">  2  9  1 -1</clus>
<clus scale="   89.596">  5  6 -1 -1</clus>
<clus scale="   90.097">  7  8 -1 -1</clus>
<clus scale="  231.549">  2  5  1 -1</clus>
<clus scale="   29.284">  2  5  1 -1</clus>
</clustering>
</event>
<event>
 9    1  0.1315259E-005  0.1756231E+03  0.7546771E-02  0.1172408E+00
          2   -1    0    0  502    0 -0.00000000000E+00  0.00000000000E+00  0.66921213528E+03  0.66921213528E+03  0.00000000000E+00 0. -1.
         21   -1    0    0  501  502  0.00000000000E+00 -0.00000000000E+00 -0.70894518255E+02  0.70894518255E+02  0.00000000000E+00 0. -1.
         23    2    1    2    0    0  0.23017933686E+02  0.16037015556E+03  0.37806702033E+03  0.42100918226E+03  0.89808950699E+02 0.  0.
         23    2    1    2    0    0 -0.43663725848E+02 -0.12831005730E+03  0.22740493426E+03  0.28029949220E+03  0.92113025367E+02 0.  0.
        -11    1    3    3    0    0 -0.23183814373E+02  0.63911080208E+02  0.21915133901E+03  0.22945462474E+03  0.00000000000E+00 0. -1.
         11    1    3    3    0    0  0.46201748059E+02  0.96459075350E+02  0.15891568131E+03  0.19155455752E+03  0.00000000000E+00 0.  1.
        -11    1    4    4    0    0  0.19139288393E+02 -0.83507424851E+02  0.10371892034E+03  0.13452663975E+03  0.00000000000E+00 0.  1.
         11    1    4    4    0    0 -0.62803014241E+02 -0.44802632445E+02  0.12368601393E+03  0.14577285245E+03  0.00000000000E+00 0. -1.
          2    1    1    2  501    0  0.20645792161E+02 -0.32060098263E+02 -0.71543375586E+01  0.38797979078E+02  0.00000000000E+00 0. -1.
<scales pt_clust_5="13000.00000" pt_clust_6="13000.00000" pt_clust_7="13000.00000" pt_clust_8="13000.00000" pt_clust_9="38.13265"></scales>
<clustering>
<clus scale="   38.133">  2  9  1 -1</clus>
<clus scale="   89.809">  5  6 -1 -1</clus>
<clus scale="   92.113">  7  8 -1 -1</clus>
<clus scale="  174.426">  1  5  2 -1</clus>
<clus scale="   38.133">  2  5  1 -1</clus>
</clustering>
</event>
<event>
 9    1  0.1315259E-005  0.9487847E+02  0.7546771E-02  0.1291863E+00
         21   -1    0    0  501  502  0.00000000000E+00  0.00000000000E+00  0.60222364551E+02  0.60222364551E+02  0.00000000000E+00 0.  1.
          3   -1    0    0  502    0 -0.00000000000E+00 -0.00000000000E+00 -0.44675561872E+03  0.44675561872E+03  0.00000000000E+00 0. -1.
         23    2    1    2    0    0  0.32049261727E+02  0.21212408551E+02 -0.21930929248E+03  0.24031256205E+03  0.90423670877E+02 0.  0.
         23    2    1    2    0    0 -0.19998492637E+02  0.20056903245E+02 -0.19385465684E+03  0.21609298746E+03  0.91182959911E+02 0.  0.
        -11    1    4    4    0    0  0.29713726838E+02 -0.15778045850E+02 -0.80177005965E+02  0.86949436910E+02  0.00000000000E+00 0.  1.
         11    1    4    4    0    0 -0.49712219475E+02  0.35834949096E+02 -0.11367765087E+03  0.12914355055E+03  0.00000000000E+00 0. -1.
        -11    1    3    3    0    0  0.59633388084E+02  0.25400556294E+02 -0.11169019467E+03  0.12913569925E+03  0.00000000000E+00 0.  1.
         11    1    3    3    0    0 -0.27584126357E+02 -0.41881477436E+01 -0.10761909781E+03  0.11117686280E+03  0.00000000000E+00 0. -1.
          3    1    1    2  501    0 -0.12050769090E+02 -0.41269311796E+02  0.26630695153E+02  0.50572433757E+02  0.00000000000E+00 0. -1.
<scales pt_clust_5="13000.00000" pt_clust_6="13000.00000" pt_clust_7="13000.00000" pt_clust_8="13000.00000" pt_clust_9="42.99276"></scales>
<clustering>
<clus scale="   42.993">  1  9  2 -1</clus>
<clus scale="   90.424">  7  8 -1 -1</clus>
<clus scale="   91.183">  5  6 -1 -1</clus>
<clus scale="   94.149">  2  7  1 -1</clus>
<clus scale="   42.993">  1  5  2 -1</clus>
</clustering>
</event>
<event>
 9    1  0.1315259E-005  0.1329261E+03  0.7546771E-02  0.1229970E+00
         21   -1    0    0  501  502  0.00000000000E+00  0.00000000000E+00  0.43282992204E+03  0.43282992204E+03  0.00000000000E+00 0.  1.
          2   -1    0    0  502    0 -0.00000000000E+00 -0.00000000000E+00 -0.99290331596E+02  0.99290331596E+02  0.00000000000E+00 0. -1.
         23    2    1    2    0    0 -0.79913433907E+02  0.66879425351E+01 -0.26359973758E+02  0.13567881052E+03  0.10622149459E+03 0.  0.
         23    2    1    2    0    0  0.74252431592E+02 -0.40292159723E+02  0.19661695433E+03  0.22964066060E+03  0.83305009098E+02 0.  0.
        -13    1    3    3    0    0  0.23069146175E+02 -0.56619412721E+01  0.99957403165E+01  0.25771261294E+02  0.00000000000E+00 0.  1.
         13    1    3    3    0    0 -0.10298258008E+03  0.12349883807E+02 -0.36355714074E+02  0.10990754922E+03  0.00000000000E+00 0. -1.
        -13    1    4    4    0    0  0.83995500191E+02 -0.76426192761E+01  0.13340673444E+03  0.15783222255E+03  0.00000000000E+00 0. -1.
         13    1    4    4    0    0 -0.97430685995E+01 -0.32649540447E+02  0.63210219889E+02  0.71808438052E+02  0.00000000000E+00 0.  1.
          2    1    1    2  501    0  0.56610023153E+01  0.33604217188E+02  0.16328260988E+03  0.16680078252E+03  0.00000000000E+00 0. -1.
<scales pt_clust_5="13000.00000" pt_clust_6="13000.00000" pt_clust_7="13000.00000" pt_clust_8="13000.00000" pt_clust_9="34.07771"></scales>
<clustering>
<clus scale="   34.078">  1  9  2 -1</clus>
<clus scale="   83.305">  7  8 -1 -1</clus>
<clus scale="  106.221">  5  6 -1 -1</clus>
<clus scale="  115.439">  1  7  2 -1</clus>
<clus scale="   34.078">  1  5  2 -1</clus>
</clustering>
</event>
<event>
 9    1  0.1315259E-005  0.1229836E+03  0.7546771E-02  0.1238880E+00
         21   -1    0    0  501  502  0.00000000000E+00  0.00000000000E+00  0.58796877880E+02  0.58796877880E+02  0.00000000000E+00 0. -1.
          1   -1    0    0  502    0 -0.00000000000E+00 -0.00000000000E+00 -0.68059154173E+03  0.68059154173E+03  0.00000000000E+00 0. -1.
         23    2    1    2    0    0  0.42737415397E+02 -0.55106981345E+02 -0.34856181197E+03  0.36790934625E+03  0.94861394803E+02 0.  0.
         23    2    1    2    0    0 -0.61673762134E+02  0.65597054901E+02 -0.30600038712E+03  0.33220645903E+03  0.92834626936E+02 0.  0.
        -13    1    4    4    0    0 -0.25374642030E+02  0.64860294814E+02 -0.27733825071E+03  0.28594970818E+03  0.00000000000E+00 0.  1.
         13    1    4    4    0    0 -0.36299120104E+02  0.73676008764E+00 -0.28662136406E+02  0.46256750849E+02  0.00000000000E+00 0. -1.
        -13    1    3    3    0    0 -0.23176770561E+02 -0.81041302967E+01 -0.27805157399E+02  0.37094021074E+02  0.00000000000E+00 0.  1.
         13    1    3    3    0    0  0.65914185957E+02 -0.47002851049E+02 -0.32075665458E+03  0.33081532518E+03  0.00000000000E+00 0. -1.
          1    1    1    2  501    0  0.18936346737E+02 -0.10490073556E+02  0.32767535238E+02  0.39272614333E+02  0.00000000000E+00 0. -1.
<scales pt_clust_5="13000.00000" pt_clust_6="13000.00000" pt_clust_7="13000.00000" pt_clust_8="13000.00000" pt_clust_9="21.64779"></scales>
<clustering>
<clus scale="   21.648">  1  9  2 -1</clus>
<clus scale="   92.835">  5  6 -1 -1</clus>
<clus scale="   94.861">  7  8 -1 -1</clus>
<clus scale="  121.427">  1  5  2 -1</clus>
<clus scale="   21.648">  1  5  2 -1</clus>
</clustering>
</event>
<event>
 9    1  0.1315259E-005  0.1667018E+03  0.7546771E-02  0.1182207E+00
         21   -1    0    0  501  502  0.00000000000E+00  0.00000000000E+00  0.10596204084E+04  0.10596204084E+04  0.00000000000E+00 0. -1.
          2   -1    0    0  502    0 -0.00000000000E+00 -0.00000000000E+00 -0.15974864427E+03  0.15974864427E+03  0.00000000000E+00 0. -1.
         23    2    1    2    0    0 -0.80371563946E+02 -0.11870038359E+03 -0.80322155533E+02  0.18797406683E+03  0.91286536659E+02 0.  0.
         23    2    1    2    0    0 -0.33093186456E+02  0.15057802266E+03  0.36838971283E+03  0.40834216228E+03  0.85225824034E+02 0.  0.
        -11    1    4    4    0    0 -0.26464055790E+02  0.53840804960E+01  0.94412636433E+02  0.98199187827E+02  0.00000000000E+00 0.  1.
         11    1    4    4    0    0 -0.66291306664E+01  0.14519394216E+03  0.27397707639E+03  0.31014297445E+03  0.00000000000E+00 0. -1.
        -11    1    3    3    0    0 -0.33563386397E+02  0.19722455181E+01 -0.40324421774E+02  0.52501901396E+02  0.00000000000E+00 0.  1.
         11    1    3    3    0    0 -0.46808177549E+02 -0.12067262911E+03 -0.39997733759E+02  0.13547216543E+03  0.00000000000E+00 0. -1.
          2    1    1    2  501    0  0.11346475040E+03 -0.31877639070E+02  0.61180420686E+03  0.62305282359E+03  0.00000000000E+00 0. -1.
<scales pt_clust_5="13000.00000" pt_clust_6="13000.00000" pt_clust_7="13000.00000" pt_clust_8="13000.00000" pt_clust_9="117.85768"></scales>
<clustering>
<clus scale="   85.226">  5  6 -1 -1</clus>
<clus scale="   91.287">  7  8 -1 -1</clus>
<clus scale="  117.858">  1  9  2 -1</clus>
<clus scale="  163.462">  1  5  2 -1</clus>
<clus scale="  117.858">  1  5  2 -1</clus>
</clustering>
</event>
<event>
 9    1  0.1315259E-005  0.1335564E+03  0.7546771E-02  0.1222501E+00
          2   -1    0    0  502    0 -0.00000000000E+00  0.00000000000E+00  0.10615253390E+03  0.10615253390E+03  0.00000000000E+00 0. -1.
         21   -1    0    0  501  502  0.00000000000E+00 -0.00000000000E+00 -0.23762354026E+03  0.23762354026E+03  0.00000000000E+00 0. -1.
         23    2    1    2    0    0  0.88914165404E+02  0.63122415268E+02 -0.24385585245E+02  0.14343761147E+03  0.89941778373E+02 0.  0.
         23    2    1    2    0    0 -0.49871112187E+02 -0.74314236161E+02 -0.65442482959E+02  0.14216844330E+03  0.88991090376E+02 0.  0.
        -13    1    4    4    0    0 -0.17393034272E+02  0.19555096655E+02 -0.77230339308E+01  0.27286712875E+02  0.00000000000E+00 0.  1.
         13    1    4    4    0    0 -0.32478077914E+02 -0.93869332817E+02 -0.57719449028E+02  0.11488173042E+03  0.00000000000E+00 0. -1.
        -13    1    3    3    0    0  0.65017350324E+02  0.33794481081E+02  0.28322046590E+02  0.78558647632E+02  0.00000000000E+00 0. -1.
         13    1    3    3    0    0  0.23896815080E+02  0.29327934187E+02 -0.52707631836E+02  0.64878963835E+02  0.00000000000E+00 0.  1.
          2    1    1    2  501    0 -0.39043053217E+02  0.11191820894E+02 -0.41642938156E+02  0.58170019406E+02  0.00000000000E+00 0. -1.
<scales pt_clust_5="13000.00000" pt_clust_6="13000.00000" pt_clust_7="13000.00000" pt_clust_8="13000.00000" pt_clust_9="40.61548"></scales>
<clustering>
<clus scale="   40.615">  2  9  1 -1</clus>
<clus scale="   88.991">  5  6 -1 -1</clus>
<clus scale="   89.942">  7  8 -1 -1</clus>
<clus scale="  132.918">  2  5  1 -1</clus>
<clus scale="   40.615">  2  5  1 -1</clus>
</clustering>
</event>
<event>
 9    1  0.1315259E-005  0.1215941E+03  0.7546771E-02  0.1240827E+00
         21   -1    0    0  501  502  0.00000000000E+00  0.00000000000E+00  0.14804260672E+03  0.14804260672E+03  0.00000000000E+00 0. -1.
         -2   -1    0    0    0  501 -0.00000000000E+00 -0.00000000000E+00 -0.14142414807E+03  0.14142414807E+03  0.00000000000E+00 0.  1.
         23    2    1    2    0    0  0.12917811041E+01 -0.97801659902E+02 -0.23764434979E+02  0.13506501523E+03  0.90060960420E+02 0.  0.
         23    2    1    2    0    0  0.89580255511E+00  0.62500257672E+02  0.46024342994E+01  0.11063409619E+03  0.91168175191E+02 0.  0.
        -11    1    4    4    0    0  0.34281179151E+02  0.15702677199E+02 -0.25718385836E+02  0.45642180986E+02  0.00000000000E+00 0.  1.
         11    1    4    4    0    0 -0.33385376595E+02  0.46797580473E+02  0.30320820135E+02  0.64991915207E+02  0.00000000000E+00 0. -1.
        -11    1    3    3    0    0 -0.33874370698E+02 -0.41460738242E+02  0.18147224366E+02  0.56531297154E+02  0.00000000000E+00 0. -1.
         11    1    3    3    0    0  0.35166151802E+02 -0.56340921660E+02 -0.41911659345E+02  0.78533718078E+02  0.00000000000E+00 0.  1.
         -2    1    1    2    0  502 -0.21875836592E+01  0.35301402230E+02  0.25780459333E+02  0.43767643358E+02  0.00000000000E+00 0.  1.
<scales pt_clust_5="13000.00000" pt_clust_6="13000.00000" pt_clust_7="13000.00000" pt_clust_8="13000.00000" pt_clust_9="35.36912"></scales>
<clustering>
<clus scale="   35.369">  1  9  2 -1</clus>
<clus scale="   90.061">  7  8 -1 -1</clus>
<clus scale="   91.168">  5  6 -1 -1</clus>
<clus scale="  120.766">  2  7  1 -1</clus>
<clus scale="   35.369">  1  5  2 -1</clus>
</clustering>
</event>
<event>
 9    1  0.1315259E-005  0.1103619E+03  0.7546771E-02  0.1260638E+00
         -1   -1    0    0    0  501 -0.00000000000E+00  0.00000000000E+00  0.27493138991E+03  0.27493138991E+03  0.00000000000E+00 0.  1.
         21   -1    0    0  501  502  0.00000000000E+00 -0.00000000000E+00 -0.33608515731E+03  0.33608515731E+03  0.00000000000E+00 0.  1.
         23    2    1    2    0    0 -0.48013643899E+02  0.16094769485E+02  0.21476301400E+03  0.23991278803E+03  0.94184086086E+02 0.  0.
         23    2    1    2    0    0  0.12092412754E+03  0.30108392418E+02 -0.14285680278E+03  0.21249849854E+03  0.96012425595E+02 0.  0.
        -11    1    3    3    0    0 -0.14551285985E+02  0.41358460498E+02  0.37298551434E+02  0.57562523552E+02  0.00000000000E+00 0.  1.
         11    1    3    3    0    0 -0.33462357914E+02 -0.25263691013E+02  0.17746446257E+03  0.18235026448E+03  0.00000000000E+00 0. -1.
        -13    1    4    4    0    0  0.96586761390E+02  0.33687326126E+02 -0.45276061039E+02  0.11186491908E+03  0.00000000000E+00 0.  1.
         13    1    4    4    0    0  0.24337366147E+02 -0.35789337073E+01 -0.97580741740E+02  0.10063357947E+03  0.00000000000E+00 0. -1.
         -1    1    1    2    0  502 -0.72910483638E+02 -0.46203161903E+02 -0.13305997862E+03  0.15860526064E+03  0.00000000000E+00 0.  1.
<scales pt_clust_5="13000.00000" pt_clust_6="13000.00000" pt_clust_7="13000.00000" pt_clust_8="13000.00000" pt_clust_9="86.31727"></scales>
<clustering>
<clus scale="   86.317">  2  9  1 -1</clus>
<clus scale="   94.184">  5  6 -1 -1</clus>
<clus scale="   96.012">  7  8 -1 -1</clus>
<clus scale="  108.775">  1  5  2 -1</clus>
<clus scale="   86.317">  2  5  1 -1</clus>
</clustering>
</event>
<event>
 9    1  0.1315259E-005  0.1009542E+03  0.7546771E-02  0.1278645E+00
         -3   -1    0    0    0  501 -0.00000000000E+00  0.00000000000E+00  0.13266933629E+03  0.13266933629E+03  0.00000000000E+00 0.  1.
         21   -1    0    0  501  502  0.00000000000E+00 -0.00000000000E+00 -0.10439273923E+03  0.10439273923E+03  0.00000000000E+00 0. -1.
         23    2    1    2    0    0  0.15050789599E+02  0.39738518848E+02  0.36716110970E+02  0.10889046024E+03  0.93291925587E+02 0.  0.
         23    2    1    2    0    0 -0.30265008334E+02 -0.20475011377E+02 -0.19210386529E+02  0.10136551766E+03  0.92578250148E+02 0.  0.
        -11    1    4    4    0    0 -0.14825813514E+02 -0.56563091109E+02 -0.20047726185E+01  0.58508180072E+02  0.00000000000E+00 0.  1.
         11    1    4    4    0    0 -0.15439194820E+02  0.36088079732E+02 -0.17205613911E+02  0.42857337592E+02  0.00000000000E+00 0. -1.
        -13    1    3    3    0    0  0.51870418812E+02  0.32608185591E+02  0.36636386043E+02  0.71386685717E+02  0.00000000000E+00 0.  1.
         13    1    3    3    0    0 -0.36819629213E+02  0.71303332566E+01  0.79724926850E-01  0.37503774528E+02  0.00000000000E+00 0. -1.
         -3    1    1    2    0  502  0.15214218735E+02 -0.19263507471E+02  0.10770872623E+02  0.26806097606E+02  0.00000000000E+00 0.  1.
<scales pt_clust_5="13000.00000" pt_clust_6="13000.00000" pt_clust_7="13000.00000" pt_clust_8="13000.00000" pt_clust_9="24.54701"></scales>
<clustering>
<clus scale="   24.547">  2  9  1 -1</clus>
<clus scale="   92.578">  5  6 -1 -1</clus>
<clus scale="   93.292">  7  8 -1 -1</clus>
<clus scale="  100.295">  2  5  1 -1</clus>
<clus scale="   24.547">  2  5  1 -1</clus>
</clustering>
</event>
<event>
 9    1  0.1315259E-005  0.1244816E+03  0.7546771E-02  0.1236311E+00
         21   -1    0    0  501  502  0.00000000000E+00  0.00000000000E+00  0.17062905884E+03  0.17062905884E+03  0.00000000000E+00 0. -1.
          2   -1    0    0  502    0 -0.00000000000E+00 -0.00000000000E+00 -0.41535049480E+03  0.41535049480E+03  0.00000000000E+00 0. -1.
         23    2    1    2    0    0  0.82460086642E+02  0.19355572480E+02 -0.36723226748E+03  0.38746834443E+03  0.89988196908E+02 0.  0.
         23    2    1    2    0    0 -0.72386067288E+02 -0.45692750028E+02  0.84213603024E+02  0.15095271368E+03  0.91472513310E+02 0.  0.
        -11    1    3    3    0    0  0.58619930853E+02  0.55141063875E+02 -0.23174245470E+03  0.24531897304E+03  0.00000000000E+00 0.  1.
         11    1    3    3    0    0  0.23840155789E+02 -0.35785491395E+02 -0.13548981277E+03  0.14214937140E+03  0.00000000000E+00 0. -1.
        -13    1    4    4    0    0 -0.28452841573E+02  0.20685137442E+02  0.56711648597E+02  0.66735674052E+02  0.00000000000E+00 0.  1.
         13    1    4    4    0    0 -0.43933225716E+02 -0.66377887471E+02  0.27501954427E+02  0.84217039631E+02  0.00000000000E+00 0. -1.
          2    1    1    2  501    0 -0.10074019354E+02  0.26337177548E+02  0.38297228494E+02  0.47558495534E+02  0.00000000000E+00 0. -1.
<scales pt_clust_5="13000.00000" pt_clust_6="13000.00000" pt_clust_7="13000.00000" pt_clust_8="13000.00000" pt_clust_9="28.19810"></scales>
<clustering>
<clus scale="   28.198">  1  9  2 -1</clus>
<clus scale="   89.988">  5  6 -1 -1</clus>
<clus scale="   91.473">  7  8 -1 -1</clus>
<clus scale="  123.395">  2  5  1 -1</clus>
<clus scale="   28.198">  1  5  2 -1</clus>
</clustering>
</event>
<event>
 9    1  0.1315259E-005  0.1680114E+03  0.7546771E-02  0.1206653E+00
         21   -1    0    0  501  502  0.00000000000E+00  0.00000000000E+00  0.91254336948E+02  0.91254336948E+02  0.00000000000E+00 0.  1.
         -4   -1    0    0    0  501 -0.00000000000E+00 -0.00000000000E+00 -0.64676357575E+03  0.64676357575E+03  0.00000000000E+00 0.  1.
         23    2    1    2    0    0 -0.13613776349E+02  0.90364937698E+01 -0.29186499281E+03  0.30644952171E+03  0.91973595140E+02 0.  0.
         23    2    1    2    0    0  0.14180673231E+03  0.43360729276E+02 -0.23083048851E+03  0.28924606097E+03  0.91603860122E+02 0.  0.
        -11    1    4    4    0    0  0.56661978786E+02  0.62154890683E+02 -0.86692828082E+02  0.12078682344E+03  0.00000000000E+00 0. -1.
         11    1    4    4    0    0  0.85144753522E+02 -0.18794161408E+02 -0.14413766043E+03  0.16845923753E+03  0.00000000000E+00 0.  1.
        -13    1    3    3    0    0 -0.10967889135E+02 -0.41340200532E+02 -0.12404791682E+03  0.13121429967E+03  0.00000000000E+00 0. -1.
         13    1    3    3    0    0 -0.26458872137E+01  0.50376694301E+02 -0.16781707600E+03  0.17523522204E+03  0.00000000000E+00 0.  1.
         -4    1    1    2    0  502 -0.12819295596E+03 -0.52397223045E+02 -0.32813757477E+02  0.14232233001E+03  0.00000000000E+00 0.  1.
<scales pt_clust_5="13000.00000" pt_clust_6="13000.00000" pt_clust_7="13000.00000" pt_clust_8="13000.00000" pt_clust_9="140.84238"></scales>
<clustering>
<clus scale="   91.604">  5  6 -1 -1</clus>
<clus scale="   91.974">  7  8 -1 -1</clus>
<clus scale="   93.414">  2  7  1 -1</clus>
<clus scale="  140.842">  1  9  2 -1</clus>
<clus scale="  140.842">  1  5  2 -1</clus>
</clustering>
</event>
<event>
 9    1  0.1315259E-005  0.1076257E+03  0.7546771E-02  0.1265891E+00
          1   -1    0    0  502    0 -0.00000000000E+00  0.00000000000E+00  0.44148983916E+03  0.44148983916E+03  0.00000000000E+00 0. -1.
         21   -1    0    0  501  502  0.00000000000E+00 -0.00000000000E+00 -0.83361173554E+02  0.83361173554E+02  0.00000000000E+00 0. -1.
         23    2    1    2    0    0  0.13675208910E+02 -0.60469082291E+02  0.34853615939E+03  0.36571103069E+03  0.91780075788E+02 0.  0.
         23    2    1    2    0    0  0.16435720651E+02  0.38056746300E+02  0.44064666929E+02  0.10817616400E+03  0.89676857298E+02 0.  0.
        -11    1    4    4    0    0 -0.34961854569E+02  0.20236969812E+02  0.34115717220E+02  0.52874836960E+02  0.00000000000E+00 0. -1.
         11    1    4    4    0    0  0.51397575220E+02  0.17819776487E+02  0.99489497091E+01  0.55301327045E+02  0.00000000000E+00 0.  1.
        -13    1    3    3    0    0 -0.20115248988E+02  0.12938383560E+02  0.38567342764E+02  0.45381328086E+02  0.00000000000E+00 0.  1.
         13    1    3    3    0    0  0.33790457898E+02 -0.73407465851E+02  0.30996881663E+03  0.32032970260E+03  0.00000000000E+00 0. -1.
          1    1    1    2  501    0 -0.30110929562E+02  0.22412335992E+02 -0.34472160710E+02  0.50963818025E+02  0.00000000000E+00 0. -1.
<scales pt_clust_5="13000.00000" pt_clust_6="13000.00000" pt_clust_7="13000.00000" pt_clust_8="13000.00000" pt_clust_9="37.53639"></scales>
<clustering>
<clus scale="   37.536">  2  9  1 -1</clus>
<clus scale="   89.677">  5  6 -1 -1</clus>
<clus scale="   91.780">  7  8 -1 -1</clus>
<clus scale="  105.838">  2  5  1 -1</clus>
<clus scale="   37.536">  2  5  1 -1</clus>
</clustering>
</event>
<event>
 9    1  0.1315259E-005  0.3469069E+03  0.7546771E-02  0.1064787E+00
          1   -1    0    0  502    0 -0.00000000000E+00  0.00000000000E+00  0.11016341544E+04  0.11016341544E+04  0.00000000000E+00 0. -1.
         21   -1    0    0  501  502  0.00000000000E+00 -0.00000000000E+00 -0.23588405204E+03  0.23588405204E+03  0.00000000000E+00 0. -1.
         23    2    1    2    0    0  0.10830804249E+03 -0.29328964094E+03  0.71456685239E+03  0.78943559096E+03  0.12187419817E+03 0.  0.
         23    2    1    2    0    0 -0.28015506240E+02  0.37378752846E+03  0.18612267838E+03  0.42913907874E+03  0.94956371439E+02 0.  0.
        -11    1    4    4    0    0 -0.16499394168E+02  0.21193049089E+02  0.37973038399E+02  0.46511579019E+02  0.00000000000E+00 0.  1.
         11    1    4    4    0    0 -0.11516112072E+02  0.35259447937E+03  0.14814963998E+03  0.38262749973E+03  0.00000000000E+00 0. -1.
        -13    1    3    3    0    0  0.28570479150E+02 -0.18881325515E+02  0.23265736034E+02  0.41401343037E+02  0.00000000000E+00 0.  1.
         13    1    3    3    0    0  0.79737563345E+02 -0.27440831543E+03  0.69130111636E+03  0.74803424792E+03  0.00000000000E+00 0. -1.
          1    1    1    2  501    0 -0.80292536255E+02 -0.80497887516E+02 -0.34939428417E+02  0.11894353673E+03  0.00000000000E+00 0. -1.
<scales pt_clust_5="13000.00000" pt_clust_6="13000.00000" pt_clust_7="13000.00000" pt_clust_8="13000.00000" pt_clust_9="113.69609"></scales>
<clustering>
<clus scale="   94.956">  5  6 -1 -1</clus>
<clus scale="  113.696">  2  9  1 -1</clus>
<clus scale="  121.874">  7  8 -1 -1</clus>
<clus scale="  338.390">  2  5  1 -1</clus>
<clus scale="  113.696">  2  5  1 -1</clus>
</clustering>
</event>
<event>
 9    1  0.1315259E-005  0.1155409E+03  0.7546771E-02  0.1251184E+00
         21   -1    0    0  501  502  0.00000000000E+00  0.00000000000E+00  0.18704888477E+03  0.18704888477E+03  0.00000000000E+00 0. -1.
          2   -1    0    0  502    0 -0.00000000000E+00 -0.00000000000E+00 -0.24377668092E+03  0.24377668092E+03  0.00000000000E+00 0. -1.
         23    2    1    2    0    0 -0.26034991025E+02  0.79551781814E+02 -0.16667538303E+03  0.20693335965E+03  0.89634955677E+02 0.  0.
         23    2    1    2    0    0  0.40247928006E+02 -0.24184833859E+02  0.30141964580E+01  0.10263934427E+03  0.91219228863E+02 0.  0.
        -11    1    3    3    0    0 -0.11785670160E+02 -0.18403489575E+02 -0.45427144257E+02  0.50410473961E+02  0.00000000000E+00 0.  1.
         11    1    3    3    0    0 -0.14249320865E+02  0.97955271388E+02 -0.12124823877E+03  0.15652288568E+03  0.00000000000E+00 0. -1.
        -11    1    4    4    0    0 -0.92838834202E+01  0.24505731489E+02  0.17731971618E+02  0.31640862577E+02  0.00000000000E+00 0.  1.
         11    1    4    4    0    0  0.49531811426E+02 -0.48690565348E+02 -0.14717775160E+02  0.70998481693E+02  0.00000000000E+00 0. -1.
          2    1    1    2  501    0 -0.14212936981E+02 -0.55366947955E+02  0.10693339041E+03  0.12125286177E+03  0.00000000000E+00 0. -1.
<scales pt_clust_5="13000.00000" pt_clust_6="13000.00000" pt_clust_7="13000.00000" pt_clust_8="13000.00000" pt_clust_9="57.16211"></scales>
<clustering>
<clus scale="   57.162">  1  9  2 -1</clus>
<clus scale="   89.635">  5  6 -1 -1</clus>
<clus scale="   91.219">  7  8 -1 -1</clus>
<clus scale="  114.294">  2  5  1 -1</clus>
<clus scale="   57.162">  1  5  2 -1</clus>
</clustering>
</event>
<event>
 9    1  0.1315259E-005  0.1227103E+03  0.7546771E-02  0.1238967E+00
         -3   -1    0    0    0  501 -0.00000000000E+00  0.00000000000E+00  0.42888252807E+03  0.42888252807E+03  0.00000000000E+00 0.  1.
         21   -1    0    0  501  502  0.00000000000E+00 -0.00000000000E+00 -0.52462343727E+02  0.52462343727E+02  0.00000000000E+00 0. -1.
         23    2    1    2    0    0  0.64759556922E+02  0.32768297712E+02  0.15457296595E+03  0.19369303439E+03  0.91414595234E+02 0.  0.
         23    2    1    2    0    0 -0.95423269390E+02 -0.12658657612E+02  0.12004605761E+03  0.17944769135E+03  0.92328630601E+02 0.  0.
        -11    1    4    4    0    0 -0.42390216886E+02  0.37776545596E+01  0.11625131309E+03  0.12379648200E+03  0.00000000000E+00 0.  1.
         11    1    4    4    0    0 -0.53033052504E+02 -0.16436312172E+02  0.37947445243E+01  0.55651209346E+02  0.00000000000E+00 0. -1.
        -13    1    3    3    0    0  0.49836026453E+02  0.54153167280E+02  0.15018725098E+03  0.16724953039E+03  0.00000000000E+00 0.  1.
         13    1    3    3    0    0  0.14923530469E+02 -0.21384869568E+02  0.43857149709E+01  0.26443504002E+02  0.00000000000E+00 0. -1.
         -3    1    1    2    0  502  0.30663712468E+02 -0.20109640100E+02  0.10180116079E+03  0.10820414606E+03  0.00000000000E+00 0.  1.
<scales pt_clust_5="13000.00000" pt_clust_6="13000.00000" pt_clust_7="13000.00000" pt_clust_8="13000.00000" pt_clust_9="36.66964"></scales>
<clustering>
<clus scale="   36.670">  2  9  1 -1</clus>
<clus scale="   91.415">  7  8 -1 -1</clus>
<clus scale="   92.329">  5  6 -1 -1</clus>
<clus scale="  122.024">  1  7  2 -1</clus>
<clus scale="   36.670">  2  5  1 -1</clus>
</clustering>
</event>
<event>
 9    1  0.1315259E-005  0.1323252E+03  0.7546771E-02  0.1232664E+00
         21   -1    0    0  501  502  0.00000000000E+00  0.00000000000E+00  0.11695381518E+03  0.11695381518E+03  0.00000000000E+00 0.  1.
         -1   -1    0    0    0  501 -0.00000000000E+00 -0.00000000000E+00 -0.26705915863E+03  0.26705915863E+03  0.00000000000E+00 0.  1.
         23    2    1    2    0    0 -0.49243577550E+02 -0.40584178201E+02 -0.75777661366E+02  0.13415193185E+03  0.90457069416E+02 0.  0.
         23    2    1    2    0    0  0.10617429912E+02 -0.73308928716E+02 -0.52733866497E+02  0.12767302308E+03  0.89624836393E+02 0.  0.
        -11    1    4    4    0    0  0.25534329800E+02 -0.49745822244E+01  0.15232537162E+02  0.30145955865E+02  0.00000000000E+00 0. -1.
         11    1    4    4    0    0 -0.14916899887E+02 -0.68334346491E+02 -0.67966403659E+02  0.97527067212E+02  0.00000000000E+00 0.  1.
        -11    1    3    3    0    0  0.11297529497E+02 -0.17391066736E+02  0.12809589800E+02  0.24375581343E+02  0.00000000000E+00 0. -1.
         11    1    3    3    0    0 -0.60541107046E+02 -0.23193111464E+02 -0.88587251166E+02  0.10977635051E+03  0.00000000000E+00 0.  1.
         -1    1    1    2    0  502  0.38626147637E+02  0.11389310692E+03 -0.21593815587E+02  0.12218801887E+03  0.00000000000E+00 0.  1.
<scales pt_clust_5="13000.00000" pt_clust_6="13000.00000" pt_clust_7="13000.00000" pt_clust_8="13000.00000" pt_clust_9="97.35165"></scales>
<clustering>
<clus scale="   89.625">  5  6 -1 -1</clus>
<clus scale="   90.457">  7  8 -1 -1</clus>
<clus scale="  110.700">  2  7  1 -1</clus>
<clus scale="   97.352">  1  9  2 -1</clus>
<clus scale="   97.352">  1  5  2 -1</clus>
</clustering>
</event>
<event>
 9    1  0.1315259E-005  0.2704079E+03  0.7546771E-02  0.1118197E+00
         -2   -1    0    0    0  501 -0.00000000000E+00  0.00000000000E+00  0.21466904030E+03  0.21466904030E+03  0.00000000000E+00 0.  1.
         21   -1    0    0  501  502  0.00000000000E+00 -0.00000000000E+00 -0.73057259370E+03  0.73057259370E+03  0.00000000000E+00 0.  1.
         23    2    1    2    0    0  0.62346734172E+01  0.14894059854E+03 -0.18685416469E+03  0.25576260664E+03  0.90982740398E+02 0.  0.
         23    2    1    2    0    0  0.21218398283E+03 -0.24467889932E+03 -0.80880993188E+02  0.34529871971E+03  0.88315708847E+02 0.  0.
        -11    1    4    4    0    0  0.77872578242E+02 -0.33478524816E+02 -0.11279501215E+02  0.85511269512E+02  0.00000000000E+00 0. -1.
         11    1    4    4    0    0  0.13431140459E+03 -0.21120037451E+03 -0.69601491972E+02  0.25978745019E+03  0.00000000000E+00 0.  1.
        -13    1    3    3    0    0  0.37024314062E+02  0.81641796595E+02 -0.14573511768E+03  0.17109911545E+03  0.00000000000E+00 0.  1.
         13    1    3    3    0    0 -0.30789640645E+02  0.67298801942E+02 -0.41119047008E+02  0.84663491192E+02  0.00000000000E+00 0. -1.
         -2    1    1    2    0  502 -0.21841865625E+03  0.95738300783E+02 -0.24816839552E+03  0.34418030764E+03  0.00000000000E+00 0.  1.
<scales pt_clust_5="13000.00000" pt_clust_6="13000.00000" pt_clust_7="13000.00000" pt_clust_8="13000.00000" pt_clust_9="255.57924"></scales>
<clustering>
<clus scale="   88.316">  5  6 -1 -1</clus>
<clus scale="   90.983">  7  8 -1 -1</clus>
<clus scale="  174.643">  1  7  2 -1</clus>
<clus scale="  255.579">  2  9  1 -1</clus>
<clus scale="  255.579">  2  5  1 -1</clus>
</clustering>
</event>
<event>
 9    1  0.1315259E-005  0.1780112E+03  0.7546771E-02  0.1169812E+00
         21   -1    0    0  501  502  0.00000000000E+00  0.00000000000E+00  0.31758073190E+03  0.31758073190E+03  0.00000000000E+00 0. -1.
         -1   -1    0    0    0  501 -0.00000000000E+00 -0.00000000000E+00 -0.30949272830E+03  0.30949272830E+03  0.00000000000E+00 0.  1.
         23    2    1    2    0    0 -0.91631722327E+02 -0.79651040021E+02 -0.89345796113E+02  0.17632921889E+03  0.91480388263E+02 0.  0.
         23    2    1    2    0    0  0.16560832553E+03  0.12503461128E+03 -0.89999484619E+02  0.24419293427E+03  0.92035375879E+02 0.  0.
        -11    1    3    3    0    0 -0.48774516346E+01 -0.26124358967E+02 -0.66849228099E+02  0.71938105086E+02  0.00000000000E+00 0. -1.
         11    1    3    3    0    0 -0.86754270693E+02 -0.53526681054E+02 -0.22496568014E+02  0.10439111380E+03  0.00000000000E+00 0.  1.
        -11    1    4    4    0    0  0.13118268497E+03  0.43607278748E+02 -0.61537478654E+02  0.15131871290E+03  0.00000000000E+00 0.  1.
         11    1    4    4    0    0  0.34425640564E+02  0.81427332532E+02 -0.28462005966E+02  0.92874221370E+02  0.00000000000E+00 0. -1.
         -1    1    1    2    0  502 -0.73976603205E+02 -0.45383571259E+02  0.18743328434E+03  0.20655130704E+03  0.00000000000E+00 0.  1.
<scales pt_clust_5="13000.00000" pt_clust_6="13000.00000" pt_clust_7="13000.00000" pt_clust_8="13000.00000" pt_clust_9="86.78828"></scales>
<clustering>
<clus scale="   86.788">  1  9  2 -1</clus>
<clus scale="   91.480">  5  6 -1 -1</clus>
<clus scale="   92.035">  7  8 -1 -1</clus>
<clus scale="  177.725">  2  5  1 -1</clus>
<clus scale="   86.788">  1  5  2 -1</clus>
</clustering>
</event>
<event>
 9    1  0.1315259E-005  0.1044932E+03  0.7546771E-02  0.1272079E+00
         21   -1    0    0  501  502  0.00000000000E+00  0.00000000000E+00  0.26949562048E+02  0.26949562048E+02  0.00000000000E+00 0. -1.
         -1   -1    0    0    0  501 -0.00000000000E+00 -0.00000000000E+00 -0.56817105078E+03  0.56817105078E+03  0.00000000000E+00 0.  1.
         23    2    1    2    0    0  0.58539060495E+00  0.41699687449E+02 -0.31016586036E+03  0.32566057969E+03  0.90070781161E+02 0.  0.
         23    2    1    2    0    0 -0.38744590630E+01 -0.61591389919E+02 -0.22013731322E+03  0.24653172303E+03  0.92243932277E+02 0.  0.
        -11    1    3    3    0    0 -0.33570349835E+02  0.29289633577E+02 -0.25957463631E+03  0.26337016316E+03  0.00000000000E+00 0.  1.
         11    1    3    3    0    0  0.34155740440E+02  0.12410053872E+02 -0.50591224042E+02  0.62290416536E+02  0.00000000000E+00 0. -1.
        -11    1    4    4    0    0  0.26876077428E+02 -0.68042697156E+02 -0.11083138940E+03  0.13279958227E+03  0.00000000000E+00 0.  1.
         11    1    4    4    0    0 -0.30750536491E+02  0.64513072372E+01 -0.10930592383E+03  0.11373214076E+03  0.00000000000E+00 0. -1.
         -1    1    1    2    0  502  0.32890684581E+01  0.19891702470E+02 -0.10918315148E+02  0.22928310102E+02  0.00000000000E+00 0.  1.
<scales pt_clust_5="13000.00000" pt_clust_6="13000.00000" pt_clust_7="13000.00000" pt_clust_8="13000.00000" pt_clust_9="20.16179"></scales>
<clustering>
<clus scale="   20.162">  1  9  2 -1</clus>
<clus scale="   90.071">  5  6 -1 -1</clus>
<clus scale="   92.244">  7  8 -1 -1</clus>
<clus scale="  102.580">  2  5  1 -1</clus>
<clus scale="   20.162">  1  5  2 -1</clus>
</clustering>
</event>
<event>
 9    1  0.1315259E-005  0.1323336E+03  0.7546771E-02  0.1224559E+00
         21   -1    0    0  501  502  0.00000000000E+00  0.00000000000E+00  0.35782774187E+02  0.35782774187E+02  0.00000000000E+00 0.  1.
          2   -1    0    0  502    0 -0.00000000000E+00 -0.00000000000E+00 -0.10393900486E+04  0.10393900486E+04  0.00000000000E+00 0. -1.
         23    2    1    2    0    0  0.39455872718E+02  0.52395417754E+02 -0.36196126065E+03  0.37876642619E+03  0.90255225378E+02 0.  0.
         23    2    1    2    0    0 -0.11229725101E+03 -0.10436364466E+03 -0.46824272777E+03  0.50127756070E+03  0.92333622525E+02 0.  0.
        -11    1    3    3    0    0  0.37818780014E+02  0.76880148340E+02 -0.25435772901E+03  0.26840020797E+03  0.00000000000E+00 0.  1.
         11    1    3    3    0    0  0.16370927033E+01 -0.24484730585E+02 -0.10760353163E+03  0.11036621822E+03  0.00000000000E+00 0. -1.
        -11    1    4    4    0    0 -0.42945766725E+02 -0.99698190496E+02 -0.30945603249E+03  0.32794375145E+03  0.00000000000E+00 0. -1.
         11    1    4    4    0    0 -0.69351484288E+02 -0.46654541634E+01 -0.15878669527E+03  0.17333380926E+03  0.00000000000E+00 0.  1.
          2    1    1    2  501    0  0.72841378295E+02  0.51968226905E+02 -0.17340328599E+03  0.19512883588E+03  0.00000000000E+00 0. -1.
<scales pt_clust_5="13000.00000" pt_clust_6="13000.00000" pt_clust_7="13000.00000" pt_clust_8="13000.00000" pt_clust_9="89.47940"></scales>
<clustering>
<clus scale="   89.479">  1  9  2 -1</clus>
<clus scale="   90.255">  5  6 -1 -1</clus>
<clus scale="   92.334">  7  8 -1 -1</clus>
<clus scale="  130.892">  2  5  1 -1</clus>
<clus scale="   89.479">  1  5  2 -1</clus>
</clustering>
</event>
<event>
 9    1  0.1315259E-005  0.1160028E+03  0.7546771E-02  0.1251809E+00
         21   -1    0    0  501  502  0.00000000000E+00  0.00000000000E+00  0.16609488766E+03  0.16609488766E+03  0.00000000000E+00 0. -1.
         -2   -1    0    0    0  501 -0.00000000000E+00 -0.00000000000E+00 -0.11823945246E+03  0.11823945246E+03  0.00000000000E+00 0.  1.
         23    2    1    2    0    0 -0.43185081725E+02 -0.45734961516E+02 -0.34250381371E+02  0.11462449557E+03  0.89493286743E+02 0.  0.
         23    2    1    2    0    0  0.67686281702E+02  0.39553883883E+02  0.70255126944E+02  0.14180010851E+03  0.95002870743E+02 0.  0.
        -11    1    4    4    0    0  0.51277986829E+02  0.27345629981E+02  0.93967869902E+02  0.11048608956E+03  0.00000000000E+00 0. -1.
         11    1    4    4    0    0  0.16408294874E+02  0.12208253902E+02 -0.23712742958E+02  0.31314018946E+02  0.00000000000E+00 0.  1.
        -11    1    3    3    0    0  0.22447839817E+02  0.25626527530E+01  0.65068810336E+01  0.23511958710E+02  0.00000000000E+00 0. -1.
         11    1    3    3    0    0 -0.65632921542E+02 -0.48297614269E+02 -0.40757262405E+02  0.91112536860E+02  0.00000000000E+00 0.  1.
         -2    1    1    2    0  502 -0.24501199977E+02  0.61810776333E+01  0.11850689630E+02  0.27909736039E+02  0.00000000000E+00 0.  1.
<scales pt_clust_5="13000.00000" pt_clust_6="13000.00000" pt_clust_7="13000.00000" pt_clust_8="13000.00000" pt_clust_9="25.26884"></scales>
<clustering>
<clus scale="   25.269">  1  9  2 -1</clus>
<clus scale="   89.493">  7  8 -1 -1</clus>
<clus scale="   95.003">  5  6 -1 -1</clus>
<clus scale="  111.535">  2  7  1 -1</clus>
<clus scale="   25.269">  1  5  2 -1</clus>
</clustering>
</event>
<event>
 9    1  0.1315259E-005  0.9567064E+02  0.7546771E-02  0.1294232E+00
         21   -1    0    0  501  502  0.00000000000E+00  0.00000000000E+00  0.80785611559E+02  0.80785611559E+02  0.00000000000E+00 0.  1.
         -1   -1    0    0    0  501 -0.00000000000E+00 -0.00000000000E+00 -0.27304696079E+03  0.27304696079E+03  0.00000000000E+00 0.  1.
         23    2    1    2    0    0 -0.99560295921E+01  0.20466304080E+02 -0.11622242651E+03  0.14421856877E+03  0.82300370757E+02 0.  0.
         23    2    1    2    0    0 -0.50796387025E+02 -0.61985962546E+02 -0.37998503186E+02  0.12677795054E+03  0.90588244337E+02 0.  0.
        -11    1    4    4    0    0 -0.50257092300E+02 -0.77793901544E+01  0.12848867855E+02  0.52453671395E+02  0.00000000000E+00 0. -1.
         11    1    4    4    0    0 -0.53929472514E+00 -0.54206572392E+02 -0.50847371040E+02  0.74324279149E+02  0.00000000000E+00 0.  1.
        -13    1    3    3    0    0  0.29419411490E+02 -0.69844093595E+01 -0.75293462350E+02  0.81138087353E+02  0.00000000000E+00 0.  1.
         13    1    3    3    0    0 -0.39375441083E+02  0.27450713439E+02 -0.40928964157E+02  0.63080481416E+02  0.00000000000E+00 0. -1.
         -1    1    1    2    0  502  0.60752416617E+02  0.41519658466E+02 -0.38040419537E+02  0.82836053036E+02  0.00000000000E+00 0.  1.
<scales pt_clust_5="13000.00000" pt_clust_6="13000.00000" pt_clust_7="13000.00000" pt_clust_8="13000.00000" pt_clust_9="73.58490"></scales>
<clustering>
<clus scale="   73.585">  1  9  2 -1</clus>
<clus scale="   82.300">  7  8 -1 -1</clus>
<clus scale="   87.863">  2  7  1 -1</clus>
<clus scale="   90.588">  5  6 -1 -1</clus>
<clus scale="   73.585">  1  5  2 -1</clus>
</clustering>
</event>
<event>
 9    1  0.1315259E-005  0.1104813E+03  0.7546771E-02  0.1269514E+00
          4   -1    0    0  502    0 -0.00000000000E+00  0.00000000000E+00  0.26556736654E+03  0.26556736654E+03  0.00000000000E+00 0. -1.
         21   -1    0    0  501  502  0.00000000000E+00 -0.00000000000E+00 -0.76277124289E+02  0.76277124289E+02  0.00000000000E+00 0. -1.
         23    2    1    2    0    0  0.19124358429E+02  0.63009845672E+01  0.11893788406E+03  0.15894160282E+03  0.10349284685E+03 0.  0.
         23    2    1    2    0    0 -0.48260308781E+02 -0.38404500174E+02  0.88543953518E+02  0.13588721554E+03  0.82591407577E+02 0.  0.
        -13    1    3    3    0    0  0.91698025981E+01 -0.36899841593E+02  0.10622073440E+03  0.11282077826E+03  0.00000000000E+00 0. -1.
         13    1    3    3    0    0  0.99545558306E+01  0.43200826160E+02  0.12717149660E+02  0.46120824561E+02  0.00000000000E+00 0.  1.
        -13    1    4    4    0    0  0.96108150444E+01 -0.35579010840E+02  0.62067101719E+02  0.72184201138E+02  0.00000000000E+00 0. -1.
         13    1    4    4    0    0 -0.57871123825E+02 -0.28254893341E+01  0.26476851799E+02  0.63703014403E+02  0.00000000000E+00 0.  1.
          4    1    1    2  501    0  0.29135950352E+02  0.32103515607E+02 -0.18191595330E+02  0.47015672471E+02  0.00000000000E+00 0. -1.
<scales pt_clust_5="13000.00000" pt_clust_6="13000.00000" pt_clust_7="13000.00000" pt_clust_8="13000.00000" pt_clust_9="43.35365"></scales>
<clustering>
<clus scale="   43.354">  2  9  1 -1</clus>
<clus scale="   82.591">  7  8 -1 -1</clus>
<clus scale="   91.196">  2  7  1 -1</clus>
<clus scale="  103.493">  5  6 -1 -1</clus>
<clus scale="   43.354">  2  5  1 -1</clus>
</clustering>
</event>
<event>
 9    1  0.1315259E-005  0.1262887E+03  0.7546771E-02  0.1245374E+00
          2   -1    0    0  502    0 -0.00000000000E+00  0.00000000000E+00  0.25773932135E+03  0.25773932135E+03  0.00000000000E+00 0. -1.
         21   -1    0    0  501  502  0.00000000000E+00 -0.00000000000E+00 -0.29874067791E+03  0.29874067791E+03  0.00000000000E+00 0. -1.
         23    2    1    2    0    0 -0.25393784594E+02  0.39911118532E+02  0.19070518626E+03  0.23078104446E+03  0.12105238841E+03 0.  0.
         23    2    1    2    0    0  0.12804345461E+02 -0.25168221754E+01 -0.18209257245E+01  0.92451823357E+02  0.91508131961E+02 0.  0.
        -13    1    3    3    0    0  0.47626596887E+01  0.65997289299E+02  0.17642860978E+03  0.18842871190E+03  0.00000000000E+00 0. -1.
         13    1    3    3    0    0 -0.30156444283E+02 -0.26086170767E+02  0.14276576483E+02  0.42352332559E+02  0.00000000000E+00 0.  1.
        -13    1    4    4    0    0  0.33061053120E+02 -0.37588909052E+02  0.82053807518E+01  0.50727582146E+02  0.00000000000E+00 0.  1.
         13    1    4    4    0    0 -0.20256707659E+02  0.35072086877E+02 -0.10026306476E+02  0.41724241211E+02  0.00000000000E+00 0. -1.
          2    1    1    2  501    0  0.12589439133E+02 -0.37394296357E+02 -0.22988561710E+03  0.23324713144E+03  0.00000000000E+00 0. -1.
<scales pt_clust_5="13000.00000" pt_clust_6="13000.00000" pt_clust_7="13000.00000" pt_clust_8="13000.00000" pt_clust_9="39.45665"></scales>
<clustering>
<clus scale="   39.457">  2  9  1 -1</clus>
<clus scale="   91.508">  7  8 -1 -1</clus>
<clus scale="   98.331">  2  7  1 -1</clus>
<clus scale="  121.052">  5  6 -1 -1</clus>
<clus scale="   39.457">  2  5  1 -1</clus>
</clustering>
</event>
<event>
 9    1  0.1315259E-005  0.1480037E+03  0.7546771E-02  0.1203050E+00
         21   -1    0    0  501  502  0.00000000000E+00  0.00000000000E+00  0.13004486550E+03  0.13004486550E+03  0.00000000000E+00 0.  1.
          1   -1    0    0  502    0 -0.00000000000E+00 -0.00000000000E+00 -0.33874229984E+03  0.33874229984E+03  0.00000000000E+00 0. -1.
         23    2    1    2    0    0  0.91424643509E+02  0.64147191996E+02 -0.24299912164E+03  0.28308784922E+03  0.92826879580E+02 0.  0.
         23    2    1    2    0    0 -0.10818060721E+03 -0.76653875676E+02  0.29097319307E+02  0.16415250888E+03  0.92306726446E+02 0.  0.
        -11    1    3    3    0    0  0.41691521783E+02  0.82046377378E+02 -0.14491947321E+03  0.17167249269E+03  0.00000000000E+00 0.  1.
         11    1    3    3    0    0  0.49733121727E+02 -0.17899185382E+02 -0.98079648430E+02  0.11141535653E+03  0.00000000000E+00 0. -1.
        -11    1    4    4    0    0 -0.77257402900E+01 -0.56278315739E+02  0.23573805555E+02  0.61503334819E+02  0.00000000000E+00 0. -1.
         11    1    4    4    0    0 -0.10045486692E+03 -0.20375559937E+02  0.55235137523E+01  0.10264917406E+03  0.00000000000E+00 0.  1.
          1    1    1    2  501    0  0.16755963701E+02  0.12506683680E+02  0.52043680017E+01  0.21546807246E+02  0.00000000000E+00 0. -1.
<scales pt_clust_5="13000.00000" pt_clust_6="13000.00000" pt_clust_7="13000.00000" pt_clust_8="13000.00000" pt_clust_9="20.90884"></scales>
<clustering>
<clus scale="   20.909">  1  9  2 -1</clus>
<clus scale="   92.307">  7  8 -1 -1</clus>
<clus scale="   92.827">  5  6 -1 -1</clus>
<clus scale="  147.678">  1  7  2 -1</clus>
<clus scale="   20.909">  1  5  2 -1</clus>
</clustering>
</event>
<event>
 9    1  0.1315259E-005  0.9275168E+02  0.7546771E-02  0.1296325E+00
         21   -1    0    0  501  502  0.00000000000E+00  0.00000000000E+00  0.74005800192E+02  0.74005800192E+02  0.00000000000E+00 0.  1.
          2   -1    0    0  502    0 -0.00000000000E+00 -0.00000000000E+00 -0.22362670150E+03  0.22362670150E+03  0.00000000000E+00 0.  1.
         23    2    1    2    0    0 -0.20481949472E+02 -0.58660949424E+01 -0.10776764459E+03  0.14248704260E+03  0.90745637715E+02 0.  0.
         23    2    1    2    0    0  0.16969662904E+02 -0.14045214709E+02 -0.72641343356E+02  0.11831201386E+03  0.90750924751E+02 0.  0.
        -11    1    4    4    0    0 -0.70697109576E+01 -0.20290633759E+02 -0.87005936758E+02  0.89619884303E+02  0.00000000000E+00 0.  1.
         11    1    4    4    0    0  0.24039373862E+02  0.62454190505E+01  0.14364593402E+02  0.28692129554E+02  0.00000000000E+00 0. -1.
        -13    1    3    3    0    0 -0.48492869961E+02 -0.21491908123E+02 -0.93249628527E+02  0.10727979200E+03  0.00000000000E+00 0. -1.
         13    1    3    3    0    0  0.28010920489E+02  0.15625813181E+02 -0.14518016066E+02  0.35207250599E+02  0.00000000000E+00 0.  1.
          2    1    1    2  501    0  0.35122865681E+01  0.19911309651E+02  0.30788086639E+02  0.36833445234E+02  0.00000000000E+00 0.  1.
<scales pt_clust_5="13000.00000" pt_clust_6="13000.00000" pt_clust_7="13000.00000" pt_clust_8="13000.00000" pt_clust_9="20.21871"></scales>
<clustering>
<clus scale="   20.219">  1  9  2 -1</clus>
<clus scale="   90.746">  7  8 -1 -1</clus>
<clus scale="   90.751">  5  6 -1 -1</clus>
<clus scale="   92.747">  2  7  1 -1</clus>
<clus scale="   20.219">  1  5  2 -1</clus>
</clustering>
</event>
<event>
 9    1  0.1315259E-005  0.1127050E+03  0.7546771E-02  0.1256733E+00
         21   -1    0    0  501  502  0.00000000000E+00  0.00000000000E+00  0.47089048114E+03  0.47089048114E+03  0.00000000000E+00 0. -1.
          1   -1    0    0  502    0 -0.00000000000E+00 -0.00000000000E+00 -0.48784614974E+02  0.48784614974E+02  0.00000000000E+00 0. -1.
         23    2    1    2    0    0 -0.33711866245E+02  0.61927031064E+02  0.63399622065E+02  0.13339906874E+03  0.93831510483E+02 0.  0.
         23    2    1    2    0    0  0.34303159409E+02 -0.32056039252E+02  0.19867926701E+03  0.22348395394E+03  0.90924859793E+02 0.  0.
        -11    1    4    4    0    0  0.43145148071E+02  0.98643239677E+01  0.15915591580E+03  0.16519507929E+03  0.00000000000E+00 0. -1.
         11    1    4    4    0    0 -0.88419886614E+01 -0.41920363219E+02  0.39523351216E+02  0.58288874644E+02  0.00000000000E+00 0.  1.
        -13    1    3    3    0    0 -0.61570199787E+02  0.60648286178E+02  0.60209734188E+02  0.10532956000E+03  0.00000000000E+00 0.  1.
         13    1    3    3    0    0  0.27858333541E+02  0.12787448856E+01  0.31898878767E+01  0.28069508739E+02  0.00000000000E+00 0. -1.
          1    1    1    2  501    0 -0.59129316406E+00 -0.29870991812E+02  0.16002697709E+03  0.16279207344E+03  0.00000000000E+00 0. -1.
<scales pt_clust_5="13000.00000" pt_clust_6="13000.00000" pt_clust_7="13000.00000" pt_clust_8="13000.00000" pt_clust_9="29.87684"></scales>
<clustering>
<clus scale="   29.877">  1  9  2 -1</clus>
<clus scale="   90.925">  5  6 -1 -1</clus>
<clus scale="   93.832">  7  8 -1 -1</clus>
<clus scale="  110.297">  1  5  2 -1</clus>
<clus scale="   29.877">  1  5  2 -1</clus>
</clustering>
</event>
<event>
 9    1  0.1315259E-005  0.3594109E+03  0.7546771E-02  0.1058867E+00
         21   -1    0    0  501  502  0.00000000000E+00  0.00000000000E+00  0.10802037072E+03  0.10802037072E+03  0.00000000000E+00 0.  1.
          2   -1    0    0  502    0 -0.00000000000E+00 -0.00000000000E+00 -0.18155032551E+04  0.18155032551E+04  0.00000000000E+00 0. -1.
         23    2    1    2    0    0 -0.25885566910E+03  0.29562527206E+03 -0.11718270990E+04  0.12394600159E+04  0.93176296961E+02 0.  0.
         23    2    1    2    0    0  0.21930672271E+03 -0.18339668562E+03 -0.43351547620E+03  0.52724518768E+03  0.91225198869E+02 0.  0.
        -13    1    4    4    0    0  0.15693574441E+03 -0.73600103278E+02 -0.26532413980E+03  0.31692696672E+03  0.00000000000E+00 0.  1.
         13    1    4    4    0    0  0.62370978300E+02 -0.10979658234E+03 -0.16819133641E+03  0.21031822096E+03  0.00000000000E+00 0. -1.
        -13    1    3    3    0    0 -0.17787241585E+03  0.22798431818E+03 -0.96318338223E+03  0.10056528593E+04  0.00000000000E+00 0. -1.
         13    1    3    3    0    0 -0.80983253250E+02  0.67640953880E+02 -0.20864371674E+03  0.23380715661E+03  0.00000000000E+00 0.  1.
          2    1    1    2  501    0  0.39548946391E+02 -0.11222858644E+03 -0.10214030918E+03  0.15681842218E+03  0.00000000000E+00 0. -1.
<scales pt_clust_5="13000.00000" pt_clust_6="13000.00000" pt_clust_7="13000.00000" pt_clust_8="13000.00000" pt_clust_9="118.99317"></scales>
<clustering>
<clus scale="   91.225">  5  6 -1 -1</clus>
<clus scale="   93.176">  7  8 -1 -1</clus>
<clus scale="  118.993">  1  9  2 -1</clus>
<clus scale="  358.910">  1  5  2 -1</clus>
<clus scale="  118.993">  1  5  2 -1</clus>
</clustering>
</event>
<event>
 9    1  0.1315259E-005  0.2422992E+03  0.7546771E-02  0.1118329E+00
         21   -1    0    0  501  502  0.00000000000E+00  0.00000000000E+00  0.31865602554E+03  0.31865602554E+03  0.00000000000E+00 0. -1.
          3   -1    0    0  502    0 -0.00000000000E+00 -0.00000000000E+00 -0.29165998849E+03  0.29165998849E+03  0.00000000000E+00 0. -1.
         23    2    1    2    0    0  0.14153875357E+02 -0.22362735462E+03 -0.13342756198E+03  0.27610938960E+03  0.90686023227E+02 0.  0.
         23    2    1    2    0    0 -0.54411216164E+02  0.22233325569E+03  0.10912277936E+03  0.26898314491E+03  0.89730118919E+02 0.  0.
        -13    1    3    3    0    0  0.34837616412E+02 -0.16640334421E+03 -0.58961530553E+02  0.17994497650E+03  0.00000000000E+00 0. -1.
         13    1    3    3    0    0 -0.20683741055E+02 -0.57224010412E+02 -0.74466031426E+02  0.96164413106E+02  0.00000000000E+00 0.  1.
        -13    1    4    4    0    0  0.86695125290E+01  0.94593303991E+02  0.10190155385E+02  0.95534773115E+02  0.00000000000E+00 0.  1.
         13    1    4    4    0    0 -0.63080728693E+02  0.12773995170E+03  0.98932623973E+02  0.17344837180E+03  0.00000000000E+00 0. -1.
          3    1    1    2  501    0  0.40257340807E+02  0.12940989300E+01  0.51300819674E+02  0.65223479516E+02  0.00000000000E+00 0. -1.
<scales pt_clust_5="13000.00000" pt_clust_6="13000.00000" pt_clust_7="13000.00000" pt_clust_8="13000.00000" pt_clust_9="40.27814"></scales>
<clustering>
<clus scale="   40.278">  1  9  2 -1</clus>
<clus scale="   89.730">  7  8 -1 -1</clus>
<clus scale="   90.686">  5  6 -1 -1</clus>
<clus scale="  241.943">  1  7  2 -1</clus>
<clus scale="   40.278">  1  5  2 -1</clus>
</clustering>
</event>
<event>
 9    1  0.1315259E-005  0.9404291E+02  0.7546771E-02  0.1294712E+00
         21   -1    0    0  501  502  0.00000000000E+00  0.00000000000E+00  0.17475338869E+03  0.17475338869E+03  0.00000000000E+00 0.  1.
          1   -1    0    0  502    0 -0.00000000000E+00 -0.00000000000E+00 -0.11836148504E+03  0.11836148504E+03  0.00000000000E+00 0. -1.
         23    2    1    2    0    0 -0.35094877436E+00  0.11583958535E+02 -0.56198318657E+02  0.10745280956E+03  0.90849017612E+02 0.  0.
         23    2    1    2    0    0 -0.34323606686E+02 -0.17447348156E+01  0.45033669075E+02  0.10909168475E+03  0.93229878557E+02 0.  0.
        -11    1    3    3    0    0 -0.24361516776E+02  0.44272728588E+02 -0.36677233445E+02  0.62440190978E+02  0.00000000000E+00 0.  1.
         11    1    3    3    0    0  0.24010568001E+02 -0.32688770053E+02 -0.19521085213E+02  0.45012618578E+02  0.00000000000E+00 0. -1.
        -13    1    4    4    0    0 -0.18329767985E+02  0.24752252298E+02  0.65229395632E+02  0.72135486709E+02  0.00000000000E+00 0.  1.
         13    1    4    4    0    0 -0.15993838701E+02 -0.26496987114E+02 -0.20195726557E+02  0.36956198041E+02  0.00000000000E+00 0. -1.
          1    1    1    2  501    0  0.34674555460E+02 -0.98392237191E+01  0.67556553237E+02  0.76570379423E+02  0.00000000000E+00 0. -1.
<scales pt_clust_5="13000.00000" pt_clust_6="13000.00000" pt_clust_7="13000.00000" pt_clust_8="13000.00000" pt_clust_9="36.04352"></scales>
<clustering>
<clus scale="   36.044">  1  9  2 -1</clus>
<clus scale="   90.849">  5  6 -1 -1</clus>
<clus scale="   91.683">  2  5  1 -1</clus>
<clus scale="   93.230">  7  8 -1 -1</clus>
<clus scale="   36.044">  1  5  2 -1</clus>
</clustering>
</event>
<event>
 9    1  0.1315259E-005  0.1097475E+03  0.7546771E-02  0.1261718E+00
         -1   -1    0    0    0  501 -0.00000000000E+00  0.00000000000E+00  0.53631102642E+03  0.53631102642E+03  0.00000000000E+00 0.  1.
         21   -1    0    0  501  502  0.00000000000E+00 -0.00000000000E+00 -0.62809970351E+02  0.62809970351E+02  0.00000000000E+00 0. -1.
         23    2    1    2    0    0  0.75665985763E+01  0.61359943463E+02  0.39817616609E+03  0.41302325663E+03  0.90673343376E+02 0.  0.
         23    2    1    2    0    0  0.27414144164E+02 -0.63498055067E+02  0.93706185159E+02  0.14652381063E+03  0.88909165146E+02 0.  0.
        -13    1    3    3    0    0 -0.32152381276E+02 -0.45887844471E+01  0.13204884708E+03  0.13598430270E+03  0.00000000000E+00 0.  1.
         13    1    3    3    0    0  0.39718979852E+02  0.65948727911E+02  0.26612731901E+03  0.27703895394E+03  0.00000000000E+00 0. -1.
        -13    1    4    4    0    0 -0.30298170429E+02 -0.19850410895E+02  0.50829924290E+02  0.62415536105E+02  0.00000000000E+00 0.  1.
         13    1    4    4    0    0  0.57712314592E+02 -0.43647644172E+02  0.42876260870E+02  0.84108274525E+02  0.00000000000E+00 0. -1.
         -1    1    1    2    0  502 -0.34980742740E+02  0.21381116033E+01 -0.18381295186E+02  0.39573929507E+02  0.00000000000E+00 0.  1.
<scales pt_clust_5="13000.00000" pt_clust_6="13000.00000" pt_clust_7="13000.00000" pt_clust_8="13000.00000" pt_clust_9="35.04603"></scales>
<clustering>
<clus scale="   35.046">  2  9  1 -1</clus>
<clus scale="   88.909">  7  8 -1 -1</clus>
<clus scale="   90.673">  5  6 -1 -1</clus>
<clus scale="  108.294">  2  7  1 -1</clus>
<clus scale="   35.046">  2  5  1 -1</clus>
</clustering>
</event>
<event>
 9    1  0.1315259E-005  0.9865133E+02  0.7546771E-02  0.1283394E+00
          2   -1    0    0  502    0 -0.00000000000E+00  0.00000000000E+00  0.13815444748E+03  0.13815444748E+03  0.00000000000E+00 0. -1.
         21   -1    0    0  501  502  0.00000000000E+00 -0.00000000000E+00 -0.19265247555E+03  0.19265247555E+03  0.00000000000E+00 0.  1.
         23    2    1    2    0    0 -0.28092605368E+02 -0.39803419897E+02  0.47815912418E+02  0.11368696642E+03  0.90911265202E+02 0.  0.
         23    2    1    2    0    0  0.20747070389E+02  0.16539809990E+02  0.16629173426E+02  0.95700778640E+02  0.90432866698E+02 0.  0.
        -13    1    3    3    0    0  0.29335111993E+02 -0.27464895456E+02  0.35611926934E+02  0.53694307129E+02  0.00000000000E+00 0.  1.
         13    1    3    3    0    0 -0.57427717361E+02 -0.12338524441E+02  0.12203985485E+02  0.59992659288E+02  0.00000000000E+00 0. -1.
        -13    1    4    4    0    0  0.30877581179E+02 -0.94164365791E+01 -0.28235809973E+02  0.42887705256E+02  0.00000000000E+00 0.  1.
         13    1    4    4    0    0 -0.10130510789E+02  0.25956246569E+02  0.44864983399E+02  0.52813073384E+02  0.00000000000E+00 0. -1.
          2    1    1    2  501    0  0.73455349782E+01  0.23263609907E+02 -0.11894311392E+03  0.12141917797E+03  0.00000000000E+00 0. -1.
<scales pt_clust_5="13000.00000" pt_clust_6="13000.00000" pt_clust_7="13000.00000" pt_clust_8="13000.00000" pt_clust_9="24.39575"></scales>
<clustering>
<clus scale="   24.396">  2  9  1 -1</clus>
<clus scale="   90.433">  7  8 -1 -1</clus>
<clus scale="   90.911">  5  6 -1 -1</clus>
<clus scale="   98.211">  2  7  1 -1</clus>
<clus scale="   24.396">  2  5  1 -1</clus>
</clustering>
</event>
<event>
 9    1  0.1315259E-005  0.1409928E+03  0.7546771E-02  0.1232685E+00
          1   -1    0    0  502    0 -0.00000000000E+00  0.00000000000E+00  0.32091212718E+03  0.32091212718E+03  0.00000000000E+00 0. -1.
         21   -1    0    0  501  502  0.00000000000E+00 -0.00000000000E+00 -0.12375349622E+03  0.12375349622E+03  0.00000000000E+00 0. -1.
         23    2    1    2    0    0  0.16071573780E+02  0.66977797975E+01  0.16387537271E+03  0.18767661333E+03  0.89800989264E+02 0.  0.
         23    2    1    2    0    0 -0.46436984087E+02  0.98355054478E+02 -0.49777597640E+01  0.14113538850E+03  0.89801500886E+02 0.  0.
        -11    1    4    4    0    0 -0.22588350200E+02  0.98662099682E+02  0.23582652935E+02  0.10392586299E+03  0.00000000000E+00 0. -1.
         11    1    4    4    0    0 -0.23848633887E+02 -0.30704520400E+00 -0.28560412699E+02  0.37209525509E+02  0.00000000000E+00 0.  1.
        -13    1    3    3    0    0  0.41179664546E+02  0.34631586483E+02  0.10095227154E+03  0.11439612180E+03  0.00000000000E+00 0. -1.
         13    1    3    3    0    0 -0.25108090767E+02 -0.27933806685E+02  0.62923101169E+02  0.73280491528E+02  0.00000000000E+00 0.  1.
          1    1    1    2  501    0  0.30365410308E+02 -0.10505283428E+03  0.38261018011E+02  0.11585362157E+03  0.00000000000E+00 0. -1.
<scales pt_clust_5="13000.00000" pt_clust_6="13000.00000" pt_clust_7="13000.00000" pt_clust_8="13000.00000" pt_clust_9="108.69538"></scales>
<clustering>
<clus scale="   89.801">  7  8 -1 -1</clus>
<clus scale="   89.802">  5  6 -1 -1</clus>
<clus scale="   91.473">  1  7  2 -1</clus>
<clus scale="  108.695">  2  9  1 -1</clus>
<clus scale="  108.695">  2  5  1 -1</clus>
</clustering>
</event>
<event>
 9    1  0.2116152E-005  0.1271013E+03  0.7546771E-02  0.1231973E+00
          2   -1    0    0  502    0 -0.00000000000E+00  0.00000000000E+00  0.68634417462E+03  0.68634417462E+03  0.00000000000E+00 0. -1.
         21   -1    0    0  501  502  0.00000000000E+00 -0.00000000000E+00 -0.28429527283E+03  0.28429527283E+03  0.00000000000E+00 0. -1.
         23    2    1    2    0    0  0.81145146464E+02  0.23219354056E+01  0.31435728126E+03  0.33705113810E+03  0.90515430926E+02 0.  0.
         23    2    1    2    0    0 -0.81764340578E+02 -0.82376944116E+02  0.33921271503E+03  0.36963367537E+03  0.89957876889E+02 0.  0.
        -13    1    4    4    0    0 -0.42980823821E+02 -0.58059135918E+02  0.30235016004E+03  0.31085982975E+03  0.00000000000E+00 0.  1.
         13    1    4    4    0    0 -0.38783516757E+02 -0.24317808197E+02  0.36862554996E+02  0.58773845615E+02  0.00000000000E+00 0. -1.
        -13    1    3    3    0    0 -0.16280706682E+02 -0.13424414405E+02  0.36152016646E+02  0.41859821067E+02  0.00000000000E+00 0.  1.
         13    1    3    3    0    0  0.97425853147E+02  0.15746349810E+02  0.27820526461E+03  0.29519131704E+03  0.00000000000E+00 0. -1.
          2    1    1    2  501    0  0.61919411374E+00  0.80055008710E+02 -0.25152109450E+03  0.26395463398E+03  0.00000000000E+00 0. -1.
<scales pt_clust_5="13000.00000" pt_clust_6="13000.00000" pt_clust_7="13000.00000" pt_clust_8="13000.00000" pt_clust_9="80.05740"></scales>
<clustering>
<clus scale="   80.057">  2  9  1 -1</clus>
<clus scale="   89.958">  5  6 -1 -1</clus>
<clus scale="   90.515">  7  8 -1 -1</clus>
<clus scale="  126.705">  2  5  1 -1</clus>
<clus scale="   80.057">  2  5  1 -1</clus>
</clustering>
</event>
<event>
 9    1  0.1315259E-005  0.9615728E+02  0.7546771E-02  0.1289853E+00
         -2   -1    0    0    0  501 -0.00000000000E+00  0.00000000000E+00  0.50324294887E+03  0.50324294887E+03  0.00000000000E+00 0.  1.
         21   -1    0    0  501  502  0.00000000000E+00 -0.00000000000E+00 -0.43521720346E+02  0.43521720346E+02  0.00000000000E+00 0. -1.
         23    2    1    2    0    0 -0.22010992281E+02  0.26509186525E+02  0.39118798148E+03  0.40318952386E+03  0.91359370326E+02 0.  0.
         23    2    1    2    0    0  0.92973835447E+00 -0.17438407925E+02  0.77147442194E+02  0.11906182960E+03  0.88988925972E+02 0.  0.
        -11    1    4    4    0    0 -0.39237556791E+02  0.10023980353E+02  0.24314395309E+02  0.47236171143E+02  0.00000000000E+00 0.  1.
         11    1    4    4    0    0  0.40167295145E+02 -0.27462388278E+02  0.52833046885E+02  0.71825658454E+02  0.00000000000E+00 0. -1.
        -11    1    3    3    0    0 -0.52703429004E+02  0.20692269000E+02  0.32627049677E+03  0.33114688355E+03  0.00000000000E+00 0.  1.
         11    1    3    3    0    0  0.30692436723E+02  0.58169175244E+01  0.64917484709E+02  0.72042640307E+02  0.00000000000E+00 0. -1.
         -2    1    1    2    0  502  0.21081253927E+02 -0.90707786003E+01 -0.86141951461E+01  0.24513315760E+02  0.00000000000E+00 0.  1.
<scales pt_clust_5="13000.00000" pt_clust_6="13000.00000" pt_clust_7="13000.00000" pt_clust_8="13000.00000" pt_clust_9="22.94991"></scales>
<clustering>
<clus scale="   22.950">  2  9  1 -1</clus>
<clus scale="   88.989">  5  6 -1 -1</clus>
<clus scale="   91.359">  7  8 -1 -1</clus>
<clus scale="   93.908">  2  5  1 -1</clus>
<clus scale="   22.950">  2  5  1 -1</clus>
</clustering>
</event>
<event>
 9    1  0.1315259E-005  0.1564685E+03  0.7546771E-02  0.1211139E+00
         21   -1    0    0  501  502  0.00000000000E+00  0.00000000000E+00  0.15368724159E+03  0.15368724159E+03  0.00000000000E+00 0. -1.
          3   -1    0    0  502    0 -0.00000000000E+00 -0.00000000000E+00 -0.49636599410E+03  0.49636599410E+03  0.00000000000E+00 0. -1.
         23    2    1    2    0    0  0.30308059409E+02 -0.42093060834E+02 -0.15510723964E+03  0.18734208383E+03  0.91369559207E+02 0.  0.
         23    2    1    2    0    0  0.94291662571E+01  0.16534041435E+03 -0.25640695254E+03  0.31605756341E+03  0.81984732032E+02 0.  0.
        -13    1    4    4    0    0  0.38051393974E+02  0.13177259518E+03 -0.16499800810E+03  0.21456063968E+03  0.00000000000E+00 0. -1.
         13    1    4    4    0    0 -0.28622227717E+02  0.33567819171E+02 -0.91408944438E+02  0.10149692373E+03  0.00000000000E+00 0.  1.
        -13    1    3    3    0    0  0.56708833942E+02 -0.20669912116E+02 -0.55146111290E+02  0.81757144669E+02  0.00000000000E+00 0. -1.
         13    1    3    3    0    0 -0.26400774533E+02 -0.21423148719E+02 -0.99961128346E+02  0.10558493916E+03  0.00000000000E+00 0.  1.
          3    1    1    2  501    0 -0.39737225666E+02 -0.12324735352E+03  0.68835439665E+02  0.14665358846E+03  0.00000000000E+00 0. -1.
<scales pt_clust_5="13000.00000" pt_clust_6="13000.00000" pt_clust_7="13000.00000" pt_clust_8="13000.00000" pt_clust_9="133.26996"></scales>
<clustering>
<clus scale="   81.985">  5  6 -1 -1</clus>
<clus scale="   91.370">  7  8 -1 -1</clus>
<clus scale="  105.066">  2  7  1 -1</clus>
<clus scale="  133.270">  1  9  2 -1</clus>
<clus scale="  133.270">  1  5  2 -1</clus>
</clustering>
</event>
<event>
 9    1  0.1315259E-005  0.9816268E+02  0.7546771E-02  0.1284850E+00
         21   -1    0    0  501  502  0.00000000000E+00  0.00000000000E+00  0.30798955215E+02  0.30798955215E+02  0.00000000000E+00 0.  1.
         -1   -1    0    0    0  501 -0.00000000000E+00 -0.00000000000E+00 -0.80643066812E+03  0.80643066812E+03  0.00000000000E+00 0.  1.
         23    2    1    2    0    0 -0.24734067039E+02  0.45685856987E+02 -0.50052023698E+03  0.51125458702E+03  0.90342534358E+02 0.  0.
         23    2    1    2    0    0  0.28057027678E+01 -0.20734542289E+02 -0.27796859298E+03  0.29263460467E+03  0.89054365189E+02 0.  0.
        -11    1    4    4    0    0  0.29810534389E+02  0.23592298929E+02 -0.91668053153E+02  0.99238583717E+02  0.00000000000E+00 0. -1.
         11    1    4    4    0    0 -0.27004831621E+02 -0.44326841218E+02 -0.18630053982E+03  0.19339602096E+03  0.00000000000E+00 0.  1.
        -13    1    3    3    0    0 -0.30652311139E+02  0.69109429338E+02 -0.43280696180E+03  0.43936038008E+03  0.00000000000E+00 0.  1.
         13    1    3    3    0    0  0.59182441006E+01 -0.23423572351E+02 -0.67713275187E+02  0.71894206939E+02  0.00000000000E+00 0. -1.
         -1    1    1    2    0  502  0.21928364271E+02 -0.24951314698E+02  0.28571170506E+01  0.33340431650E+02  0.00000000000E+00 0.  1.
<scales pt_clust_5="13000.00000" pt_clust_6="13000.00000" pt_clust_7="13000.00000" pt_clust_8="13000.00000" pt_clust_9="33.21779"></scales>
<clustering>
<clus scale="   33.218">  1  9  2 -1</clus>
<clus scale="   89.054">  5  6 -1 -1</clus>
<clus scale="   90.343">  7  8 -1 -1</clus>
<clus scale="   96.978">  1  5  2 -1</clus>
<clus scale="   33.218">  1  5  2 -1</clus>
</clustering>
</event>
<event>
 9    1  0.1315259E-005  0.1532206E+03  0.7546771E-02  0.1197736E+00
         21   -1    0    0  501  502  0.00000000000E+00  0.00000000000E+00  0.26631704552E+03  0.26631704552E+03  0.00000000000E+00 0. -1.
          4   -1    0    0  502    0 -0.00000000000E+00 -0.00000000000E+00 -0.30948383530E+03  0.30948383530E+03  0.00000000000E+00 0. -1.
         23    2    1    2    0    0 -0.71904549860E+02 -0.10247563418E+03 -0.17750295149E+03  0.23858033987E+03  0.98700359143E+02 0.  0.
         23    2    1    2    0    0  0.43161121679E+02  0.96364093449E+02 -0.51111056253E+02  0.14945950601E+03  0.92611462214E+02 0.  0.
        -11    1    3    3    0    0 -0.10398012413E+01 -0.28475220527E+02  0.53368034437E+01  0.28989667844E+02  0.00000000000E+00 0.  1.
         11    1    3    3    0    0 -0.70864748619E+02 -0.74000413655E+02 -0.18283975493E+03  0.20959067203E+03  0.00000000000E+00 0. -1.
        -13    1    4    4    0    0  0.69084430457E+02  0.88973829667E+02 -0.47545931084E+02  0.12226862418E+03  0.00000000000E+00 0.  1.
         13    1    4    4    0    0 -0.25923308778E+02  0.73902637813E+01 -0.35651251693E+01  0.27190881822E+02  0.00000000000E+00 0. -1.
          4    1    1    2  501    0  0.28743428181E+02  0.61115407334E+01  0.18544721796E+03  0.18776103495E+03  0.00000000000E+00 0. -1.
<scales pt_clust_5="13000.00000" pt_clust_6="13000.00000" pt_clust_7="13000.00000" pt_clust_8="13000.00000" pt_clust_9="29.38598"></scales>
<clustering>
<clus scale="   29.386">  1  9  2 -1</clus>
<clus scale="   92.611">  7  8 -1 -1</clus>
<clus scale="   98.700">  5  6 -1 -1</clus>
<clus scale="  149.371">  1  7  2 -1</clus>
<clus scale="   29.386">  1  5  2 -1</clus>
</clustering>
</event>
<event>
 9    1  0.1315259E-005  0.9965640E+02  0.7546771E-02  0.1281263E+00
          2   -1    0    0  502    0 -0.00000000000E+00  0.00000000000E+00  0.36606849696E+03  0.36606849696E+03  0.00000000000E+00 0. -1.
         21   -1    0    0  501  502  0.00000000000E+00 -0.00000000000E+00 -0.10854935329E+03  0.10854935329E+03  0.00000000000E+00 0.  1.
         23    2    1    2    0    0  0.49211625765E+02  0.81425426986E+01  0.26574177434E+03  0.28369108538E+03  0.85871160356E+02 0.  0.
         23    2    1    2    0    0 -0.41273958397E+02 -0.71346508027E+02 -0.32080419436E+02  0.12290513683E+03  0.85338476080E+02 0.  0.
        -11    1    3    3    0    0  0.71316721888E+02  0.18754198813E+02  0.21586501278E+03  0.22811290743E+03  0.00000000000E+00 0. -1.
         11    1    3    3    0    0 -0.22105096123E+02 -0.10611656114E+02  0.49876761559E+02  0.55578177945E+02  0.00000000000E+00 0.  1.
        -13    1    4    4    0    0  0.39411012314E+01 -0.57018213055E+02 -0.46118154994E+02  0.73440405221E+02  0.00000000000E+00 0.  1.
         13    1    4    4    0    0 -0.45215059628E+02 -0.14328294972E+02  0.14037735558E+02  0.49464731613E+02  0.00000000000E+00 0. -1.
          2    1    1    2  501    0 -0.79376673681E+01  0.63203965329E+02  0.23857788769E+02  0.68021628042E+02  0.00000000000E+00 0. -1.
<scales pt_clust_5="13000.00000" pt_clust_6="13000.00000" pt_clust_7="13000.00000" pt_clust_8="13000.00000" pt_clust_9="63.70045"></scales>
<clustering>
<clus scale="   63.700">  2  9  1 -1</clus>
<clus scale="   85.338">  7  8 -1 -1</clus>
<clus scale="   85.871">  5  6 -1 -1</clus>
<clus scale="   99.198">  2  7  1 -1</clus>
<clus scale="   63.700">  2  5  1 -1</clus>
</clustering>
</event>
<event>
 9    1  0.1315259E-005  0.1238812E+03  0.7546771E-02  0.1238338E+00
         21   -1    0    0  501  502  0.00000000000E+00  0.00000000000E+00  0.59152439427E+02  0.59152439427E+02  0.00000000000E+00 0. -1.
          2   -1    0    0  502    0 -0.00000000000E+00 -0.00000000000E+00 -0.33564433817E+03  0.33564433817E+03  0.00000000000E+00 0. -1.
         23    2    1    2    0    0 -0.45538656655E+01 -0.75687967121E+02 -0.11891790049E+03  0.16841062488E+03  0.92039477706E+02 0.  0.
         23    2    1    2    0    0 -0.23556445628E+02  0.78190350032E+02 -0.97058736981E+02  0.15961379041E+03  0.96889249640E+02 0.  0.
        -11    1    4    4    0    0 -0.21925549803E+02  0.42282168965E+02  0.82511543961E+01  0.48338319120E+02  0.00000000000E+00 0. -1.
         11    1    4    4    0    0 -0.16308958253E+01  0.35908181068E+02 -0.10530989138E+03  0.11127547129E+03  0.00000000000E+00 0.  1.
        -13    1    3    3    0    0  0.39488358696E+02 -0.60148586761E+02 -0.80193658737E+02  0.10774138417E+03  0.00000000000E+00 0.  1.
         13    1    3    3    0    0 -0.44042224362E+02 -0.15539380360E+02 -0.38724241751E+02  0.60669240707E+02  0.00000000000E+00 0. -1.
          2    1    1    2  501    0  0.28110311294E+02 -0.25023829116E+01 -0.60515261271E+02  0.66772362307E+02  0.00000000000E+00 0. -1.
<scales pt_clust_5="13000.00000" pt_clust_6="13000.00000" pt_clust_7="13000.00000" pt_clust_8="13000.00000" pt_clust_9="28.22149"></scales>
<clustering>
<clus scale="   28.221">  1  9  2 -1</clus>
<clus scale="   92.039">  7  8 -1 -1</clus>
<clus scale="   96.889">  5  6 -1 -1</clus>
<clus scale="  120.126">  2  7  1 -1</clus>
<clus scale="   28.221">  1  5  2 -1</clus>
</clustering>
</event>
<event>
 9    1  0.1315259E-005  0.1004810E+03  0.7546771E-02  0.1279594E+00
         21   -1    0    0  501  502  0.00000000000E+00  0.00000000000E+00  0.25260491719E+02  0.25260491719E+02  0.00000000000E+00 0.  1.
          1   -1    0    0  502    0 -0.00000000000E+00 -0.00000000000E+00 -0.68477965124E+03  0.68477965124E+03  0.00000000000E+00 0. -1.
         23    2    1    2    0    0  0.31390154318E+02 -0.32194307132E+02 -0.42010381656E+03  0.43202030791E+03  0.90180455548E+02 0.  0.
         23    2    1    2    0    0 -0.96019269265E+01  0.42651874493E+02 -0.23165587100E+03  0.25263682944E+03  0.90827009336E+02 0.  0.
        -11    1    4    4    0    0  0.22924711989E+02  0.20089215278E+02 -0.18115635918E+02  0.35458359451E+02  0.00000000000E+00 0.  1.
         11    1    4    4    0    0 -0.32526638916E+02  0.22562659216E+02 -0.21354023508E+03  0.21717846999E+03  0.00000000000E+00 0. -1.
        -11    1    3    3    0    0  0.38693382147E+02 -0.57265336622E+02 -0.35865438939E+03  0.36525260797E+03  0.00000000000E+00 0. -1.
         11    1    3    3    0    0 -0.73032278286E+01  0.25071029490E+02 -0.61449427170E+02  0.66767699945E+02  0.00000000000E+00 0.  1.
          1    1    1    2  501    0 -0.21788227392E+02 -0.10457567361E+02 -0.77594719582E+01  0.25383005595E+02  0.00000000000E+00 0. -1.
<scales pt_clust_5="13000.00000" pt_clust_6="13000.00000" pt_clust_7="13000.00000" pt_clust_8="13000.00000" pt_clust_9="24.16790"></scales>
<clustering>
<clus scale="   24.168">  1  9  2 -1</clus>
<clus scale="   90.180">  7  8 -1 -1</clus>
<clus scale="   90.827">  5  6 -1 -1</clus>
<clus scale="   99.897">  2  7  1 -1</clus>
<clus scale="   24.168">  1  5  2 -1</clus>
</clustering>
</event>
<event>
 9    1  0.1315259E-005  0.1924137E+03  0.7546771E-02  0.1156343E+00
         21   -1    0    0  501  502  0.00000000000E+00  0.00000000000E+00  0.69276076354E+03  0.69276076354E+03  0.00000000000E+00 0.  1.
         -3   -1    0    0    0  501 -0.00000000000E+00 -0.00000000000E+00 -0.15343342208E+03  0.15343342208E+03  0.00000000000E+00 0.  1.
         23    2    1    2    0    0 -0.14975309734E+03 -0.14991455784E+03  0.31238126051E+01  0.23178868302E+03  0.93892867442E+02 0.  0.
         23    2    1    2    0    0  0.99443991851E+02  0.46899693914E+02  0.13677523855E+03  0.19885041915E+03  0.93516493252E+02 0.  0.
        -13    1    3    3    0    0  0.14354709082E+01 -0.28636157103E+02  0.23266083590E+02  0.36924256472E+02  0.00000000000E+00 0. -1.
         13    1    3    3    0    0 -0.15118856825E+03 -0.12127840074E+03 -0.20142270985E+02  0.19486442655E+03  0.00000000000E+00 0.  1.
        -13    1    4    4    0    0  0.73226723157E+01  0.39577881297E+02  0.91425599640E+01  0.41274890921E+02  0.00000000000E+00 0. -1.
         13    1    4    4    0    0  0.92121319536E+02  0.73218126167E+01  0.12763267858E+03  0.15757552823E+03  0.00000000000E+00 0.  1.
         -3    1    1    2    0  502  0.50309105489E+02  0.10301486393E+03  0.39942829031E+03  0.41555508345E+03  0.00000000000E+00 0.  1.
<scales pt_clust_5="13000.00000" pt_clust_6="13000.00000" pt_clust_7="13000.00000" pt_clust_8="13000.00000" pt_clust_9="114.64322"></scales>
<clustering>
<clus scale="   93.516">  7  8 -1 -1</clus>
<clus scale="   93.893">  5  6 -1 -1</clus>
<clus scale="  114.643">  1  9  2 -1</clus>
<clus scale="  192.230">  1  7  2 -1</clus>
<clus scale="  114.643">  1  5  2 -1</clus>
</clustering>
</event>
<event>
 9    1  0.1315259E-005  0.1325336E+03  0.7546771E-02  0.1224411E+00
         -3   -1    0    0    0  501 -0.00000000000E+00  0.00000000000E+00  0.15313071850E+03  0.15313071850E+03  0.00000000000E+00 0.  1.
         21   -1    0    0  501  502  0.00000000000E+00 -0.00000000000E+00 -0.30367266985E+03  0.30367266985E+03  0.00000000000E+00 0. -1.
         23    2    1    2    0    0 -0.13474226467E+02  0.92858850947E+02  0.91976769002E+02  0.15813001912E+03  0.87983270748E+02 0.  0.
         23    2    1    2    0    0  0.20141088174E+02 -0.11182255018E+03 -0.17128525452E+03  0.22465799523E+03  0.90678719912E+02 0.  0.
        -11    1    3    3    0    0  0.13886779342E+02  0.38823943556E+02  0.88298255556E+02  0.97451132204E+02  0.00000000000E+00 0. -1.
         11    1    3    3    0    0 -0.27361005810E+02  0.54034907391E+02  0.36785134465E+01  0.60678886912E+02  0.00000000000E+00 0.  1.
        -11    1    4    4    0    0 -0.25789118257E+02 -0.24903604097E+01 -0.40842637703E+02  0.48367360586E+02  0.00000000000E+00 0. -1.
         11    1    4    4    0    0  0.45930206431E+02 -0.10933218977E+03 -0.13044261682E+03  0.17629063465E+03  0.00000000000E+00 0.  1.
         -3    1    1    2    0  502 -0.66668617070E+01  0.18963699229E+02 -0.71233465836E+02  0.74015374001E+02  0.00000000000E+00 0.  1.
<scales pt_clust_5="13000.00000" pt_clust_6="13000.00000" pt_clust_7="13000.00000" pt_clust_8="13000.00000" pt_clust_9="20.10147"></scales>
<clustering>
<clus scale="   20.101">  2  9  1 -1</clus>
<clus scale="   87.983">  5  6 -1 -1</clus>
<clus scale="   90.679">  7  8 -1 -1</clus>
<clus scale="  130.704">  1  5  2 -1</clus>
<clus scale="   20.101">  2  5  1 -1</clus>
</clustering>
</event>
<event>
 9    1  0.1315259E-005  0.2380688E+03  0.7546771E-02  0.1146652E+00
         21   -1    0    0  501  502  0.00000000000E+00  0.00000000000E+00  0.43071409569E+03  0.43071409569E+03  0.00000000000E+00 0. -1.
          1   -1    0    0  502    0 -0.00000000000E+00 -0.00000000000E+00 -0.54777591888E+03  0.54777591888E+03  0.00000000000E+00 0. -1.
         23    2    1    2    0    0  0.28309996449E+02 -0.84168651426E+02  0.98832860903E+02  0.16140572892E+03  0.91640914186E+02 0.  0.
         23    2    1    2    0    0 -0.43644833848E+02  0.29568074065E+03 -0.41941566258E+03  0.52315689698E+03  0.91932958845E+02 0.  0.
        -13    1    4    4    0    0 -0.62235496533E+02  0.28130924236E+03 -0.39819522533E+03  0.49149525363E+03  0.00000000000E+00 0. -1.
         13    1    4    4    0    0  0.18590662685E+02  0.14371498286E+02 -0.21220437252E+02  0.31661643344E+02  0.00000000000E+00 0.  1.
        -13    1    3    3    0    0 -0.98809907140E+01 -0.85990947135E+02  0.83324036427E+02  0.12014562836E+03  0.00000000000E+00 0.  1.
         13    1    3    3    0    0  0.38190987163E+02  0.18222957084E+01  0.15508824476E+02  0.41260100566E+02  0.00000000000E+00 0. -1.
          1    1    1    2  501    0  0.15334837399E+02 -0.21151208922E+03  0.20352097849E+03  0.29392738867E+03  0.00000000000E+00 0. -1.
<scales pt_clust_5="13000.00000" pt_clust_6="13000.00000" pt_clust_7="13000.00000" pt_clust_8="13000.00000" pt_clust_9="219.60214"></scales>
<clustering>
<clus scale="   91.641">  7  8 -1 -1</clus>
<clus scale="   91.933">  5  6 -1 -1</clus>
<clus scale="  127.608">  2  7  1 -1</clus>
<clus scale="  219.602">  1  9  2 -1</clus>
<clus scale="  219.602">  1  5  2 -1</clus>
</clustering>
</event>
<event>
 9    1  0.1315259E-005  0.1144947E+03  0.7546771E-02  0.1253211E+00
         21   -1    0    0  501  502  0.00000000000E+00  0.00000000000E+00  0.64395428236E+02  0.64395428236E+02  0.00000000000E+00 0.  1.
          1   -1    0    0  502    0 -0.00000000000E+00 -0.00000000000E+00 -0.34754394074E+03  0.34754394074E+03  0.00000000000E+00 0. -1.
         23    2    1    2    0    0 -0.75684403904E+02 -0.10976108388E+02 -0.19808130973E+03  0.23029311783E+03  0.89163394424E+02 0.  0.
         23    2    1    2    0    0  0.59104310195E+02 -0.58510001203E+00 -0.10648081719E+03  0.15219962265E+03  0.91284713277E+02 0.  0.
        -11    1    4    4    0    0  0.13704524183E+02 -0.40527894826E+02 -0.21446305106E+02  0.47856747119E+02  0.00000000000E+00 0.  1.
         11    1    4    4    0    0  0.45399786012E+02  0.39942794814E+02 -0.85034512088E+02  0.10434287553E+03  0.00000000000E+00 0. -1.
        -11    1    3    3    0    0 -0.70042899552E+02 -0.38982599350E+02 -0.10014966296E+03  0.12827940529E+03  0.00000000000E+00 0. -1.
         11    1    3    3    0    0 -0.56415043518E+01  0.28006490962E+02 -0.97931646774E+02  0.10201371255E+03  0.00000000000E+00 0.  1.
          1    1    1    2  501    0  0.16580093709E+02  0.11561208400E+02  0.21413614425E+02  0.29446628496E+02  0.00000000000E+00 0. -1.
<scales pt_clust_5="13000.00000" pt_clust_6="13000.00000" pt_clust_7="13000.00000" pt_clust_8="13000.00000" pt_clust_9="20.21289"></scales>
<clustering>
<clus scale="   20.213">  1  9  2 -1</clus>
<clus scale="   89.163">  7  8 -1 -1</clus>
<clus scale="   91.285">  5  6 -1 -1</clus>
<clus scale="  112.811">  2  7  1 -1</clus>
<clus scale="   20.213">  1  5  2 -1</clus>
</clustering>
</event>
<event>
 9    1  0.1315259E-005  0.9583681E+02  0.7546771E-02  0.1300365E+00
         -2   -1    0    0    0  501 -0.00000000000E+00  0.00000000000E+00  0.17210977046E+03  0.17210977046E+03  0.00000000000E+00 0.  1.
         21   -1    0    0  501  502  0.00000000000E+00 -0.00000000000E+00 -0.13545794587E+03  0.13545794587E+03  0.00000000000E+00 0.  1.
         23    2    1    2    0    0 -0.11680175211E+02  0.32852546085E+02  0.13474186739E+03  0.16624362418E+03  0.90916750250E+02 0.  0.
         23    2    1    2    0    0 -0.12289458391E+01 -0.62720879136E+01 -0.70521818260E+02  0.10091155489E+03  0.71895519089E+02 0.  0.
        -11    1    3    3    0    0  0.13776278425E+02  0.58623558380E+02  0.94916045227E+02  0.11240802056E+03  0.00000000000E+00 0.  1.
         11    1    3    3    0    0 -0.25456453636E+02 -0.25771012296E+02  0.39825822166E+02  0.53835603625E+02  0.00000000000E+00 0. -1.
        -13    1    4    4    0    0  0.16648359626E+02 -0.26107109641E+02 -0.66318117718E+01  0.31665911947E+02  0.00000000000E+00 0. -1.
         13    1    4    4    0    0 -0.17877305465E+02  0.19835021727E+02 -0.63890006488E+02  0.69245642943E+02  0.00000000000E+00 0.  1.
         -2    1    1    2    0  502  0.12909121051E+02 -0.26580458171E+02 -0.27568224550E+02  0.40412537259E+02  0.00000000000E+00 0.  1.
<scales pt_clust_5="13000.00000" pt_clust_6="13000.00000" pt_clust_7="13000.00000" pt_clust_8="13000.00000" pt_clust_9="29.54939"></scales>
<clustering>
<clus scale="   29.549">  2  9  1 -1</clus>
<clus scale="   71.896">  7  8 -1 -1</clus>
<clus scale="   78.024">  2  7  1 -1</clus>
<clus scale="   90.917">  5  6 -1 -1</clus>
<clus scale="   29.549">  2  5  1 -1</clus>
</clustering>
</event>
<event>
 9    1  0.1315259E-005  0.9521395E+02  0.7546771E-02  0.1291162E+00
         21   -1    0    0  501  502  0.00000000000E+00  0.00000000000E+00  0.51581975851E+02  0.51581975851E+02  0.00000000000E+00 0. -1.
          1   -1    0    0  502    0 -0.00000000000E+00 -0.00000000000E+00 -0.40196177338E+03  0.40196177338E+03  0.00000000000E+00 0. -1.
         23    2    1    2    0    0  0.15655519299E+02  0.99277044890E+01 -0.21900918159E+03  0.23775213729E+03  0.90649890051E+02 0.  0.
         23    2    1    2    0    0 -0.58892207854E+02  0.18015301765E+02 -0.12191230241E+03  0.16344963519E+03  0.89779343512E+02 0.  0.
        -11    1    3    3    0    0 -0.29158781224E+02  0.31382327802E+02 -0.10233238470E+03  0.11093692793E+03  0.00000000000E+00 0. -1.
         11    1    3    3    0    0  0.44814300523E+02 -0.21454623313E+02 -0.11667679688E+03  0.12681520936E+03  0.00000000000E+00 0.  1.
        -13    1    4    4    0    0 -0.68684334141E+02 -0.13375929829E+02 -0.55391150051E+02  0.89244791215E+02  0.00000000000E+00 0.  1.
         13    1    4    4    0    0  0.97921262867E+01  0.31391231594E+02 -0.66521152356E+02  0.74204843973E+02  0.00000000000E+00 0. -1.
          1    1    1    2  501    0  0.43236688555E+02 -0.27943006254E+02 -0.94583135401E+01  0.52341976756E+02  0.00000000000E+00 0. -1.
<scales pt_clust_5="13000.00000" pt_clust_6="13000.00000" pt_clust_7="13000.00000" pt_clust_8="13000.00000" pt_clust_9="51.48032"></scales>
<clustering>
<clus scale="   51.480">  1  9  2 -1</clus>
<clus scale="   89.779">  7  8 -1 -1</clus>
<clus scale="   90.650">  5  6 -1 -1</clus>
<clus scale="   94.386">  1  7  2 -1</clus>
<clus scale="   51.480">  1  5  2 -1</clus>
</clustering>
</event>
<event>
 9    1  0.1315259E-005  0.3380307E+03  0.7546771E-02  0.1070949E+00
         21   -1    0    0  501  502  0.00000000000E+00  0.00000000000E+00  0.29594650668E+03  0.29594650668E+03  0.00000000000E+00 0. -1.
          2   -1    0    0  502    0 -0.00000000000E+00 -0.00000000000E+00 -0.15452092640E+04  0.15452092640E+04  0.00000000000E+00 0. -1.
         23    2    1    2    0    0  0.14956937931E+01 -0.29475450238E+03 -0.64153049053E+03  0.71190477843E+03  0.91458129777E+02 0.  0.
         23    2    1    2    0    0  0.29502819349E+03 -0.87821860010E+02  0.36630114971E+02  0.32333910637E+03  0.91935294313E+02 0.  0.
        -11    1    4    4    0    0  0.25268499966E+02  0.11183426303E+02 -0.14911359306E+02  0.31399279463E+02  0.00000000000E+00 0.  1.
         11    1    4    4    0    0  0.26975969352E+03 -0.99005286314E+02  0.51541474277E+02  0.29193982691E+03  0.00000000000E+00 0. -1.
        -13    1    3    3    0    0  0.27049472139E+01 -0.13306862699E+03 -0.39730427700E+03  0.41900508917E+03  0.00000000000E+00 0. -1.
         13    1    3    3    0    0 -0.12092534208E+01 -0.16168587539E+03 -0.24422621352E+03  0.29289968925E+03  0.00000000000E+00 0.  1.
          2    1    1    2  501    0 -0.29652388728E+03  0.38257636239E+03 -0.64436238179E+03  0.80591188591E+03  0.00000000000E+00 0. -1.
<scales pt_clust_5="13000.00000" pt_clust_6="13000.00000" pt_clust_7="13000.00000" pt_clust_8="13000.00000" pt_clust_9="325.28873"></scales>
<clustering>
<clus scale="   91.458">  7  8 -1 -1</clus>
<clus scale="   91.935">  5  6 -1 -1</clus>
<clus scale="  308.621">  2  7  1 -1</clus>
<clus scale="  325.289">  1  9  2 -1</clus>
<clus scale="  325.289">  1  5  2 -1</clus>
</clustering>
</event>
<event>
 9    1  0.1315259E-005  0.1183814E+03  0.7546771E-02  0.1247614E+00
          1   -1    0    0  502    0 -0.00000000000E+00  0.00000000000E+00  0.26323098109E+03  0.26323098109E+03  0.00000000000E+00 0. -1.
         21   -1    0    0  501  502  0.00000000000E+00 -0.00000000000E+00 -0.11214157641E+03  0.11214157641E+03  0.00000000000E+00 0.  1.
         23    2    1    2    0    0  0.43962122181E+02  0.30350909907E+02  0.78351334737E+02  0.12811620631E+03  0.86145137681E+02 0.  0.
         23    2    1    2    0    0 -0.10163097155E+03 -0.80209518665E+02  0.36287484900E+02  0.16275651566E+03  0.91708672254E+02 0.  0.
        -11    1    3    3    0    0  0.28936219182E+02 -0.20368358727E+02  0.22785529693E+01  0.35459365779E+02  0.00000000000E+00 0.  1.
         11    1    3    3    0    0  0.15025902998E+02  0.50719268635E+02  0.76072781768E+02  0.92656840534E+02  0.00000000000E+00 0. -1.
        -11    1    4    4    0    0 -0.27035071189E+02 -0.65056853882E+02 -0.13592821277E+02  0.71749941474E+02  0.00000000000E+00 0. -1.
         11    1    4    4    0    0 -0.74595900365E+02 -0.15152664783E+02  0.49880306177E+02  0.91006574188E+02  0.00000000000E+00 0.  1.
          1    1    1    2  501    0  0.57668849373E+02  0.49858608757E+02  0.36450585042E+02  0.84499835533E+02  0.00000000000E+00 0. -1.
<scales pt_clust_5="13000.00000" pt_clust_6="13000.00000" pt_clust_7="13000.00000" pt_clust_8="13000.00000" pt_clust_9="76.23374"></scales>
<clustering>
<clus scale="   76.234">  2  9  1 -1</clus>
<clus scale="   86.145">  5  6 -1 -1</clus>
<clus scale="   91.709">  7  8 -1 -1</clus>
<clus scale="  114.126">  1  5  2 -1</clus>
<clus scale="   76.234">  2  5  1 -1</clus>
</clustering>
</event>
<event>
 9    1  0.1315259E-005  0.9713129E+02  0.7546771E-02  0.1287451E+00
          1   -1    0    0  502    0 -0.00000000000E+00  0.00000000000E+00  0.82027109545E+02  0.82027109545E+02  0.00000000000E+00 0. -1.
         21   -1    0    0  501  502  0.00000000000E+00 -0.00000000000E+00 -0.32601074831E+03  0.32601074831E+03  0.00000000000E+00 0. -1.
         23    2    1    2    0    0 -0.50042570980E+02  0.46755067552E+01 -0.12819773029E+02  0.10597701175E+03  0.92415697612E+02 0.  0.
         23    2    1    2    0    0  0.21373022174E+01  0.26922995733E+02 -0.40175088719E+02  0.10263644168E+03  0.90502959326E+02 0.  0.
        -13    1    4    4    0    0 -0.12985665066E+02 -0.16865571774E+02 -0.50824431015E+02  0.55101704116E+02  0.00000000000E+00 0.  1.
         13    1    4    4    0    0  0.15122967283E+02  0.43788567507E+02  0.10649342296E+02  0.47534737562E+02  0.00000000000E+00 0. -1.
        -13    1    3    3    0    0  0.22403129923E+02  0.24829794162E+01 -0.23675854296E+02  0.32689623641E+02  0.00000000000E+00 0.  1.
         13    1    3    3    0    0 -0.72445700903E+02  0.21925273390E+01  0.10856081267E+02  0.73287388109E+02  0.00000000000E+00 0. -1.
          1    1    1    2  501    0  0.47905268762E+02 -0.31598502488E+02 -0.19098877702E+03  0.19942440443E+03  0.00000000000E+00 0. -1.
<scales pt_clust_5="13000.00000" pt_clust_6="13000.00000" pt_clust_7="13000.00000" pt_clust_8="13000.00000" pt_clust_9="57.38798"></scales>
<clustering>
<clus scale="   57.388">  2  9  1 -1</clus>
<clus scale="   90.503">  5  6 -1 -1</clus>
<clus scale="   92.416">  7  8 -1 -1</clus>
<clus scale="   95.313">  2  5  1 -1</clus>
<clus scale="   57.388">  2  5  1 -1</clus>
</clustering>
</event>
<event>
 9    1  0.1315259E-005  0.1701427E+03  0.7546771E-02  0.1184311E+00
          2   -1    0    0  502    0 -0.00000000000E+00  0.00000000000E+00  0.25656660524E+03  0.25656660524E+03  0.00000000000E+00 0. -1.
         21   -1    0    0  501  502  0.00000000000E+00 -0.00000000000E+00 -0.21942505073E+03  0.21942505073E+03  0.00000000000E+00 0.  1.
         23    2    1    2    0    0  0.34628203699E+02  0.10673709716E+03  0.10610061056E+03  0.17970524462E+03  0.91895130338E+02 0.  0.
         23    2    1    2    0    0  0.25215744271E+01 -0.12268828142E+03  0.39732415366E+02  0.18031925112E+03  0.12600632826E+03 0.  0.
        -11    1    3    3    0    0  0.58295748021E+02  0.31744310741E+02  0.46978204642E+02  0.81320644446E+02  0.00000000000E+00 0.  1.
         11    1    3    3    0    0 -0.23667544322E+02  0.74992786417E+02  0.59122405920E+02  0.98384600170E+02  0.00000000000E+00 0. -1.
        -13    1    4    4    0    0 -0.42859037746E+02 -0.97676998225E+01  0.38777317707E+02  0.58617279405E+02  0.00000000000E+00 0. -1.
         13    1    4    4    0    0  0.45380612173E+02 -0.11292058159E+03  0.95509765880E+00  0.12170197172E+03  0.00000000000E+00 0.  1.
          2    1    1    2  501    0 -0.37149778126E+02  0.15951184258E+02 -0.10869147141E+03  0.11596716023E+03  0.00000000000E+00 0. -1.
<scales pt_clust_5="13000.00000" pt_clust_6="13000.00000" pt_clust_7="13000.00000" pt_clust_8="13000.00000" pt_clust_9="40.42952"></scales>
<clustering>
<clus scale="   40.430">  2  9  1 -1</clus>
<clus scale="   91.895">  5  6 -1 -1</clus>
<clus scale="  126.006">  7  8 -1 -1</clus>
<clus scale="  146.682">  1  5  2 -1</clus>
<clus scale="   40.430">  2  5  1 -1</clus>
</clustering>
</event>
<event>
 9    1  0.1315259E-005  0.1001988E+03  0.7546771E-02  0.1280588E+00
          2   -1    0    0  502    0 -0.00000000000E+00  0.00000000000E+00  0.36308156072E+03  0.36308156072E+03  0.00000000000E+00 0. -1.
         21   -1    0    0  501  502  0.00000000000E+00 -0.00000000000E+00 -0.42888866067E+02  0.42888866067E+02  0.00000000000E+00 0. -1.
         23    2    1    2    0    0  0.13421931312E+02 -0.32085749859E+02  0.19851681013E+03  0.22091077275E+03  0.90459947102E+02 0.  0.
         23    2    1    2    0    0 -0.27437795919E+02  0.51131689443E+02  0.12153529257E+03  0.16141198943E+03  0.88970335964E+02 0.  0.
        -11    1    3    3    0    0  0.52253141805E+02 -0.22669136772E+02  0.11698573957E+03  0.13011511769E+03  0.00000000000E+00 0.  1.
         11    1    3    3    0    0 -0.38831210493E+02 -0.94166130863E+01  0.81531070559E+02  0.90795655055E+02  0.00000000000E+00 0. -1.
        -13    1    4    4    0    0 -0.13844988768E+02 -0.16901316301E+02  0.44200118499E+00  0.21852541540E+02  0.00000000000E+00 0.  1.
         13    1    4    4    0    0 -0.13592807151E+02  0.68033005745E+02  0.12109329139E+03  0.13955944789E+03  0.00000000000E+00 0. -1.
          2    1    1    2  501    0  0.14015864607E+02 -0.19045939585E+02  0.14059195511E+00  0.23647664608E+02  0.00000000000E+00 0. -1.
<scales pt_clust_5="13000.00000" pt_clust_6="13000.00000" pt_clust_7="13000.00000" pt_clust_8="13000.00000" pt_clust_9="23.64725"></scales>
<clustering>
<clus scale="   23.647">  2  9  1 -1</clus>
<clus scale="   88.970">  7  8 -1 -1</clus>
<clus scale="   90.460">  5  6 -1 -1</clus>
<clus scale="   98.856">  2  7  1 -1</clus>
<clus scale="   23.647">  2  5  1 -1</clus>
</clustering>
</event>
<event>
 9    1  0.1315259E-005  0.1115805E+03  0.7546771E-02  0.1257874E+00
         -2   -1    0    0    0  501 -0.00000000000E+00  0.00000000000E+00  0.71335345198E+02  0.71335345198E+02  0.00000000000E+00 0.  1.
         21   -1    0    0  501  502  0.00000000000E+00 -0.00000000000E+00 -0.32021326916E+03  0.32021326916E+03  0.00000000000E+00 0.  1.
         23    2    1    2    0    0  0.15713179173E+02 -0.57608899117E+02 -0.21682722533E+02  0.11072017860E+03  0.90681465772E+02 0.  0.
         23    2    1    2    0    0 -0.50173895449E+02  0.64294257039E+02 -0.13236471091E+03  0.17970941228E+03  0.90132596195E+02 0.  0.
        -11    1    3    3    0    0  0.15623398661E+01 -0.26476277085E+02  0.35366300244E+02  0.44206440109E+02  0.00000000000E+00 0.  1.
         11    1    3    3    0    0  0.14150839307E+02 -0.31132622032E+02 -0.57049022777E+02  0.66513738487E+02  0.00000000000E+00 0. -1.
        -11    1    4    4    0    0  0.21223963570E+02  0.31060036522E+02 -0.20319763415E+02  0.42755997049E+02  0.00000000000E+00 0.  1.
         11    1    4    4    0    0 -0.71397859019E+02  0.33234220517E+02 -0.11204494749E+03  0.13695341523E+03  0.00000000000E+00 0. -1.
         -2    1    1    2    0  502  0.34460716276E+02 -0.66853579223E+01 -0.94830490519E+02  0.10111902348E+03  0.00000000000E+00 0.  1.
<scales pt_clust_5="13000.00000" pt_clust_6="13000.00000" pt_clust_7="13000.00000" pt_clust_8="13000.00000" pt_clust_9="35.10320"></scales>
<clustering>
<clus scale="   35.103">  2  9  1 -1</clus>
<clus scale="   90.133">  7  8 -1 -1</clus>
<clus scale="   90.681">  5  6 -1 -1</clus>
<clus scale="  111.135">  2  7  1 -1</clus>
<clus scale="   35.103">  2  5  1 -1</clus>
</clustering>
</event>
<event>
 9    1  0.1315259E-005  0.1813470E+03  0.7546771E-02  0.1167446E+00
         21   -1    0    0  501  502  0.00000000000E+00  0.00000000000E+00  0.15657232896E+03  0.15657232896E+03  0.00000000000E+00 0. -1.
         -3   -1    0    0    0  501 -0.00000000000E+00 -0.00000000000E+00 -0.54639394246E+03  0.54639394246E+03  0.00000000000E+00 0.  1.
         23    2    1    2    0    0  0.19066047898E+02 -0.14805633685E+03 -0.43733600394E+03  0.47127711707E+03  0.92494041246E+02 0.  0.
         23    2    1    2    0    0 -0.14826017309E+02  0.16818921838E+03  0.62964779921E+02  0.20595930179E+03  0.99735883776E+02 0.  0.
        -11    1    4    4    0    0 -0.23026800565E+02  0.89182290306E+02 -0.16533288409E+02  0.93579186116E+02  0.00000000000E+00 0. -1.
         11    1    4    4    0    0  0.82007832561E+01  0.79006928077E+02  0.79498068329E+02  0.11238011567E+03  0.00000000000E+00 0.  1.
        -13    1    3    3    0    0  0.24101088837E+02 -0.56194144475E+02 -0.71637438544E+02  0.94183687322E+02  0.00000000000E+00 0. -1.
         13    1    3    3    0    0 -0.50350409389E+01 -0.91862192378E+02 -0.36569856540E+03  0.37709342975E+03  0.00000000000E+00 0.  1.
         -3    1    1    2    0  502 -0.42400305883E+01 -0.20132881529E+02 -0.15450389475E+02  0.25729852565E+02  0.00000000000E+00 0.  1.
<scales pt_clust_5="13000.00000" pt_clust_6="13000.00000" pt_clust_7="13000.00000" pt_clust_8="13000.00000" pt_clust_9="20.57453"></scales>
<clustering>
<clus scale="   20.575">  1  9  2 -1</clus>
<clus scale="   92.494">  7  8 -1 -1</clus>
<clus scale="   99.736">  5  6 -1 -1</clus>
<clus scale="  177.467">  2  7  1 -1</clus>
<clus scale="   20.575">  1  5  2 -1</clus>
</clustering>
</event>
<event>
 9    1  0.1315259E-005  0.1085857E+03  0.7546771E-02  0.1263463E+00
         21   -1    0    0  501  502  0.00000000000E+00  0.00000000000E+00  0.30627926108E+03  0.30627926108E+03  0.00000000000E+00 0. -1.
         -1   -1    0    0    0  501 -0.00000000000E+00 -0.00000000000E+00 -0.14532580137E+03  0.14532580137E+03  0.00000000000E+00 0.  1.
         23    2    1    2    0    0 -0.56322437607E+02 -0.14202463993E+02 -0.10151465288E+03  0.14832371953E+03  0.91218277033E+02 0.  0.
         23    2    1    2    0    0  0.59412110186E+02 -0.79027674822E+01  0.25824012507E+03  0.28056431816E+03  0.91848363405E+02 0.  0.
        -11    1    3    3    0    0 -0.34970330480E+02 -0.49087673602E+02 -0.85034067391E+02  0.10422723411E+03  0.00000000000E+00 0.  1.
         11    1    3    3    0    0 -0.21352107127E+02  0.34885209609E+02 -0.16480585488E+02  0.44096485419E+02  0.00000000000E+00 0. -1.
        -11    1    4    4    0    0 -0.15861101659E+02 -0.21905940356E+02  0.11508823847E+03  0.11822329467E+03  0.00000000000E+00 0.  1.
         11    1    4    4    0    0  0.75273211844E+02  0.14003172873E+02  0.14315188661E+03  0.16234102350E+03  0.00000000000E+00 0. -1.
         -1    1    1    2    0  502 -0.30896725782E+01  0.22105231475E+02  0.42279875270E+01  0.22717024755E+02  0.00000000000E+00 0.  1.
<scales pt_clust_5="13000.00000" pt_clust_6="13000.00000" pt_clust_7="13000.00000" pt_clust_8="13000.00000" pt_clust_9="22.32012"></scales>
<clustering>
<clus scale="   22.320">  1  9  2 -1</clus>
<clus scale="   91.218">  5  6 -1 -1</clus>
<clus scale="   91.848">  7  8 -1 -1</clus>
<clus scale="  108.053">  2  5  1 -1</clus>
<clus scale="   22.320">  1  5  2 -1</clus>
</clustering>
</event>
<event>
 9    1  0.1315259E-005  0.1750254E+03  0.7546771E-02  0.1173133E+00
         21   -1    0    0  501  502  0.00000000000E+00  0.00000000000E+00  0.29912536833E+03  0.29912536833E+03  0.00000000000E+00 0. -1.
          1   -1    0    0  502    0 -0.00000000000E+00 -0.00000000000E+00 -0.25434391138E+03  0.25434391138E+03  0.00000000000E+00 0. -1.
         23    2    1    2    0    0 -0.17601246468E+03  0.69774126266E+02 -0.87578936760E+02  0.22651524371E+03  0.88262500808E+02 0.  0.
         23    2    1    2    0    0  0.11718537904E+03  0.21723346767E+02 -0.66680571147E+01  0.15042833330E+03  0.91541813488E+02 0.  0.
        -11    1    4    4    0    0  0.10313757855E+03 -0.21042052617E+02 -0.52173678365E+01  0.10539140864E+03  0.00000000000E+00 0.  1.
         11    1    4    4    0    0  0.14047800491E+02  0.42765399385E+02 -0.14506892782E+01  0.45036924657E+02  0.00000000000E+00 0. -1.
        -11    1    3    3    0    0 -0.25473276269E+02  0.32060064240E+02  0.11327281609E+02  0.42485795646E+02  0.00000000000E+00 0.  1.
         11    1    3    3    0    0 -0.15053918841E+03  0.37714062026E+02 -0.98906218369E+02  0.18402944806E+03  0.00000000000E+00 0. -1.
          1    1    1    2  501    0  0.58827085636E+02 -0.91497473033E+02  0.13902845083E+03  0.17652570271E+03  0.00000000000E+00 0. -1.
<scales pt_clust_5="13000.00000" pt_clust_6="13000.00000" pt_clust_7="13000.00000" pt_clust_8="13000.00000" pt_clust_9="108.77690"></scales>
<clustering>
<clus scale="   88.263">  7  8 -1 -1</clus>
<clus scale="   91.542">  5  6 -1 -1</clus>
<clus scale="  108.777">  1  9  2 -1</clus>
<clus scale="  173.333">  2  7  1 -1</clus>
<clus scale="  108.777">  1  5  2 -1</clus>
</clustering>
</event>
<event>
 9    1  0.1315259E-005  0.9476934E+02  0.7546771E-02  0.1293104E+00
          1   -1    0    0  502    0 -0.00000000000E+00  0.00000000000E+00  0.45221690147E+02  0.45221690147E+02  0.00000000000E+00 0. -1.
         21   -1    0    0  501  502  0.00000000000E+00 -0.00000000000E+00 -0.59780231940E+03  0.59780231940E+03  0.00000000000E+00 0. -1.
         23    2    1    2    0    0  0.41206420486E+02  0.16321323643E+02 -0.11662775345E+03  0.15548468085E+03  0.92785227334E+02 0.  0.
         23    2    1    2    0    0  0.19485552614E+02  0.48346726130E+02 -0.11800461496E+03  0.15745362947E+03  0.90274379486E+02 0.  0.
        -13    1    4    4    0    0 -0.20951778327E+02  0.20282630080E+02 -0.10139512079E+03  0.10550513076E+03  0.00000000000E+00 0.  1.
         13    1    4    4    0    0  0.40437330941E+02  0.28064096050E+02 -0.16609494176E+02  0.51948498704E+02  0.00000000000E+00 0. -1.
        -13    1    3    3    0    0  0.37891938044E+02 -0.11012879044E+02 -0.12129975174E+03  0.12755670208E+03  0.00000000000E+00 0.  1.
         13    1    3    3    0    0  0.33144824419E+01  0.27334202686E+02  0.46719982920E+01  0.27927978774E+02  0.00000000000E+00 0. -1.
          1    1    1    2  501    0 -0.60691973100E+02 -0.64668049773E+02 -0.31794826085E+03  0.33008569923E+03  0.00000000000E+00 0. -1.
<scales pt_clust_5="13000.00000" pt_clust_6="13000.00000" pt_clust_7="13000.00000" pt_clust_8="13000.00000" pt_clust_9="88.68750"></scales>
<clustering>
<clus scale="   88.687">  2  9  1 -1</clus>
<clus scale="   90.274">  5  6 -1 -1</clus>
<clus scale="   92.312">  2  5  1 -1</clus>
<clus scale="   92.785">  7  8 -1 -1</clus>
<clus scale="   88.687">  2  5  1 -1</clus>
</clustering>
</event>
<event>
 9    1  0.1315259E-005  0.9202410E+02  0.7546771E-02  0.1303950E+00
         21   -1    0    0  501  502  0.00000000000E+00  0.00000000000E+00  0.11312256857E+03  0.11312256857E+03  0.00000000000E+00 0. -1.
          1   -1    0    0  502    0 -0.00000000000E+00 -0.00000000000E+00 -0.23118665141E+03  0.23118665141E+03  0.00000000000E+00 0. -1.
         23    2    1    2    0    0 -0.27415807626E+02  0.11004016539E+02 -0.11748529703E+03  0.15172232405E+03  0.91346339338E+02 0.  0.
         23    2    1    2    0    0 -0.40859349988E+02 -0.11321256649E+02 -0.53225614370E+02  0.10637038739E+03  0.81755953637E+02 0.  0.
        -13    1    3    3    0    0  0.80824957966E+01 -0.35315734046E+02 -0.32763000554E+02  0.48846105421E+02  0.00000000000E+00 0. -1.
         13    1    3    3    0    0 -0.35498303423E+02  0.46319750584E+02 -0.84722296472E+02  0.10287621863E+03  0.00000000000E+00 0.  1.
        -13    1    4    4    0    0  0.24709540301E+02 -0.55569995470E+00 -0.79426307882E+01  0.25960654232E+02  0.00000000000E+00 0.  1.
         13    1    4    4    0    0 -0.65568890289E+02 -0.10765556694E+02 -0.45282983582E+02  0.80409733159E+02  0.00000000000E+00 0. -1.
          1    1    1    2  501    0  0.68275157614E+02  0.31724011055E+00  0.52646828549E+02  0.86216508540E+02  0.00000000000E+00 0. -1.
<scales pt_clust_5="13000.00000" pt_clust_6="13000.00000" pt_clust_7="13000.00000" pt_clust_8="13000.00000" pt_clust_9="68.27589"></scales>
<clustering>
<clus scale="   68.276">  1  9  2 -1</clus>
<clus scale="   81.756">  7  8 -1 -1</clus>
<clus scale="   82.513">  1  7  2 -1</clus>
<clus scale="   91.346">  5  6 -1 -1</clus>
<clus scale="   68.276">  1  5  2 -1</clus>
</clustering>
</event>
<event>
 9    1  0.1315259E-005  0.1260887E+03  0.7546771E-02  0.1233861E+00
         21   -1    0    0  501  502  0.00000000000E+00  0.00000000000E+00  0.12831344814E+03  0.12831344814E+03  0.00000000000E+00 0. -1.
          1   -1    0    0  502    0 -0.00000000000E+00 -0.00000000000E+00 -0.30237301635E+03  0.30237301635E+03  0.00000000000E+00 0. -1.
         23    2    1    2    0    0  0.22702461018E+02 -0.34760496317E+02 -0.43775105987E+02  0.11007230586E+03  0.92064970387E+02 0.  0.
         23    2    1    2    0    0 -0.49286993070E+02  0.12146156289E+03 -0.15948203756E+03  0.22534448510E+03  0.90352076422E+02 0.  0.
        -13    1    4    4    0    0  0.18278901657E+02  0.72986118300E+02 -0.64484941338E+02  0.99092882538E+02  0.00000000000E+00 0.  1.
         13    1    4    4    0    0 -0.67565894726E+02  0.48475444594E+02 -0.94997096219E+02  0.12625160256E+03  0.00000000000E+00 0. -1.
        -13    1    3    3    0    0 -0.98425330144E+01 -0.58218746536E+02 -0.15669470463E+02  0.61088707704E+02  0.00000000000E+00 0.  1.
         13    1    3    3    0    0  0.32544994032E+02  0.23458250219E+02 -0.28105635525E+02  0.48983598154E+02  0.00000000000E+00 0. -1.
          1    1    1    2  501    0  0.26584532052E+02 -0.86701066576E+02  0.29197575328E+02  0.95269673532E+02  0.00000000000E+00 0. -1.
<scales pt_clust_5="13000.00000" pt_clust_6="13000.00000" pt_clust_7="13000.00000" pt_clust_8="13000.00000" pt_clust_9="90.68524"></scales>
<clustering>
<clus scale="   90.352">  5  6 -1 -1</clus>
<clus scale="   90.685">  1  9  2 -1</clus>
<clus scale="   92.065">  7  8 -1 -1</clus>
<clus scale="  124.843">  1  5  2 -1</clus>
<clus scale="   90.685">  1  5  2 -1</clus>
</clustering>
</event>
<event>
 9    1  0.1315259E-005  0.2492308E+03  0.7546771E-02  0.1152229E+00
          2   -1    0    0  502    0 -0.00000000000E+00  0.00000000000E+00  0.50277558670E+03  0.50277558670E+03  0.00000000000E+00 0. -1.
         21   -1    0    0  501  502  0.00000000000E+00 -0.00000000000E+00 -0.29324941961E+03  0.29324941961E+03  0.00000000000E+00 0. -1.
         23    2    1    2    0    0 -0.14042401724E+02  0.31377059784E+02  0.27098515476E+03  0.28797155813E+03  0.91175409319E+02 0.  0.
         23    2    1    2    0    0 -0.10927616160E+03  0.17084976071E+03  0.67914398487E+02  0.23816341866E+03  0.10477847220E+03 0.  0.
        -13    1    4    4    0    0 -0.40553597727E+02  0.70630786182E+01 -0.12738025083E+02  0.43089890360E+02  0.00000000000E+00 0.  1.
         13    1    4    4    0    0 -0.68722563873E+02  0.16378668209E+03  0.80652423571E+02  0.19507352830E+03  0.00000000000E+00 0. -1.
        -13    1    3    3    0    0  0.32980284023E+02  0.37592243537E+02  0.13881645729E+03  0.14754960089E+03  0.00000000000E+00 0. -1.
         13    1    3    3    0    0 -0.47022685747E+02 -0.62151837534E+01  0.13216869747E+03  0.14042195724E+03  0.00000000000E+00 0.  1.
          2    1    1    2  501    0  0.12331856332E+03 -0.20222682049E+03 -0.12937338616E+03  0.26989002952E+03  0.00000000000E+00 0. -1.
<scales pt_clust_5="13000.00000" pt_clust_6="13000.00000" pt_clust_7="13000.00000" pt_clust_8="13000.00000" pt_clust_9="226.13593"></scales>
<clustering>
<clus scale="   91.175">  7  8 -1 -1</clus>
<clus scale="   97.441">  1  7  2 -1</clus>
<clus scale="  104.778">  5  6 -1 -1</clus>
<clus scale="  226.136">  2  9  1 -1</clus>
<clus scale="  226.136">  2  5  1 -1</clus>
</clustering>
</event>
<event>
 9    1  0.1315259E-005  0.2077505E+03  0.7546771E-02  0.1144088E+00
         21   -1    0    0  501  502  0.00000000000E+00  0.00000000000E+00  0.52721465785E+02  0.52721465785E+02  0.00000000000E+00 0.  1.
          1   -1    0    0  502    0 -0.00000000000E+00 -0.00000000000E+00 -0.11614682678E+04  0.11614682678E+04  0.00000000000E+00 0. -1.
         23    2    1    2    0    0 -0.77614337655E+02  0.17180911710E+03 -0.84531580539E+03  0.87182840183E+03  0.99917932631E+02 0.  0.
         23    2    1    2    0    0  0.75134657805E+02 -0.14907313144E+03 -0.25398325274E+03  0.31761595398E+03  0.92219229154E+02 0.  0.
        -11    1    4    4    0    0  0.31009050425E+02 -0.11511887406E+03 -0.10609243820E+03  0.15959173480E+03  0.00000000000E+00 0.  1.
         11    1    4    4    0    0  0.44125607379E+02 -0.33954257383E+02 -0.14789081454E+03  0.15802421918E+03  0.00000000000E+00 0. -1.
        -11    1    3    3    0    0 -0.39372063317E+01  0.52376999716E+02 -0.95473203705E+02  0.10896781322E+03  0.00000000000E+00 0.  1.
         11    1    3    3    0    0 -0.73677131323E+02  0.11943211739E+03 -0.74984260169E+03  0.76286058860E+03  0.00000000000E+00 0. -1.
          1    1    1    2  501    0  0.24796798505E+01 -0.22735985662E+02 -0.94477438534E+01  0.24745377752E+02  0.00000000000E+00 0. -1.
<scales pt_clust_5="13000.00000" pt_clust_6="13000.00000" pt_clust_7="13000.00000" pt_clust_8="13000.00000" pt_clust_9="22.87081"></scales>
<clustering>
<clus scale="   22.871">  1  9  2 -1</clus>
<clus scale="   92.219">  5  6 -1 -1</clus>
<clus scale="   99.918">  7  8 -1 -1</clus>
<clus scale="  204.159">  1  5  2 -1</clus>
<clus scale="   22.871">  1  5  2 -1</clus>
</clustering>
</event>
<event>
 9    1  0.1315259E-005  0.1063161E+03  0.7546771E-02  0.1267770E+00
         21   -1    0    0  501  502  0.00000000000E+00  0.00000000000E+00  0.10208036701E+03  0.10208036701E+03  0.00000000000E+00 0. -1.
          2   -1    0    0  502    0 -0.00000000000E+00 -0.00000000000E+00 -0.97770577829E+03  0.97770577829E+03  0.00000000000E+00 0. -1.
         23    2    1    2    0    0  0.40378428435E+02  0.43564312737E+02 -0.60431264792E+03  0.61436736935E+03  0.93408892810E+02 0.  0.
         23    2    1    2    0    0  0.25904866777E+02 -0.56054625827E+02 -0.34673583178E+03  0.36423516860E+03  0.92888846485E+02 0.  0.
        -11    1    3    3    0    0  0.22410613436E+02  0.72900191472E+02 -0.41009726644E+03  0.41712880679E+03  0.00000000000E+00 0. -1.
         11    1    3    3    0    0  0.17967814999E+02 -0.29335878735E+02 -0.19421538148E+03  0.19723856256E+03  0.00000000000E+00 0.  1.
        -13    1    4    4    0    0 -0.16114028229E+02 -0.60853175771E+02 -0.26295458370E+03  0.27038469631E+03  0.00000000000E+00 0.  1.
         13    1    4    4    0    0  0.42018895006E+02  0.47985499441E+01 -0.83781248085E+02  0.93850472293E+02  0.00000000000E+00 0. -1.
          2    1    1    2  501    0 -0.66283295212E+02  0.12490313090E+02  0.75423068432E+02  0.10118360735E+03  0.00000000000E+00 0. -1.
<scales pt_clust_5="13000.00000" pt_clust_6="13000.00000" pt_clust_7="13000.00000" pt_clust_8="13000.00000" pt_clust_9="67.44986"></scales>
<clustering>
<clus scale="   67.450">  1  9  2 -1</clus>
<clus scale="   92.889">  7  8 -1 -1</clus>
<clus scale="   93.409">  5  6 -1 -1</clus>
<clus scale="  105.859">  1  7  2 -1</clus>
<clus scale="   67.450">  1  5  2 -1</clus>
</clustering>
</event>
<event>
 9    1  0.1315259E-005  0.1021453E+03  0.7546771E-02  0.1280517E+00
         21   -1    0    0  501  502  0.00000000000E+00  0.00000000000E+00  0.37060233200E+02  0.37060233200E+02  0.00000000000E+00 0. -1.
         -1   -1    0    0    0  501 -0.00000000000E+00 -0.00000000000E+00 -0.33852896761E+03  0.33852896761E+03  0.00000000000E+00 0.  1.
         23    2    1    2    0    0  0.30872886174E+01 -0.28175323615E+02 -0.18331881546E+03  0.20992775192E+03  0.98287805508E+02 0.  0.
         23    2    1    2    0    0  0.17125106571E+02  0.26013035476E+02 -0.10592230039E+03  0.14193949567E+03  0.89203920436E+02 0.  0.
        -11    1    3    3    0    0 -0.19794817609E+02 -0.48033081092E+02 -0.46268614658E+02  0.69568645133E+02  0.00000000000E+00 0. -1.
         11    1    3    3    0    0  0.22882106226E+02  0.19857757477E+02 -0.13705020080E+03  0.14035910678E+03  0.00000000000E+00 0.  1.
        -13    1    4    4    0    0  0.47411296975E+02  0.29682728224E+02 -0.38410656413E+02  0.67854800580E+02  0.00000000000E+00 0.  1.
         13    1    4    4    0    0 -0.30286190404E+02 -0.36696927482E+01 -0.67511643973E+02  0.74084695086E+02  0.00000000000E+00 0. -1.
         -1    1    1    2    0  502 -0.20212395188E+02  0.21622881388E+01 -0.12227618569E+02  0.23721953231E+02  0.00000000000E+00 0.  1.
<scales pt_clust_5="13000.00000" pt_clust_6="13000.00000" pt_clust_7="13000.00000" pt_clust_8="13000.00000" pt_clust_9="20.32773"></scales>
<clustering>
<clus scale="   20.328">  1  9  2 -1</clus>
<clus scale="   89.204">  7  8 -1 -1</clus>
<clus scale="   93.437">  1  7  2 -1</clus>
<clus scale="   98.288">  5  6 -1 -1</clus>
<clus scale="   20.328">  1  5  2 -1</clus>
</clustering>
</event>
<event>
 9    1  0.1315259E-005  0.1062307E+03  0.7546771E-02  0.1272928E+00
          1   -1    0    0  502    0 -0.00000000000E+00  0.00000000000E+00  0.30994461767E+03  0.30994461767E+03  0.00000000000E+00 0. -1.
         21   -1    0    0  501  502  0.00000000000E+00 -0.00000000000E+00 -0.16847264189E+03  0.16847264189E+03  0.00000000000E+00 0. -1.
         23    2    1    2    0    0  0.56802954869E+02 -0.12700774944E+02  0.24930954224E+03  0.27142717660E+03  0.90164177932E+02 0.  0.
         23    2    1    2    0    0 -0.19680752475E+02  0.71219875454E+02 -0.64673408981E+02  0.12534642108E+03  0.77906821076E+02 0.  0.
        -11    1    3    3    0    0  0.10490631940E+02 -0.43445169095E+02  0.16091631638E+03  0.16700777513E+03  0.00000000000E+00 0.  1.
         11    1    3    3    0    0  0.46312322929E+02  0.30744394152E+02  0.88393225861E+02  0.10441940148E+03  0.00000000000E+00 0. -1.
        -13    1    4    4    0    0 -0.45992871590E+02  0.20824328245E+02 -0.32016330389E+02  0.59783294452E+02  0.00000000000E+00 0.  1.
         13    1    4    4    0    0  0.26312119115E+02  0.50395547209E+02 -0.32657078593E+02  0.65563126626E+02  0.00000000000E+00 0. -1.
          1    1    1    2  501    0 -0.37122202394E+02 -0.58519100511E+02 -0.43164157476E+02  0.81643661884E+02  0.00000000000E+00 0. -1.
<scales pt_clust_5="13000.00000" pt_clust_6="13000.00000" pt_clust_7="13000.00000" pt_clust_8="13000.00000" pt_clust_9="69.30038"></scales>
<clustering>
<clus scale="   69.300">  2  9  1 -1</clus>
<clus scale="   77.907">  7  8 -1 -1</clus>
<clus scale="   90.164">  5  6 -1 -1</clus>
<clus scale="   96.046">  2  7  1 -1</clus>
<clus scale="   69.300">  2  5  1 -1</clus>
</clustering>
</event>
<event>
 9    1  0.1315259E-005  0.1012674E+03  0.7546771E-02  0.1277899E+00
         -1   -1    0    0    0  501 -0.00000000000E+00  0.00000000000E+00  0.51237426462E+03  0.51237426462E+03  0.00000000000E+00 0.  1.
         21   -1    0    0  501  502  0.00000000000E+00 -0.00000000000E+00 -0.62109705962E+02  0.62109705962E+02  0.00000000000E+00 0.  1.
         23    2    1    2    0    0 -0.47882211707E+02 -0.12891491745E+02  0.38334152254E+03  0.39738729674E+03  0.92233637809E+02 0.  0.
         23    2    1    2    0    0 -0.15219927893E+02  0.27536258146E+02  0.29520643193E+02  0.10229501477E+03  0.92751873048E+02 0.  0.
        -11    1    4    4    0    0  0.29514596531E+02 -0.14651923453E+02  0.23578967442E+02  0.40518612697E+02  0.00000000000E+00 0. -1.
         11    1    4    4    0    0 -0.44734524424E+02  0.42188181599E+02  0.59416757514E+01  0.61776402070E+02  0.00000000000E+00 0.  1.
        -13    1    3    3    0    0  0.17920421559E+02  0.19158723543E+02  0.54320081428E+02  0.60323042389E+02  0.00000000000E+00 0. -1.
         13    1    3    3    0    0 -0.65802633266E+02 -0.32050215288E+02  0.32902144112E+03  0.33706425435E+03  0.00000000000E+00 0.  1.
         -1    1    1    2    0  502  0.63102139600E+02 -0.14644766401E+02  0.37402392924E+02  0.74801659082E+02  0.00000000000E+00 0.  1.
<scales pt_clust_5="13000.00000" pt_clust_6="13000.00000" pt_clust_7="13000.00000" pt_clust_8="13000.00000" pt_clust_9="64.77923"></scales>
<clustering>
<clus scale="   64.779">  2  9  1 -1</clus>
<clus scale="   92.234">  7  8 -1 -1</clus>
<clus scale="   92.752">  5  6 -1 -1</clus>
<clus scale="  100.793">  1  7  2 -1</clus>
<clus scale="   64.779">  2  5  1 -1</clus>
</clustering>
</event>
<event>
 9    1  0.1315259E-005  0.1206287E+03  0.7546771E-02  0.1242348E+00
         21   -1    0    0  501  502  0.00000000000E+00  0.00000000000E+00  0.86856429147E+02  0.86856429147E+02  0.00000000000E+00 0.  1.
          1   -1    0    0  502    0 -0.00000000000E+00 -0.00000000000E+00 -0.28221832977E+03  0.28221832977E+03  0.00000000000E+00 0. -1.
         23    2    1    2    0    0 -0.87242857483E+02  0.74919603117E+01 -0.14526922317E+03  0.19307582193E+03  0.92237086697E+02 0.  0.
         23    2    1    2    0    0  0.64099618019E+02 -0.16835553596E+02 -0.79045917398E+02  0.13777326012E+03  0.91329169774E+02 0.  0.
        -13    1    4    4    0    0  0.26919697704E+02  0.35716155699E+02 -0.15543692621E+02  0.47348920608E+02  0.00000000000E+00 0. -1.
         13    1    4    4    0    0  0.37179920314E+02 -0.52551709295E+02 -0.63502224777E+02  0.90424339511E+02  0.00000000000E+00 0.  1.
        -13    1    3    3    0    0 -0.81569211951E+02 -0.29367009542E+02 -0.11995021868E+03  0.14800004239E+03  0.00000000000E+00 0.  1.
         13    1    3    3    0    0 -0.56736455324E+01  0.36858969854E+02 -0.25319004492E+02  0.45075779536E+02  0.00000000000E+00 0. -1.
          1    1    1    2  501    0  0.23143239464E+02  0.93435932841E+01  0.28953239948E+02  0.38225676866E+02  0.00000000000E+00 0. -1.
<scales pt_clust_5="13000.00000" pt_clust_6="13000.00000" pt_clust_7="13000.00000" pt_clust_8="13000.00000" pt_clust_9="24.95821"></scales>
<clustering>
<clus scale="   24.958">  1  9  2 -1</clus>
<clus scale="   91.329">  5  6 -1 -1</clus>
<clus scale="   92.237">  7  8 -1 -1</clus>
<clus scale="  119.936">  1  5  2 -1</clus>
<clus scale="   24.958">  1  5  2 -1</clus>
</clustering>
</event>
<event>
 9    1  0.1315259E-005  0.9666447E+02  0.7546771E-02  0.1288843E+00
          1   -1    0    0  502    0 -0.00000000000E+00  0.00000000000E+00  0.15755442525E+03  0.15755442525E+03  0.00000000000E+00 0. -1.
         21   -1    0    0  501  502  0.00000000000E+00 -0.00000000000E+00 -0.90520149797E+02  0.90520149797E+02  0.00000000000E+00 0.  1.
         23    2    1    2    0    0 -0.28904435363E+02 -0.18909584347E+02  0.19906239270E+02  0.96681161315E+02  0.88079224721E+02 0.  0.
         23    2    1    2    0    0  0.38231650840E+02 -0.13397785304E+02  0.77956370409E+01  0.99645943217E+02  0.90704918641E+02 0.  0.
        -13    1    3    3    0    0  0.30366876564E+02 -0.65626014199E+01 -0.45215776205E+01  0.31395216097E+02  0.00000000000E+00 0.  1.
         13    1    3    3    0    0 -0.59271311926E+02 -0.12346982927E+02  0.24427816891E+02  0.65285945217E+02  0.00000000000E+00 0. -1.
        -13    1    4    4    0    0  0.32316660743E+02  0.30619360573E+02  0.26104033241E+02  0.51607483517E+02  0.00000000000E+00 0. -1.
         13    1    4    4    0    0  0.59149900972E+01 -0.44017145877E+02 -0.18308396200E+02  0.48038459700E+02  0.00000000000E+00 0.  1.
          1    1    1    2  501    0 -0.93272154777E+01  0.32307369650E+02  0.39332399138E+02  0.51747470510E+02  0.00000000000E+00 0. -1.
<scales pt_clust_5="13000.00000" pt_clust_6="13000.00000" pt_clust_7="13000.00000" pt_clust_8="13000.00000" pt_clust_9="33.62684"></scales>
<clustering>
<clus scale="   33.627">  2  9  1 -1</clus>
<clus scale="   88.079">  5  6 -1 -1</clus>
<clus scale="   90.705">  7  8 -1 -1</clus>
<clus scale="   94.205">  1  5  2 -1</clus>
<clus scale="   33.627">  2  5  1 -1</clus>
</clustering>
</event>
<event>
 9    1  0.1315259E-005  0.9890678E+02  0.7546771E-02  0.1283137E+00
         -3   -1    0    0    0  501 -0.00000000000E+00  0.00000000000E+00  0.84584458684E+02  0.84584458684E+02  0.00000000000E+00 0.  1.
         21   -1    0    0  501  502  0.00000000000E+00 -0.00000000000E+00 -0.37190503526E+03  0.37190503526E+03  0.00000000000E+00 0.  1.
         23    2    1    2    0    0 -0.25898798197E+02  0.21254783933E+02  0.25518864202E+02  0.10118280662E+03  0.92001273568E+02 0.  0.
         23    2    1    2    0    0  0.28404248590E+01 -0.68385062429E+02 -0.18629082734E+03  0.21831214986E+03  0.90946894648E+02 0.  0.
        -11    1    3    3    0    0  0.77066875454E+01 -0.32515876609E+02  0.17383741181E+01  0.33461876952E+02  0.00000000000E+00 0. -1.
         11    1    3    3    0    0 -0.33605485743E+02  0.53770660542E+02  0.23780490084E+02  0.67720929673E+02  0.00000000000E+00 0.  1.
        -11    1    4    4    0    0  0.14517225139E+02  0.18794504262E+02 -0.58883156415E+02  0.63491805185E+02  0.00000000000E+00 0. -1.
         11    1    4    4    0    0 -0.11676800280E+02 -0.87179566690E+02 -0.12740767093E+03  0.15482034467E+03  0.00000000000E+00 0.  1.
         -3    1    1    2    0  502  0.23058373338E+02  0.47130278496E+02 -0.12654861343E+03  0.13699453746E+03  0.00000000000E+00 0.  1.
<scales pt_clust_5="13000.00000" pt_clust_6="13000.00000" pt_clust_7="13000.00000" pt_clust_8="13000.00000" pt_clust_9="52.46858"></scales>
<clustering>
<clus scale="   52.469">  2  9  1 -1</clus>
<clus scale="   90.947">  7  8 -1 -1</clus>
<clus scale="   92.001">  5  6 -1 -1</clus>
<clus scale="   97.927">  2  7  1 -1</clus>
<clus scale="   52.469">  2  5  1 -1</clus>
</clustering>
</event>
<event>
 9    1  0.1315259E-005  0.1064608E+03  0.7546771E-02  0.1272762E+00
         21   -1    0    0  501  502  0.00000000000E+00  0.00000000000E+00  0.45875148859E+02  0.45875148859E+02  0.00000000000E+00 0.  1.
          4   -1    0    0  502    0 -0.00000000000E+00 -0.00000000000E+00 -0.36159101169E+03  0.36159101169E+03  0.00000000000E+00 0. -1.
         23    2    1    2    0    0 -0.21231378969E+02  0.57144996800E+01 -0.18089630458E+03  0.20364023558E+03  0.90897995464E+02 0.  0.
         23    2    1    2    0    0  0.34691952915E+02 -0.31627052459E+02 -0.13360079757E+03  0.17460037416E+03  0.10213870716E+03 0.  0.
        -13    1    3    3    0    0 -0.46742464059E+02 -0.25061928710E+02 -0.11349714092E+03  0.12527792788E+03  0.00000000000E+00 0. -1.
         13    1    3    3    0    0  0.25511085090E+02  0.30776428390E+02 -0.67399163657E+02  0.78362307703E+02  0.00000000000E+00 0.  1.
        -13    1    4    4    0    0  0.54841338443E+02 -0.13036722344E+02 -0.23387849571E+02  0.61028845960E+02  0.00000000000E+00 0.  1.
         13    1    4    4    0    0 -0.20149385528E+02 -0.18590330115E+02 -0.11021294800E+03  0.11357152820E+03  0.00000000000E+00 0. -1.
          4    1    1    2  501    0 -0.13460573946E+02  0.25912552779E+02 -0.12187606874E+01  0.29225550809E+02  0.00000000000E+00 0. -1.
<scales pt_clust_5="13000.00000" pt_clust_6="13000.00000" pt_clust_7="13000.00000" pt_clust_8="13000.00000" pt_clust_9="29.20013"></scales>
<clustering>
<clus scale="   29.200">  1  9  2 -1</clus>
<clus scale="   90.898">  5  6 -1 -1</clus>
<clus scale="   95.729">  2  5  1 -1</clus>
<clus scale="  102.139">  7  8 -1 -1</clus>
<clus scale="   29.200">  1  5  2 -1</clus>
</clustering>
</event>
<event>
 9    1  0.1315259E-005  0.1029773E+03  0.7546771E-02  0.1274754E+00
         -3   -1    0    0    0  501 -0.00000000000E+00  0.00000000000E+00  0.26303723724E+03  0.26303723724E+03  0.00000000000E+00 0.  1.
         21   -1    0    0  501  502  0.00000000000E+00 -0.00000000000E+00 -0.68089250803E+02  0.68089250803E+02  0.00000000000E+00 0. -1.
         23    2    1    2    0    0  0.15061752201E+02  0.53334371109E+02  0.16012950379E+03  0.19237631890E+03  0.91081164718E+02 0.  0.
         23    2    1    2    0    0 -0.22649493867E+02 -0.16426285948E+02  0.27383747431E+02  0.10034371316E+03  0.92391388694E+02 0.  0.
        -11    1    3    3    0    0  0.11367096410E+01  0.78129290535E+02  0.11975831906E+03  0.14299487100E+03  0.00000000000E+00 0. -1.
         11    1    3    3    0    0  0.13925042560E+02 -0.24794919426E+02  0.40371184728E+02  0.49381447892E+02  0.00000000000E+00 0.  1.
        -11    1    4    4    0    0  0.25840926165E+02 -0.34023972360E+02  0.17983090504E+01  0.42762344132E+02  0.00000000000E+00 0.  1.
         11    1    4    4    0    0 -0.48490420032E+02  0.17597686412E+02  0.25585438381E+02  0.57581369028E+02  0.00000000000E+00 0. -1.
         -3    1    1    2    0  502  0.75877416657E+01 -0.36908085161E+02  0.74347352148E+01  0.38406455988E+02  0.00000000000E+00 0.  1.
<scales pt_clust_5="13000.00000" pt_clust_6="13000.00000" pt_clust_7="13000.00000" pt_clust_8="13000.00000" pt_clust_9="37.67998"></scales>
<clustering>
<clus scale="   37.680">  2  9  1 -1</clus>
<clus scale="   91.081">  5  6 -1 -1</clus>
<clus scale="   92.391">  7  8 -1 -1</clus>
<clus scale="  101.803">  1  5  2 -1</clus>
<clus scale="   37.680">  2  5  1 -1</clus>
</clustering>
</event>
<event>
 9    1  0.1315259E-005  0.1820635E+03  0.7546771E-02  0.1166260E+00
         21   -1    0    0  501  502  0.00000000000E+00  0.00000000000E+00  0.59823062803E+03  0.59823062803E+03  0.00000000000E+00 0. -1.
          1   -1    0    0  502    0 -0.00000000000E+00 -0.00000000000E+00 -0.38495245751E+03  0.38495245751E+03  0.00000000000E+00 0. -1.
         23    2    1    2    0    0 -0.86637618281E+02  0.12447103019E+03 -0.34455724137E+03  0.38987018727E+03  0.10139011827E+03 0.  0.
         23    2    1    2    0    0  0.61667682417E+02 -0.13023242728E+03  0.45258836263E+03  0.48499100403E+03  0.98064569737E+02 0.  0.
        -13    1    3    3    0    0  0.21594913989E+02  0.10319349632E+02 -0.62289802646E+02  0.66729669568E+02  0.00000000000E+00 0.  1.
         13    1    3    3    0    0 -0.10823253227E+03  0.11415168056E+03 -0.28226743873E+03  0.32314051770E+03  0.00000000000E+00 0. -1.
        -13    1    4    4    0    0  0.74288278574E+02 -0.11416057836E+03  0.44087982613E+03  0.46143949449E+03  0.00000000000E+00 0.  1.
         13    1    4    4    0    0 -0.12620596157E+02 -0.16071848919E+02  0.11708536501E+02  0.23551509548E+02  0.00000000000E+00 0. -1.
          1    1    1    2  501    0  0.24969935864E+02  0.57613970867E+01  0.10524704926E+03  0.10832189424E+03  0.00000000000E+00 0. -1.
<scales pt_clust_5="13000.00000" pt_clust_6="13000.00000" pt_clust_7="13000.00000" pt_clust_8="13000.00000" pt_clust_9="25.62599"></scales>
<clustering>
<clus scale="   25.626">  1  9  2 -1</clus>
<clus scale="   98.065">  7  8 -1 -1</clus>
<clus scale="  101.390">  5  6 -1 -1</clus>
<clus scale="  180.233">  1  7  2 -1</clus>
<clus scale="   25.626">  1  5  2 -1</clus>
</clustering>
</event>
<event>
 9    1  0.1315259E-005  0.9476050E+02  0.7546771E-02  0.1292608E+00
         21   -1    0    0  501  502  0.00000000000E+00  0.00000000000E+00  0.33671485789E+03  0.33671485789E+03  0.00000000000E+00 0. -1.
         -2   -1    0    0    0  501 -0.00000000000E+00 -0.00000000000E+00 -0.44999657885E+02  0.44999657885E+02  0.00000000000E+00 0.  1.
         23    2    1    2    0    0  0.17394106473E+02  0.20492890438E+02  0.48597171738E+02  0.10691579569E+03  0.91360761644E+02 0.  0.
         23    2    1    2    0    0 -0.27587372688E+02 -0.15990298981E+01  0.13421188281E+03  0.16379678695E+03  0.89738163000E+02 0.  0.
        -11    1    3    3    0    0  0.49554220025E+02  0.30893056723E+02  0.43313643066E+02  0.72705387364E+02  0.00000000000E+00 0. -1.
         11    1    3    3    0    0 -0.32160113553E+02 -0.10400166285E+02  0.52835286718E+01  0.34210408324E+02  0.00000000000E+00 0.  1.
        -11    1    4    4    0    0  0.20991447994E+02 -0.30314234105E+02  0.44229504674E+02  0.57583354904E+02  0.00000000000E+00 0.  1.
         11    1    4    4    0    0 -0.48578820683E+02  0.28715204207E+02  0.89982378132E+02  0.10621343204E+03  0.00000000000E+00 0. -1.
         -2    1    1    2    0  502  0.10193266216E+02 -0.18893860540E+02  0.10890614546E+03  0.11100193314E+03  0.00000000000E+00 0.  1.
<scales pt_clust_5="13000.00000" pt_clust_6="13000.00000" pt_clust_7="13000.00000" pt_clust_8="13000.00000" pt_clust_9="21.46813"></scales>
<clustering>
<clus scale="   21.468">  1  9  2 -1</clus>
<clus scale="   89.738">  7  8 -1 -1</clus>
<clus scale="   91.361">  5  6 -1 -1</clus>
<clus scale="   93.197">  1  7  2 -1</clus>
<clus scale="   21.468">  1  5  2 -1</clus>
</clustering>
</event>
<event>
 9    1  0.1315259E-005  0.3893924E+03  0.7546771E-02  0.1048102E+00
         21   -1    0    0  501  502  0.00000000000E+00  0.00000000000E+00  0.14793991087E+03  0.14793991087E+03  0.00000000000E+00 0. -1.
          2   -1    0    0  502    0 -0.00000000000E+00 -0.00000000000E+00 -0.14820799192E+04  0.14820799192E+04  0.00000000000E+00 0. -1.
         23    2    1    2    0    0  0.49020858347E+02 -0.32996549916E+03 -0.58385663695E+03  0.67843911590E+03  0.90059903847E+02 0.  0.
         23    2    1    2    0    0 -0.15099579957E+03  0.41188695063E+03 -0.60582653537E+03  0.75670180224E+03  0.11454795922E+03 0.  0.
        -11    1    4    4    0    0 -0.35463163438E+02  0.15534600115E+02 -0.73188668209E+02  0.82798193918E+02  0.00000000000E+00 0.  1.
         11    1    4    4    0    0 -0.11553263613E+03  0.39635235052E+03 -0.53263786716E+03  0.67390360832E+03  0.00000000000E+00 0. -1.
        -13    1    3    3    0    0  0.67278050023E+02 -0.31235458878E+03 -0.55085751874E+03  0.63681687406E+03  0.00000000000E+00 0. -1.
         13    1    3    3    0    0 -0.18257191675E+02 -0.17610910384E+02 -0.32999118216E+02  0.41622241836E+02  0.00000000000E+00 0.  1.
          2    1    1    2  501    0  0.10197494122E+03 -0.81921451470E+02 -0.14445683604E+03  0.19487891196E+03  0.00000000000E+00 0. -1.
<scales pt_clust_5="13000.00000" pt_clust_6="13000.00000" pt_clust_7="13000.00000" pt_clust_8="13000.00000" pt_clust_9="130.80525"></scales>
<clustering>
<clus scale="   90.060">  7  8 -1 -1</clus>
<clus scale="  114.548">  5  6 -1 -1</clus>
<clus scale="  130.805">  1  9  2 -1</clus>
<clus scale="  382.905">  2  7  1 -1</clus>
<clus scale="  130.805">  1  5  2 -1</clus>
</clustering>
</event>
<event>
 9    1  0.1315259E-005  0.1398903E+03  0.7546771E-02  0.1213667E+00
         21   -1    0    0  501  502  0.00000000000E+00  0.00000000000E+00  0.27752479087E+03  0.27752479087E+03  0.00000000000E+00 0. -1.
          1   -1    0    0  502    0 -0.00000000000E+00 -0.00000000000E+00 -0.21015191488E+03  0.21015191488E+03  0.00000000000E+00 0. -1.
         23    2    1    2    0    0 -0.11142993343E+03 -0.45641612418E+01 -0.15104510623E+03  0.20848359562E+03  0.90627390416E+02 0.  0.
         23    2    1    2    0    0  0.78765860666E+02  0.15167908339E+02  0.10508817535E+03  0.16077425087E+03  0.91491578267E+02 0.  0.
        -11    1    4    4    0    0  0.25560772399E+02  0.31322721096E+02 -0.16060568098E+01  0.40460417212E+02  0.00000000000E+00 0. -1.
         11    1    4    4    0    0  0.53205088267E+02 -0.16154812757E+02  0.10669423216E+03  0.12031383365E+03  0.00000000000E+00 0.  1.
        -13    1    3    3    0    0 -0.60180873827E+02  0.21007042031E+02 -0.22225795392E+02  0.67505698799E+02  0.00000000000E+00 0.  1.
         13    1    3    3    0    0 -0.51249059606E+02 -0.25571203272E+02 -0.12881931084E+03  0.14097789682E+03  0.00000000000E+00 0. -1.
          1    1    1    2  501    0  0.32664072768E+02 -0.10603747097E+02  0.11332980687E+03  0.11841885926E+03  0.00000000000E+00 0. -1.
<scales pt_clust_5="13000.00000" pt_clust_6="13000.00000" pt_clust_7="13000.00000" pt_clust_8="13000.00000" pt_clust_9="34.34212"></scales>
<clustering>
<clus scale="   34.342">  1  9  2 -1</clus>
<clus scale="   90.627">  7  8 -1 -1</clus>
<clus scale="   91.492">  5  6 -1 -1</clus>
<clus scale="  139.327">  2  7  1 -1</clus>
<clus scale="   34.342">  1  5  2 -1</clus>
</clustering>
</event>
<event>
 9    1  0.1315259E-005  0.9552173E+02  0.7546771E-02  0.1292772E+00
         21   -1    0    0  501  502  0.00000000000E+00  0.00000000000E+00  0.18370309424E+03  0.18370309424E+03  0.00000000000E+00 0.  1.
          1   -1    0    0  502    0 -0.00000000000E+00 -0.00000000000E+00 -0.10176125639E+03  0.10176125639E+03  0.00000000000E+00 0. -1.
         23    2    1    2    0    0 -0.44003521911E+01 -0.10950409165E+02 -0.24524886580E+02  0.97984278326E+02  0.94128498219E+02 0.  0.
         23    2    1    2    0    0 -0.44974147764E+02  0.14658494947E+02  0.51064446111E+02  0.11317661620E+03  0.89240256372E+02 0.  0.
        -13    1    4    4    0    0 -0.49847290379E+02 -0.17947814683E+02  0.70419595395E+00  0.52984642133E+02  0.00000000000E+00 0. -1.
         13    1    4    4    0    0  0.48731426148E+01  0.32606309629E+02  0.50360250157E+02  0.60191974070E+02  0.00000000000E+00 0.  1.
        -13    1    3    3    0    0  0.70710894143E+00 -0.50837979870E+02 -0.27238478444E+02  0.57679588316E+02  0.00000000000E+00 0. -1.
         13    1    3    3    0    0 -0.51074611326E+01  0.39887570706E+02  0.27135918641E+01  0.40304690010E+02  0.00000000000E+00 0.  1.
          1    1    1    2  501    0  0.49374499955E+02 -0.37080857819E+01  0.55402278318E+02  0.74303456103E+02  0.00000000000E+00 0. -1.
<scales pt_clust_5="13000.00000" pt_clust_6="13000.00000" pt_clust_7="13000.00000" pt_clust_8="13000.00000" pt_clust_9="49.51355"></scales>
<clustering>
<clus scale="   49.514">  1  9  2 -1</clus>
<clus scale="   89.240">  5  6 -1 -1</clus>
<clus scale="   90.709">  1  5  2 -1</clus>
<clus scale="   94.128">  7  8 -1 -1</clus>
<clus scale="   49.514">  1  5  2 -1</clus>
</clustering>
</event>
<event>
 9    1  0.1315259E-005  0.1039812E+03  0.7546771E-02  0.1272269E+00
          2   -1    0    0  502    0 -0.00000000000E+00  0.00000000000E+00  0.36524778361E+03  0.36524778361E+03  0.00000000000E+00 0. -1.
         21   -1    0    0  501  502  0.00000000000E+00 -0.00000000000E+00 -0.11280454912E+03  0.11280454912E+03  0.00000000000E+00 0.  1.
         23    2    1    2    0    0  0.66885137807E+01  0.51990038488E+02  0.31258882491E+03  0.32967288248E+03  0.90690328400E+02 0.  0.
         23    2    1    2    0    0 -0.31829101894E+02 -0.26817933245E+02 -0.45292477424E+02  0.10982690145E+03  0.90984869627E+02 0.  0.
        -11    1    4    4    0    0 -0.59607126328E+01  0.29435019371E+02 -0.36535718438E+02  0.47294917087E+02  0.00000000000E+00 0. -1.
         11    1    4    4    0    0 -0.25868389261E+02 -0.56252952617E+02 -0.87567589860E+01  0.62531984368E+02  0.00000000000E+00 0.  1.
        -13    1    3    3    0    0 -0.23791449470E+02 -0.12449560482E+02  0.14638027338E+03  0.14882274375E+03  0.00000000000E+00 0.  1.
         13    1    3    3    0    0  0.30479963250E+02  0.64439598969E+02  0.16620855153E+03  0.18085013873E+03  0.00000000000E+00 0. -1.
          2    1    1    2  501    0  0.25140588113E+02 -0.25172105242E+02 -0.14853112991E+02  0.38552548794E+02  0.00000000000E+00 0. -1.
<scales pt_clust_5="13000.00000" pt_clust_6="13000.00000" pt_clust_7="13000.00000" pt_clust_8="13000.00000" pt_clust_9="35.57645"></scales>
<clustering>
<clus scale="   35.576">  2  9  1 -1</clus>
<clus scale="   90.690">  7  8 -1 -1</clus>
<clus scale="   90.985">  5  6 -1 -1</clus>
<clus scale="  103.724">  1  7  2 -1</clus>
<clus scale="   35.576">  2  5  1 -1</clus>
</clustering>
</event>
<event>
 9    1  0.1315259E-005  0.1156836E+03  0.7546771E-02  0.1251310E+00
         21   -1    0    0  501  502  0.00000000000E+00  0.00000000000E+00  0.53632956712E+03  0.53632956712E+03  0.00000000000E+00 0.  1.
          1   -1    0    0  502    0 -0.00000000000E+00 -0.00000000000E+00 -0.83387045868E+02  0.83387045868E+02  0.00000000000E+00 0. -1.
         23    2    1    2    0    0  0.22378423128E+01  0.67864825747E+02  0.21178063436E+02  0.11599916779E+03  0.91633258401E+02 0.  0.
         23    2    1    2    0    0 -0.10478185213E+03 -0.66439238244E+02  0.30127582380E+03  0.33775181665E+03  0.88970549814E+02 0.  0.
        -11    1    3    3    0    0 -0.41340502762E+02  0.16890047929E+02  0.19983938725E+02  0.48925133568E+02  0.00000000000E+00 0.  1.
         11    1    3    3    0    0  0.43578345075E+02  0.50974777818E+02  0.11941247105E+01  0.67074034222E+02  0.00000000000E+00 0. -1.
        -11    1    4    4    0    0 -0.44995479416E+02  0.17234487853E+02  0.12042865856E+03  0.12970999400E+03  0.00000000000E+00 0. -1.
         11    1    4    4    0    0 -0.59786372715E+02 -0.83673726097E+02  0.18084716523E+03  0.20804182266E+03  0.00000000000E+00 0.  1.
          1    1    1    2  501    0  0.10254400982E+03 -0.14255875028E+01  0.13048863402E+03  0.16596562854E+03  0.00000000000E+00 0. -1.
<scales pt_clust_5="13000.00000" pt_clust_6="13000.00000" pt_clust_7="13000.00000" pt_clust_8="13000.00000" pt_clust_9="102.55392"></scales>
<clustering>
<clus scale="   88.971">  7  8 -1 -1</clus>
<clus scale="   91.633">  5  6 -1 -1</clus>
<clus scale="  102.554">  1  9  2 -1</clus>
<clus scale="  113.586">  1  7  2 -1</clus>
<clus scale="  102.554">  1  5  2 -1</clus>
</clustering>
</event>
<event>
 9    1  0.1315259E-005  0.1721956E+03  0.7546771E-02  0.1176015E+00
          3   -1    0    0  502    0 -0.00000000000E+00  0.00000000000E+00  0.28165126266E+03  0.28165126266E+03  0.00000000000E+00 0. -1.
         21   -1    0    0  501  502  0.00000000000E+00 -0.00000000000E+00 -0.47585221553E+03  0.47585221553E+03  0.00000000000E+00 0. -1.
         23    2    1    2    0    0 -0.90763737400E+02  0.12454777986E+03  0.22614652931E+03  0.28826421944E+03  0.90574841965E+02 0.  0.
         23    2    1    2    0    0  0.52685595585E+02 -0.61820849165E+02 -0.18509337876E+03  0.22280649734E+03  0.93731462289E+02 0.  0.
        -11    1    4    4    0    0  0.14205545244E+02 -0.63499016441E+02 -0.49242889650E+02  0.81601377352E+02  0.00000000000E+00 0.  1.
         11    1    4    4    0    0  0.38480050341E+02  0.16781672765E+01 -0.13585048911E+03  0.14120511999E+03  0.00000000000E+00 0. -1.
        -11    1    3    3    0    0 -0.57429335950E+02  0.18702636001E+02  0.12174081835E+03  0.13589975744E+03  0.00000000000E+00 0. -1.
         11    1    3    3    0    0 -0.33334401450E+02  0.10584514386E+03  0.10440571096E+03  0.15236446200E+03  0.00000000000E+00 0.  1.
          3    1    1    2  501    0  0.38078141816E+02 -0.62726930700E+02 -0.23525410342E+03  0.24643276140E+03  0.00000000000E+00 0. -1.
<scales pt_clust_5="13000.00000" pt_clust_6="13000.00000" pt_clust_7="13000.00000" pt_clust_8="13000.00000" pt_clust_9="73.37992"></scales>
<clustering>
<clus scale="   73.380">  2  9  1 -1</clus>
<clus scale="   90.575">  7  8 -1 -1</clus>
<clus scale="   93.731">  5  6 -1 -1</clus>
<clus scale="  170.498">  1  7  2 -1</clus>
<clus scale="   73.380">  2  5  1 -1</clus>
</clustering>
</event>
<event>
 9    1  0.1315259E-005  0.1154096E+03  0.7546771E-02  0.1251156E+00
          2   -1    0    0  502    0 -0.00000000000E+00  0.00000000000E+00  0.53474006196E+03  0.53474006196E+03  0.00000000000E+00 0. -1.
         21   -1    0    0  501  502  0.00000000000E+00 -0.00000000000E+00 -0.98640676099E+02  0.98640676099E+02  0.00000000000E+00 0. -1.
         23    2    1    2    0    0 -0.76437057728E+02  0.22150771907E+02  0.43913726424E+03  0.45591265724E+03  0.93174748194E+02 0.  0.
         23    2    1    2    0    0  0.11372810026E+02 -0.29434948095E+02  0.32635230711E+02  0.10290947123E+03  0.92355530463E+02 0.  0.
        -11    1    4    4    0    0 -0.17453074905E+02 -0.52873356066E+02  0.34857951173E+02  0.65690778388E+02  0.00000000000E+00 0.  1.
         11    1    4    4    0    0  0.28825884931E+02  0.23438407970E+02 -0.22227204623E+01  0.37218692837E+02  0.00000000000E+00 0. -1.
        -13    1    3    3    0    0 -0.39415191799E+02  0.52879015037E+02  0.16693561307E+03  0.17949163347E+03  0.00000000000E+00 0. -1.
         13    1    3    3    0    0 -0.37021865928E+02 -0.30728243130E+02  0.27220165117E+03  0.27642102377E+03  0.00000000000E+00 0.  1.
          2    1    1    2  501    0  0.65064247701E+02  0.72841761879E+01 -0.35673109091E+02  0.74558609589E+02  0.00000000000E+00 0. -1.
<scales pt_clust_5="13000.00000" pt_clust_6="13000.00000" pt_clust_7="13000.00000" pt_clust_8="13000.00000" pt_clust_9="65.47072"></scales>
<clustering>
<clus scale="   65.471">  2  9  1 -1</clus>
<clus scale="   92.356">  5  6 -1 -1</clus>
<clus scale="   93.175">  7  8 -1 -1</clus>
<clus scale="  114.749">  2  5  1 -1</clus>
<clus scale="   65.471">  2  5  1 -1</clus>
</clustering>
</event>
<event>
 9    1  0.1315259E-005  0.3051096E+03  0.7546771E-02  0.1082748E+00
          2   -1    0    0  502    0 -0.00000000000E+00  0.00000000000E+00  0.75806263296E+02  0.75806263296E+02  0.00000000000E+00 0. -1.
         21   -1    0    0  501  502  0.00000000000E+00 -0.00000000000E+00 -0.18685708749E+04  0.18685708749E+04  0.00000000000E+00 0. -1.
         23    2    1    2    0    0 -0.24197768241E+03 -0.24758181094E+03 -0.66101880123E+03  0.75142915431E+03  0.88600036512E+02 0.  0.
         23    2    1    2    0    0  0.19531085578E+03  0.13559059107E+03 -0.70958732235E+03  0.75370133900E+03  0.89556694867E+02 0.  0.
        -11    1    3    3    0    0 -0.22139065083E+03 -0.17632483976E+03 -0.53251403143E+03  0.60305510782E+03  0.00000000000E+00 0. -1.
         11    1    3    3    0    0 -0.20587031576E+02 -0.71256971177E+02 -0.12850476980E+03  0.14837404649E+03  0.00000000000E+00 0.  1.
        -13    1    4    4    0    0  0.43203654464E+02  0.77636451545E+02 -0.30248685399E+03  0.31526539805E+03  0.00000000000E+00 0.  1.
         13    1    4    4    0    0  0.15210720132E+03  0.57954139523E+02 -0.40710046835E+03  0.43843594095E+03  0.00000000000E+00 0. -1.
          2    1    1    2  501    0  0.46666826626E+02  0.11199121987E+03 -0.42215848799E+03  0.43924664485E+03  0.00000000000E+00 0. -1.
<scales pt_clust_5="13000.00000" pt_clust_6="13000.00000" pt_clust_7="13000.00000" pt_clust_8="13000.00000" pt_clust_9="121.32529"></scales>
<clustering>
<clus scale="   88.600">  5  6 -1 -1</clus>
<clus scale="   89.557">  7  8 -1 -1</clus>
<clus scale="  121.325">  2  9  1 -1</clus>
<clus scale="  304.830">  1  5  2 -1</clus>
<clus scale="  121.325">  2  5  1 -1</clus>
</clustering>
</event>
<event>
 9    1  0.1315259E-005  0.1087243E+03  0.7546771E-02  0.1263594E+00
          1   -1    0    0  502    0 -0.00000000000E+00  0.00000000000E+00  0.23552077032E+03  0.23552077032E+03  0.00000000000E+00 0. -1.
         21   -1    0    0  501  502  0.00000000000E+00 -0.00000000000E+00 -0.68359044956E+02  0.68359044956E+02  0.00000000000E+00 0.  1.
         23    2    1    2    0    0 -0.48707963694E+02 -0.38615146168E+00  0.11033816597E+03  0.15128477499E+03  0.91323367408E+02 0.  0.
         23    2    1    2    0    0  0.70299464365E+02  0.10287218849E+02  0.53456065116E+02  0.12860412420E+03  0.92917319708E+02 0.  0.
        -11    1    3    3    0    0 -0.74196677893E+02  0.10274628882E+02  0.89316615269E+02  0.11656831805E+03  0.00000000000E+00 0.  1.
         11    1    3    3    0    0  0.25488714199E+02 -0.10660780344E+02  0.21021550704E+02  0.34716456948E+02  0.00000000000E+00 0. -1.
        -11    1    4    4    0    0  0.36022707118E+02  0.42077058358E+02  0.59701639954E+02  0.81439548632E+02  0.00000000000E+00 0. -1.
         11    1    4    4    0    0  0.34276757248E+02 -0.31789839509E+02 -0.62455748379E+01  0.47164575568E+02  0.00000000000E+00 0.  1.
          1    1    1    2  501    0 -0.21591500671E+02 -0.99010673878E+01  0.33674942723E+01  0.23990916079E+02  0.00000000000E+00 0. -1.
<scales pt_clust_5="13000.00000" pt_clust_6="13000.00000" pt_clust_7="13000.00000" pt_clust_8="13000.00000" pt_clust_9="23.75340"></scales>
<clustering>
<clus scale="   23.753">  2  9  1 -1</clus>
<clus scale="   91.323">  5  6 -1 -1</clus>
<clus scale="   92.917">  7  8 -1 -1</clus>
<clus scale="  107.365">  1  5  2 -1</clus>
<clus scale="   23.753">  2  5  1 -1</clus>
</clustering>
</event>
<event>
 9    1  0.1315259E-005  0.1978532E+03  0.7546771E-02  0.1151601E+00
         21   -1    0    0  501  502  0.00000000000E+00  0.00000000000E+00  0.41635418852E+03  0.41635418852E+03  0.00000000000E+00 0. -1.
          1   -1    0    0  502    0 -0.00000000000E+00 -0.00000000000E+00 -0.62975675560E+03  0.62975675560E+03  0.00000000000E+00 0. -1.
         23    2    1    2    0    0  0.42040804704E+02  0.17965425061E+03 -0.50768392929E+03  0.54831710639E+03  0.94157305007E+02 0.  0.
         23    2    1    2    0    0 -0.71809469935E+02 -0.12105119837E+03 -0.25386778981E+02  0.17143787923E+03  0.94532879391E+02 0.  0.
        -11    1    3    3    0    0  0.68708099422E+01  0.29641989352E+02 -0.18893028413E+02  0.35816226554E+02  0.00000000000E+00 0.  1.
         11    1    3    3    0    0  0.35169994762E+02  0.15001226126E+03 -0.48879090087E+03  0.51250087984E+03  0.00000000000E+00 0. -1.
        -11    1    4    4    0    0 -0.17556047546E+02 -0.94360624946E+02 -0.47458123669E+02  0.10707201244E+03  0.00000000000E+00 0.  1.
         11    1    4    4    0    0 -0.54253422388E+02 -0.26690573428E+02  0.22071344687E+02  0.64365866785E+02  0.00000000000E+00 0. -1.
          1    1    1    2  501    0  0.29768665230E+02 -0.58603052233E+02  0.31966814119E+03  0.32635595850E+03  0.00000000000E+00 0. -1.
<scales pt_clust_5="13000.00000" pt_clust_6="13000.00000" pt_clust_7="13000.00000" pt_clust_8="13000.00000" pt_clust_9="65.73044"></scales>
<clustering>
<clus scale="   65.730">  1  9  2 -1</clus>
<clus scale="   94.157">  5  6 -1 -1</clus>
<clus scale="   94.533">  7  8 -1 -1</clus>
<clus scale="  197.674">  2  5  1 -1</clus>
<clus scale="   65.730">  1  5  2 -1</clus>
</clustering>
</event>
<event>
 9    1  0.1315259E-005  0.1080230E+03  0.7546771E-02  0.1265679E+00
          2   -1    0    0  502    0 -0.00000000000E+00  0.00000000000E+00  0.47743607581E+03  0.47743607581E+03  0.00000000000E+00 0. -1.
         21   -1    0    0  501  502  0.00000000000E+00 -0.00000000000E+00 -0.81070657070E+02  0.81070657070E+02  0.00000000000E+00 0. -1.
         23    2    1    2    0    0  0.54801178333E+02  0.77472736696E+01  0.40991895582E+03  0.42430830310E+03  0.94555784307E+02 0.  0.
         23    2    1    2    0    0 -0.31522366189E+02 -0.15636445276E+02  0.12292376427E+02  0.98531170727E+02  0.91209270886E+02 0.  0.
        -13    1    3    3    0    0 -0.14813261965E+02  0.22787474137E+02  0.45536821186E+02  0.53031158683E+02  0.00000000000E+00 0.  1.
         13    1    3    3    0    0  0.69614440298E+02 -0.15040200468E+02  0.36438213463E+03  0.37127714442E+03  0.00000000000E+00 0. -1.
        -13    1    4    4    0    0  0.15658088633E+02  0.28352424646E+02 -0.20370621187E+01  0.32452817212E+02  0.00000000000E+00 0.  1.
         13    1    4    4    0    0 -0.47180454822E+02 -0.43988869922E+02  0.14329438546E+02  0.66078353515E+02  0.00000000000E+00 0. -1.
          2    1    1    2  501    0 -0.23278812144E+02  0.78891716065E+01 -0.25845913504E+02  0.35667259053E+02  0.00000000000E+00 0. -1.
<scales pt_clust_5="13000.00000" pt_clust_6="13000.00000" pt_clust_7="13000.00000" pt_clust_8="13000.00000" pt_clust_9="24.57930"></scales>
<clustering>
<clus scale="   24.579">  2  9  1 -1</clus>
<clus scale="   91.209">  7  8 -1 -1</clus>
<clus scale="   94.556">  5  6 -1 -1</clus>
<clus scale="  105.106">  2  7  1 -1</clus>
<clus scale="   24.579">  2  5  1 -1</clus>
</clustering>
</event>
<event>
 9    1  0.1315259E-005  0.1940134E+03  0.7546771E-02  0.1185971E+00
          1   -1    0    0  502    0 -0.00000000000E+00  0.00000000000E+00  0.19483236831E+03  0.19483236831E+03  0.00000000000E+00 0. -1.
         21   -1    0    0  501  502  0.00000000000E+00 -0.00000000000E+00 -0.33859324998E+03  0.33859324998E+03  0.00000000000E+00 0. -1.
         23    2    1    2    0    0 -0.15126216179E+02 -0.24520089084E+02 -0.12131101845E+03  0.15428940389E+03  0.90878048895E+02 0.  0.
         23    2    1    2    0    0  0.94023606989E+02 -0.13563099623E+03  0.38228979257E+02  0.19057563971E+03  0.87300708976E+02 0.  0.
        -13    1    3    3    0    0 -0.28958514902E+02  0.28225823204E+02 -0.45034385541E+02  0.60525932971E+02  0.00000000000E+00 0.  1.
         13    1    3    3    0    0  0.13832298723E+02 -0.52745912288E+02 -0.76276632909E+02  0.93763470921E+02  0.00000000000E+00 0. -1.
        -13    1    4    4    0    0  0.10233676579E+03 -0.78527492555E+02  0.26893642837E+02  0.13176740396E+03  0.00000000000E+00 0. -1.
         13    1    4    4    0    0 -0.83131588057E+01 -0.57103503672E+02  0.11335336420E+02  0.58808235756E+02  0.00000000000E+00 0.  1.
          1    1    1    2  501    0 -0.78897390810E+02  0.16015108531E+03 -0.60678842469E+02  0.18856057469E+03  0.00000000000E+00 0. -1.
<scales pt_clust_5="13000.00000" pt_clust_6="13000.00000" pt_clust_7="13000.00000" pt_clust_8="13000.00000" pt_clust_9="173.26221"></scales>
<clustering>
<clus scale="   87.301">  7  8 -1 -1</clus>
<clus scale="   90.878">  5  6 -1 -1</clus>
<clus scale="   95.336">  1  5  2 -1</clus>
<clus scale="  173.262">  2  9  1 -1</clus>
<clus scale="  173.262">  2  5  1 -1</clus>
</clustering>
</event>
<event>
 9    1  0.1315259E-005  0.9468800E+02  0.7546771E-02  0.1293153E+00
          4   -1    0    0  502    0 -0.00000000000E+00  0.00000000000E+00  0.23794625760E+03  0.23794625760E+03  0.00000000000E+00 0. -1.
         21   -1    0    0  501  502  0.00000000000E+00 -0.00000000000E+00 -0.70666375947E+02  0.70666375947E+02  0.00000000000E+00 0. -1.
         23    2    1    2    0    0 -0.16091854481E+02 -0.15603918066E+01  0.15119500308E+03  0.17814549179E+03  0.92814356031E+02 0.  0.
         23    2    1    2    0    0  0.19680923805E+02  0.22482658762E+02  0.35456198997E+02  0.10172917509E+03  0.90547635588E+02 0.  0.
        -11    1    3    3    0    0 -0.40951212512E+02  0.30080330406E+02  0.10653513377E+03  0.11803204145E+03  0.00000000000E+00 0. -1.
         11    1    3    3    0    0  0.24859358032E+02 -0.31640722213E+02  0.44659869312E+02  0.60113450332E+02  0.00000000000E+00 0.  1.
        -13    1    4    4    0    0 -0.63293262167E+01 -0.32837056712E+02  0.64115721716E+01  0.34050564189E+02  0.00000000000E+00 0.  1.
         13    1    4    4    0    0  0.26010250022E+02  0.55319715474E+02  0.29044626825E+02  0.67678610903E+02  0.00000000000E+00 0. -1.
          4    1    1    2  501    0 -0.35890693248E+01 -0.20922266955E+02 -0.19371320423E+02  0.28737966666E+02  0.00000000000E+00 0. -1.
<scales pt_clust_5="13000.00000" pt_clust_6="13000.00000" pt_clust_7="13000.00000" pt_clust_8="13000.00000" pt_clust_9="21.22787"></scales>
<clustering>
<clus scale="   21.228">  2  9  1 -1</clus>
<clus scale="   90.548">  7  8 -1 -1</clus>
<clus scale="   92.467">  2  7  1 -1</clus>
<clus scale="   92.814">  5  6 -1 -1</clus>
<clus scale="   21.228">  2  5  1 -1</clus>
</clustering>
</event>
<event>
 9    1  0.1315259E-005  0.1110640E+03  0.7546771E-02  0.1259818E+00
          2   -1    0    0  502    0 -0.00000000000E+00  0.00000000000E+00  0.85525842718E+03  0.85525842718E+03  0.00000000000E+00 0. -1.
         21   -1    0    0  501  502  0.00000000000E+00 -0.00000000000E+00 -0.48180362170E+02  0.48180362170E+02  0.00000000000E+00 0.  1.
         23    2    1    2    0    0 -0.52389613584E+02 -0.14824004064E+02  0.49465929582E+03  0.50621864710E+03  0.92763554399E+02 0.  0.
         23    2    1    2    0    0  0.73768583580E+02  0.90308740468E+02  0.12135600005E+03  0.19067719867E+03  0.89627243726E+02 0.  0.
        -13    1    4    4    0    0  0.42043665104E+02  0.17354082028E+02 -0.10202726745E+00  0.45484550651E+02  0.00000000000E+00 0.  1.
         13    1    4    4    0    0  0.31724918477E+02  0.72954658440E+02  0.12145802731E+03  0.14519264802E+03  0.00000000000E+00 0. -1.
        -13    1    3    3    0    0  0.22439997527E+02  0.14039554946E+02  0.96674121883E+02  0.10023247195E+03  0.00000000000E+00 0.  1.
         13    1    3    3    0    0 -0.74829611111E+02 -0.28863559010E+02  0.39798517394E+03  0.40598617515E+03  0.00000000000E+00 0. -1.
          2    1    1    2  501    0 -0.21378969996E+02 -0.75484736404E+02  0.19106276915E+03  0.20654294358E+03  0.00000000000E+00 0. -1.
<scales pt_clust_5="13000.00000" pt_clust_6="13000.00000" pt_clust_7="13000.00000" pt_clust_8="13000.00000" pt_clust_9="78.45388"></scales>
<clustering>
<clus scale="   78.454">  2  9  1 -1</clus>
<clus scale="   89.627">  5  6 -1 -1</clus>
<clus scale="   92.764">  7  8 -1 -1</clus>
<clus scale="  108.458">  2  5  1 -1</clus>
<clus scale="   78.454">  2  5  1 -1</clus>
</clustering>
</event>
<event>
 9    1  0.1315259E-005  0.1121062E+03  0.7546771E-02  0.1257474E+00
         -2   -1    0    0    0  501 -0.00000000000E+00  0.00000000000E+00  0.24511945700E+03  0.24511945700E+03  0.00000000000E+00 0.  1.
         21   -1    0    0  501  502  0.00000000000E+00 -0.00000000000E+00 -0.17911934814E+03  0.17911934814E+03  0.00000000000E+00 0.  1.
         23    2    1    2    0    0  0.29027219279E+01 -0.57956915586E+02  0.18506638206E+03  0.21473764017E+03  0.92169726480E+02 0.  0.
         23    2    1    2    0    0 -0.35011484495E+01  0.89307081814E+02 -0.12181916553E+03  0.17802467449E+03  0.94153400004E+02 0.  0.
        -13    1    4    4    0    0 -0.39201522817E+02  0.78754192749E+02 -0.10553309682E+03  0.13739074492E+03  0.00000000000E+00 0.  1.
         13    1    4    4    0    0  0.35700374367E+02  0.10552889065E+02 -0.16286068718E+02  0.40633929565E+02  0.00000000000E+00 0. -1.
        -13    1    3    3    0    0  0.42863779280E+02 -0.53639324714E+02  0.11325902423E+03  0.13244654507E+03  0.00000000000E+00 0.  1.
         13    1    3    3    0    0 -0.39961057352E+02 -0.43175908725E+01  0.71807357823E+02  0.82291095102E+02  0.00000000000E+00 0. -1.
         -2    1    1    2    0  502  0.59842652155E+00 -0.31350166228E+02  0.27528923303E+01  0.31476490481E+02  0.00000000000E+00 0.  1.
<scales pt_clust_5="13000.00000" pt_clust_6="13000.00000" pt_clust_7="13000.00000" pt_clust_8="13000.00000" pt_clust_9="31.35588"></scales>
<clustering>
<clus scale="   31.356">  2  9  1 -1</clus>
<clus scale="   92.170">  7  8 -1 -1</clus>
<clus scale="   94.153">  5  6 -1 -1</clus>
<clus scale="  110.445">  1  7  2 -1</clus>
<clus scale="   31.356">  2  5  1 -1</clus>
</clustering>
</event>
<event>
 9    1  0.1315259E-005  0.9290364E+02  0.7546771E-02  0.1296942E+00
          1   -1    0    0  502    0 -0.00000000000E+00  0.00000000000E+00  0.45743318355E+03  0.45743318355E+03  0.00000000000E+00 0. -1.
         21   -1    0    0  501  502  0.00000000000E+00 -0.00000000000E+00 -0.33039156680E+02  0.33039156680E+02  0.00000000000E+00 0. -1.
         23    2    1    2    0    0 -0.93670961146E+01  0.79821557978E+01  0.24429169909E+03  0.26099163674E+03  0.91031548958E+02 0.  0.
         23    2    1    2    0    0  0.29669600700E+02  0.98391444770E-01  0.18455934610E+03  0.20717931455E+03  0.89335442336E+02 0.  0.
        -11    1    3    3    0    0  0.38236332534E+02 -0.60505505393E+01  0.14370560816E+03  0.14882851912E+03  0.00000000000E+00 0.  1.
         11    1    3    3    0    0 -0.47603428649E+02  0.14032706337E+02  0.10058609093E+03  0.11216311762E+03  0.00000000000E+00 0. -1.
        -13    1    4    4    0    0  0.43280884859E+02 -0.28690188124E+02  0.63636725855E+02  0.82134004933E+02  0.00000000000E+00 0.  1.
         13    1    4    4    0    0 -0.13611284158E+02  0.28788579569E+02  0.12092262024E+03  0.12504530962E+03  0.00000000000E+00 0. -1.
          1    1    1    2  501    0 -0.20302504586E+02 -0.80805472425E+01 -0.44570183195E+01  0.22301388936E+02  0.00000000000E+00 0. -1.
<scales pt_clust_5="13000.00000" pt_clust_6="13000.00000" pt_clust_7="13000.00000" pt_clust_8="13000.00000" pt_clust_9="21.85147"></scales>
<clustering>
<clus scale="   21.851">  2  9  1 -1</clus>
<clus scale="   89.335">  7  8 -1 -1</clus>
<clus scale="   91.032">  5  6 -1 -1</clus>
<clus scale="   91.242">  2  7  1 -1</clus>
<clus scale="   21.851">  2  5  1 -1</clus>
</clustering>
</event>
<event>
 9    1  0.1315259E-005  0.9978036E+02  0.7546771E-02  0.1282631E+00
         21   -1    0    0  501  502  0.00000000000E+00  0.00000000000E+00  0.90275367847E+02  0.90275367847E+02  0.00000000000E+00 0. -1.
          1   -1    0    0  502    0 -0.00000000000E+00 -0.00000000000E+00 -0.27355218951E+03  0.27355218951E+03  0.00000000000E+00 0. -1.
         23    2    1    2    0    0  0.46848830189E+02  0.21247637766E+02 -0.13539494999E+03  0.16855989341E+03  0.86222793871E+02 0.  0.
         23    2    1    2    0    0 -0.35560837701E+02  0.36720748018E+01 -0.98207818676E+02  0.13798667416E+03  0.90097110309E+02 0.  0.
        -13    1    4    4    0    0  0.51949492667E+01 -0.34855519342E+02 -0.16573107698E+02  0.38943069027E+02  0.00000000000E+00 0.  1.
         13    1    4    4    0    0 -0.40755786967E+02  0.38527594144E+02 -0.81634710977E+02  0.99043605135E+02  0.00000000000E+00 0. -1.
        -13    1    3    3    0    0 -0.25480756223E+02  0.20199650477E+01 -0.34556338580E+02  0.42982435163E+02  0.00000000000E+00 0.  1.
         13    1    3    3    0    0  0.72329586412E+02  0.19227672718E+02 -0.10083861141E+03  0.12557745825E+03  0.00000000000E+00 0. -1.
          1    1    1    2  501    0 -0.11287992488E+02 -0.24919712567E+02  0.50325947004E+02  0.57280989785E+02  0.00000000000E+00 0. -1.
<scales pt_clust_5="13000.00000" pt_clust_6="13000.00000" pt_clust_7="13000.00000" pt_clust_8="13000.00000" pt_clust_9="27.35710"></scales>
<clustering>
<clus scale="   27.357">  1  9  2 -1</clus>
<clus scale="   86.223">  7  8 -1 -1</clus>
<clus scale="   90.097">  5  6 -1 -1</clus>
<clus scale="   96.296">  2  7  1 -1</clus>
<clus scale="   27.357">  1  5  2 -1</clus>
</clustering>
</event>
<event>
 9    1  0.1315259E-005  0.1509956E+03  0.7546771E-02  0.1199706E+00
         21   -1    0    0  501  502  0.00000000000E+00  0.00000000000E+00  0.52992646982E+03  0.52992646982E+03  0.00000000000E+00 0.  1.
          1   -1    0    0  502    0 -0.00000000000E+00 -0.00000000000E+00 -0.11864835020E+03  0.11864835020E+03  0.00000000000E+00 0. -1.
         23    2    1    2    0    0 -0.11720942170E+03  0.12575708406E+01 -0.44538772374E+02  0.15654611285E+03  0.93719545365E+02 0.  0.
         23    2    1    2    0    0  0.12547205507E+03 -0.21283773349E+02  0.34197433252E+03  0.37614321090E+03  0.91329269100E+02 0.  0.
        -11    1    3    3    0    0 -0.39655803859E+02  0.14194842720E+02  0.27177177942E+02  0.50126593146E+02  0.00000000000E+00 0.  1.
         11    1    3    3    0    0 -0.77553617838E+02 -0.12937271879E+02 -0.71715950315E+02  0.10641951970E+03  0.00000000000E+00 0. -1.
        -11    1    4    4    0    0  0.65474811934E+02 -0.30294479438E+02  0.28105413408E+03  0.29016569881E+03  0.00000000000E+00 0.  1.
         11    1    4    4    0    0  0.59997243132E+02  0.90107060893E+01  0.60920198443E+02  0.85977512094E+02  0.00000000000E+00 0. -1.
          1    1    1    2  501    0 -0.82626333689E+01  0.20026202508E+02  0.11384255947E+03  0.11588549626E+03  0.00000000000E+00 0. -1.
<scales pt_clust_5="13000.00000" pt_clust_6="13000.00000" pt_clust_7="13000.00000" pt_clust_8="13000.00000" pt_clust_9="21.66379"></scales>
<clustering>
<clus scale="   21.664">  1  9  2 -1</clus>
<clus scale="   91.329">  7  8 -1 -1</clus>
<clus scale="   93.720">  5  6 -1 -1</clus>
<clus scale="  149.524">  1  7  2 -1</clus>
<clus scale="   21.664">  1  5  2 -1</clus>
</clustering>
</event>
<event>
 9    1  0.1315259E-005  0.1421725E+03  0.7546771E-02  0.1210534E+00
          2   -1    0    0  502    0 -0.00000000000E+00  0.00000000000E+00  0.10594651888E+04  0.10594651888E+04  0.00000000000E+00 0. -1.
         21   -1    0    0  501  502  0.00000000000E+00 -0.00000000000E+00 -0.31853489880E+02  0.31853489880E+02  0.00000000000E+00 0.  1.
         23    2    1    2    0    0 -0.90339366741E+02  0.90672676868E+02  0.67601422907E+03  0.69399788695E+03  0.90857546043E+02 0.  0.
         23    2    1    2    0    0  0.30388597176E+02 -0.72129470662E+02  0.20201878654E+03  0.23511189010E+03  0.91322961925E+02 0.  0.
        -11    1    3    3    0    0 -0.33719914513E+02  0.94153006310E+02  0.44908679722E+03  0.46008778801E+03  0.00000000000E+00 0. -1.
         11    1    3    3    0    0 -0.56619452228E+02 -0.34803294421E+01  0.22692743184E+03  0.23391009894E+03  0.00000000000E+00 0.  1.
        -13    1    4    4    0    0 -0.31425504430E+02 -0.38158129026E+02  0.91610296594E+02  0.10409635720E+03  0.00000000000E+00 0.  1.
         13    1    4    4    0    0  0.61814101605E+02 -0.33971341636E+02  0.11040848995E+03  0.13101553291E+03  0.00000000000E+00 0. -1.
          2    1    1    2  501    0  0.59950769565E+02 -0.18543206207E+02  0.14957868331E+03  0.16220890163E+03  0.00000000000E+00 0. -1.
<scales pt_clust_5="13000.00000" pt_clust_6="13000.00000" pt_clust_7="13000.00000" pt_clust_8="13000.00000" pt_clust_9="62.75305"></scales>
<clustering>
<clus scale="   62.753">  2  9  1 -1</clus>
<clus scale="   90.858">  5  6 -1 -1</clus>
<clus scale="   91.323">  7  8 -1 -1</clus>
<clus scale="  141.874">  1  5  2 -1</clus>
<clus scale="   62.753">  2  5  1 -1</clus>
</clustering>
</event>
<event>
 9    1  0.1315259E-005  0.1087847E+03  0.7546771E-02  0.1263993E+00
         21   -1    0    0  501  502  0.00000000000E+00  0.00000000000E+00  0.17428090550E+03  0.17428090550E+03  0.00000000000E+00 0.  1.
          2   -1    0    0  502    0 -0.00000000000E+00 -0.00000000000E+00 -0.14192293240E+03  0.14192293240E+03  0.00000000000E+00 0. -1.
         23    2    1    2    0    0  0.26449045374E+02  0.20319647120E+02 -0.35847603907E+01  0.95979599730E+02  0.89926597828E+02 0.  0.
         23    2    1    2    0    0 -0.10085844146E+03 -0.30689934754E+02  0.36444208383E+02  0.14509400079E+03  0.92788961797E+02 0.  0.
        -11    1    4    4    0    0 -0.10066228807E+03  0.87047372506E+01  0.26972071702E+02  0.10457610311E+03  0.00000000000E+00 0.  1.
         11    1    4    4    0    0 -0.19615338347E+00 -0.39394672004E+02  0.94721366817E+01  0.40517897673E+02  0.00000000000E+00 0. -1.
        -13    1    3    3    0    0  0.55933905973E+02  0.29338977401E+02  0.66050930889E+01  0.63505942140E+02  0.00000000000E+00 0. -1.
         13    1    3    3    0    0 -0.29484860600E+02 -0.90193302809E+01 -0.10189853480E+02  0.32473657590E+02  0.00000000000E+00 0.  1.
          2    1    1    2  501    0  0.74409396083E+02  0.10370287633E+02 -0.50147489409E+00  0.75130237376E+02  0.00000000000E+00 0. -1.
<scales pt_clust_5="13000.00000" pt_clust_6="13000.00000" pt_clust_7="13000.00000" pt_clust_8="13000.00000" pt_clust_9="75.12860"></scales>
<clustering>
<clus scale="   75.129">  1  9  2 -1</clus>
<clus scale="   89.927">  7  8 -1 -1</clus>
<clus scale="   92.789">  5  6 -1 -1</clus>
<clus scale="  106.354">  2  7  1 -1</clus>
<clus scale="   75.129">  1  5  2 -1</clus>
</clustering>
</event>
<event>
 9    1  0.1315259E-005  0.9363818E+02  0.7546771E-02  0.1294559E+00
         21   -1    0    0  501  502  0.00000000000E+00  0.00000000000E+00  0.73334557062E+02  0.73334557062E+02  0.00000000000E+00 0. -1.
          3   -1    0    0  502    0 -0.00000000000E+00 -0.00000000000E+00 -0.21504411878E+03  0.21504411878E+03  0.00000000000E+00 0. -1.
         23    2    1    2    0    0 -0.12595790707E+02  0.16066326531E+00 -0.75335953440E+02  0.11802060378E+03  0.89970424477E+02 0.  0.
         23    2    1    2    0    0  0.17946463240E+02 -0.40075132189E+02 -0.79283728441E+02  0.12806781634E+03  0.90484055078E+02 0.  0.
        -11    1    3    3    0    0 -0.49426387975E+02  0.30798359524E+01 -0.24704136491E+02  0.55342095890E+02  0.00000000000E+00 0. -1.
         11    1    3    3    0    0  0.36830597268E+02 -0.29191726871E+01 -0.50631816949E+02  0.62678507894E+02  0.00000000000E+00 0.  1.
        -11    1    4    4    0    0  0.20383690580E+02 -0.65457268252E+02 -0.76008630247E+02  0.10235946796E+03  0.00000000000E+00 0. -1.
         11    1    4    4    0    0 -0.24372273398E+01  0.25382136063E+02 -0.32750981933E+01  0.25708348380E+02  0.00000000000E+00 0.  1.
          3    1    1    2  501    0 -0.53506725329E+01  0.39914468924E+02  0.12910120165E+02  0.42290255718E+02  0.00000000000E+00 0. -1.
<scales pt_clust_5="13000.00000" pt_clust_6="13000.00000" pt_clust_7="13000.00000" pt_clust_8="13000.00000" pt_clust_9="40.27151"></scales>
<clustering>
<clus scale="   40.272">  1  9  2 -1</clus>
<clus scale="   89.970">  5  6 -1 -1</clus>
<clus scale="   90.484">  7  8 -1 -1</clus>
<clus scale="   93.142">  2  5  1 -1</clus>
<clus scale="   40.272">  1  5  2 -1</clus>
</clustering>
</event>
<event>
 9    1  0.1315259E-005  0.1064155E+03  0.7546771E-02  0.1269340E+00
         21   -1    0    0  501  502  0.00000000000E+00  0.00000000000E+00  0.21720427331E+03  0.21720427331E+03  0.00000000000E+00 0. -1.
         -2   -1    0    0    0  501 -0.00000000000E+00 -0.00000000000E+00 -0.72982437713E+02  0.72982437713E+02  0.00000000000E+00 0.  1.
         23    2    1    2    0    0  0.12996806089E+02  0.44101952443E+02  0.20901685702E+02  0.10438885193E+03  0.91357828151E+02 0.  0.
         23    2    1    2    0    0 -0.28344847441E+02 -0.65249109559E+02  0.92121398837E+02  0.14510232255E+03  0.86645572361E+02 0.  0.
        -11    1    4    4    0    0 -0.67948781414E+01 -0.67288680154E+02  0.10112676009E+03  0.12165754581E+03  0.00000000000E+00 0. -1.
         11    1    4    4    0    0 -0.21549969300E+02  0.20395705950E+01 -0.90053612518E+01  0.23444776738E+02  0.00000000000E+00 0.  1.
        -13    1    3    3    0    0 -0.22823087095E+02  0.31033761438E+02 -0.24073557466E+02  0.45426025829E+02  0.00000000000E+00 0.  1.
         13    1    3    3    0    0  0.35819893184E+02  0.13068191005E+02  0.44975243168E+02  0.58962826101E+02  0.00000000000E+00 0. -1.
         -2    1    1    2    0  502  0.15348041352E+02  0.21147157115E+02  0.31198751062E+02  0.40695536552E+02  0.00000000000E+00 0.  1.
<scales pt_clust_5="13000.00000" pt_clust_6="13000.00000" pt_clust_7="13000.00000" pt_clust_8="13000.00000" pt_clust_9="26.12977"></scales>
<clustering>
<clus scale="   26.130">  1  9  2 -1</clus>
<clus scale="   86.646">  5  6 -1 -1</clus>
<clus scale="   91.358">  7  8 -1 -1</clus>
<clus scale="  102.399">  1  5  2 -1</clus>
<clus scale="   26.130">  1  5  2 -1</clus>
</clustering>
</event>
<event>
 9    1  0.1623898E-005  0.9448534E+02  0.7546771E-02  0.1292715E+00
          2   -1    0    0  502    0 -0.00000000000E+00  0.00000000000E+00  0.26705057422E+03  0.26705057422E+03  0.00000000000E+00 0. -1.
         21   -1    0    0  501  502  0.00000000000E+00 -0.00000000000E+00 -0.25934633201E+03  0.25934633201E+03  0.00000000000E+00 0. -1.
         23    2    1    2    0    0  0.17363828240E+02 -0.14337350937E+02  0.22993924878E+03  0.24857729706E+03  0.91714515314E+02 0.  0.
         23    2    1    2    0    0 -0.31822124817E+02 -0.15962226329E+01 -0.58770881027E+02  0.11294559227E+03  0.91035678732E+02 0.  0.
        -11    1    3    3    0    0  0.50555266381E+02 -0.22777990200E+01  0.18280973432E+03  0.18968506080E+03  0.00000000000E+00 0. -1.
         11    1    3    3    0    0 -0.33191438142E+02 -0.12059551917E+02  0.47129514457E+02  0.58892236257E+02  0.00000000000E+00 0.  1.
        -13    1    4    4    0    0 -0.12644121815E+02 -0.35909206820E+02 -0.62792265612E+02  0.73431693236E+02  0.00000000000E+00 0.  1.
         13    1    4    4    0    0 -0.19178003002E+02  0.34312984187E+02  0.40213845850E+01  0.39513899035E+02  0.00000000000E+00 0. -1.
          2    1    1    2  501    0  0.14458296577E+02  0.15933573570E+02 -0.16346412554E+03  0.16487401689E+03  0.00000000000E+00 0. -1.
<scales pt_clust_5="13000.00000" pt_clust_6="13000.00000" pt_clust_7="13000.00000" pt_clust_8="13000.00000" pt_clust_9="21.51560"></scales>
<clustering>
<clus scale="   21.516">  2  9  1 -1</clus>
<clus scale="   91.036">  7  8 -1 -1</clus>
<clus scale="   91.715">  5  6 -1 -1</clus>
<clus scale="   93.827">  2  7  1 -1</clus>
<clus scale="   21.516">  2  5  1 -1</clus>
</clustering>
</event>
<event>
 9    1  0.1315259E-005  0.1163345E+03  0.7546771E-02  0.1250149E+00
          2   -1    0    0  502    0 -0.00000000000E+00  0.00000000000E+00  0.34578086495E+03  0.34578086495E+03  0.00000000000E+00 0. -1.
         21   -1    0    0  501  502  0.00000000000E+00 -0.00000000000E+00 -0.82405606649E+02  0.82405606649E+02  0.00000000000E+00 0. -1.
         23    2    1    2    0    0  0.34388417135E+02  0.29616684298E+02  0.10722768961E+03  0.14900286506E+03  0.92975078131E+02 0.  0.
         23    2    1    2    0    0 -0.92727312131E+02 -0.34705550464E+02  0.17240350861E+03  0.21840878601E+03  0.90424545224E+02 0.  0.
        -13    1    4    4    0    0 -0.99153846073E+02 -0.47823855887E+01  0.15228471329E+03  0.18178281081E+03  0.00000000000E+00 0. -1.
         13    1    4    4    0    0  0.64265339424E+01 -0.29923164876E+02  0.20118795317E+02  0.36625975205E+02  0.00000000000E+00 0.  1.
        -13    1    3    3    0    0  0.11471420921E+02 -0.31896203632E+02  0.57121818985E+02  0.66421860168E+02  0.00000000000E+00 0. -1.
         13    1    3    3    0    0  0.22916996214E+02  0.61512887930E+02  0.50105870627E+02  0.82581004888E+02  0.00000000000E+00 0.  1.
          2    1    1    2  501    0  0.58338894995E+02  0.50888661665E+01 -0.16255939917E+02  0.60774820532E+02  0.00000000000E+00 0. -1.
<scales pt_clust_5="13000.00000" pt_clust_6="13000.00000" pt_clust_7="13000.00000" pt_clust_8="13000.00000" pt_clust_9="58.56042"></scales>
<clustering>
<clus scale="   58.560">  2  9  1 -1</clus>
<clus scale="   90.425">  5  6 -1 -1</clus>
<clus scale="   92.975">  7  8 -1 -1</clus>
<clus scale="  114.306">  2  5  1 -1</clus>
<clus scale="   58.560">  2  5  1 -1</clus>
</clustering>
</event>
<event>
 9    1  0.1315259E-005  0.1399584E+03  0.7546771E-02  0.1224719E+00
         -1   -1    0    0    0  501 -0.00000000000E+00  0.00000000000E+00  0.15847058933E+03  0.15847058933E+03  0.00000000000E+00 0.  1.
         21   -1    0    0  501  502  0.00000000000E+00 -0.00000000000E+00 -0.28974222677E+03  0.28974222677E+03  0.00000000000E+00 0.  1.
         23    2    1    2    0    0 -0.45438810117E+02  0.40206754504E+02  0.81724312849E+02  0.13472148043E+03  0.88259534362E+02 0.  0.
         23    2    1    2    0    0  0.65724085537E+02 -0.62881284384E+02 -0.72157613007E+02  0.16940433434E+03  0.12335881011E+03 0.  0.
        -11    1    4    4    0    0  0.49106164627E+02  0.50474967411E+01  0.20386763079E+02  0.53408920010E+02  0.00000000000E+00 0.  1.
         11    1    4    4    0    0  0.16617920910E+02 -0.67928781125E+02 -0.92544376086E+02  0.11599541433E+03  0.00000000000E+00 0. -1.
        -13    1    3    3    0    0 -0.39887853525E+02  0.67905990044E+02  0.62658694580E+02  0.10063983480E+03  0.00000000000E+00 0. -1.
         13    1    3    3    0    0 -0.55509565921E+01 -0.27699235540E+02  0.19065618269E+02  0.34081645626E+02  0.00000000000E+00 0.  1.
         -1    1    1    2    0  502 -0.20285275420E+02  0.22674529880E+02 -0.14083833728E+03  0.14408700133E+03  0.00000000000E+00 0.  1.
<scales pt_clust_5="13000.00000" pt_clust_6="13000.00000" pt_clust_7="13000.00000" pt_clust_8="13000.00000" pt_clust_9="30.42411"></scales>
<clustering>
<clus scale="   30.424">  2  9  1 -1</clus>
<clus scale="   88.260">  7  8 -1 -1</clus>
<clus scale="  110.276">  1  7  2 -1</clus>
<clus scale="  123.359">  5  6 -1 -1</clus>
<clus scale="   30.424">  2  5  1 -1</clus>
</clustering>
</event>
<event>
 9    1  0.1315259E-005  0.1138983E+03  0.7546771E-02  0.1260568E+00
          2   -1    0    0  502    0 -0.00000000000E+00  0.00000000000E+00  0.91608371879E+03  0.91608371879E+03  0.00000000000E+00 0. -1.
         21   -1    0    0  501  502  0.00000000000E+00 -0.00000000000E+00 -0.19727774516E+02  0.19727774516E+02  0.00000000000E+00 0.  1.
         23    2    1    2    0    0 -0.33619738292E+02  0.30182504539E+02  0.48725771363E+03  0.50066974602E+03  0.10587183146E+03 0.  0.
         23    2    1    2    0    0  0.41793597255E+02 -0.70821009960E+01  0.39411155217E+03  0.40641821781E+03  0.89749603286E+02 0.  0.
        -11    1    4    4    0    0  0.65503025072E+02  0.14207692173E+02  0.28288948012E+03  0.29072145221E+03  0.00000000000E+00 0.  1.
         11    1    4    4    0    0 -0.23709427817E+02 -0.21289793169E+02  0.11122207205E+03  0.11569676560E+03  0.00000000000E+00 0. -1.
        -13    1    3    3    0    0  0.33713993359E+02  0.76274643686E+01  0.78266435407E+02  0.85559607714E+02  0.00000000000E+00 0.  1.
         13    1    3    3    0    0 -0.67333731651E+02  0.22555040170E+02  0.40899127823E+03  0.41511013830E+03  0.00000000000E+00 0. -1.
          2    1    1    2  501    0 -0.81738589632E+01 -0.23100403543E+02  0.14986678473E+02  0.28723529481E+02  0.00000000000E+00 0. -1.
<scales pt_clust_5="13000.00000" pt_clust_6="13000.00000" pt_clust_7="13000.00000" pt_clust_8="13000.00000" pt_clust_9="24.50389"></scales>
<clustering>
<clus scale="   24.504">  2  9  1 -1</clus>
<clus scale="   89.750">  5  6 -1 -1</clus>
<clus scale="   99.091">  2  5  1 -1</clus>
<clus scale="  105.872">  7  8 -1 -1</clus>
<clus scale="   24.504">  2  5  1 -1</clus>
</clustering>
</event>
<event>
 9    1  0.1585621E-005  0.1912047E+03  0.7546771E-02  0.1157460E+00
         21   -1    0    0  501  502  0.00000000000E+00  0.00000000000E+00  0.17467978381E+03  0.17467978381E+03  0.00000000000E+00 0. -1.
          1   -1    0    0  502    0 -0.00000000000E+00 -0.00000000000E+00 -0.73236383389E+03  0.73236383389E+03  0.00000000000E+00 0. -1.
         23    2    1    2    0    0 -0.18273546282E+03 -0.32467505601E+02 -0.60839511883E+03  0.64243458904E+03  0.90173123968E+02 0.  0.
         23    2    1    2    0    0  0.11068542366E+03  0.14373989635E+02 -0.38003286747E+02  0.14889895850E+03  0.90932807343E+02 0.  0.
        -11    1    3    3    0    0 -0.50399053566E+01 -0.28054025647E+02 -0.90814051885E+02  0.95182041482E+02  0.00000000000E+00 0.  1.
         11    1    3    3    0    0 -0.17769555747E+03 -0.44134799539E+01 -0.51758106695E+03  0.54725254756E+03  0.00000000000E+00 0. -1.
        -13    1    4    4    0    0  0.12461937923E+02  0.40341751748E+02 -0.14234002966E+02  0.44557419936E+02  0.00000000000E+00 0.  1.
         13    1    4    4    0    0  0.98223485732E+02 -0.25967762114E+02 -0.23769283781E+02  0.10434153856E+03  0.00000000000E+00 0. -1.
          1    1    1    2  501    0  0.72050039167E+02  0.18093515966E+02  0.88714355494E+02  0.11571007015E+03  0.00000000000E+00 0. -1.
<scales pt_clust_5="13000.00000" pt_clust_6="13000.00000" pt_clust_7="13000.00000" pt_clust_8="13000.00000" pt_clust_9="74.28717"></scales>
<clustering>
<clus scale="   74.287">  1  9  2 -1</clus>
<clus scale="   90.173">  5  6 -1 -1</clus>
<clus scale="   90.933">  7  8 -1 -1</clus>
<clus scale="  190.845">  2  5  1 -1</clus>
<clus scale="   74.287">  1  5  2 -1</clus>
</clustering>
</event>
<event>
 9    1  0.1315259E-005  0.2534181E+03  0.7546771E-02  0.1111260E+00
         21   -1    0    0  501  502  0.00000000000E+00  0.00000000000E+00  0.28859515757E+03  0.28859515757E+03  0.00000000000E+00 0.  1.
         -3   -1    0    0    0  501 -0.00000000000E+00 -0.00000000000E+00 -0.11745679903E+04  0.11745679903E+04  0.00000000000E+00 0.  1.
         23    2    1    2    0    0 -0.69992113665E+02  0.23043590105E+03 -0.10268994946E+04  0.10584061354E+04  0.87757477952E+02 0.  0.
         23    2    1    2    0    0  0.69830235607E+02 -0.20112389401E+03 -0.28592400377E+02  0.23272232870E+03  0.89526947741E+02 0.  0.
        -11    1    3    3    0    0 -0.45961872131E+02  0.15103975136E+03 -0.82773559792E+03  0.84265753438E+03  0.00000000000E+00 0. -1.
         11    1    3    3    0    0 -0.24030241534E+02  0.79396149689E+02 -0.19916389665E+03  0.21574860098E+03  0.00000000000E+00 0.  1.
        -13    1    4    4    0    0  0.42646499918E+02 -0.18496534751E+03  0.40214803465E+00  0.18981850663E+03  0.00000000000E+00 0. -1.
         13    1    4    4    0    0  0.27183735689E+02 -0.16158546492E+02 -0.28994548411E+02  0.42903822071E+02  0.00000000000E+00 0.  1.
         -3    1    1    2    0  502  0.16187805835E+00 -0.29312007043E+02  0.16951906225E+03  0.17203468379E+03  0.00000000000E+00 0.  1.
<scales pt_clust_5="13000.00000" pt_clust_6="13000.00000" pt_clust_7="13000.00000" pt_clust_8="13000.00000" pt_clust_9="29.31245"></scales>
<clustering>
<clus scale="   29.312">  1  9  2 -1</clus>
<clus scale="   87.757">  5  6 -1 -1</clus>
<clus scale="   89.527">  7  8 -1 -1</clus>
<clus scale="  252.798">  2  5  1 -1</clus>
<clus scale="   29.312">  1  5  2 -1</clus>
</clustering>
</event>
<event>
 9    1  0.1315259E-005  0.9085178E+02  0.7546771E-02  0.1302239E+00
         21   -1    0    0  501  502  0.00000000000E+00  0.00000000000E+00  0.40385401899E+02  0.40385401899E+02  0.00000000000E+00 0.  1.
          1   -1    0    0  502    0 -0.00000000000E+00 -0.00000000000E+00 -0.29308797603E+03  0.29308797603E+03  0.00000000000E+00 0. -1.
         23    2    1    2    0    0  0.13400112923E+02  0.74554907949E+01 -0.12911560669E+03  0.15687966851E+03  0.87779514308E+02 0.  0.
         23    2    1    2    0    0  0.96646967475E+01 -0.14631567866E+02 -0.12154698028E+03  0.15235235890E+03  0.90166976802E+02 0.  0.
        -11    1    4    4    0    0  0.23772738277E+02 -0.44294985631E+02 -0.39367233316E+02  0.63851138566E+02  0.00000000000E+00 0. -1.
         11    1    4    4    0    0 -0.14108041529E+02  0.29663417765E+02 -0.82179746967E+02  0.88501220336E+02  0.00000000000E+00 0.  1.
        -13    1    3    3    0    0  0.45591015957E+02  0.22775673984E+02 -0.57184069508E+02  0.76598236709E+02  0.00000000000E+00 0.  1.
         13    1    3    3    0    0 -0.32190903034E+02 -0.15320183189E+02 -0.71931537179E+02  0.80281431801E+02  0.00000000000E+00 0. -1.
          1    1    1    2  501    0 -0.23064809670E+02  0.71760770709E+01 -0.20399871599E+01  0.24241350517E+02  0.00000000000E+00 0. -1.
<scales pt_clust_5="13000.00000" pt_clust_6="13000.00000" pt_clust_7="13000.00000" pt_clust_8="13000.00000" pt_clust_9="24.15536"></scales>
<clustering>
<clus scale="   24.155">  1  9  2 -1</clus>
<clus scale="   87.780">  7  8 -1 -1</clus>
<clus scale="   88.483">  2  7  1 -1</clus>
<clus scale="   90.167">  5  6 -1 -1</clus>
<clus scale="   24.155">  1  5  2 -1</clus>
</clustering>
</event>
<event>
 9    1  0.1315259E-005  0.9627964E+02  0.7546771E-02  0.1288689E+00
         21   -1    0    0  501  502  0.00000000000E+00  0.00000000000E+00  0.78133870804E+03  0.78133870804E+03  0.00000000000E+00 0. -1.
         -4   -1    0    0    0  501 -0.00000000000E+00 -0.00000000000E+00 -0.39687237401E+02  0.39687237401E+02  0.00000000000E+00 0.  1.
         23    2    1    2    0    0 -0.76298255215E+01 -0.70030646950E+01  0.74757759915E+02  0.12095493866E+03  0.94520460035E+02 0.  0.
         23    2    1    2    0    0 -0.15798964849E+01 -0.63924979297E+02  0.22616702897E+03  0.25357843752E+03  0.95192436299E+02 0.  0.
        -11    1    4    4    0    0  0.24144863798E+02  0.15153758566E+02  0.85983268860E+02  0.90585503091E+02  0.00000000000E+00 0.  1.
         11    1    4    4    0    0 -0.25724760283E+02 -0.79078737863E+02  0.14018376012E+03  0.16299293443E+03  0.00000000000E+00 0. -1.
        -13    1    3    3    0    0 -0.11423841928E+02 -0.40451585127E+02  0.35405903912E+01  0.42182587450E+02  0.00000000000E+00 0. -1.
         13    1    3    3    0    0  0.37940164061E+01  0.33448520432E+02  0.71217169523E+02  0.78772351206E+02  0.00000000000E+00 0.  1.
         -4    1    1    2    0  502  0.92097220064E+01  0.70928043992E+02  0.44072668175E+03  0.44649256927E+03  0.00000000000E+00 0.  1.
<scales pt_clust_5="13000.00000" pt_clust_6="13000.00000" pt_clust_7="13000.00000" pt_clust_8="13000.00000" pt_clust_9="71.52347"></scales>
<clustering>
<clus scale="   71.523">  1  9  2 -1</clus>
<clus scale="   94.520">  7  8 -1 -1</clus>
<clus scale="   95.192">  5  6 -1 -1</clus>
<clus scale="   95.615">  2  7  1 -1</clus>
<clus scale="   71.523">  1  5  2 -1</clus>
</clustering>
</event>
<event>
 9    1  0.1315259E-005  0.1291553E+03  0.7546771E-02  0.1230914E+00
         21   -1    0    0  501  502  0.00000000000E+00  0.00000000000E+00  0.26901479257E+03  0.26901479257E+03  0.00000000000E+00 0. -1.
          3   -1    0    0  502    0 -0.00000000000E+00 -0.00000000000E+00 -0.13191559209E+03  0.13191559209E+03  0.00000000000E+00 0. -1.
         23    2    1    2    0    0  0.53879683206E+02 -0.78544977798E+02 -0.26675261931E+02  0.13977684792E+03  0.98760638996E+02 0.  0.
         23    2    1    2    0    0 -0.67616941226E+02  0.29666605538E+02  0.34490392387E+02  0.12225725064E+03  0.91132266197E+02 0.  0.
        -11    1    3    3    0    0 -0.19987809010E+02 -0.52578977308E+02 -0.24751424248E+02  0.61454815646E+02  0.00000000000E+00 0. -1.
         11    1    3    3    0    0  0.73867492215E+02 -0.25966000489E+02 -0.19238376827E+01  0.78322032271E+02  0.00000000000E+00 0.  1.
        -13    1    4    4    0    0 -0.37508540801E+02  0.53358963671E+02 -0.72199304329E+01  0.65621620161E+02  0.00000000000E+00 0.  1.
         13    1    4    4    0    0 -0.30108400426E+02 -0.23692358133E+02  0.41710322820E+02  0.56635630480E+02  0.00000000000E+00 0. -1.
          3    1    1    2  501    0  0.13737258021E+02  0.48878372260E+02  0.12928407002E+03  0.13889628610E+03  0.00000000000E+00 0. -1.
<scales pt_clust_5="13000.00000" pt_clust_6="13000.00000" pt_clust_7="13000.00000" pt_clust_8="13000.00000" pt_clust_9="50.77211"></scales>
<clustering>
<clus scale="   50.772">  1  9  2 -1</clus>
<clus scale="   91.132">  7  8 -1 -1</clus>
<clus scale="   98.761">  5  6 -1 -1</clus>
<clus scale="  123.420">  1  7  2 -1</clus>
<clus scale="   50.772">  1  5  2 -1</clus>
</clustering>
</event>
<event>
 9    1  0.1315259E-005  0.1604389E+03  0.7546771E-02  0.1190781E+00
          1   -1    0    0  502    0 -0.00000000000E+00  0.00000000000E+00  0.42519046812E+03  0.42519046812E+03  0.00000000000E+00 0. -1.
         21   -1    0    0  501  502  0.00000000000E+00 -0.00000000000E+00 -0.26593513756E+03  0.26593513756E+03  0.00000000000E+00 0. -1.
         23    2    1    2    0    0 -0.45530441069E+02  0.12174135984E+03  0.35843977556E+03  0.38923108001E+03  0.78280145538E+02 0.  0.
         23    2    1    2    0    0  0.93641306749E+02 -0.99579835814E+02 -0.18155646546E+03  0.24606859795E+03  0.94351294192E+02 0.  0.
        -13    1    4    4    0    0  0.46522892958E+02 -0.80190735874E+02 -0.17028296631E+03  0.19388455922E+03  0.00000000000E+00 0. -1.
         13    1    4    4    0    0  0.47118413791E+02 -0.19389099940E+02 -0.11273499148E+02  0.52184038725E+02  0.00000000000E+00 0.  1.
        -13    1    3    3    0    0 -0.24116560234E+02  0.72966279404E+02  0.10421443027E+03  0.12948487898E+03  0.00000000000E+00 0. -1.
         13    1    3    3    0    0 -0.21413880835E+02  0.48775080432E+02  0.25422534529E+03  0.25974620103E+03  0.00000000000E+00 0.  1.
          1    1    1    2  501    0 -0.48110865680E+02 -0.22161524022E+02 -0.17627979533E+02  0.55825927721E+02  0.00000000000E+00 0. -1.
<scales pt_clust_5="13000.00000" pt_clust_6="13000.00000" pt_clust_7="13000.00000" pt_clust_8="13000.00000" pt_clust_9="52.96969"></scales>
<clustering>
<clus scale="   52.970">  2  9  1 -1</clus>
<clus scale="   78.280">  7  8 -1 -1</clus>
<clus scale="   94.351">  5  6 -1 -1</clus>
<clus scale="  151.546">  1  7  2 -1</clus>
<clus scale="   52.970">  2  5  1 -1</clus>
</clustering>
</event>
<event>
 9    1  0.1315259E-005  0.2440570E+03  0.7546771E-02  0.1118314E+00
          4   -1    0    0  502    0 -0.00000000000E+00  0.00000000000E+00  0.13583884926E+03  0.13583884926E+03  0.00000000000E+00 0. -1.
         21   -1    0    0  501  502  0.00000000000E+00 -0.00000000000E+00 -0.67047642218E+03  0.67047642218E+03  0.00000000000E+00 0. -1.
         23    2    1    2    0    0  0.19423131660E+03 -0.15884234374E+03 -0.11970270561E+03  0.29185123666E+03  0.88835308852E+02 0.  0.
         23    2    1    2    0    0 -0.13156679396E+03  0.93359153080E+02 -0.35955474351E+03  0.40824798717E+03  0.10658823910E+03 0.  0.
        -11    1    4    4    0    0 -0.74000641240E+02  0.10798579666E+03 -0.27878631102E+03  0.30799161417E+03  0.00000000000E+00 0. -1.
         11    1    4    4    0    0 -0.57566152723E+02 -0.14626643580E+02 -0.80768432481E+02  0.10025637300E+03  0.00000000000E+00 0.  1.
        -11    1    3    3    0    0  0.15240647853E+03 -0.69775171813E+02 -0.80223405633E+02  0.18582815747E+03  0.00000000000E+00 0. -1.
         11    1    3    3    0    0  0.41824838077E+02 -0.89067171923E+02 -0.39479299977E+02  0.10602307919E+03  0.00000000000E+00 0.  1.
          4    1    1    2  501    0 -0.62664522640E+02  0.65483190656E+02 -0.55380123801E+02  0.10621604760E+03  0.00000000000E+00 0. -1.
<scales pt_clust_5="13000.00000" pt_clust_6="13000.00000" pt_clust_7="13000.00000" pt_clust_8="13000.00000" pt_clust_9="90.63608"></scales>
<clustering>
<clus scale="   88.835">  7  8 -1 -1</clus>
<clus scale="   90.636">  2  9  1 -1</clus>
<clus scale="  106.588">  5  6 -1 -1</clus>
<clus scale="  236.843">  1  7  2 -1</clus>
<clus scale="   90.636">  2  5  1 -1</clus>
</clustering>
</event>
<event>
 9    1  0.1315259E-005  0.1225697E+03  0.7546771E-02  0.1239479E+00
         21   -1    0    0  501  502  0.00000000000E+00  0.00000000000E+00  0.12505618290E+03  0.12505618290E+03  0.00000000000E+00 0.  1.
         -2   -1    0    0    0  501 -0.00000000000E+00 -0.00000000000E+00 -0.22673056314E+03  0.22673056314E+03  0.00000000000E+00 0.  1.
         23    2    1    2    0    0  0.67272006692E+02  0.44424338594E+01 -0.82638294297E+02  0.13849395811E+03  0.88352875703E+02 0.  0.
         23    2    1    2    0    0 -0.10784515858E+03 -0.35998124296E+02 -0.49707730426E+02  0.15343719481E+03  0.90253371703E+02 0.  0.
        -11    1    4    4    0    0 -0.34185277703E+02 -0.37848920801E+02  0.17285772805E+02  0.53851387716E+02  0.00000000000E+00 0. -1.
         11    1    4    4    0    0 -0.73659880877E+02  0.18507965055E+01 -0.66993503231E+02  0.99585807090E+02  0.00000000000E+00 0.  1.
        -13    1    3    3    0    0 -0.19546368903E+02  0.13059861765E+02 -0.12990745351E+02  0.26858518041E+02  0.00000000000E+00 0. -1.
         13    1    3    3    0    0  0.86818375595E+02 -0.86174279053E+01 -0.69647548946E+02  0.11163544007E+03  0.00000000000E+00 0.  1.
         -2    1    1    2    0  502  0.40573151888E+02  0.31555690436E+02  0.30671644480E+02  0.59855593123E+02  0.00000000000E+00 0.  1.
<scales pt_clust_5="13000.00000" pt_clust_6="13000.00000" pt_clust_7="13000.00000" pt_clust_8="13000.00000" pt_clust_9="51.39983"></scales>
<clustering>
<clus scale="   51.400">  1  9  2 -1</clus>
<clus scale="   88.353">  7  8 -1 -1</clus>
<clus scale="   90.253">  5  6 -1 -1</clus>
<clus scale="  121.177">  2  7  1 -1</clus>
<clus scale="   51.400">  1  5  2 -1</clus>
</clustering>
</event>
<event>
 9    1  0.1315259E-005  0.9247973E+02  0.7546771E-02  0.1297717E+00
         21   -1    0    0  501  502  0.00000000000E+00  0.00000000000E+00  0.38533954482E+02  0.38533954482E+02  0.00000000000E+00 0.  1.
          1   -1    0    0  502    0 -0.00000000000E+00 -0.00000000000E+00 -0.55959324074E+03  0.55959324074E+03  0.00000000000E+00 0. -1.
         23    2    1    2    0    0 -0.97662237888E+01  0.17716163932E+02 -0.40587008007E+03  0.41623687096E+03  0.90074243045E+02 0.  0.
         23    2    1    2    0    0  0.10187749558E+02  0.25964397302E+02 -0.66115824658E+02  0.11619126880E+03  0.91384727973E+02 0.  0.
        -11    1    4    4    0    0 -0.29578719372E+02  0.37013213018E+02 -0.13396306032E+02  0.49237583135E+02  0.00000000000E+00 0.  1.
         11    1    4    4    0    0  0.39766468931E+02 -0.11048815716E+02 -0.52719518626E+02  0.66953685665E+02  0.00000000000E+00 0. -1.
        -11    1    3    3    0    0  0.35020114368E+02 -0.11612619677E+02 -0.20829131739E+03  0.21153376621E+03  0.00000000000E+00 0. -1.
         11    1    3    3    0    0 -0.44786338157E+02  0.29328783609E+02 -0.19757876268E+03  0.20470310475E+03  0.00000000000E+00 0.  1.
          1    1    1    2  501    0 -0.42152576945E+00 -0.43680561234E+02 -0.49073381531E+02  0.65699055462E+02  0.00000000000E+00 0. -1.
<scales pt_clust_5="13000.00000" pt_clust_6="13000.00000" pt_clust_7="13000.00000" pt_clust_8="13000.00000" pt_clust_9="43.68260"></scales>
<clustering>
<clus scale="   43.683">  1  9  2 -1</clus>
<clus scale="   90.074">  7  8 -1 -1</clus>
<clus scale="   91.185">  2  7  1 -1</clus>
<clus scale="   91.385">  5  6 -1 -1</clus>
<clus scale="   43.683">  1  5  2 -1</clus>
</clustering>
</event>
<event>
 9    1  0.1315259E-005  0.1537908E+03  0.7546771E-02  0.1219603E+00
          1   -1    0    0  502    0 -0.00000000000E+00  0.00000000000E+00  0.39821410898E+03  0.39821410898E+03  0.00000000000E+00 0. -1.
         21   -1    0    0  501  502  0.00000000000E+00 -0.00000000000E+00 -0.14699678287E+03  0.14699678287E+03  0.00000000000E+00 0. -1.
         23    2    1    2    0    0 -0.99916486361E+01  0.16398436761E+02  0.18977328126E+03  0.21111884116E+03  0.90490469358E+02 0.  0.
         23    2    1    2    0    0  0.22291358038E+01  0.11039647235E+03  0.12669146029E+03  0.19128297954E+03  0.91357003000E+02 0.  0.
        -11    1    3    3    0    0 -0.40062762034E+02 -0.19748820896E+02  0.78478417567E+02  0.90298963739E+02  0.00000000000E+00 0.  1.
         11    1    3    3    0    0  0.30071113398E+02  0.36147257657E+02  0.11129486369E+03  0.12081987742E+03  0.00000000000E+00 0. -1.
        -13    1    4    4    0    0 -0.30631441087E+02  0.49037903291E+02  0.10233779472E+03  0.11754158996E+03  0.00000000000E+00 0.  1.
         13    1    4    4    0    0  0.32860576891E+02  0.61358569062E+02  0.24353665574E+02  0.73741389584E+02  0.00000000000E+00 0. -1.
          1    1    1    2  501    0  0.77625128324E+01 -0.12679490911E+03 -0.65247415435E+02  0.14280907115E+03  0.00000000000E+00 0. -1.
<scales pt_clust_5="13000.00000" pt_clust_6="13000.00000" pt_clust_7="13000.00000" pt_clust_8="13000.00000" pt_clust_9="123.71548"></scales>
<clustering>
<clus scale="   90.490">  5  6 -1 -1</clus>
<clus scale="   91.357">  7  8 -1 -1</clus>
<clus scale="   92.505">  1  5  2 -1</clus>
<clus scale="  123.715">  2  9  1 -1</clus>
<clus scale="  123.715">  2  5  1 -1</clus>
</clustering>
</event>
<event>
 9    1  0.1315259E-005  0.9920487E+02  0.7546771E-02  0.1284623E+00
         21   -1    0    0  501  502  0.00000000000E+00  0.00000000000E+00  0.50630302189E+02  0.50630302189E+02  0.00000000000E+00 0.  1.
         -1   -1    0    0    0  501 -0.00000000000E+00 -0.00000000000E+00 -0.43802315515E+03  0.43802315515E+03  0.00000000000E+00 0.  1.
         23    2    1    2    0    0  0.55483389543E+02  0.18899827070E+02 -0.24469098928E+03  0.26849269783E+03  0.93696523813E+02 0.  0.
         23    2    1    2    0    0 -0.43996778084E+01 -0.12103800186E+01 -0.14039805536E+03  0.16605189079E+03  0.88548259728E+02 0.  0.
        -11    1    3    3    0    0  0.56499114998E+02 -0.25611864495E+02 -0.17621284094E+03  0.18681296237E+03  0.00000000000E+00 0. -1.
         11    1    3    3    0    0 -0.10157254549E+01  0.44511691565E+02 -0.68478148341E+02  0.81679735458E+02  0.00000000000E+00 0.  1.
        -13    1    4    4    0    0  0.37125118514E+02 -0.15320502364E+02 -0.40924204385E+02  0.57339190105E+02  0.00000000000E+00 0.  1.
         13    1    4    4    0    0 -0.41524796322E+02  0.14110122346E+02 -0.99473850971E+02  0.10871270068E+03  0.00000000000E+00 0. -1.
         -1    1    1    2    0  502 -0.51083711735E+02 -0.17689447052E+02 -0.23038083224E+01  0.54108868722E+02  0.00000000000E+00 0.  1.
<scales pt_clust_5="13000.00000" pt_clust_6="13000.00000" pt_clust_7="13000.00000" pt_clust_8="13000.00000" pt_clust_9="54.05980"></scales>
<clustering>
<clus scale="   54.060">  1  9  2 -1</clus>
<clus scale="   88.548">  7  8 -1 -1</clus>
<clus scale="   93.697">  5  6 -1 -1</clus>
<clus scale="   94.358">  1  7  2 -1</clus>
<clus scale="   54.060">  1  5  2 -1</clus>
</clustering>
</event>
<event>
 9    1  0.1315259E-005  0.9246992E+02  0.7546771E-02  0.1298629E+00
          1   -1    0    0  502    0 -0.00000000000E+00  0.00000000000E+00  0.25484965559E+02  0.25484965559E+02  0.00000000000E+00 0. -1.
         21   -1    0    0  501  502  0.00000000000E+00 -0.00000000000E+00 -0.53967715370E+03  0.53967715370E+03  0.00000000000E+00 0.  1.
         23    2    1    2    0    0 -0.21541349949E+02 -0.15161466212E+02 -0.21277686829E+03  0.23183320256E+03  0.88197155921E+02 0.  0.
         23    2    1    2    0    0  0.92432946267E+01 -0.25867883868E+02 -0.24263185662E+03  0.26059553178E+03  0.91023224654E+02 0.  0.
        -11    1    4    4    0    0 -0.16597595405E+02  0.19846217554E+02 -0.22500285077E+02  0.34287247673E+02  0.00000000000E+00 0. -1.
         11    1    4    4    0    0  0.25840890032E+02 -0.45714101421E+02 -0.22013157154E+03  0.22630828411E+03  0.00000000000E+00 0.  1.
        -13    1    3    3    0    0 -0.33701341817E+02 -0.45594841783E+02 -0.10697171245E+03  0.12106864706E+03  0.00000000000E+00 0.  1.
         13    1    3    3    0    0  0.12159991867E+02  0.30433375571E+02 -0.10580515584E+03  0.11076455550E+03  0.00000000000E+00 0. -1.
          1    1    1    2  501    0  0.12298055323E+02  0.41029350079E+02 -0.58783463232E+02  0.72733384922E+02  0.00000000000E+00 0. -1.
<scales pt_clust_5="13000.00000" pt_clust_6="13000.00000" pt_clust_7="13000.00000" pt_clust_8="13000.00000" pt_clust_9="42.83283"></scales>
<clustering>
<clus scale="   42.833">  2  9  1 -1</clus>
<clus scale="   88.197">  7  8 -1 -1</clus>
<clus scale="   89.689">  1  7  2 -1</clus>
<clus scale="   91.023">  5  6 -1 -1</clus>
<clus scale="   42.833">  2  5  1 -1</clus>
</clustering>
</event>
<event>
 9    1  0.1315259E-005  0.9835984E+02  0.7546771E-02  0.1285548E+00
         21   -1    0    0  501  502  0.00000000000E+00  0.00000000000E+00  0.37118760142E+02  0.37118760142E+02  0.00000000000E+00 0.  1.
          1   -1    0    0  502    0 -0.00000000000E+00 -0.00000000000E+00 -0.38796933795E+03  0.38796933795E+03  0.00000000000E+00 0. -1.
         23    2    1    2    0    0  0.25125939811E+02 -0.94397315397E+01 -0.13686582501E+03  0.16683020683E+03  0.91540387109E+02 0.  0.
         23    2    1    2    0    0 -0.19566814716E+02  0.49408070926E+02 -0.13672584669E+03  0.17109533853E+03  0.88066111553E+02 0.  0.
        -11    1    3    3    0    0  0.49989628201E+02 -0.19904644711E+02 -0.12730643180E+03  0.13821029406E+03  0.00000000000E+00 0. -1.
         11    1    3    3    0    0 -0.24863688390E+02  0.10464913171E+02 -0.95593932138E+01  0.28619912765E+02  0.00000000000E+00 0.  1.
        -13    1    4    4    0    0 -0.47627201441E+02  0.42036432137E+01 -0.80927486331E+02  0.93996164694E+02  0.00000000000E+00 0.  1.
         13    1    4    4    0    0  0.28060386725E+02  0.45204427713E+02 -0.55798360356E+02  0.77099173837E+02  0.00000000000E+00 0. -1.
          1    1    1    2  501    0 -0.55591250954E+01 -0.39968339387E+02 -0.77258906116E+02  0.87162552736E+02  0.00000000000E+00 0. -1.
<scales pt_clust_5="13000.00000" pt_clust_6="13000.00000" pt_clust_7="13000.00000" pt_clust_8="13000.00000" pt_clust_9="40.35311"></scales>
<clustering>
<clus scale="   40.353">  1  9  2 -1</clus>
<clus scale="   88.066">  7  8 -1 -1</clus>
<clus scale="   91.540">  5  6 -1 -1</clus>
<clus scale="   95.135">  1  7  2 -1</clus>
<clus scale="   40.353">  1  5  2 -1</clus>
</clustering>
</event>
<event>
 9    1  0.1315259E-005  0.2143184E+03  0.7546771E-02  0.1138501E+00
          2   -1    0    0  502    0 -0.00000000000E+00  0.00000000000E+00  0.43886923096E+03  0.43886923096E+03  0.00000000000E+00 0. -1.
         21   -1    0    0  501  502  0.00000000000E+00 -0.00000000000E+00 -0.26439680174E+03  0.26439680174E+03  0.00000000000E+00 0. -1.
         23    2    1    2    0    0 -0.14398989360E+03 -0.78039721439E+02  0.14659498883E+03  0.23744772308E+03  0.89822284910E+02 0.  0.
         23    2    1    2    0    0  0.20743680139E+03  0.11277848638E+03  0.17050629870E+03  0.30589556852E+03  0.93545108791E+02 0.  0.
        -11    1    3    3    0    0 -0.60532773368E+02  0.11755516609E+02  0.68155318391E+02  0.91910588331E+02  0.00000000000E+00 0. -1.
         11    1    3    3    0    0 -0.83457120231E+02 -0.89795238048E+02  0.78439670441E+02  0.14553713475E+03  0.00000000000E+00 0.  1.
        -11    1    4    4    0    0  0.73407493101E+02  0.16282981067E+02  0.10457495632E+02  0.75915444612E+02  0.00000000000E+00 0.  1.
         11    1    4    4    0    0  0.13402930829E+03  0.96495505315E+02  0.16004880307E+03  0.22998012390E+03  0.00000000000E+00 0. -1.
          2    1    1    2  501    0 -0.63446907792E+02 -0.34738764943E+02 -0.14262885832E+03  0.15992274111E+03  0.00000000000E+00 0. -1.
<scales pt_clust_5="13000.00000" pt_clust_6="13000.00000" pt_clust_7="13000.00000" pt_clust_8="13000.00000" pt_clust_9="72.33458"></scales>
<clustering>
<clus scale="   72.335">  2  9  1 -1</clus>
<clus scale="   89.822">  5  6 -1 -1</clus>
<clus scale="   93.545">  7  8 -1 -1</clus>
<clus scale="  212.720">  1  5  2 -1</clus>
<clus scale="   72.335">  2  5  1 -1</clus>
</clustering>
</event>
<event>
 9    1  0.1315259E-005  0.1143356E+03  0.7546771E-02  0.1257423E+00
          2   -1    0    0  502    0 -0.00000000000E+00  0.00000000000E+00  0.32812806464E+03  0.32812806464E+03  0.00000000000E+00 0. -1.
         21   -1    0    0  501  502  0.00000000000E+00 -0.00000000000E+00 -0.96869458507E+02  0.96869458507E+02  0.00000000000E+00 0.  1.
         23    2    1    2    0    0  0.21287973208E+02 -0.65880789828E+02  0.24571766952E+03  0.27022188735E+03  0.88595931153E+02 0.  0.
         23    2    1    2    0    0 -0.11906799929E+02  0.84266224422E+02  0.19385907961E+02  0.11513332630E+03  0.75081961441E+02 0.  0.
        -11    1    4    4    0    0 -0.14923765059E+02  0.25073311789E+02 -0.27089450589E+02  0.39814922589E+02  0.00000000000E+00 0.  1.
         11    1    4    4    0    0  0.30169651294E+01  0.59192912634E+02  0.46475358551E+02  0.75318403708E+02  0.00000000000E+00 0. -1.
        -13    1    3    3    0    0 -0.23604395897E+02  0.11863873108E+01  0.10837711691E+03  0.11092418353E+03  0.00000000000E+00 0.  1.
         13    1    3    3    0    0  0.44892369105E+02 -0.67067177138E+02  0.13734055261E+03  0.15929770382E+03  0.00000000000E+00 0. -1.
          2    1    1    2  501    0 -0.93811732790E+01 -0.18385434595E+02 -0.33844971345E+02  0.39642309502E+02  0.00000000000E+00 0. -1.
<scales pt_clust_5="13000.00000" pt_clust_6="13000.00000" pt_clust_7="13000.00000" pt_clust_8="13000.00000" pt_clust_9="20.64051"></scales>
<clustering>
<clus scale="   20.641">  2  9  1 -1</clus>
<clus scale="   75.082">  5  6 -1 -1</clus>
<clus scale="   88.596">  7  8 -1 -1</clus>
<clus scale="  104.215">  2  5  1 -1</clus>
<clus scale="   20.641">  2  5  1 -1</clus>
</clustering>
</event>
<event>
 9    1  0.1315259E-005  0.9832792E+02  0.7546771E-02  0.1285035E+00
         21   -1    0    0  501  502  0.00000000000E+00  0.00000000000E+00  0.30848892348E+03  0.30848892348E+03  0.00000000000E+00 0.  1.
         -1   -1    0    0    0  501 -0.00000000000E+00 -0.00000000000E+00 -0.21005466953E+03  0.21005466953E+03  0.00000000000E+00 0.  1.
         23    2    1    2    0    0  0.74204151063E+01  0.52116332147E+02 -0.13857563871E+03  0.17353693265E+03  0.90225743069E+02 0.  0.
         23    2    1    2    0    0  0.18705972699E+02  0.18745684239E+02 -0.17813755740E-03  0.96254198733E+02  0.92539487148E+02 0.  0.
        -11    1    3    3    0    0 -0.16200134333E+01 -0.25118006010E+02 -0.47690376275E+02  0.53925046673E+02  0.00000000000E+00 0. -1.
         11    1    3    3    0    0  0.90404285396E+01  0.77234338157E+02 -0.90885262432E+02  0.11961188597E+03  0.00000000000E+00 0.  1.
        -13    1    4    4    0    0  0.43990193700E+02 -0.11076146988E+02  0.23033539666E+02  0.50875948379E+02  0.00000000000E+00 0.  1.
         13    1    4    4    0    0 -0.25284221002E+02  0.29821831227E+02 -0.23033717804E+02  0.45378250354E+02  0.00000000000E+00 0. -1.
         -1    1    1    2    0  502 -0.26126387805E+02 -0.70862016385E+02  0.23701007080E+03  0.24875246163E+03  0.00000000000E+00 0.  1.
<scales pt_clust_5="13000.00000" pt_clust_6="13000.00000" pt_clust_7="13000.00000" pt_clust_8="13000.00000" pt_clust_9="75.52492"></scales>
<clustering>
<clus scale="   75.525">  1  9  2 -1</clus>
<clus scale="   90.226">  5  6 -1 -1</clus>
<clus scale="   92.539">  7  8 -1 -1</clus>
<clus scale="   96.154">  2  5  1 -1</clus>
<clus scale="   75.525">  1  5  2 -1</clus>
</clustering>
</event>
<event>
 9    1  0.1315259E-005  0.2302195E+03  0.7546771E-02  0.1126502E+00
         21   -1    0    0  501  502  0.00000000000E+00  0.00000000000E+00  0.63758615652E+03  0.63758615652E+03  0.00000000000E+00 0. -1.
          1   -1    0    0  502    0 -0.00000000000E+00 -0.00000000000E+00 -0.54376749436E+03  0.54376749436E+03  0.00000000000E+00 0. -1.
         23    2    1    2    0    0  0.24458230225E+03  0.12808994632E+03 -0.38661970447E+03  0.48360600785E+03  0.90401537718E+02 0.  0.
         23    2    1    2    0    0 -0.95735889598E+02 -0.87130136331E+02 -0.33142014926E+02  0.16146621607E+03  0.90641737430E+02 0.  0.
        -13    1    3    3    0    0  0.22439588124E+03  0.12832382925E+03 -0.38448935124E+03  0.46330613841E+03  0.00000000000E+00 0. -1.
         13    1    3    3    0    0  0.20186421004E+02 -0.23388292633E+00 -0.21303532246E+01  0.20299869434E+02  0.00000000000E+00 0.  1.
        -13    1    4    4    0    0 -0.10892345400E+03 -0.61785226872E+02 -0.41115837633E+02  0.13180381328E+03  0.00000000000E+00 0.  1.
         13    1    4    4    0    0  0.13187564407E+02 -0.25344909459E+02  0.79738227068E+01  0.29662402786E+02  0.00000000000E+00 0. -1.
          1    1    1    2  501    0 -0.14884641265E+03 -0.40959809988E+02  0.51358038155E+03  0.53628142696E+03  0.00000000000E+00 0. -1.
<scales pt_clust_5="13000.00000" pt_clust_6="13000.00000" pt_clust_7="13000.00000" pt_clust_8="13000.00000" pt_clust_9="154.37928"></scales>
<clustering>
<clus scale="   90.402">  5  6 -1 -1</clus>
<clus scale="   90.642">  7  8 -1 -1</clus>
<clus scale="  154.379">  1  9  2 -1</clus>
<clus scale="  230.125">  2  5  1 -1</clus>
<clus scale="  154.379">  1  5  2 -1</clus>
</clustering>
</event>
<event>
 9    1  0.1315259E-005  0.9395357E+02  0.7546771E-02  0.1294092E+00
         -1   -1    0    0    0  501 -0.00000000000E+00  0.00000000000E+00  0.47327062736E+02  0.47327062736E+02  0.00000000000E+00 0.  1.
         21   -1    0    0  501  502  0.00000000000E+00 -0.00000000000E+00 -0.45334719082E+03  0.45334719082E+03  0.00000000000E+00 0. -1.
         23    2    1    2    0    0 -0.10710688793E+02  0.29517324173E+02 -0.47599048157E+02  0.10867276749E+03  0.92510052035E+02 0.  0.
         23    2    1    2    0    0 -0.26296197944E+02  0.16255866392E+02 -0.18264881343E+03  0.20663540419E+03  0.91552487675E+02 0.  0.
        -13    1    3    3    0    0 -0.24498964903E+02  0.55704645522E+02 -0.50304211424E+02  0.78953913779E+02  0.00000000000E+00 0. -1.
         13    1    3    3    0    0  0.13788276109E+02 -0.26187321349E+02  0.27051632669E+01  0.29718853710E+02  0.00000000000E+00 0.  1.
        -13    1    4    4    0    0 -0.54891641248E+02  0.19147542725E+02 -0.15939282055E+03  0.16966376135E+03  0.00000000000E+00 0. -1.
         13    1    4    4    0    0  0.28595443304E+02 -0.28916763331E+01 -0.23255992880E+02  0.36971642844E+02  0.00000000000E+00 0.  1.
         -1    1    1    2    0  502  0.37006886737E+02 -0.45773190564E+02 -0.17577226650E+03  0.18536608188E+03  0.00000000000E+00 0.  1.
<scales pt_clust_5="13000.00000" pt_clust_6="13000.00000" pt_clust_7="13000.00000" pt_clust_8="13000.00000" pt_clust_9="58.86166"></scales>
<clustering>
<clus scale="   58.862">  2  9  1 -1</clus>
<clus scale="   91.552">  7  8 -1 -1</clus>
<clus scale="   92.510">  5  6 -1 -1</clus>
<clus scale="   93.011">  2  7  1 -1</clus>
<clus scale="   58.862">  2  5  1 -1</clus>
</clustering>
</event>
<event>
 9    1  0.1315259E-005  0.1362589E+03  0.7546771E-02  0.1218550E+00
         21   -1    0    0  501  502  0.00000000000E+00  0.00000000000E+00  0.12401578878E+03  0.12401578878E+03  0.00000000000E+00 0.  1.
          3   -1    0    0  502    0 -0.00000000000E+00 -0.00000000000E+00 -0.23256689026E+03  0.23256689026E+03  0.00000000000E+00 0. -1.
         23    2    1    2    0    0 -0.89065008624E+02  0.55150860769E+02 -0.74026937055E+02  0.15713228236E+03  0.90754468466E+02 0.  0.
         23    2    1    2    0    0  0.62685569993E+02 -0.78921473592E+02 -0.66827533945E+02  0.15144597501E+03  0.91169536445E+02 0.  0.
        -11    1    4    4    0    0  0.31648063524E+02 -0.72454522294E+02 -0.17816484343E+01  0.79084966946E+02  0.00000000000E+00 0.  1.
         11    1    4    4    0    0  0.31037506469E+02 -0.64669512985E+01 -0.65045885511E+02  0.72361008069E+02  0.00000000000E+00 0. -1.
        -13    1    3    3    0    0 -0.72423615113E+02  0.78414623031E+02 -0.71373335443E+02  0.12840633218E+03  0.00000000000E+00 0.  1.
         13    1    3    3    0    0 -0.16641393511E+02 -0.23263762262E+02 -0.26536016120E+01  0.28725950186E+02  0.00000000000E+00 0. -1.
          3    1    1    2  501    0  0.26379438631E+02  0.23770612824E+02  0.32303369526E+02  0.48004421663E+02  0.00000000000E+00 0. -1.
<scales pt_clust_5="13000.00000" pt_clust_6="13000.00000" pt_clust_7="13000.00000" pt_clust_8="13000.00000" pt_clust_9="35.50939"></scales>
<clustering>
<clus scale="   35.509">  1  9  2 -1</clus>
<clus scale="   90.754">  7  8 -1 -1</clus>
<clus scale="   91.170">  5  6 -1 -1</clus>
<clus scale="  135.982">  2  7  1 -1</clus>
<clus scale="   35.509">  1  5  2 -1</clus>
</clustering>
</event>
<event>
 9    1  0.1315259E-005  0.1121378E+03  0.7546771E-02  0.1257068E+00
         21   -1    0    0  501  502  0.00000000000E+00  0.00000000000E+00  0.66475145882E+02  0.66475145882E+02  0.00000000000E+00 0. -1.
          1   -1    0    0  502    0 -0.00000000000E+00 -0.00000000000E+00 -0.53223130253E+03  0.53223130253E+03  0.00000000000E+00 0. -1.
         23    2    1    2    0    0  0.12721586163E+02 -0.69255810850E+02 -0.15790638376E+03  0.19763850930E+03  0.95751492088E+02 0.  0.
         23    2    1    2    0    0  0.75204053970E+02  0.29876093500E+02 -0.66508964122E+02  0.14120823406E+03  0.94700012468E+02 0.  0.
        -11    1    3    3    0    0  0.41754372021E+02 -0.74770120353E+02 -0.93594215289E+02  0.12686163966E+03  0.00000000000E+00 0. -1.
         11    1    3    3    0    0 -0.29032785858E+02  0.55143095027E+01 -0.64312168471E+02  0.70776869649E+02  0.00000000000E+00 0.  1.
        -13    1    4    4    0    0 -0.41092814754E+00 -0.28700489062E+02 -0.18880885041E+02  0.34356582401E+02  0.00000000000E+00 0.  1.
         13    1    4    4    0    0  0.75614982117E+02  0.58576582562E+02 -0.47628079082E+02  0.10685165166E+03  0.00000000000E+00 0. -1.
          1    1    1    2  501    0 -0.87925640132E+02  0.39379717350E+02 -0.24134080876E+03  0.25985970504E+03  0.00000000000E+00 0. -1.
<scales pt_clust_5="13000.00000" pt_clust_6="13000.00000" pt_clust_7="13000.00000" pt_clust_8="13000.00000" pt_clust_9="96.34153"></scales>
<clustering>
<clus scale="   94.700">  7  8 -1 -1</clus>
<clus scale="   95.751">  5  6 -1 -1</clus>
<clus scale="   96.342">  1  9  2 -1</clus>
<clus scale="  111.241">  1  7  2 -1</clus>
<clus scale="   96.342">  1  5  2 -1</clus>
</clustering>
</event>
<event>
 9    1  0.1315259E-005  0.9056964E+02  0.7546771E-02  0.1302823E+00
          2   -1    0    0  502    0 -0.00000000000E+00  0.00000000000E+00  0.98271991849E+02  0.98271991849E+02  0.00000000000E+00 0. -1.
         21   -1    0    0  501  502  0.00000000000E+00 -0.00000000000E+00 -0.29487146767E+03  0.29487146767E+03  0.00000000000E+00 0. -1.
         23    2    1    2    0    0  0.39596834721E+02 -0.10537970153E+02  0.46871632531E+02  0.10164102038E+03  0.80342945877E+02 0.  0.
         23    2    1    2    0    0 -0.26115575006E+02 -0.32133960377E+02 -0.81023794185E+02  0.12300386972E+03  0.82767639049E+02 0.  0.
        -11    1    3    3    0    0  0.57452268230E+02 -0.29126295940E+02  0.33504622794E+02  0.72606225549E+02  0.00000000000E+00 0. -1.
         11    1    3    3    0    0 -0.17855433509E+02  0.18588325787E+02  0.13367009737E+02  0.29034794827E+02  0.00000000000E+00 0.  1.
        -13    1    4    4    0    0  0.24437310353E+02  0.73688510671E+01 -0.10321761066E+02  0.27532178534E+02  0.00000000000E+00 0.  1.
         13    1    4    4    0    0 -0.50552885359E+02 -0.39502811444E+02 -0.70702033118E+02  0.95471691182E+02  0.00000000000E+00 0. -1.
          2    1    1    2  501    0 -0.13481259715E+02  0.42671930530E+02 -0.16244731416E+03  0.16849856942E+03  0.00000000000E+00 0. -1.
<scales pt_clust_5="13000.00000" pt_clust_6="13000.00000" pt_clust_7="13000.00000" pt_clust_8="13000.00000" pt_clust_9="44.75084"></scales>
<clustering>
<clus scale="   44.751">  2  9  1 -1</clus>
<clus scale="   80.343">  5  6 -1 -1</clus>
<clus scale="   82.768">  7  8 -1 -1</clus>
<clus scale="   88.359">  1  5  2 -1</clus>
<clus scale="   44.751">  2  5  1 -1</clus>
</clustering>
</event>
<event>
 9    1  0.1315259E-005  0.1091819E+03  0.7546771E-02  0.1271576E+00
          1   -1    0    0  502    0 -0.00000000000E+00  0.00000000000E+00  0.32812822046E+03  0.32812822046E+03  0.00000000000E+00 0. -1.
         21   -1    0    0  501  502  0.00000000000E+00 -0.00000000000E+00 -0.11732748564E+03  0.11732748564E+03  0.00000000000E+00 0. -1.
         23    2    1    2    0    0  0.17405592085E+02 -0.12053724151E+02  0.18214404970E+03  0.20380287494E+03  0.88943297066E+02 0.  0.
         23    2    1    2    0    0 -0.20069492861E+02 -0.33946559869E+02  0.10304923620E+03  0.15414640765E+03  0.10764207559E+03 0.  0.
        -11    1    4    4    0    0 -0.50110733271E+02  0.14858734452E+02  0.71984433819E+02  0.88958565021E+02  0.00000000000E+00 0.  1.
         11    1    4    4    0    0  0.30041240410E+02 -0.48805294321E+02  0.31064802386E+02  0.65187842627E+02  0.00000000000E+00 0. -1.
        -13    1    3    3    0    0  0.44307667746E+02 -0.34655854477E+02  0.11505165826E+03  0.12806670816E+03  0.00000000000E+00 0. -1.
         13    1    3    3    0    0 -0.26902075660E+02  0.22602130326E+02  0.67092391433E+02  0.75736166779E+02  0.00000000000E+00 0.  1.
          1    1    1    2  501    0  0.26639007759E+01  0.46000284021E+02 -0.74392551089E+02  0.87506423506E+02  0.00000000000E+00 0. -1.
<scales pt_clust_5="13000.00000" pt_clust_6="13000.00000" pt_clust_7="13000.00000" pt_clust_8="13000.00000" pt_clust_9="46.07735"></scales>
<clustering>
<clus scale="   46.077">  2  9  1 -1</clus>
<clus scale="   88.943">  7  8 -1 -1</clus>
<clus scale="   90.801">  1  7  2 -1</clus>
<clus scale="  107.642">  5  6 -1 -1</clus>
<clus scale="   46.077">  2  5  1 -1</clus>
</clustering>
</event>
<event>
 9    1  0.1315259E-005  0.1081362E+03  0.7546771E-02  0.1264415E+00
         21   -1    0    0  501  502  0.00000000000E+00  0.00000000000E+00  0.60738283079E+03  0.60738283079E+03  0.00000000000E+00 0. -1.
          1   -1    0    0  502    0 -0.00000000000E+00 -0.00000000000E+00 -0.49722727358E+02  0.49722727358E+02  0.00000000000E+00 0. -1.
         23    2    1    2    0    0 -0.43586940565E+02  0.44389359123E+02  0.31578434389E+02  0.11432651112E+03  0.90571060698E+02 0.  0.
         23    2    1    2    0    0  0.10152497407E+02 -0.36935890388E+02  0.37810820841E+03  0.39089237467E+03  0.91453256425E+02 0.  0.
        -11    1    3    3    0    0 -0.24605511140E+02  0.52018040844E+02 -0.18326199493E+02  0.60391699260E+02  0.00000000000E+00 0. -1.
         11    1    3    3    0    0 -0.18981429426E+02 -0.76286817206E+01  0.49904633882E+02  0.53934811863E+02  0.00000000000E+00 0.  1.
        -13    1    4    4    0    0 -0.40483881406E+02 -0.10208168208E+02  0.16989652898E+03  0.17495137013E+03  0.00000000000E+00 0. -1.
         13    1    4    4    0    0  0.50636378813E+02 -0.26727722179E+02  0.20821167943E+03  0.21594100454E+03  0.00000000000E+00 0.  1.
          1    1    1    2  501    0  0.33434443158E+02 -0.74534687351E+01  0.14797346063E+03  0.15188667235E+03  0.00000000000E+00 0. -1.
<scales pt_clust_5="13000.00000" pt_clust_6="13000.00000" pt_clust_7="13000.00000" pt_clust_8="13000.00000" pt_clust_9="34.25516"></scales>
<clustering>
<clus scale="   34.255">  1  9  2 -1</clus>
<clus scale="   90.571">  5  6 -1 -1</clus>
<clus scale="   91.453">  7  8 -1 -1</clus>
<clus scale="  107.391">  2  5  1 -1</clus>
<clus scale="   34.255">  1  5  2 -1</clus>
</clustering>
</event>
<event>
 9    1  0.1315259E-005  0.1073655E+03  0.7546771E-02  0.1270654E+00
         -3   -1    0    0    0  501 -0.00000000000E+00  0.00000000000E+00  0.22553964628E+03  0.22553964628E+03  0.00000000000E+00 0.  1.
         21   -1    0    0  501  502  0.00000000000E+00 -0.00000000000E+00 -0.34361246493E+03  0.34361246493E+03  0.00000000000E+00 0.  1.
         23    2    1    2    0    0  0.21378009716E+01  0.35403593209E+02  0.17952613003E+03  0.20924617666E+03  0.10147091443E+03 0.  0.
         23    2    1    2    0    0  0.57949435982E+02 -0.28811098253E+02 -0.27263039448E+03  0.29450436169E+03  0.90649161863E+02 0.  0.
        -11    1    3    3    0    0  0.47037428785E+02  0.65711633182E+01  0.12130665926E+03  0.13027281173E+03  0.00000000000E+00 0.  1.
         11    1    3    3    0    0 -0.44899627814E+02  0.28832429891E+02  0.58219470772E+02  0.78973364929E+02  0.00000000000E+00 0. -1.
        -11    1    4    4    0    0 -0.16120948228E+02  0.15814346596E+02 -0.35246528241E+02  0.41860438161E+02  0.00000000000E+00 0. -1.
         11    1    4    4    0    0  0.74070384209E+02 -0.44625444849E+02 -0.23738386624E+03  0.25264392353E+03  0.00000000000E+00 0.  1.
         -3    1    1    2    0  502 -0.60087236953E+02 -0.65924949561E+01 -0.24968554204E+02  0.65401572867E+02  0.00000000000E+00 0.  1.
<scales pt_clust_5="13000.00000" pt_clust_6="13000.00000" pt_clust_7="13000.00000" pt_clust_8="13000.00000" pt_clust_9="60.44780"></scales>
<clustering>
<clus scale="   60.448">  2  9  1 -1</clus>
<clus scale="   90.649">  7  8 -1 -1</clus>
<clus scale="   97.202">  2  7  1 -1</clus>
<clus scale="  101.471">  5  6 -1 -1</clus>
<clus scale="   60.448">  2  5  1 -1</clus>
</clustering>
</event>
<event>
 9    1  0.1315259E-005  0.1105863E+03  0.7546771E-02  0.1263163E+00
          1   -1    0    0  502    0 -0.00000000000E+00  0.00000000000E+00  0.17800291404E+03  0.17800291404E+03  0.00000000000E+00 0. -1.
         21   -1    0    0  501  502  0.00000000000E+00 -0.00000000000E+00 -0.14505943197E+03  0.14505943197E+03  0.00000000000E+00 0. -1.
         23    2    1    2    0    0  0.42852005884E+02 -0.15325552265E+02  0.11393744454E+03  0.15754999730E+03  0.98838724292E+02 0.  0.
         23    2    1    2    0    0 -0.65971523530E+02  0.24711336464E+02 -0.81637698926E+02  0.14055199138E+03  0.90151296879E+02 0.  0.
        -13    1    4    4    0    0 -0.99471123979E+00 -0.29103893043E+02 -0.13467320013E+02  0.32084182225E+02  0.00000000000E+00 0.  1.
         13    1    4    4    0    0 -0.64976812290E+02  0.53815229507E+02 -0.68170378913E+02  0.10846780916E+03  0.00000000000E+00 0. -1.
        -13    1    3    3    0    0  0.58794727635E+02  0.21976217011E+02  0.43843522198E+02  0.76563885419E+02  0.00000000000E+00 0. -1.
         13    1    3    3    0    0 -0.15942721750E+02 -0.37301769275E+02  0.70093922345E+02  0.80986111881E+02  0.00000000000E+00 0.  1.
          1    1    1    2  501    0  0.23119517645E+02 -0.93857841991E+01  0.64373645614E+00  0.24960357325E+02  0.00000000000E+00 0. -1.
<scales pt_clust_5="13000.00000" pt_clust_6="13000.00000" pt_clust_7="13000.00000" pt_clust_8="13000.00000" pt_clust_9="24.95205"></scales>
<clustering>
<clus scale="   24.952">  2  9  1 -1</clus>
<clus scale="   90.151">  5  6 -1 -1</clus>
<clus scale="   98.839">  7  8 -1 -1</clus>
<clus scale="  102.896">  2  5  1 -1</clus>
<clus scale="   24.952">  2  5  1 -1</clus>
</clustering>
</event>
<event>
 9    1  0.1315259E-005  0.1122235E+03  0.7546771E-02  0.1262876E+00
         21   -1    0    0  501  502  0.00000000000E+00  0.00000000000E+00  0.25982158786E+03  0.25982158786E+03  0.00000000000E+00 0.  1.
          3   -1    0    0  502    0 -0.00000000000E+00 -0.00000000000E+00 -0.62684682683E+02  0.62684682683E+02  0.00000000000E+00 0. -1.
         23    2    1    2    0    0  0.31344076582E+02 -0.61174671020E+02  0.39421473314E+02  0.11912726238E+03  0.88952012758E+02 0.  0.
         23    2    1    2    0    0 -0.52714778964E+02  0.47274854723E+02  0.10888902965E+03  0.14829789192E+03  0.71565942730E+02 0.  0.
        -11    1    4    4    0    0 -0.48562066000E+02  0.14086380284E+02  0.10243308899E+03  0.11423326172E+03  0.00000000000E+00 0.  1.
         11    1    4    4    0    0 -0.41527129639E+01  0.33188474439E+02  0.64559406603E+01  0.34064630195E+02  0.00000000000E+00 0. -1.
        -11    1    3    3    0    0 -0.25026197806E+02 -0.10542342633E+02  0.33501434743E+02  0.43125371821E+02  0.00000000000E+00 0.  1.
         11    1    3    3    0    0  0.56370274388E+02 -0.50632328387E+02  0.59200385708E+01  0.76001890563E+02  0.00000000000E+00 0. -1.
          3    1    1    2  501    0  0.21370702382E+02  0.13899816298E+02  0.48826402216E+02  0.55081116244E+02  0.00000000000E+00 0. -1.
<scales pt_clust_5="13000.00000" pt_clust_6="13000.00000" pt_clust_7="13000.00000" pt_clust_8="13000.00000" pt_clust_9="25.49337"></scales>
<clustering>
<clus scale="   25.493">  1  9  2 -1</clus>
<clus scale="   71.566">  5  6 -1 -1</clus>
<clus scale="   88.952">  7  8 -1 -1</clus>
<clus scale="   99.012">  1  5  2 -1</clus>
<clus scale="   25.493">  1  5  2 -1</clus>
</clustering>
</event>
<event>
 9    1  0.1315259E-005  0.9873679E+02  0.7546771E-02  0.1284222E+00
         -3   -1    0    0    0  501 -0.00000000000E+00  0.00000000000E+00  0.39737222577E+03  0.39737222577E+03  0.00000000000E+00 0.  1.
         21   -1    0    0  501  502  0.00000000000E+00 -0.00000000000E+00 -0.48026637518E+02  0.48026637518E+02  0.00000000000E+00 0. -1.
         23    2    1    2    0    0 -0.11042760309E+02  0.29712948285E+02  0.26744623175E+03  0.28402669578E+03  0.90215714747E+02 0.  0.
         23    2    1    2    0    0  0.41487208655E+02 -0.25558044181E+02  0.77647750008E+02  0.13035275712E+03  0.92672898428E+02 0.  0.
        -13    1    4    4    0    0  0.25555891807E+02  0.14573789158E+01  0.92265506306E+02  0.95750463253E+02  0.00000000000E+00 0.  1.
         13    1    4    4    0    0  0.15931316848E+02 -0.27015423097E+02 -0.14617756297E+02  0.34602293866E+02  0.00000000000E+00 0. -1.
        -13    1    3    3    0    0 -0.45598827939E+02 -0.19293932944E+01  0.96054824027E+02  0.10634615596E+03  0.00000000000E+00 0. -1.
         13    1    3    3    0    0  0.34556067630E+02  0.31642341580E+02  0.17139140772E+03  0.17768053982E+03  0.00000000000E+00 0.  1.
         -3    1    1    2    0  502 -0.30444448346E+02 -0.41549041036E+01  0.42516064960E+01  0.31019410390E+02  0.00000000000E+00 0.  1.
<scales pt_clust_5="13000.00000" pt_clust_6="13000.00000" pt_clust_7="13000.00000" pt_clust_8="13000.00000" pt_clust_9="30.72666"></scales>
<clustering>
<clus scale="   30.727">  2  9  1 -1</clus>
<clus scale="   90.216">  7  8 -1 -1</clus>
<clus scale="   92.673">  5  6 -1 -1</clus>
<clus scale="   96.434">  1  7  2 -1</clus>
<clus scale="   30.727">  2  5  1 -1</clus>
</clustering>
</event>
<event>
 9    1  0.1315259E-005  0.1675105E+03  0.7546771E-02  0.1180618E+00
          1   -1    0    0  502    0 -0.00000000000E+00  0.00000000000E+00  0.45937717840E+03  0.45937717840E+03  0.00000000000E+00 0. -1.
         21   -1    0    0  501  502  0.00000000000E+00 -0.00000000000E+00 -0.21091841775E+03  0.21091841775E+03  0.00000000000E+00 0. -1.
         23    2    1    2    0    0  0.12204404865E+03 -0.56491643289E+02  0.28218548422E+02  0.16451291985E+03  0.90455285903E+02 0.  0.
         23    2    1    2    0    0 -0.84349840879E+02  0.14983920636E+03 -0.63380641082E+02  0.20482518883E+03  0.91485347995E+02 0.  0.
        -11    1    3    3    0    0  0.11965976654E+03 -0.18737070585E+02  0.74254394324E+01  0.12134527058E+03  0.00000000000E+00 0. -1.
         11    1    3    3    0    0  0.23842821138E+01 -0.37754572704E+02  0.20793108990E+02  0.43167649261E+02  0.00000000000E+00 0.  1.
        -13    1    4    4    0    0 -0.75305266262E+02  0.69840964720E+02 -0.56047672447E+00  0.10270811854E+03  0.00000000000E+00 0.  1.
         13    1    4    4    0    0 -0.90445746169E+01  0.79998241638E+02 -0.62820164357E+02  0.10211707029E+03  0.00000000000E+00 0. -1.
          1    1    1    2  501    0 -0.37694207775E+02 -0.93347563069E+02  0.28362085331E+03  0.30095748747E+03  0.00000000000E+00 0. -1.
<scales pt_clust_5="13000.00000" pt_clust_6="13000.00000" pt_clust_7="13000.00000" pt_clust_8="13000.00000" pt_clust_9="100.67090"></scales>
<clustering>
<clus scale="   90.455">  5  6 -1 -1</clus>
<clus scale="   91.485">  7  8 -1 -1</clus>
<clus scale="  100.671">  2  9  1 -1</clus>
<clus scale="  166.950">  1  5  2 -1</clus>
<clus scale="  100.671">  2  5  1 -1</clus>
</clustering>
</event>
<event>
 9    1  0.1315259E-005  0.1182162E+03  0.7546771E-02  0.1262408E+00
         21   -1    0    0  501  502  0.00000000000E+00  0.00000000000E+00  0.70550252341E+02  0.70550252341E+02  0.00000000000E+00 0. -1.
          2   -1    0    0  502    0 -0.00000000000E+00 -0.00000000000E+00 -0.37070356751E+03  0.37070356751E+03  0.00000000000E+00 0. -1.
         23    2    1    2    0    0  0.26105430701E+02 -0.15761688294E+02 -0.18394852570E+03  0.20353055933E+03  0.81594755615E+02 0.  0.
         23    2    1    2    0    0 -0.52037711812E+01  0.18932616989E+02 -0.15457290823E+03  0.19391633532E+03  0.11543499437E+03 0.  0.
        -11    1    4    4    0    0 -0.40039920154E+02 -0.13367067489E+01 -0.66617246042E+01  0.40612320366E+02  0.00000000000E+00 0.  1.
         11    1    4    4    0    0  0.34836148972E+02  0.20269323738E+02 -0.14791118363E+03  0.15330401496E+03  0.00000000000E+00 0. -1.
        -13    1    3    3    0    0  0.55613977723E+02 -0.62915987684E+01 -0.12397132652E+03  0.13601980933E+03  0.00000000000E+00 0. -1.
         13    1    3    3    0    0 -0.29508547022E+02 -0.94700895254E+01 -0.59977199181E+02  0.67510749992E+02  0.00000000000E+00 0.  1.
          2    1    1    2  501    0 -0.20901659520E+02 -0.31709286948E+01  0.38368118752E+02  0.43806925207E+02  0.00000000000E+00 0. -1.
<scales pt_clust_5="13000.00000" pt_clust_6="13000.00000" pt_clust_7="13000.00000" pt_clust_8="13000.00000" pt_clust_9="21.14082"></scales>
<clustering>
<clus scale="   21.141">  1  9  2 -1</clus>
<clus scale="   81.595">  7  8 -1 -1</clus>
<clus scale="   85.484">  2  7  1 -1</clus>
<clus scale="  115.435">  5  6 -1 -1</clus>
<clus scale="   21.141">  1  5  2 -1</clus>
</clustering>
</event>
<event>
 9    1  0.1315259E-005  0.9413777E+02  0.7546771E-02  0.1293440E+00
          2   -1    0    0  502    0 -0.00000000000E+00  0.00000000000E+00  0.16668149652E+03  0.16668149652E+03  0.00000000000E+00 0. -1.
         21   -1    0    0  501  502  0.00000000000E+00 -0.00000000000E+00 -0.10261345528E+03  0.10261345528E+03  0.00000000000E+00 0.  1.
         23    2    1    2    0    0  0.17476598474E+02 -0.31100129578E+01  0.78608112605E+02  0.12126042815E+03  0.90607683957E+02 0.  0.
         23    2    1    2    0    0 -0.30861469590E+02  0.32564053630E+02  0.17940914585E+02  0.10219011577E+03  0.90044963492E+02 0.  0.
        -11    1    3    3    0    0 -0.19778772478E+02 -0.13616088179E+02  0.78980653137E+02  0.82550234815E+02  0.00000000000E+00 0.  1.
         11    1    3    3    0    0  0.37255370952E+02  0.10506075221E+02 -0.37254053256E+00  0.38710193331E+02  0.00000000000E+00 0. -1.
        -13    1    4    4    0    0 -0.62060477512E+02  0.23533847417E+02  0.30045486373E+01  0.66440741686E+02  0.00000000000E+00 0.  1.
         13    1    4    4    0    0  0.31199007921E+02  0.90302062126E+01  0.14936365947E+02  0.35749374081E+02  0.00000000000E+00 0. -1.
          2    1    1    2  501    0  0.13384871116E+02 -0.29454040672E+02 -0.32480985943E+02  0.45844407888E+02  0.00000000000E+00 0. -1.
<scales pt_clust_5="13000.00000" pt_clust_6="13000.00000" pt_clust_7="13000.00000" pt_clust_8="13000.00000" pt_clust_9="32.35267"></scales>
<clustering>
<clus scale="   32.353">  2  9  1 -1</clus>
<clus scale="   90.045">  7  8 -1 -1</clus>
<clus scale="   90.608">  5  6 -1 -1</clus>
<clus scale="   93.596">  2  7  1 -1</clus>
<clus scale="   32.353">  2  5  1 -1</clus>
</clustering>
</event>
<event>
 9    1  0.1315259E-005  0.1255883E+03  0.7546771E-02  0.1234719E+00
         21   -1    0    0  501  502  0.00000000000E+00  0.00000000000E+00  0.15148763861E+03  0.15148763861E+03  0.00000000000E+00 0. -1.
          1   -1    0    0  502    0 -0.00000000000E+00 -0.00000000000E+00 -0.46802576917E+03  0.46802576917E+03  0.00000000000E+00 0. -1.
         23    2    1    2    0    0 -0.65867095956E+02 -0.29016939539E+02 -0.20210630541E+03  0.23305164593E+03  0.91025567132E+02 0.  0.
         23    2    1    2    0    0  0.47018429408E+02  0.11173515510E+03 -0.20933854782E+03  0.25916344519E+03  0.92992398236E+02 0.  0.
        -13    1    4    4    0    0  0.80863423360E+01  0.10195454114E+03 -0.18721252157E+03  0.21332755477E+03  0.00000000000E+00 0. -1.
         13    1    4    4    0    0  0.38932087072E+02  0.97806139608E+01 -0.22126026258E+02  0.45835890427E+02  0.00000000000E+00 0.  1.
        -13    1    3    3    0    0 -0.24233648056E+02 -0.58344530667E+02 -0.13264533147E+03  0.14692221724E+03  0.00000000000E+00 0.  1.
         13    1    3    3    0    0 -0.41633447900E+02  0.29327591128E+02 -0.69460973939E+02  0.86129428687E+02  0.00000000000E+00 0. -1.
          1    1    1    2  501    0  0.18848666548E+02 -0.82718215558E+02  0.94906722672E+02  0.12729831666E+03  0.00000000000E+00 0. -1.
<scales pt_clust_5="13000.00000" pt_clust_6="13000.00000" pt_clust_7="13000.00000" pt_clust_8="13000.00000" pt_clust_9="84.83853"></scales>
<clustering>
<clus scale="   84.839">  1  9  2 -1</clus>
<clus scale="   91.026">  7  8 -1 -1</clus>
<clus scale="   92.992">  5  6 -1 -1</clus>
<clus scale="  124.139">  2  7  1 -1</clus>
<clus scale="   84.839">  1  5  2 -1</clus>
</clustering>
</event>
<event>
 9    1  0.1315259E-005  0.1056721E+03  0.7546771E-02  0.1269893E+00
          2   -1    0    0  502    0 -0.00000000000E+00  0.00000000000E+00  0.83596528035E+03  0.83596528035E+03  0.00000000000E+00 0. -1.
         21   -1    0    0  501  502  0.00000000000E+00 -0.00000000000E+00 -0.26257685752E+02  0.26257685752E+02  0.00000000000E+00 0. -1.
         23    2    1    2    0    0 -0.29639659318E+02 -0.48837813274E+02  0.56294160330E+03  0.57270138626E+03  0.88430694229E+02 0.  0.
         23    2    1    2    0    0  0.13594062902E+01  0.44627152851E+02  0.10912725241E+03  0.14894446644E+03  0.91006956364E+02 0.  0.
        -11    1    4    4    0    0 -0.18674849950E+02 -0.23446143338E+02  0.26297693671E+02  0.39875310036E+02  0.00000000000E+00 0.  1.
         11    1    4    4    0    0  0.20034256240E+02  0.68073296189E+02  0.82829558744E+02  0.10906915640E+03  0.00000000000E+00 0. -1.
        -13    1    3    3    0    0 -0.19955249057E+02  0.24054672784E+02  0.14365546323E+03  0.14701609219E+03  0.00000000000E+00 0.  1.
         13    1    3    3    0    0 -0.96844102612E+01 -0.72892486058E+02  0.41928614008E+03  0.42568529407E+03  0.00000000000E+00 0. -1.
          2    1    1    2  501    0  0.28280253028E+02  0.42106604228E+01  0.13763873888E+03  0.14057711340E+03  0.00000000000E+00 0. -1.
<scales pt_clust_5="13000.00000" pt_clust_6="13000.00000" pt_clust_7="13000.00000" pt_clust_8="13000.00000" pt_clust_9="28.59201"></scales>
<clustering>
<clus scale="   28.592">  2  9  1 -1</clus>
<clus scale="   88.431">  7  8 -1 -1</clus>
<clus scale="   91.007">  5  6 -1 -1</clus>
<clus scale="  103.462">  1  7  2 -1</clus>
<clus scale="   28.592">  2  5  1 -1</clus>
</clustering>
</event>
<event>
 9    1  0.1315259E-005  0.1934721E+03  0.7546771E-02  0.1155670E+00
          2   -1    0    0  502    0 -0.00000000000E+00  0.00000000000E+00  0.96834839065E+03  0.96834839065E+03  0.00000000000E+00 0. -1.
         21   -1    0    0  501  502  0.00000000000E+00 -0.00000000000E+00 -0.66452755901E+02  0.66452755901E+02  0.00000000000E+00 0.  1.
         23    2    1    2    0    0 -0.10614984660E+03  0.11763551350E+03  0.41011661402E+03  0.44925594792E+03  0.92354564969E+02 0.  0.
         23    2    1    2    0    0  0.89333055239E+02 -0.16108327708E+03  0.49808453674E+03  0.53853166692E+03  0.89442348047E+02 0.  0.
        -11    1    4    4    0    0  0.83093913380E+02 -0.14004236788E+03  0.48786291633E+03  0.51432158070E+03  0.00000000000E+00 0. -1.
         11    1    4    4    0    0  0.62391418585E+01 -0.21040909201E+02  0.10221620412E+02  0.24210086224E+02  0.00000000000E+00 0.  1.
        -13    1    3    3    0    0 -0.10678518986E+03  0.56763131366E+02  0.24374871668E+03  0.27210028802E+03  0.00000000000E+00 0.  1.
         13    1    3    3    0    0  0.63534326107E+00  0.60872382132E+02  0.16636789734E+03  0.17715565990E+03  0.00000000000E+00 0. -1.
          2    1    1    2  501    0  0.16816791362E+02  0.43447763579E+02 -0.63055160180E+01  0.47013531712E+02  0.00000000000E+00 0. -1.
<scales pt_clust_5="13000.00000" pt_clust_6="13000.00000" pt_clust_7="13000.00000" pt_clust_8="13000.00000" pt_clust_9="46.58876"></scales>
<clustering>
<clus scale="   46.589">  2  9  1 -1</clus>
<clus scale="   89.442">  5  6 -1 -1</clus>
<clus scale="   92.355">  7  8 -1 -1</clus>
<clus scale="  192.099">  2  5  1 -1</clus>
<clus scale="   46.589">  2  5  1 -1</clus>
</clustering>
</event>
<event>
 9    1  0.1315259E-005  0.9093901E+02  0.7546771E-02  0.1300770E+00
         -3   -1    0    0    0  501 -0.00000000000E+00  0.00000000000E+00  0.44181629062E+02  0.44181629062E+02  0.00000000000E+00 0.  1.
         21   -1    0    0  501  502  0.00000000000E+00 -0.00000000000E+00 -0.39744250386E+03  0.39744250386E+03  0.00000000000E+00 0.  1.
         23    2    1    2    0    0  0.72527032493E+01 -0.16010019328E+02 -0.54365825787E+02  0.10686119257E+03  0.90303649098E+02 0.  0.
         23    2    1    2    0    0  0.29588284815E+01 -0.59490340840E+01 -0.10283692299E+03  0.13721480904E+03  0.90599809144E+02 0.  0.
        -11    1    3    3    0    0  0.46546782856E+02 -0.14028038001E+02 -0.45380931949E+02  0.66504269254E+02  0.00000000000E+00 0.  1.
         11    1    3    3    0    0 -0.39294079607E+02 -0.19819813262E+01 -0.89848938379E+01  0.40356923315E+02  0.00000000000E+00 0. -1.
        -11    1    4    4    0    0  0.41385161897E+02  0.91412139839E+01 -0.78717734386E+02  0.89402321699E+02  0.00000000000E+00 0.  1.
         11    1    4    4    0    0 -0.38426333416E+02 -0.15090248068E+02 -0.24119188600E+02  0.47812487336E+02  0.00000000000E+00 0. -1.
         -3    1    1    2    0  502 -0.10211531731E+02  0.21959053412E+02 -0.19605812603E+03  0.19754813132E+03  0.00000000000E+00 0.  1.
<scales pt_clust_5="13000.00000" pt_clust_6="13000.00000" pt_clust_7="13000.00000" pt_clust_8="13000.00000" pt_clust_9="24.21725"></scales>
<clustering>
<clus scale="   24.217">  2  9  1 -1</clus>
<clus scale="   90.304">  5  6 -1 -1</clus>
<clus scale="   90.600">  7  8 -1 -1</clus>
<clus scale="   90.644">  1  5  2 -1</clus>
<clus scale="   24.217">  2  5  1 -1</clus>
</clustering>
</event>
<event>
 9    1  0.1315259E-005  0.9348921E+02  0.7546771E-02  0.1294913E+00
          3   -1    0    0  502    0 -0.00000000000E+00  0.00000000000E+00  0.22041059110E+03  0.22041059110E+03  0.00000000000E+00 0. -1.
         21   -1    0    0  501  502  0.00000000000E+00 -0.00000000000E+00 -0.67489940933E+02  0.67489940933E+02  0.00000000000E+00 0.  1.
         23    2    1    2    0    0  0.18094186461E+02  0.12454654595E+02  0.14723779625E+03  0.17483445815E+03  0.91682065351E+02 0.  0.
         23    2    1    2    0    0  0.23690200746E+01 -0.13772362151E+02  0.72201818525E+01  0.92502938135E+02  0.91155758580E+02 0.  0.
        -11    1    4    4    0    0  0.35704014260E+02 -0.34808213505E+02  0.15516161748E+02  0.52222022530E+02  0.00000000000E+00 0. -1.
         11    1    4    4    0    0 -0.33334994186E+02  0.21035851354E+02 -0.82959798958E+01  0.40280915605E+02  0.00000000000E+00 0.  1.
        -13    1    3    3    0    0  0.28499904528E+02  0.40920153580E+02  0.13159783637E+03  0.14072915143E+03  0.00000000000E+00 0. -1.
         13    1    3    3    0    0 -0.10405718067E+02 -0.28465498985E+02  0.15639959884E+02  0.34105306715E+02  0.00000000000E+00 0.  1.
          3    1    1    2  501    0 -0.20463206535E+02  0.13177075562E+01 -0.15373279303E+01  0.20563135755E+02  0.00000000000E+00 0. -1.
<scales pt_clust_5="13000.00000" pt_clust_6="13000.00000" pt_clust_7="13000.00000" pt_clust_8="13000.00000" pt_clust_9="20.50559"></scales>
<clustering>
<clus scale="   20.506">  2  9  1 -1</clus>
<clus scale="   91.156">  5  6 -1 -1</clus>
<clus scale="   91.682">  7  8 -1 -1</clus>
<clus scale="   92.973">  2  5  1 -1</clus>
<clus scale="   20.506">  2  5  1 -1</clus>
</clustering>
</event>
<event>
 9    1  0.1315259E-005  0.1332113E+03  0.7546771E-02  0.1222932E+00
         21   -1    0    0  501  502  0.00000000000E+00  0.00000000000E+00  0.27008852920E+03  0.27008852920E+03  0.00000000000E+00 0.  1.
          3   -1    0    0  502    0 -0.00000000000E+00 -0.00000000000E+00 -0.13455981387E+03  0.13455981387E+03  0.00000000000E+00 0. -1.
         23    2    1    2    0    0 -0.11894799155E+03 -0.19409302082E+02 -0.36750028062E+02  0.15494634827E+03  0.90180156239E+02 0.  0.
         23    2    1    2    0    0  0.53511586804E+02  0.25575189260E+02  0.73482085412E+02  0.13103978153E+03  0.90852777826E+02 0.  0.
        -11    1    4    4    0    0  0.69427300702E+02 -0.83248912521E+01  0.38652614334E+02  0.79896673848E+02  0.00000000000E+00 0.  1.
         11    1    4    4    0    0 -0.15915713899E+02  0.33900080512E+02  0.34829471078E+02  0.51143107680E+02  0.00000000000E+00 0. -1.
        -13    1    3    3    0    0 -0.37343952965E+02 -0.24688998653E+02  0.26090387580E+02  0.51815304705E+02  0.00000000000E+00 0.  1.
         13    1    3    3    0    0 -0.81604038580E+02  0.52796965710E+01 -0.62840415642E+02  0.10313104356E+03  0.00000000000E+00 0. -1.
          3    1    1    2  501    0  0.65436404742E+02 -0.61658871777E+01  0.98796657986E+02  0.11866221328E+03  0.00000000000E+00 0. -1.
<scales pt_clust_5="13000.00000" pt_clust_6="13000.00000" pt_clust_7="13000.00000" pt_clust_8="13000.00000" pt_clust_9="65.72626"></scales>
<clustering>
<clus scale="   65.726">  1  9  2 -1</clus>
<clus scale="   90.180">  7  8 -1 -1</clus>
<clus scale="   90.853">  5  6 -1 -1</clus>
<clus scale="  132.753">  2  7  1 -1</clus>
<clus scale="   65.726">  1  5  2 -1</clus>
</clustering>
</event>
<event>
 9    1  0.1315259E-005  0.9438723E+02  0.7546771E-02  0.1293683E+00
         21   -1    0    0  501  502  0.00000000000E+00  0.00000000000E+00  0.17596707411E+03  0.17596707411E+03  0.00000000000E+00 0.  1.
         -4   -1    0    0    0  501 -0.00000000000E+00 -0.00000000000E+00 -0.10259763573E+03  0.10259763573E+03  0.00000000000E+00 0.  1.
         23    2    1    2    0    0  0.15408955718E+01 -0.33637004095E+01 -0.12945952868E+02  0.92089816119E+02  0.91100206902E+02 0.  0.
         23    2    1    2    0    0  0.41496182755E+02 -0.14140962635E+02  0.18912876537E+02  0.10461096804E+03  0.93079845976E+02 0.  0.
        -11    1    3    3    0    0 -0.33429712863E+02  0.29284032324E+01 -0.36405030862E+02  0.49512094681E+02  0.00000000000E+00 0.  1.
         11    1    3    3    0    0  0.34970608435E+02 -0.62921036419E+01  0.23459077994E+02  0.42577721438E+02  0.00000000000E+00 0. -1.
        -13    1    4    4    0    0  0.60985184927E+02 -0.38153531342E+02  0.14267898875E+02  0.73337968834E+02  0.00000000000E+00 0.  1.
         13    1    4    4    0    0 -0.19489002172E+02  0.24012568707E+02  0.46449776625E+01  0.31272999201E+02  0.00000000000E+00 0. -1.
         -4    1    1    2    0  502 -0.43037078326E+02  0.17504663045E+02  0.67402514710E+02  0.81863925684E+02  0.00000000000E+00 0.  1.
<scales pt_clust_5="13000.00000" pt_clust_6="13000.00000" pt_clust_7="13000.00000" pt_clust_8="13000.00000" pt_clust_9="46.46077"></scales>
<clustering>
<clus scale="   46.461">  1  9  2 -1</clus>
<clus scale="   91.100">  5  6 -1 -1</clus>
<clus scale="   92.436">  2  5  1 -1</clus>
<clus scale="   93.080">  7  8 -1 -1</clus>
<clus scale="   46.461">  1  5  2 -1</clus>
</clustering>
</event>
<event>
 9    1  0.1315259E-005  0.1124751E+03  0.7546771E-02  0.1256630E+00
          1   -1    0    0  502    0 -0.00000000000E+00  0.00000000000E+00  0.48095594858E+03  0.48095594858E+03  0.00000000000E+00 0. -1.
         21   -1    0    0  501  502  0.00000000000E+00 -0.00000000000E+00 -0.59922092304E+02  0.59922092304E+02  0.00000000000E+00 0. -1.
         23    2    1    2    0    0  0.57656887989E+02  0.25178052615E+01  0.31029974803E+03  0.32880271611E+03  0.92166351882E+02 0.  0.
         23    2    1    2    0    0 -0.81436673374E+02 -0.33431785200E+02  0.11745834709E+03  0.17249796083E+03  0.90606109939E+02 0.  0.
        -11    1    3    3    0    0 -0.18049584636E+02 -0.21907684695E+02  0.10036370878E+03  0.10430056660E+03  0.00000000000E+00 0.  1.
         11    1    3    3    0    0  0.75706472625E+02  0.24425489957E+02  0.20993603925E+03  0.22450214951E+03  0.00000000000E+00 0. -1.
        -13    1    4    4    0    0 -0.43805766359E+02  0.26407115335E+02  0.72489232031E+02  0.88718485487E+02  0.00000000000E+00 0.  1.
         13    1    4    4    0    0 -0.37630907015E+02 -0.59838900535E+02  0.44969115062E+02  0.83779475347E+02  0.00000000000E+00 0. -1.
          1    1    1    2  501    0  0.23779785385E+02  0.30913979939E+02 -0.67242388430E+01  0.39577363942E+02  0.00000000000E+00 0. -1.
<scales pt_clust_5="13000.00000" pt_clust_6="13000.00000" pt_clust_7="13000.00000" pt_clust_8="13000.00000" pt_clust_9="39.00195"></scales>
<clustering>
<clus scale="   39.002">  2  9  1 -1</clus>
<clus scale="   90.606">  7  8 -1 -1</clus>
<clus scale="   92.166">  5  6 -1 -1</clus>
<clus scale="  111.200">  2  7  1 -1</clus>
<clus scale="   39.002">  2  5  1 -1</clus>
</clustering>
</event>
<event>
 9    1  0.1315259E-005  0.1442780E+03  0.7546771E-02  0.1207840E+00
          3   -1    0    0  502    0 -0.00000000000E+00  0.00000000000E+00  0.54401388608E+03  0.54401388608E+03  0.00000000000E+00 0. -1.
         21   -1    0    0  501  502  0.00000000000E+00 -0.00000000000E+00 -0.43807362132E+03  0.43807362132E+03  0.00000000000E+00 0. -1.
         23    2    1    2    0    0  0.17551957966E+02  0.10864294831E+03  0.44844771561E+03  0.47095093166E+03  0.92617843566E+02 0.  0.
         23    2    1    2    0    0  0.77165186173E+02 -0.11897293031E+03 -0.15445780062E+02  0.17047929572E+03  0.93357345966E+02 0.  0.
        -11    1    3    3    0    0  0.30343509599E+02 -0.98676989990E+00  0.61745998467E+02  0.68806036191E+02  0.00000000000E+00 0.  1.
         11    1    3    3    0    0 -0.12791551633E+02  0.10962971821E+03  0.38670171715E+03  0.40214489547E+03  0.00000000000E+00 0. -1.
        -13    1    4    4    0    0  0.35160655106E+02 -0.39317581640E+02  0.38683843333E+02  0.65410883105E+02  0.00000000000E+00 0. -1.
         13    1    4    4    0    0  0.42004531067E+02 -0.79655348666E+02 -0.54129623395E+02  0.10506841262E+03  0.00000000000E+00 0.  1.
          3    1    1    2  501    0 -0.94717144139E+02  0.10329981991E+02 -0.32706167079E+03  0.34065728001E+03  0.00000000000E+00 0. -1.
<scales pt_clust_5="13000.00000" pt_clust_6="13000.00000" pt_clust_7="13000.00000" pt_clust_8="13000.00000" pt_clust_9="95.27878"></scales>
<clustering>
<clus scale="   92.618">  5  6 -1 -1</clus>
<clus scale="   93.357">  7  8 -1 -1</clus>
<clus scale="   95.279">  2  9  1 -1</clus>
<clus scale="  143.801">  1  5  2 -1</clus>
<clus scale="   95.279">  2  5  1 -1</clus>
</clustering>
</event>
<event>
 9    1  0.1315259E-005  0.1062023E+03  0.7546771E-02  0.1270497E+00
         21   -1    0    0  501  502  0.00000000000E+00  0.00000000000E+00  0.27941523024E+03  0.27941523024E+03  0.00000000000E+00 0.  1.
          4   -1    0    0  502    0 -0.00000000000E+00 -0.00000000000E+00 -0.48136144065E+02  0.48136144065E+02  0.00000000000E+00 0. -1.
         23    2    1    2    0    0 -0.21752844728E+02  0.36464048052E+02  0.89082478856E+02  0.13704905187E+03  0.95099639984E+02 0.  0.
         23    2    1    2    0    0  0.16304339308E+02 -0.17030743041E+02  0.10125424818E+03  0.14485567605E+03  0.10087054287E+03 0.  0.
        -11    1    4    4    0    0  0.34499101641E+02 -0.39373679054E+02  0.10346724509E+03  0.11595665320E+03  0.00000000000E+00 0.  1.
         11    1    4    4    0    0 -0.18194762333E+02  0.22342936013E+02 -0.22129969025E+01  0.28899022844E+02  0.00000000000E+00 0. -1.
        -13    1    3    3    0    0 -0.29899761960E+02  0.66181557179E+02  0.54975897165E+02  0.91084266177E+02  0.00000000000E+00 0. -1.
         13    1    3    3    0    0  0.81469172323E+01 -0.29717509127E+02  0.34106581691E+02  0.45964785692E+02  0.00000000000E+00 0.  1.
          4    1    1    2  501    0  0.54485054203E+01 -0.19433305011E+02  0.40942359130E+02  0.45646646384E+02  0.00000000000E+00 0. -1.
<scales pt_clust_5="13000.00000" pt_clust_6="13000.00000" pt_clust_7="13000.00000" pt_clust_8="13000.00000" pt_clust_9="20.18265"></scales>
<clustering>
<clus scale="   20.183">  1  9  2 -1</clus>
<clus scale="   95.100">  7  8 -1 -1</clus>
<clus scale="  100.737">  2  7  1 -1</clus>
<clus scale="  100.871">  5  6 -1 -1</clus>
<clus scale="   20.183">  1  5  2 -1</clus>
</clustering>
</event>
<event>
 9    1  0.1315259E-005  0.1462996E+03  0.7546771E-02  0.1205182E+00
         -3   -1    0    0    0  501 -0.00000000000E+00  0.00000000000E+00  0.18338720376E+03  0.18338720376E+03  0.00000000000E+00 0.  1.
         21   -1    0    0  501  502  0.00000000000E+00 -0.00000000000E+00 -0.24622134640E+03  0.24622134640E+03  0.00000000000E+00 0.  1.
         23    2    1    2    0    0  0.36660657639E+02  0.12307078229E+03  0.99978214294E+02  0.18662016107E+03  0.91329184339E+02 0.  0.
         23    2    1    2    0    0 -0.38130734155E+02 -0.58853489941E+02 -0.11433710652E+03  0.16251558832E+03  0.91764134357E+02 0.  0.
        -11    1    3    3    0    0  0.19525496037E+02  0.95020206024E+02  0.18489771576E+02  0.98751993404E+02  0.00000000000E+00 0. -1.
         11    1    3    3    0    0  0.17135161602E+02  0.28050576263E+02  0.81488442718E+02  0.87868167663E+02  0.00000000000E+00 0.  1.
        -13    1    4    4    0    0  0.48593049348E+01 -0.70154678890E+02 -0.61076862183E+02  0.93143303081E+02  0.00000000000E+00 0.  1.
         13    1    4    4    0    0 -0.42990039090E+02  0.11301188949E+02 -0.53260244340E+02  0.69372285243E+02  0.00000000000E+00 0. -1.
         -3    1    1    2    0  502  0.14700765162E+01 -0.64217292346E+02 -0.48475250405E+02  0.80472800766E+02  0.00000000000E+00 0.  1.
<scales pt_clust_5="13000.00000" pt_clust_6="13000.00000" pt_clust_7="13000.00000" pt_clust_8="13000.00000" pt_clust_9="64.23412"></scales>
<clustering>
<clus scale="   64.234">  2  9  1 -1</clus>
<clus scale="   91.329">  5  6 -1 -1</clus>
<clus scale="   91.764">  7  8 -1 -1</clus>
<clus scale="  146.027">  1  5  2 -1</clus>
<clus scale="   64.234">  2  5  1 -1</clus>
</clustering>
</event>
<event>
 9    1  0.1315259E-005  0.9445320E+02  0.7546771E-02  0.1294374E+00
          1   -1    0    0  502    0 -0.00000000000E+00  0.00000000000E+00  0.29352343224E+02  0.29352343224E+02  0.00000000000E+00 0. -1.
         21   -1    0    0  501  502  0.00000000000E+00 -0.00000000000E+00 -0.45734150370E+03  0.45734150370E+03  0.00000000000E+00 0.  1.
         23    2    1    2    0    0 -0.15353818998E+02 -0.23840427963E+02 -0.10306930368E+03  0.14082174492E+03  0.91669933565E+02 0.  0.
         23    2    1    2    0    0 -0.66353333023E+01  0.13865230890E+02 -0.28938149610E+03  0.30290697129E+03  0.88174319941E+02 0.  0.
        -11    1    4    4    0    0 -0.35877333394E+02 -0.20839839340E+02 -0.10216612087E+03  0.11026966133E+03  0.00000000000E+00 0.  1.
         11    1    4    4    0    0  0.29242000092E+02  0.34705070230E+02 -0.18721537523E+03  0.19263730997E+03  0.00000000000E+00 0. -1.
        -13    1    3    3    0    0  0.26226143549E+02  0.21870490833E+02 -0.37839324136E+02  0.50970024777E+02  0.00000000000E+00 0. -1.
         13    1    3    3    0    0 -0.41579962546E+02 -0.45710918796E+02 -0.65229979540E+02  0.89851720147E+02  0.00000000000E+00 0.  1.
          1    1    1    2  501    0  0.21989152300E+02  0.99751970731E+01 -0.35538360703E+02  0.42965130710E+02  0.00000000000E+00 0. -1.
<scales pt_clust_5="13000.00000" pt_clust_6="13000.00000" pt_clust_7="13000.00000" pt_clust_8="13000.00000" pt_clust_9="24.14597"></scales>
<clustering>
<clus scale="   24.146">  2  9  1 -1</clus>
<clus scale="   88.174">  5  6 -1 -1</clus>
<clus scale="   91.064">  2  5  1 -1</clus>
<clus scale="   91.670">  7  8 -1 -1</clus>
<clus scale="   24.146">  2  5  1 -1</clus>
</clustering>
</event>
<event>
 9    1  0.1315259E-005  0.1189051E+03  0.7546771E-02  0.1250354E+00
          2   -1    0    0  502    0 -0.00000000000E+00  0.00000000000E+00  0.21024356752E+03  0.21024356752E+03  0.00000000000E+00 0. -1.
         21   -1    0    0  501  502  0.00000000000E+00 -0.00000000000E+00 -0.10859878349E+03  0.10859878349E+03  0.00000000000E+00 0.  1.
         23    2    1    2    0    0  0.19896845343E+02 -0.61366752840E+02  0.86156315907E+02  0.14097680276E+03  0.91048258284E+02 0.  0.
         23    2    1    2    0    0 -0.63835943634E+02  0.81571592532E+02  0.21028696671E+02  0.12918727756E+03  0.74284548802E+02 0.  0.
        -13    1    3    3    0    0  0.24908354494E+01  0.22567878924E+02  0.33188531946E+02  0.40211839962E+02  0.00000000000E+00 0.  1.
         13    1    3    3    0    0  0.17406009894E+02 -0.83934631764E+02  0.52967783961E+02  0.10076496280E+03  0.00000000000E+00 0. -1.
        -13    1    4    4    0    0 -0.33126790847E+02  0.72454199896E+02 -0.14902289301E+02  0.81049821596E+02  0.00000000000E+00 0.  1.
         13    1    4    4    0    0 -0.30709152786E+02  0.91173926366E+01  0.35930985972E+02  0.48137455960E+02  0.00000000000E+00 0. -1.
          2    1    1    2  501    0  0.43939098291E+02 -0.20204839693E+02 -0.55402285455E+01  0.48678270696E+02  0.00000000000E+00 0. -1.
<scales pt_clust_5="13000.00000" pt_clust_6="13000.00000" pt_clust_7="13000.00000" pt_clust_8="13000.00000" pt_clust_9="48.36197"></scales>
<clustering>
<clus scale="   48.362">  2  9  1 -1</clus>
<clus scale="   74.285">  7  8 -1 -1</clus>
<clus scale="   91.048">  5  6 -1 -1</clus>
<clus scale="  106.615">  2  7  1 -1</clus>
<clus scale="   48.362">  2  5  1 -1</clus>
</clustering>
</event>
<event>
 9    1  0.1315259E-005  0.1885816E+03  0.7546771E-02  0.1183673E+00
         -2   -1    0    0    0  501 -0.00000000000E+00  0.00000000000E+00  0.81469646066E+02  0.81469646066E+02  0.00000000000E+00 0.  1.
         21   -1    0    0  501  502  0.00000000000E+00 -0.00000000000E+00 -0.73715997082E+03  0.73715997082E+03  0.00000000000E+00 0.  1.
         23    2    1    2    0    0 -0.55125243993E+02 -0.16421183609E+01 -0.73495822551E+02  0.13168828979E+03  0.94332818560E+02 0.  0.
         23    2    1    2    0    0  0.51706929293E+02 -0.16348026121E+03 -0.25427577325E+03  0.31977953999E+03  0.90572528920E+02 0.  0.
        -11    1    4    4    0    0  0.26844334233E+02 -0.82870457762E+02 -0.20340022042E+03  0.22126857147E+03  0.00000000000E+00 0. -1.
         11    1    4    4    0    0  0.24862595060E+02 -0.80609803448E+02 -0.50875552826E+02  0.98510968528E+02  0.00000000000E+00 0.  1.
        -11    1    3    3    0    0 -0.71731724476E+02 -0.28869028480E+02 -0.50096596528E+02  0.92133219228E+02  0.00000000000E+00 0.  1.
         11    1    3    3    0    0  0.16606480483E+02  0.27226910119E+02 -0.23399226023E+02  0.39555070562E+02  0.00000000000E+00 0. -1.
         -2    1    1    2    0  502  0.34183146999E+01  0.16512237957E+03 -0.32791872895E+03  0.36716178710E+03  0.00000000000E+00 0.  1.
<scales pt_clust_5="13000.00000" pt_clust_6="13000.00000" pt_clust_7="13000.00000" pt_clust_8="13000.00000" pt_clust_9="165.40745"></scales>
<clustering>
<clus scale="   90.573">  5  6 -1 -1</clus>
<clus scale="   94.333">  7  8 -1 -1</clus>
<clus scale="  109.271">  1  7  2 -1</clus>
<clus scale="  165.407">  2  9  1 -1</clus>
<clus scale="  165.407">  2  5  1 -1</clus>
</clustering>
</event>
<event>
 9    1  0.1315259E-005  0.1049211E+03  0.7546771E-02  0.1270284E+00
         21   -1    0    0  501  502  0.00000000000E+00  0.00000000000E+00  0.19330044469E+03  0.19330044469E+03  0.00000000000E+00 0.  1.
          1   -1    0    0  502    0 -0.00000000000E+00 -0.00000000000E+00 -0.11901053719E+03  0.11901053719E+03  0.00000000000E+00 0. -1.
         23    2    1    2    0    0  0.16767683899E+01 -0.45982228673E+02 -0.60745938768E+02  0.11967410680E+03  0.92274838691E+02 0.  0.
         23    2    1    2    0    0 -0.74192293197E+01  0.66316819905E+02  0.99080014202E+02  0.15093203942E+03  0.92253269554E+02 0.  0.
        -11    1    3    3    0    0 -0.41865692957E+02 -0.24317625722E+02 -0.50524577022E+02  0.69977253809E+02  0.00000000000E+00 0. -1.
         11    1    3    3    0    0  0.43542461347E+02 -0.21664602951E+02 -0.10221361746E+02  0.49696852990E+02  0.00000000000E+00 0.  1.
        -13    1    4    4    0    0 -0.10571523814E+02 -0.22099350282E+02  0.29702422487E+02  0.38501588282E+02  0.00000000000E+00 0. -1.
         13    1    4    4    0    0  0.31522944945E+01  0.88416170187E+02  0.69377591715E+02  0.11243045114E+03  0.00000000000E+00 0.  1.
          1    1    1    2  501    0  0.57424609298E+01 -0.20334591232E+02  0.35955832061E+02  0.41704835659E+02  0.00000000000E+00 0. -1.
<scales pt_clust_5="13000.00000" pt_clust_6="13000.00000" pt_clust_7="13000.00000" pt_clust_8="13000.00000" pt_clust_9="21.12987"></scales>
<clustering>
<clus scale="   21.130">  1  9  2 -1</clus>
<clus scale="   92.253">  7  8 -1 -1</clus>
<clus scale="   92.275">  5  6 -1 -1</clus>
<clus scale="  104.902">  1  7  2 -1</clus>
<clus scale="   21.130">  1  5  2 -1</clus>
</clustering>
</event>
<event>
 9    1  0.1315259E-005  0.9917217E+02  0.7546771E-02  0.1285482E+00
          2   -1    0    0  502    0 -0.00000000000E+00  0.00000000000E+00  0.68529250450E+03  0.68529250450E+03  0.00000000000E+00 0. -1.
         21   -1    0    0  501  502  0.00000000000E+00 -0.00000000000E+00 -0.46507750999E+02  0.46507750999E+02  0.00000000000E+00 0.  1.
         23    2    1    2    0    0  0.57257594789E-01 -0.28607543026E+02  0.29072419363E+03  0.30779278867E+03  0.96940441495E+02 0.  0.
         23    2    1    2    0    0  0.60611089678E+02 -0.28348480967E+02  0.67286828071E+02  0.13116190088E+03  0.90546045994E+02 0.  0.
        -11    1    4    4    0    0 -0.19138753345E+02 -0.25510780520E+02  0.26910420407E+02  0.41728437891E+02  0.00000000000E+00 0. -1.
         11    1    4    4    0    0  0.79749843023E+02 -0.28377004470E+01  0.40376407665E+02  0.89433462987E+02  0.00000000000E+00 0.  1.
        -13    1    3    3    0    0  0.42897921824E+02 -0.22654733036E+01  0.76416527875E+02  0.87663275085E+02  0.00000000000E+00 0.  1.
         13    1    3    3    0    0 -0.42840664229E+02 -0.26342069722E+02  0.21430766575E+03  0.22012951358E+03  0.00000000000E+00 0. -1.
          2    1    1    2  501    0 -0.60668347272E+02  0.56956023993E+02  0.28077373180E+03  0.29284556596E+03  0.00000000000E+00 0. -1.
<scales pt_clust_5="13000.00000" pt_clust_6="13000.00000" pt_clust_7="13000.00000" pt_clust_8="13000.00000" pt_clust_9="83.21445"></scales>
<clustering>
<clus scale="   83.214">  2  9  1 -1</clus>
<clus scale="   90.546">  5  6 -1 -1</clus>
<clus scale="   92.931">  2  5  1 -1</clus>
<clus scale="   96.940">  7  8 -1 -1</clus>
<clus scale="   83.214">  2  5  1 -1</clus>
</clustering>
</event>
<event>
 9    1  0.1315259E-005  0.1009145E+03  0.7546771E-02  0.1282267E+00
         -1   -1    0    0    0  501 -0.00000000000E+00  0.00000000000E+00  0.43194432546E+03  0.43194432546E+03  0.00000000000E+00 0.  1.
         21   -1    0    0  501  502  0.00000000000E+00 -0.00000000000E+00 -0.15751424957E+03  0.15751424957E+03  0.00000000000E+00 0.  1.
         23    2    1    2    0    0  0.29156884706E+02  0.24072784362E+02  0.27871520295E+03  0.29550994749E+03  0.90633006339E+02 0.  0.
         23    2    1    2    0    0 -0.85873088117E+01  0.42740284542E+02  0.11399771096E+03  0.15655167198E+03  0.98043225686E+02 0.  0.
        -11    1    4    4    0    0 -0.28720201791E+02 -0.22596681938E+01  0.10175676193E+03  0.10575629858E+03  0.00000000000E+00 0.  1.
         11    1    4    4    0    0  0.20132892979E+02  0.44999952736E+02  0.12240949023E+02  0.50795373400E+02  0.00000000000E+00 0. -1.
        -13    1    3    3    0    0 -0.64940612880E+00 -0.33407896525E+02  0.98925878751E+02  0.10441665942E+03  0.00000000000E+00 0.  1.
         13    1    3    3    0    0  0.29806290835E+02  0.57480680886E+02  0.17978932420E+03  0.19109328807E+03  0.00000000000E+00 0. -1.
         -1    1    1    2    0  502 -0.20569575895E+02 -0.66813068903E+02 -0.11828283801E+03  0.13739695555E+03  0.00000000000E+00 0.  1.
<scales pt_clust_5="13000.00000" pt_clust_6="13000.00000" pt_clust_7="13000.00000" pt_clust_8="13000.00000" pt_clust_9="69.90775"></scales>
<clustering>
<clus scale="   69.908">  2  9  1 -1</clus>
<clus scale="   90.633">  7  8 -1 -1</clus>
<clus scale="   93.732">  1  7  2 -1</clus>
<clus scale="   98.043">  5  6 -1 -1</clus>
<clus scale="   69.908">  2  5  1 -1</clus>
</clustering>
</event>
<event>
 9    1  0.1315259E-005  0.1492839E+03  0.7546771E-02  0.1201973E+00
          2   -1    0    0  502    0 -0.00000000000E+00  0.00000000000E+00  0.86367064300E+03  0.86367064300E+03  0.00000000000E+00 0. -1.
         21   -1    0    0  501  502  0.00000000000E+00 -0.00000000000E+00 -0.90616409437E+02  0.90616409437E+02  0.00000000000E+00 0. -1.
         23    2    1    2    0    0 -0.77748179693E+02 -0.92049969004E+02  0.58572879922E+03  0.60499702082E+03  0.91788848566E+02 0.  0.
         23    2    1    2    0    0  0.10440539576E+03  0.54586923579E+02  0.23858612267E+03  0.28042970118E+03  0.88528303274E+02 0.  0.
        -11    1    4    4    0    0  0.53566545590E+02 -0.17041121161E+02  0.65362438388E+02  0.86209181465E+02  0.00000000000E+00 0. -1.
         11    1    4    4    0    0  0.50838850168E+02  0.71628044740E+02  0.17322368429E+03  0.19422051971E+03  0.00000000000E+00 0.  1.
        -13    1    3    3    0    0  0.19856683024E+02 -0.19377219732E+02  0.74883104295E+02  0.79857647186E+02  0.00000000000E+00 0.  1.
         13    1    3    3    0    0 -0.97604862717E+02 -0.72672749272E+02  0.51084569493E+03  0.52513937363E+03  0.00000000000E+00 0. -1.
          2    1    1    2  501    0 -0.26657216066E+02  0.37463045425E+02 -0.51260688330E+02  0.68860330445E+02  0.00000000000E+00 0. -1.
<scales pt_clust_5="13000.00000" pt_clust_6="13000.00000" pt_clust_7="13000.00000" pt_clust_8="13000.00000" pt_clust_9="45.97920"></scales>
<clustering>
<clus scale="   45.979">  2  9  1 -1</clus>
<clus scale="   88.528">  5  6 -1 -1</clus>
<clus scale="   91.789">  7  8 -1 -1</clus>
<clus scale="  147.302">  2  5  1 -1</clus>
<clus scale="   45.979">  2  5  1 -1</clus>
</clustering>
</event>
<event>
 9    1  0.1315259E-005  0.8926844E+02  0.7546771E-02  0.1306722E+00
         -2   -1    0    0    0  501 -0.00000000000E+00  0.00000000000E+00  0.16462347283E+03  0.16462347283E+03  0.00000000000E+00 0.  1.
         21   -1    0    0  501  502  0.00000000000E+00 -0.00000000000E+00 -0.89227808617E+02  0.89227808617E+02  0.00000000000E+00 0. -1.
         23    2    1    2    0    0  0.17966134685E+02 -0.82598257695E+01  0.65510819413E+02  0.10521101323E+03  0.79916726208E+02 0.  0.
         23    2    1    2    0    0 -0.59004636969E+02 -0.31467794234E+01  0.21420767880E+02  0.10451151532E+03  0.83500647496E+02 0.  0.
        -13    1    4    4    0    0 -0.19458911314E+02 -0.42111497259E+02  0.52410235410E+01  0.46685069977E+02  0.00000000000E+00 0. -1.
         13    1    4    4    0    0 -0.39545725655E+02  0.38964717836E+02  0.16179744339E+02  0.57826445339E+02  0.00000000000E+00 0.  1.
        -13    1    3    3    0    0  0.39129396395E+02  0.22376319211E+02  0.34842815645E+02  0.56972196076E+02  0.00000000000E+00 0.  1.
         13    1    3    3    0    0 -0.21163261710E+02 -0.30636144980E+02  0.30668003769E+02  0.48238817156E+02  0.00000000000E+00 0. -1.
         -2    1    1    2    0  502  0.41038502284E+02  0.11406605193E+02 -0.11535923076E+02  0.44128752905E+02  0.00000000000E+00 0.  1.
<scales pt_clust_5="13000.00000" pt_clust_6="13000.00000" pt_clust_7="13000.00000" pt_clust_8="13000.00000" pt_clust_9="42.59424"></scales>
<clustering>
<clus scale="   42.594">  2  9  1 -1</clus>
<clus scale="   79.917">  7  8 -1 -1</clus>
<clus scale="   83.501">  5  6 -1 -1</clus>
<clus scale="   85.925">  1  7  2 -1</clus>
<clus scale="   42.594">  2  5  1 -1</clus>
</clustering>
</event>
<event>
 9    1  0.1315259E-005  0.2173310E+03  0.7546771E-02  0.1135894E+00
         -1   -1    0    0    0  501 -0.00000000000E+00  0.00000000000E+00  0.77793985255E+02  0.77793985255E+02  0.00000000000E+00 0.  1.
         21   -1    0    0  501  502  0.00000000000E+00 -0.00000000000E+00 -0.15672510924E+04  0.15672510924E+04  0.00000000000E+00 0.  1.
         23    2    1    2    0    0  0.21736893112E+03  0.76942569918E+02 -0.22786795145E+03  0.33672572419E+03  0.91054921616E+02 0.  0.
         23    2    1    2    0    0 -0.15414598498E+03  0.48499960708E+02 -0.48789290878E+03  0.52197410365E+03  0.91127622475E+02 0.  0.
        -11    1    3    3    0    0  0.17545050122E+03  0.93837744992E+02 -0.20641416062E+03  0.28669706393E+03  0.00000000000E+00 0.  1.
         11    1    3    3    0    0  0.41918429896E+02 -0.16895175074E+02 -0.21453790831E+02  0.50028660253E+02  0.00000000000E+00 0. -1.
        -13    1    4    4    0    0 -0.11099476968E+03  0.65565690701E+02 -0.27002490979E+03  0.29921923501E+03  0.00000000000E+00 0. -1.
         13    1    4    4    0    0 -0.43151215297E+02 -0.17065729993E+02 -0.21786799898E+03  0.22275486864E+03  0.00000000000E+00 0.  1.
         -1    1    1    2    0  502 -0.63222946136E+02 -0.12544253063E+03 -0.77369624693E+03  0.78634524982E+03  0.00000000000E+00 0.  1.
<scales pt_clust_5="13000.00000" pt_clust_6="13000.00000" pt_clust_7="13000.00000" pt_clust_8="13000.00000" pt_clust_9="140.47409"></scales>
<clustering>
<clus scale="   91.055">  5  6 -1 -1</clus>
<clus scale="   91.128">  7  8 -1 -1</clus>
<clus scale="  140.474">  2  9  1 -1</clus>
<clus scale="  217.301">  1  5  2 -1</clus>
<clus scale="  140.474">  2  5  1 -1</clus>
</clustering>
</event>
<event>
 9    1  0.1315259E-005  0.1165211E+03  0.7546771E-02  0.1249008E+00
         21   -1    0    0  501  502  0.00000000000E+00  0.00000000000E+00  0.11749192346E+03  0.11749192346E+03  0.00000000000E+00 0. -1.
          1   -1    0    0  502    0 -0.00000000000E+00 -0.00000000000E+00 -0.20225211016E+03  0.20225211016E+03  0.00000000000E+00 0. -1.
         23    2    1    2    0    0 -0.52825551176E+02  0.58710249814E+02 -0.78375479026E+02  0.14257168195E+03  0.89143347998E+02 0.  0.
         23    2    1    2    0    0  0.79415321590E+02 -0.11886282133E+02 -0.20312423233E+02  0.12155328030E+03  0.88963635306E+02 0.  0.
        -13    1    3    3    0    0 -0.62357265765E+02  0.18441312717E+02 -0.14759878344E+02  0.66681066407E+02  0.00000000000E+00 0.  1.
         13    1    3    3    0    0  0.95317145889E+01  0.40268937097E+02 -0.63615600682E+02  0.75890615547E+02  0.00000000000E+00 0. -1.
        -13    1    4    4    0    0  0.59672417031E+02  0.34147348703E+02 -0.39722228611E+01  0.68866663432E+02  0.00000000000E+00 0. -1.
         13    1    4    4    0    0  0.19742904559E+02 -0.46033630836E+02 -0.16340200371E+02  0.52686616864E+02  0.00000000000E+00 0.  1.
          1    1    1    2  501    0 -0.26589770413E+02 -0.46823967682E+02  0.13927715556E+02  0.55619071376E+02  0.00000000000E+00 0. -1.
<scales pt_clust_5="13000.00000" pt_clust_6="13000.00000" pt_clust_7="13000.00000" pt_clust_8="13000.00000" pt_clust_9="53.84700"></scales>
<clustering>
<clus scale="   53.847">  1  9  2 -1</clus>
<clus scale="   88.964">  7  8 -1 -1</clus>
<clus scale="   89.143">  5  6 -1 -1</clus>
<clus scale="  116.384">  1  7  2 -1</clus>
<clus scale="   53.847">  1  5  2 -1</clus>
</clustering>
</event>
<event>
 9    1  0.1315259E-005  0.1594914E+03  0.7546771E-02  0.1203087E+00
         -3   -1    0    0    0  501 -0.00000000000E+00  0.00000000000E+00  0.67954189363E+02  0.67954189363E+02  0.00000000000E+00 0.  1.
         21   -1    0    0  501  502  0.00000000000E+00 -0.00000000000E+00 -0.73604532523E+03  0.73604532523E+03  0.00000000000E+00 0.  1.
         23    2    1    2    0    0  0.36084004253E+02  0.68127009689E+02 -0.10801544857E+03  0.15991119104E+03  0.89223915388E+02 0.  0.
         23    2    1    2    0    0  0.41861209994E+02 -0.16036277768E+03 -0.26895647039E+03  0.32891647873E+03  0.91541715325E+02 0.  0.
        -13    1    4    4    0    0 -0.33492978564E+01 -0.13771531015E+03 -0.18097755238E+03  0.22744141864E+03  0.00000000000E+00 0.  1.
         13    1    4    4    0    0  0.45210507850E+02 -0.22647467529E+02 -0.87978918006E+02  0.10147506008E+03  0.00000000000E+00 0. -1.
        -13    1    3    3    0    0  0.54605205382E+02  0.77533452395E+02 -0.75005668213E+02  0.12090911859E+03  0.00000000000E+00 0.  1.
         13    1    3    3    0    0 -0.18521201128E+02 -0.94064427059E+01 -0.33009780361E+02  0.39002072447E+02  0.00000000000E+00 0. -1.
         -3    1    1    2    0  502 -0.77945214247E+02  0.92235767994E+02 -0.29111921690E+03  0.31517184483E+03  0.00000000000E+00 0.  1.
<scales pt_clust_5="13000.00000" pt_clust_6="13000.00000" pt_clust_7="13000.00000" pt_clust_8="13000.00000" pt_clust_9="130.60484"></scales>
<clustering>
<clus scale="   89.224">  7  8 -1 -1</clus>
<clus scale="   91.542">  5  6 -1 -1</clus>
<clus scale="  117.916">  1  7  2 -1</clus>
<clus scale="  130.605">  2  9  1 -1</clus>
<clus scale="  130.605">  2  5  1 -1</clus>
</clustering>
</event>
<event>
 9    1  0.1315259E-005  0.1813025E+03  0.7546771E-02  0.1196067E+00
         21   -1    0    0  501  502  0.00000000000E+00  0.00000000000E+00  0.46283847769E+03  0.46283847769E+03  0.00000000000E+00 0. -1.
          1   -1    0    0  502    0 -0.00000000000E+00 -0.00000000000E+00 -0.19607969951E+03  0.19607969951E+03  0.00000000000E+00 0. -1.
         23    2    1    2    0    0 -0.13260927178E+00 -0.17653646904E+02 -0.42040519401E+02  0.10252220413E+03  0.91824442465E+02 0.  0.
         23    2    1    2    0    0 -0.79409251399E+02 -0.12031293529E+03 -0.38336735672E+02  0.17447306070E+03  0.90499237582E+02 0.  0.
        -11    1    4    4    0    0 -0.80534980428E+02 -0.40419681107E+02 -0.24525358242E+02  0.93386973878E+02  0.00000000000E+00 0.  1.
         11    1    4    4    0    0  0.11257290285E+01 -0.79893254185E+02 -0.13811377430E+02  0.81086086825E+02  0.00000000000E+00 0. -1.
        -13    1    3    3    0    0 -0.40098348744E+02  0.96445717795E+01 -0.49345081034E+01  0.41536065137E+02  0.00000000000E+00 0.  1.
         13    1    3    3    0    0  0.39965739473E+02 -0.27298218683E+02 -0.37106011298E+02  0.60986138993E+02  0.00000000000E+00 0. -1.
          1    1    1    2  501    0  0.79541860671E+02  0.13796658219E+03  0.34713603325E+03  0.38192291236E+03  0.00000000000E+00 0. -1.
<scales pt_clust_5="13000.00000" pt_clust_6="13000.00000" pt_clust_7="13000.00000" pt_clust_8="13000.00000" pt_clust_9="157.10021"></scales>
<clustering>
<clus scale="   90.499">  5  6 -1 -1</clus>
<clus scale="   91.824">  7  8 -1 -1</clus>
<clus scale="   93.506">  2  7  1 -1</clus>
<clus scale="  157.100">  1  9  2 -1</clus>
<clus scale="  157.100">  1  5  2 -1</clus>
</clustering>
</event>
<event>
 9    1  0.1315259E-005  0.1099525E+03  0.7546771E-02  0.1261815E+00
         -4   -1    0    0    0  501 -0.00000000000E+00  0.00000000000E+00  0.62990748727E+02  0.62990748727E+02  0.00000000000E+00 0.  1.
         21   -1    0    0  501  502  0.00000000000E+00 -0.00000000000E+00 -0.35812441424E+03  0.35812441424E+03  0.00000000000E+00 0.  1.
         23    2    1    2    0    0  0.37158341680E+02  0.55846865996E+02 -0.43274026990E+02  0.12247002993E+03  0.92879771856E+02 0.  0.
         23    2    1    2    0    0 -0.13712549236E+02 -0.46732387091E+02 -0.94400184928E+02  0.13918899978E+03  0.89945721047E+02 0.  0.
        -11    1    4    4    0    0 -0.47575245478E+02 -0.23944165838E+02 -0.25370165552E+02  0.58994680778E+02  0.00000000000E+00 0. -1.
         11    1    4    4    0    0  0.33862696242E+02 -0.22788221253E+02 -0.69030019376E+02  0.80194318999E+02  0.00000000000E+00 0.  1.
        -13    1    3    3    0    0 -0.36408825007E+00  0.52401231449E+02  0.13699348343E+02  0.54163583362E+02  0.00000000000E+00 0. -1.
         13    1    3    3    0    0  0.37522429930E+02  0.34456345472E+01 -0.56973375332E+02  0.68306446563E+02  0.00000000000E+00 0.  1.
         -4    1    1    2    0  502 -0.23445792444E+02 -0.91144789049E+01 -0.15745945360E+03  0.15945613327E+03  0.00000000000E+00 0.  1.
<scales pt_clust_5="13000.00000" pt_clust_6="13000.00000" pt_clust_7="13000.00000" pt_clust_8="13000.00000" pt_clust_9="25.15510"></scales>
<clustering>
<clus scale="   25.155">  2  9  1 -1</clus>
<clus scale="   89.946">  5  6 -1 -1</clus>
<clus scale="   92.880">  7  8 -1 -1</clus>
<clus scale="  107.485">  2  5  1 -1</clus>
<clus scale="   25.155">  2  5  1 -1</clus>
</clustering>
</event>
<event>
 9    1  0.1315259E-005  0.1853849E+03  0.7546771E-02  0.1180294E+00
         -2   -1    0    0    0  501 -0.00000000000E+00  0.00000000000E+00  0.40811947615E+03  0.40811947615E+03  0.00000000000E+00 0.  1.
         21   -1    0    0  501  502  0.00000000000E+00 -0.00000000000E+00 -0.19112086635E+03  0.19112086635E+03  0.00000000000E+00 0.  1.
         23    2    1    2    0    0  0.56887852832E+02  0.63101975092E+02  0.18046194358E+03  0.21899486842E+03  0.90411018421E+02 0.  0.
         23    2    1    2    0    0 -0.85267792908E+02 -0.20184261297E+03  0.44152766440E+02  0.23842731382E+03  0.82988434564E+02 0.  0.
        -11    1    4    4    0    0 -0.83149228820E+02 -0.15167230014E+03  0.21832974840E+01  0.17298279588E+03  0.00000000000E+00 0.  1.
         11    1    4    4    0    0 -0.21185640881E+01 -0.50170312829E+02  0.41969468956E+02  0.65444517933E+02  0.00000000000E+00 0. -1.
        -11    1    3    3    0    0 -0.10124794053E+02  0.54895197298E+02  0.93594180001E+02  0.10897644090E+03  0.00000000000E+00 0. -1.
         11    1    3    3    0    0  0.67012646885E+02  0.82067777939E+01  0.86867763581E+02  0.11001842752E+03  0.00000000000E+00 0.  1.
         -2    1    1    2    0  502  0.28379940076E+02  0.13874063788E+03 -0.76161002186E+01  0.14181816026E+03  0.00000000000E+00 0.  1.
<scales pt_clust_5="13000.00000" pt_clust_6="13000.00000" pt_clust_7="13000.00000" pt_clust_8="13000.00000" pt_clust_9="165.77242"></scales>
<clustering>
<clus scale="   82.988">  5  6 -1 -1</clus>
<clus scale="   90.411">  7  8 -1 -1</clus>
<clus scale="  124.065">  1  7  2 -1</clus>
<clus scale="  165.772">  2  9  1 -1</clus>
<clus scale="  165.772">  2  5  1 -1</clus>
</clustering>
</event>
<event>
 9    1  0.1315259E-005  0.1345495E+03  0.7546771E-02  0.1222772E+00
         -3   -1    0    0    0  501 -0.00000000000E+00  0.00000000000E+00  0.64182464986E+03  0.64182464986E+03  0.00000000000E+00 0.  1.
         21   -1    0    0  501  502  0.00000000000E+00 -0.00000000000E+00 -0.68352714263E+02  0.68352714263E+02  0.00000000000E+00 0. -1.
         23    2    1    2    0    0  0.19995558895E+02  0.82993117607E+02  0.41281517139E+03  0.43118701144E+03  0.90654250660E+02 0.  0.
         23    2    1    2    0    0 -0.77718118353E+02 -0.99391968526E+02  0.14771524450E+03  0.21760387930E+03  0.98044813749E+02 0.  0.
        -11    1    3    3    0    0 -0.35221920927E+02  0.46239648338E+02  0.19977560133E+03  0.20806003864E+03  0.00000000000E+00 0.  1.
         11    1    3    3    0    0  0.55217479822E+02  0.36753469269E+02  0.21303957006E+03  0.22312697280E+03  0.00000000000E+00 0. -1.
        -13    1    4    4    0    0  0.21975441416E+02 -0.51673305618E+01  0.19286621181E+02  0.29691666965E+02  0.00000000000E+00 0.  1.
         13    1    4    4    0    0 -0.99693559769E+02 -0.94224637965E+02  0.12842862331E+03  0.18791221234E+03  0.00000000000E+00 0. -1.
         -3    1    1    2    0  502  0.57722559458E+02  0.16398850920E+02  0.12941519716E+02  0.61386473383E+02  0.00000000000E+00 0.  1.
<scales pt_clust_5="13000.00000" pt_clust_6="13000.00000" pt_clust_7="13000.00000" pt_clust_8="13000.00000" pt_clust_9="60.00680"></scales>
<clustering>
<clus scale="   60.007">  2  9  1 -1</clus>
<clus scale="   90.654">  5  6 -1 -1</clus>
<clus scale="   98.045">  7  8 -1 -1</clus>
<clus scale="  129.263">  1  5  2 -1</clus>
<clus scale="   60.007">  2  5  1 -1</clus>
</clustering>
</event>
<event>
 9    1  0.1315259E-005  0.9452737E+02  0.7546771E-02  0.1292589E+00
         21   -1    0    0  501  502  0.00000000000E+00  0.00000000000E+00  0.21776950636E+03  0.21776950636E+03  0.00000000000E+00 0. -1.
          2   -1    0    0  502    0 -0.00000000000E+00 -0.00000000000E+00 -0.10780263931E+03  0.10780263931E+03  0.00000000000E+00 0. -1.
         23    2    1    2    0    0  0.53472856508E+01  0.49394686378E+02 -0.31075461936E+02  0.10712010823E+03  0.89669419241E+02 0.  0.
         23    2    1    2    0    0  0.10605324476E+02  0.18998260347E+02  0.57220592535E+02  0.10909864501E+03  0.90304547673E+02 0.  0.
        -13    1    3    3    0    0  0.16039442853E+02 -0.19245749482E+02  0.93553934361E+01  0.26742961439E+02  0.00000000000E+00 0.  1.
         13    1    3    3    0    0 -0.10692157203E+02  0.68640435859E+02 -0.40430855372E+02  0.80377146794E+02  0.00000000000E+00 0. -1.
        -13    1    4    4    0    0 -0.79596240873E+01 -0.33900247723E+02  0.11235843959E+02  0.36589979513E+02  0.00000000000E+00 0.  1.
         13    1    4    4    0    0  0.18564948563E+02  0.52898508070E+02  0.45984748576E+02  0.72508665501E+02  0.00000000000E+00 0. -1.
          2    1    1    2  501    0 -0.15952610127E+02 -0.68392946724E+02  0.83821736456E+02  0.10935339242E+03  0.00000000000E+00 0. -1.
<scales pt_clust_5="13000.00000" pt_clust_6="13000.00000" pt_clust_7="13000.00000" pt_clust_8="13000.00000" pt_clust_9="70.22878"></scales>
<clustering>
<clus scale="   70.229">  1  9  2 -1</clus>
<clus scale="   89.669">  5  6 -1 -1</clus>
<clus scale="   90.305">  7  8 -1 -1</clus>
<clus scale="   93.921">  2  5  1 -1</clus>
<clus scale="   70.229">  1  5  2 -1</clus>
</clustering>
</event>
<event>
 9    1  0.1315259E-005  0.1106100E+03  0.7546771E-02  0.1259712E+00
         21   -1    0    0  501  502  0.00000000000E+00  0.00000000000E+00  0.10139001218E+03  0.10139001218E+03  0.00000000000E+00 0. -1.
          3   -1    0    0  502    0 -0.00000000000E+00 -0.00000000000E+00 -0.29643138154E+03  0.29643138154E+03  0.00000000000E+00 0. -1.
         23    2    1    2    0    0 -0.12061487436E+02  0.56391305980E+02 -0.16049284255E+03  0.19309468321E+03  0.90565696072E+02 0.  0.
         23    2    1    2    0    0  0.38236520288E+02 -0.62929161835E+02 -0.86814282225E+02  0.14590847276E+03  0.91271309462E+02 0.  0.
        -11    1    3    3    0    0 -0.23210315346E+02  0.76921552829E+02 -0.14256216765E+03  0.16364478505E+03  0.00000000000E+00 0.  1.
         11    1    3    3    0    0  0.11148827910E+02 -0.20530246849E+02 -0.17930674900E+02  0.29449898163E+02  0.00000000000E+00 0. -1.
        -11    1    4    4    0    0  0.40648755651E+02 -0.36808915120E+02  0.39504563843E+00  0.54839526159E+02  0.00000000000E+00 0.  1.
         11    1    4    4    0    0 -0.24122353631E+01 -0.26120246715E+02 -0.87209327864E+02  0.91068946598E+02  0.00000000000E+00 0. -1.
          3    1    1    2  501    0 -0.26175032852E+02  0.65378558553E+01  0.52265755409E+02  0.58818237754E+02  0.00000000000E+00 0. -1.
<scales pt_clust_5="13000.00000" pt_clust_6="13000.00000" pt_clust_7="13000.00000" pt_clust_8="13000.00000" pt_clust_9="26.97918"></scales>
<clustering>
<clus scale="   26.979">  1  9  2 -1</clus>
<clus scale="   90.566">  5  6 -1 -1</clus>
<clus scale="   91.271">  7  8 -1 -1</clus>
<clus scale="  110.029">  2  5  1 -1</clus>
<clus scale="   26.979">  1  5  2 -1</clus>
</clustering>
</event>
<event>
 9    1  0.1315259E-005  0.9725850E+02  0.7546771E-02  0.1286772E+00
         21   -1    0    0  501  502  0.00000000000E+00  0.00000000000E+00  0.30697605796E+02  0.30697605796E+02  0.00000000000E+00 0. -1.
          2   -1    0    0  502    0 -0.00000000000E+00 -0.00000000000E+00 -0.64935962618E+03  0.64935962618E+03  0.00000000000E+00 0. -1.
         23    2    1    2    0    0  0.25536319423E+02  0.91302851182E+00 -0.26598538070E+03  0.28244619547E+03  0.91513350710E+02 0.  0.
         23    2    1    2    0    0 -0.30476493729E+02  0.60524547931E+02 -0.16400986405E+03  0.19913148252E+03  0.90344198786E+02 0.  0.
        -11    1    3    3    0    0  0.28623205071E+02 -0.42294181596E+02 -0.12762739335E+03  0.13746576737E+03  0.00000000000E+00 0.  1.
         11    1    3    3    0    0 -0.30868856477E+01  0.43207210107E+02 -0.13835798735E+03  0.14498042810E+03  0.00000000000E+00 0. -1.
        -13    1    4    4    0    0 -0.62713620103E+02  0.43403738075E+02 -0.10581593620E+03  0.13043732204E+03  0.00000000000E+00 0. -1.
         13    1    4    4    0    0  0.32237126374E+02  0.17120809856E+02 -0.58193927846E+02  0.68694160488E+02  0.00000000000E+00 0.  1.
          2    1    1    2  501    0  0.49401743058E+01 -0.61437576443E+02 -0.18866677563E+03  0.19847955398E+03  0.00000000000E+00 0. -1.
<scales pt_clust_5="13000.00000" pt_clust_6="13000.00000" pt_clust_7="13000.00000" pt_clust_8="13000.00000" pt_clust_9="61.63591"></scales>
<clustering>
<clus scale="   61.636">  1  9  2 -1</clus>
<clus scale="   90.344">  7  8 -1 -1</clus>
<clus scale="   91.513">  5  6 -1 -1</clus>
<clus scale="   96.159">  1  7  2 -1</clus>
<clus scale="   61.636">  1  5  2 -1</clus>
</clustering>
</event>
<event>
 9    1  0.1315259E-005  0.9556193E+02  0.7546771E-02  0.1291463E+00
         21   -1    0    0  501  502  0.00000000000E+00  0.00000000000E+00  0.21641037399E+03  0.21641037399E+03  0.00000000000E+00 0. -1.
         -2   -1    0    0    0  501 -0.00000000000E+00 -0.00000000000E+00 -0.11765311549E+03  0.11765311549E+03  0.00000000000E+00 0.  1.
         23    2    1    2    0    0 -0.24046036215E+02  0.34155533073E+00 -0.61636126248E+02  0.10970606200E+03  0.87510453456E+02 0.  0.
         23    2    1    2    0    0  0.65698119511E+02 -0.77678860566E+00  0.94249426833E+02  0.14619024358E+03  0.90397934443E+02 0.  0.
        -13    1    3    3    0    0  0.28231176448E+02  0.20269527617E+02 -0.21789671549E+02  0.41020029981E+02  0.00000000000E+00 0.  1.
         13    1    3    3    0    0 -0.52277212662E+02 -0.19927972286E+02 -0.39846454699E+02  0.68686032024E+02  0.00000000000E+00 0. -1.
        -13    1    4    4    0    0  0.44548441016E+02  0.39760442977E+02  0.28650943908E+02  0.66229396868E+02  0.00000000000E+00 0.  1.
         13    1    4    4    0    0  0.21149678495E+02 -0.40537231582E+02  0.65598482924E+02  0.79960846711E+02  0.00000000000E+00 0. -1.
         -2    1    1    2    0  502 -0.41652083296E+02  0.43523327493E+00  0.66143957915E+02  0.78167183905E+02  0.00000000000E+00 0.  1.
<scales pt_clust_5="13000.00000" pt_clust_6="13000.00000" pt_clust_7="13000.00000" pt_clust_8="13000.00000" pt_clust_9="41.65436"></scales>
<clustering>
<clus scale="   41.654">  1  9  2 -1</clus>
<clus scale="   87.510">  5  6 -1 -1</clus>
<clus scale="   90.398">  7  8 -1 -1</clus>
<clus scale="   92.835">  2  5  1 -1</clus>
<clus scale="   41.654">  1  5  2 -1</clus>
</clustering>
</event>
<event>
 9    1  0.1315259E-005  0.1969434E+03  0.7546771E-02  0.1176941E+00
          1   -1    0    0  502    0 -0.00000000000E+00  0.00000000000E+00  0.24332059760E+03  0.24332059760E+03  0.00000000000E+00 0. -1.
         21   -1    0    0  501  502  0.00000000000E+00 -0.00000000000E+00 -0.32930547250E+03  0.32930547250E+03  0.00000000000E+00 0.  1.
         23    2    1    2    0    0 -0.11157253723E+02  0.66828270190E+02 -0.15217288453E+03  0.18870954688E+03  0.88680348949E+02 0.  0.
         23    2    1    2    0    0 -0.12338470572E+03 -0.15415815771E+03  0.29199060442E+02  0.21930719643E+03  0.90854488494E+02 0.  0.
        -13    1    3    3    0    0 -0.41751888833E+02  0.22082472684E+02 -0.11102919996E+03  0.12065794240E+03  0.00000000000E+00 0.  1.
         13    1    3    3    0    0  0.30594635110E+02  0.44745797506E+02 -0.41143684573E+02  0.68051604479E+02  0.00000000000E+00 0. -1.
        -13    1    4    4    0    0 -0.25154602342E+02  0.27024124644E+01 -0.14470859001E+02  0.29145545326E+02  0.00000000000E+00 0. -1.
         13    1    4    4    0    0 -0.98230103378E+02 -0.15686057018E+03  0.43669919443E+02  0.19016165110E+03  0.00000000000E+00 0.  1.
          1    1    1    2  501    0  0.13454195944E+03  0.87329887521E+02  0.36988949185E+02  0.16460932679E+03  0.00000000000E+00 0. -1.
<scales pt_clust_5="13000.00000" pt_clust_6="13000.00000" pt_clust_7="13000.00000" pt_clust_8="13000.00000" pt_clust_9="174.73451"></scales>
<clustering>
<clus scale="   88.680">  5  6 -1 -1</clus>
<clus scale="   90.854">  7  8 -1 -1</clus>
<clus scale="  111.601">  1  5  2 -1</clus>
<clus scale="  174.735">  2  9  1 -1</clus>
<clus scale="  174.735">  2  5  1 -1</clus>
</clustering>
</event>
<event>
 9    1  0.1315259E-005  0.9244317E+02  0.7546771E-02  0.1297431E+00
         21   -1    0    0  501  502  0.00000000000E+00  0.00000000000E+00  0.21349158325E+03  0.21349158325E+03  0.00000000000E+00 0.  1.
          4   -1    0    0  502    0 -0.00000000000E+00 -0.00000000000E+00 -0.62448329214E+02  0.62448329214E+02  0.00000000000E+00 0. -1.
         23    2    1    2    0    0  0.97666548951E+00  0.10358661514E+02  0.15030631747E+02  0.92914386551E+02  0.91098340236E+02 0.  0.
         23    2    1    2    0    0  0.20066423801E+02 -0.23438069950E+02  0.92676048834E+02  0.13310617965E+03  0.90423451314E+02 0.  0.
        -13    1    4    4    0    0 -0.19577068461E+02 -0.21085603266E+02 -0.35656782160E+01  0.28992729016E+02  0.00000000000E+00 0.  1.
         13    1    4    4    0    0  0.39643492263E+02 -0.23524666834E+01  0.96241727050E+02  0.10411345064E+03  0.00000000000E+00 0. -1.
        -13    1    3    3    0    0 -0.29812251852E+02  0.37815322614E+02  0.18341762510E+02  0.51528528378E+02  0.00000000000E+00 0.  1.
         13    1    3    3    0    0  0.30788917341E+02 -0.27456661100E+02 -0.33111307630E+01  0.41385858173E+02  0.00000000000E+00 0. -1.
          4    1    1    2  501    0 -0.21043089291E+02  0.13079408436E+02  0.43336573453E+02  0.49919346256E+02  0.00000000000E+00 0. -1.
<scales pt_clust_5="13000.00000" pt_clust_6="13000.00000" pt_clust_7="13000.00000" pt_clust_8="13000.00000" pt_clust_9="24.77665"></scales>
<clustering>
<clus scale="   24.777">  1  9  2 -1</clus>
<clus scale="   90.423">  5  6 -1 -1</clus>
<clus scale="   91.098">  7  8 -1 -1</clus>
<clus scale="   91.778">  1  5  2 -1</clus>
<clus scale="   24.777">  1  5  2 -1</clus>
</clustering>
</event>
<event>
 9    1  0.1315259E-005  0.1118490E+03  0.7546771E-02  0.1257622E+00
          1   -1    0    0  502    0 -0.00000000000E+00  0.00000000000E+00  0.24445534360E+03  0.24445534360E+03  0.00000000000E+00 0. -1.
         21   -1    0    0  501  502  0.00000000000E+00 -0.00000000000E+00 -0.78930292715E+02  0.78930292715E+02  0.00000000000E+00 0.  1.
         23    2    1    2    0    0 -0.68463550100E+02  0.23387113531E+02  0.12683884954E+03  0.17229781237E+03  0.91456151361E+02 0.  0.
         23    2    1    2    0    0  0.44273750359E+02 -0.22992139324E+02  0.57999527160E+02  0.12013129039E+03  0.92621694755E+02 0.  0.
        -11    1    3    3    0    0 -0.34061746009E+01 -0.30991754967E+02  0.42445540354E+02  0.52666068747E+02  0.00000000000E+00 0.  1.
         11    1    3    3    0    0 -0.65057375499E+02  0.54378868498E+02  0.84393309186E+02  0.11963174362E+03  0.00000000000E+00 0. -1.
        -11    1    4    4    0    0  0.67815229754E+02 -0.11717774395E+02  0.15958276266E+02  0.70646147841E+02  0.00000000000E+00 0.  1.
         11    1    4    4    0    0 -0.23541479396E+02 -0.11274364929E+02  0.42041250894E+02  0.49485142552E+02  0.00000000000E+00 0. -1.
          1    1    1    2  501    0  0.24189799741E+02 -0.39497420651E+00 -0.19313325811E+02  0.30956533560E+02  0.00000000000E+00 0. -1.
<scales pt_clust_5="13000.00000" pt_clust_6="13000.00000" pt_clust_7="13000.00000" pt_clust_8="13000.00000" pt_clust_9="24.19302"></scales>
<clustering>
<clus scale="   24.193">  2  9  1 -1</clus>
<clus scale="   91.456">  5  6 -1 -1</clus>
<clus scale="   92.622">  7  8 -1 -1</clus>
<clus scale="  110.886">  1  5  2 -1</clus>
<clus scale="   24.193">  2  5  1 -1</clus>
</clustering>
</event>
<event>
 9    1  0.1315259E-005  0.1857932E+03  0.7546771E-02  0.1162380E+00
          1   -1    0    0  502    0 -0.00000000000E+00  0.00000000000E+00  0.53721983772E+03  0.53721983772E+03  0.00000000000E+00 0. -1.
         21   -1    0    0  501  502  0.00000000000E+00 -0.00000000000E+00 -0.89968217209E+02  0.89968217209E+02  0.00000000000E+00 0. -1.
         23    2    1    2    0    0 -0.99523952395E+02  0.11905455546E+03  0.16467350443E+03  0.24417155563E+03  0.91778980398E+02 0.  0.
         23    2    1    2    0    0  0.12781998775E+03 -0.11160099756E+03  0.14289838324E+03  0.24030473065E+03  0.92377939558E+02 0.  0.
        -13    1    4    4    0    0 -0.63172396679E+01 -0.19501226898E+02  0.47388851316E+02  0.51632437446E+02  0.00000000000E+00 0.  1.
         13    1    4    4    0    0  0.13413722742E+03 -0.92099770660E+02  0.95509531920E+02  0.18867229321E+03  0.00000000000E+00 0. -1.
        -13    1    3    3    0    0 -0.10447653676E+03  0.81880947860E+02  0.15752361694E+03  0.20599399567E+03  0.00000000000E+00 0.  1.
         13    1    3    3    0    0  0.49525843689E+01  0.37173607599E+02  0.71498874899E+01  0.38177559966E+02  0.00000000000E+00 0. -1.
          1    1    1    2  501    0 -0.28296035359E+02 -0.74535579003E+01  0.13967973284E+03  0.14271176865E+03  0.00000000000E+00 0. -1.
<scales pt_clust_5="13000.00000" pt_clust_6="13000.00000" pt_clust_7="13000.00000" pt_clust_8="13000.00000" pt_clust_9="29.26127"></scales>
<clustering>
<clus scale="   29.261">  2  9  1 -1</clus>
<clus scale="   91.779">  7  8 -1 -1</clus>
<clus scale="   92.378">  5  6 -1 -1</clus>
<clus scale="  185.496">  1  7  2 -1</clus>
<clus scale="   29.261">  2  5  1 -1</clus>
</clustering>
</event>
<event>
 9    1  0.1315259E-005  0.1078258E+03  0.7546771E-02  0.1270783E+00
         21   -1    0    0  501  502  0.00000000000E+00  0.00000000000E+00  0.46838138966E+02  0.46838138966E+02  0.00000000000E+00 0.  1.
          1   -1    0    0  502    0 -0.00000000000E+00 -0.00000000000E+00 -0.43898608124E+03  0.43898608124E+03  0.00000000000E+00 0. -1.
         23    2    1    2    0    0 -0.48414198489E+02 -0.10108417616E+02 -0.24898843946E+03  0.26951826348E+03  0.90546875391E+02 0.  0.
         23    2    1    2    0    0 -0.28336956353E+01 -0.58988328274E+00 -0.12195196096E+03  0.15982091335E+03  0.10325727949E+03 0.  0.
        -11    1    3    3    0    0 -0.21070539807E+02 -0.50205325505E+02 -0.12338353803E+03  0.13486304095E+03  0.00000000000E+00 0. -1.
         11    1    3    3    0    0 -0.27343658682E+02  0.40096907888E+02 -0.12560490143E+03  0.13465522253E+03  0.00000000000E+00 0.  1.
        -13    1    4    4    0    0 -0.28088073816E+01 -0.23490238318E+02 -0.13250899962E+03  0.13460429293E+03  0.00000000000E+00 0. -1.
         13    1    4    4    0    0 -0.24888253640E-01  0.22900355035E+02  0.10557038655E+02  0.25216620418E+02  0.00000000000E+00 0.  1.
          1    1    1    2  501    0  0.51247894124E+02  0.10698300899E+02 -0.21207541853E+02  0.56485043381E+02  0.00000000000E+00 0. -1.
<scales pt_clust_5="13000.00000" pt_clust_6="13000.00000" pt_clust_7="13000.00000" pt_clust_8="13000.00000" pt_clust_9="52.35265"></scales>
<clustering>
<clus scale="   52.353">  1  9  2 -1</clus>
<clus scale="   90.547">  5  6 -1 -1</clus>
<clus scale="   95.724">  2  5  1 -1</clus>
<clus scale="  103.257">  7  8 -1 -1</clus>
<clus scale="   52.353">  1  5  2 -1</clus>
</clustering>
</event>
<event>
 9    1  0.1315259E-005  0.9705807E+02  0.7546771E-02  0.1289788E+00
         21   -1    0    0  501  502  0.00000000000E+00  0.00000000000E+00  0.28739039415E+02  0.28739039415E+02  0.00000000000E+00 0.  1.
          2   -1    0    0  502    0 -0.00000000000E+00 -0.00000000000E+00 -0.45985568496E+03  0.45985568496E+03  0.00000000000E+00 0. -1.
         23    2    1    2    0    0 -0.69253076611E+01  0.19061980656E+02 -0.26520639394E+03  0.28289234818E+03  0.96344850819E+02 0.  0.
         23    2    1    2    0    0  0.46986724910E+00  0.57119474551E+01 -0.10059123437E+03  0.13554545039E+03  0.90670422806E+02 0.  0.
        -13    1    3    3    0    0 -0.34360879660E+02  0.45020637192E+02 -0.11755160383E+03  0.13048336058E+03  0.00000000000E+00 0.  1.
         13    1    3    3    0    0  0.27435571999E+02 -0.25958656536E+02 -0.14765479011E+03  0.15240898760E+03  0.00000000000E+00 0. -1.
        -13    1    4    4    0    0 -0.35931800053E+02  0.20839241017E+02 -0.20592447258E+02  0.46361806536E+02  0.00000000000E+00 0.  1.
         13    1    4    4    0    0  0.36401667302E+02 -0.15127293562E+02 -0.79998787107E+02  0.89183643856E+02  0.00000000000E+00 0. -1.
          2    1    1    2  501    0  0.64554404120E+01 -0.24773928111E+02 -0.65319017236E+02  0.70156925800E+02  0.00000000000E+00 0. -1.
<scales pt_clust_5="13000.00000" pt_clust_6="13000.00000" pt_clust_7="13000.00000" pt_clust_8="13000.00000" pt_clust_9="25.60119"></scales>
<clustering>
<clus scale="   25.601">  1  9  2 -1</clus>
<clus scale="   90.670">  7  8 -1 -1</clus>
<clus scale="   91.428">  1  7  2 -1</clus>
<clus scale="   96.345">  5  6 -1 -1</clus>
<clus scale="   25.601">  1  5  2 -1</clus>
</clustering>
</event>
<event>
 9    1  0.1315259E-005  0.1169003E+03  0.7546771E-02  0.1250297E+00
          1   -1    0    0  502    0 -0.00000000000E+00  0.00000000000E+00  0.44688864000E+03  0.44688864000E+03  0.00000000000E+00 0. -1.
         21   -1    0    0  501  502  0.00000000000E+00 -0.00000000000E+00 -0.60169804535E+02  0.60169804535E+02  0.00000000000E+00 0.  1.
         23    2    1    2    0    0  0.53574792899E+02 -0.64998852069E+02  0.21950783965E+03  0.25436871371E+03  0.97080593537E+02 0.  0.
         23    2    1    2    0    0 -0.52580449258E+02 -0.10675203462E+02  0.61313340872E+02  0.12252881226E+03  0.91516776887E+02 0.  0.
        -11    1    3    3    0    0  0.18156157151E+02  0.21426725610E+02  0.92796308872E+02  0.96953110075E+02  0.00000000000E+00 0. -1.
         11    1    3    3    0    0  0.35418635748E+02 -0.86425577679E+02  0.12671153077E+03  0.15741560363E+03  0.00000000000E+00 0.  1.
        -13    1    4    4    0    0 -0.67132654925E+02 -0.27588315060E+02  0.19530927636E+02  0.75162261937E+02  0.00000000000E+00 0.  1.
         13    1    4    4    0    0  0.14552205667E+02  0.16913111598E+02  0.41782413236E+02  0.47366550323E+02  0.00000000000E+00 0. -1.
          1    1    1    2  501    0 -0.99434364138E+00  0.75674055531E+02  0.10589765495E+03  0.13016091857E+03  0.00000000000E+00 0. -1.
<scales pt_clust_5="13000.00000" pt_clust_6="13000.00000" pt_clust_7="13000.00000" pt_clust_8="13000.00000" pt_clust_9="75.68063"></scales>
<clustering>
<clus scale="   75.681">  2  9  1 -1</clus>
<clus scale="   91.517">  7  8 -1 -1</clus>
<clus scale="   97.081">  5  6 -1 -1</clus>
<clus scale="  112.323">  2  7  1 -1</clus>
<clus scale="   75.681">  2  5  1 -1</clus>
</clustering>
</event>
<event>
 9    1  0.1315259E-005  0.9497209E+02  0.7546771E-02  0.1291325E+00
          1   -1    0    0  502    0 -0.00000000000E+00  0.00000000000E+00  0.50438430596E+03  0.50438430596E+03  0.00000000000E+00 0. -1.
         21   -1    0    0  501  502  0.00000000000E+00 -0.00000000000E+00 -0.11767446326E+03  0.11767446326E+03  0.00000000000E+00 0. -1.
         23    2    1    2    0    0  0.12303411797E+02  0.19937117867E+02  0.35552155678E+03  0.36768553387E+03  0.90819666769E+02 0.  0.
         23    2    1    2    0    0 -0.30212065456E+01 -0.43625240428E+02  0.12309569605E+03  0.15900941348E+03  0.90659549405E+02 0.  0.
        -13    1    4    4    0    0  0.32989701990E+02 -0.43125421034E+02  0.10610014288E+03  0.11918625212E+03  0.00000000000E+00 0. -1.
         13    1    4    4    0    0 -0.36010908536E+02 -0.49981939337E+00  0.16995553177E+02  0.39823161361E+02  0.00000000000E+00 0.  1.
        -13    1    3    3    0    0  0.30358984965E+02  0.49977816694E+02  0.20860026066E+03  0.21664145235E+03  0.00000000000E+00 0.  1.
         13    1    3    3    0    0 -0.18055573168E+02 -0.30040698827E+02  0.14692129612E+03  0.15104408152E+03  0.00000000000E+00 0. -1.
          1    1    1    2  501    0 -0.92822052519E+01  0.23688122560E+02 -0.91907410125E+02  0.95363821865E+02  0.00000000000E+00 0. -1.
<scales pt_clust_5="13000.00000" pt_clust_6="13000.00000" pt_clust_7="13000.00000" pt_clust_8="13000.00000" pt_clust_9="25.44183"></scales>
<clustering>
<clus scale="   25.442">  2  9  1 -1</clus>
<clus scale="   90.660">  5  6 -1 -1</clus>
<clus scale="   90.820">  7  8 -1 -1</clus>
<clus scale="   94.819">  2  5  1 -1</clus>
<clus scale="   25.442">  2  5  1 -1</clus>
</clustering>
</event>
<event>
 9    1  0.1315259E-005  0.9032243E+02  0.7546771E-02  0.1303325E+00
         21   -1    0    0  501  502  0.00000000000E+00  0.00000000000E+00  0.20483204003E+02  0.20483204003E+02  0.00000000000E+00 0.  1.
         -1   -1    0    0    0  501 -0.00000000000E+00 -0.00000000000E+00 -0.63781530488E+03  0.63781530488E+03  0.00000000000E+00 0.  1.
         23    2    1    2    0    0 -0.53725262372E+01  0.40333543448E+01 -0.41813051190E+03  0.42774727307E+03  0.89941495742E+02 0.  0.
         23    2    1    2    0    0 -0.14040912988E+02 -0.19476035240E+02 -0.15136947872E+03  0.17666924636E+03  0.87879692383E+02 0.  0.
        -11    1    4    4    0    0  0.34271623642E+02 -0.35141070245E+01 -0.32473973996E+02  0.47343976621E+02  0.00000000000E+00 0. -1.
         11    1    4    4    0    0 -0.48312536630E+02 -0.15961928216E+02 -0.11889550473E+03  0.12932526974E+03  0.00000000000E+00 0.  1.
        -11    1    3    3    0    0 -0.19889081764E+02 -0.38971996297E+02 -0.17279976793E+03  0.17825305569E+03  0.00000000000E+00 0.  1.
         11    1    3    3    0    0  0.14516555527E+02  0.43005350642E+02 -0.24533074397E+03  0.24949421738E+03  0.00000000000E+00 0. -1.
         -1    1    1    2    0  502  0.19413439225E+02  0.15442680896E+02 -0.47832110254E+02  0.53881989451E+02  0.00000000000E+00 0.  1.
<scales pt_clust_5="13000.00000" pt_clust_6="13000.00000" pt_clust_7="13000.00000" pt_clust_8="13000.00000" pt_clust_9="24.80641"></scales>
<clustering>
<clus scale="   24.806">  1  9  2 -1</clus>
<clus scale="   87.880">  5  6 -1 -1</clus>
<clus scale="   88.270">  1  5  2 -1</clus>
<clus scale="   89.941">  7  8 -1 -1</clus>
<clus scale="   24.806">  1  5  2 -1</clus>
</clustering>
</event>
<event>
 9    1  0.1315259E-005  0.1256468E+03  0.7546771E-02  0.1235609E+00
         21   -1    0    0  501  502  0.00000000000E+00  0.00000000000E+00  0.19095496226E+03  0.19095496226E+03  0.00000000000E+00 0. -1.
          2   -1    0    0  502    0 -0.00000000000E+00 -0.00000000000E+00 -0.13688898584E+03  0.13688898584E+03  0.00000000000E+00 0. -1.
         23    2    1    2    0    0 -0.73110350593E+02  0.51702524664E+02 -0.59616443880E+01  0.12389894299E+03  0.85423254732E+02 0.  0.
         23    2    1    2    0    0  0.37702695319E+02 -0.81736679842E+02 -0.14572210022E+00  0.12794116490E+03  0.90920527801E+02 0.  0.
        -11    1    4    4    0    0  0.66487373170E+02 -0.56156859798E+02 -0.11518588600E+02  0.87788618720E+02  0.00000000000E+00 0. -1.
         11    1    4    4    0    0 -0.28784677851E+02 -0.25579820044E+02  0.11372866499E+02  0.40152546182E+02  0.00000000000E+00 0.  1.
        -13    1    3    3    0    0 -0.36929002364E+01  0.42754562386E+02  0.22365433676E+02  0.48392176439E+02  0.00000000000E+00 0.  1.
         13    1    3    3    0    0 -0.69417450357E+02  0.89479622784E+01 -0.28327078064E+02  0.75506766549E+02  0.00000000000E+00 0. -1.
          2    1    1    2  501    0  0.35407655274E+02  0.30034155178E+02  0.60173342912E+02  0.76003840209E+02  0.00000000000E+00 0. -1.
<scales pt_clust_5="13000.00000" pt_clust_6="13000.00000" pt_clust_7="13000.00000" pt_clust_8="13000.00000" pt_clust_9="46.43008"></scales>
<clustering>
<clus scale="   46.430">  1  9  2 -1</clus>
<clus scale="   85.423">  7  8 -1 -1</clus>
<clus scale="   90.921">  5  6 -1 -1</clus>
<clus scale="  121.728">  2  7  1 -1</clus>
<clus scale="   46.430">  1  5  2 -1</clus>
</clustering>
</event>
<event>
 9    1  0.1315259E-005  0.1190729E+03  0.7546771E-02  0.1245532E+00
         21   -1    0    0  501  502  0.00000000000E+00  0.00000000000E+00  0.27430763460E+03  0.27430763460E+03  0.00000000000E+00 0.  1.
         -2   -1    0    0    0  501 -0.00000000000E+00 -0.00000000000E+00 -0.76969972728E+02  0.76969972728E+02  0.00000000000E+00 0.  1.
         23    2    1    2    0    0 -0.14154902567E+02  0.63694621795E+02  0.28536891209E+02  0.11680458483E+03  0.92582885920E+02 0.  0.
         23    2    1    2    0    0  0.22561462183E+02 -0.84695000248E+02  0.16766693306E+03  0.21182414333E+03  0.95262818634E+02 0.  0.
        -11    1    3    3    0    0 -0.32244742151E+02 -0.11455452939E+02 -0.53024054006E+00  0.34223266260E+02  0.00000000000E+00 0. -1.
         11    1    3    3    0    0  0.18089839584E+02  0.75150074735E+02  0.29067131749E+02  0.82581318571E+02  0.00000000000E+00 0.  1.
        -13    1    4    4    0    0  0.33572582492E+02 -0.10249589222E+03  0.13189533518E+03  0.17037871246E+03  0.00000000000E+00 0.  1.
         13    1    4    4    0    0 -0.11011120308E+02  0.17800891971E+02  0.35771597883E+02  0.41445430876E+02  0.00000000000E+00 0. -1.
         -2    1    1    2    0  502 -0.84065596164E+01  0.21000378453E+02  0.11338376049E+01  0.22648879166E+02  0.00000000000E+00 0.  1.
<scales pt_clust_5="13000.00000" pt_clust_6="13000.00000" pt_clust_7="13000.00000" pt_clust_8="13000.00000" pt_clust_9="22.62049"></scales>
<clustering>
<clus scale="   22.620">  1  9  2 -1</clus>
<clus scale="   92.583">  5  6 -1 -1</clus>
<clus scale="   95.263">  7  8 -1 -1</clus>
<clus scale="  116.940">  2  5  1 -1</clus>
<clus scale="   22.620">  1  5  2 -1</clus>
</clustering>
</event>
<event>
 9    1  0.1315259E-005  0.9851936E+02  0.7546771E-02  0.1286559E+00
          4   -1    0    0  502    0 -0.00000000000E+00  0.00000000000E+00  0.17904613994E+03  0.17904613994E+03  0.00000000000E+00 0. -1.
         21   -1    0    0  501  502  0.00000000000E+00 -0.00000000000E+00 -0.12350349786E+03  0.12350349786E+03  0.00000000000E+00 0.  1.
         23    2    1    2    0    0 -0.27987785759E+02 -0.10183272520E+02  0.90614543576E+02  0.13155485750E+03  0.90601709879E+02 0.  0.
         23    2    1    2    0    0  0.67375607856E+02 -0.20735291837E+02 -0.24481690070E+00  0.11000064966E+03  0.84443224289E+02 0.  0.
        -13    1    3    3    0    0 -0.26125882787E+02  0.29526550656E+02  0.81844554870E+02  0.90845528822E+02  0.00000000000E+00 0. -1.
         13    1    3    3    0    0 -0.18619029718E+01 -0.39709823176E+02  0.87699887056E+01  0.40709328676E+02  0.00000000000E+00 0.  1.
        -13    1    4    4    0    0  0.67084002077E+02 -0.42439202252E+02 -0.18649466207E+02  0.81542331413E+02  0.00000000000E+00 0.  1.
         13    1    4    4    0    0  0.29160577823E+00  0.21703910415E+02  0.18404649307E+02  0.28458318245E+02  0.00000000000E+00 0. -1.
          4    1    1    2  501    0 -0.39387822096E+02  0.30918564357E+02 -0.34827084596E+02  0.60994130643E+02  0.00000000000E+00 0. -1.
<scales pt_clust_5="13000.00000" pt_clust_6="13000.00000" pt_clust_7="13000.00000" pt_clust_8="13000.00000" pt_clust_9="50.07353"></scales>
<clustering>
<clus scale="   50.074">  2  9  1 -1</clus>
<clus scale="   84.443">  7  8 -1 -1</clus>
<clus scale="   90.602">  5  6 -1 -1</clus>
<clus scale="   92.887">  2  7  1 -1</clus>
<clus scale="   50.074">  2  5  1 -1</clus>
</clustering>
</event>
<event>
 9    1  0.1315259E-005  0.9475715E+02  0.7546771E-02  0.1292032E+00
         -1   -1    0    0    0  501 -0.00000000000E+00  0.00000000000E+00  0.14599257976E+03  0.14599257976E+03  0.00000000000E+00 0.  1.
         21   -1    0    0  501  502  0.00000000000E+00 -0.00000000000E+00 -0.23256613647E+03  0.23256613647E+03  0.00000000000E+00 0. -1.
         23    2    1    2    0    0  0.17873407059E+02 -0.15174479638E+02  0.10862778613E+03  0.14433557326E+03  0.92103410773E+02 0.  0.
         23    2    1    2    0    0  0.95813514657E+01  0.28239315882E+02 -0.12547832706E+03  0.15815900791E+03  0.91543432121E+02 0.  0.
        -11    1    3    3    0    0  0.25169930364E+02  0.32220555480E+02  0.24968579868E+02  0.47907406218E+02  0.00000000000E+00 0. -1.
         11    1    3    3    0    0 -0.72965233049E+01 -0.47395035118E+02  0.83659206262E+02  0.96428167039E+02  0.00000000000E+00 0.  1.
        -11    1    4    4    0    0  0.29647525299E+02  0.34114732226E+02 -0.12923953626E+03  0.13691474882E+03  0.00000000000E+00 0. -1.
         11    1    4    4    0    0 -0.20066173833E+02 -0.58754163442E+01  0.37612092064E+01  0.21244259089E+02  0.00000000000E+00 0.  1.
         -1    1    1    2    0  502 -0.27454758525E+02 -0.13064836244E+02 -0.69723015787E+02  0.76064135059E+02  0.00000000000E+00 0.  1.
<scales pt_clust_5="13000.00000" pt_clust_6="13000.00000" pt_clust_7="13000.00000" pt_clust_8="13000.00000" pt_clust_9="30.40483"></scales>
<clustering>
<clus scale="   30.405">  2  9  1 -1</clus>
<clus scale="   91.543">  7  8 -1 -1</clus>
<clus scale="   92.103">  5  6 -1 -1</clus>
<clus scale="   94.213">  2  7  1 -1</clus>
<clus scale="   30.405">  2  5  1 -1</clus>
</clustering>
</event>
<event>
 9    1  0.1315259E-005  0.1069432E+03  0.7546771E-02  0.1266382E+00
          4   -1    0    0  502    0 -0.00000000000E+00  0.00000000000E+00  0.14056177903E+03  0.14056177903E+03  0.00000000000E+00 0. -1.
         21   -1    0    0  501  502  0.00000000000E+00 -0.00000000000E+00 -0.21172010618E+03  0.21172010618E+03  0.00000000000E+00 0. -1.
         23    2    1    2    0    0 -0.51489392981E+02  0.46316716626E+02  0.44243254991E+02  0.12254627519E+03  0.90905050033E+02 0.  0.
         23    2    1    2    0    0  0.26485128796E+02 -0.31794209459E+02  0.10526113831E+02  0.10053072988E+03  0.91012607781E+02 0.  0.
        -13    1    3    3    0    0 -0.34485110696E+02 -0.18935890766E+02 -0.41300676200E+01  0.39558163220E+02  0.00000000000E+00 0.  1.
         13    1    3    3    0    0 -0.17004282286E+02  0.65252607392E+02  0.48373322611E+02  0.82988111967E+02  0.00000000000E+00 0. -1.
        -13    1    4    4    0    0  0.70439619461E+01  0.31691429988E+02 -0.35532634208E+01  0.32658686678E+02  0.00000000000E+00 0. -1.
         13    1    4    4    0    0  0.19441166850E+02 -0.63485639446E+02  0.14079377252E+02  0.67872043200E+02  0.00000000000E+00 0.  1.
          4    1    1    2  501    0  0.25004264185E+02 -0.14522507167E+02 -0.12592769597E+03  0.12920488015E+03  0.00000000000E+00 0. -1.
<scales pt_clust_5="13000.00000" pt_clust_6="13000.00000" pt_clust_7="13000.00000" pt_clust_8="13000.00000" pt_clust_9="28.91568"></scales>
<clustering>
<clus scale="   28.916">  2  9  1 -1</clus>
<clus scale="   90.905">  5  6 -1 -1</clus>
<clus scale="   91.013">  7  8 -1 -1</clus>
<clus scale="  106.852">  1  5  2 -1</clus>
<clus scale="   28.916">  2  5  1 -1</clus>
</clustering>
</event>
<event>
 9    1  0.1315259E-005  0.9226804E+02  0.7546771E-02  0.1309785E+00
         21   -1    0    0  501  502  0.00000000000E+00  0.00000000000E+00  0.52418387029E+02  0.52418387029E+02  0.00000000000E+00 0.  1.
          3   -1    0    0  502    0 -0.00000000000E+00 -0.00000000000E+00 -0.38629639921E+03  0.38629639921E+03  0.00000000000E+00 0. -1.
         23    2    1    2    0    0 -0.18430392901E+02  0.39184989248E+02 -0.20217187559E+03  0.21762606819E+03  0.67915355512E+02 0.  0.
         23    2    1    2    0    0 -0.28897260646E+02 -0.80517918978E+01 -0.13559812262E+03  0.16430553107E+03  0.87804177904E+02 0.  0.
        -13    1    3    3    0    0  0.52131128323E+01  0.52612459913E+02 -0.14442658485E+03  0.15379949901E+03  0.00000000000E+00 0. -1.
         13    1    3    3    0    0 -0.23643505733E+02 -0.13427470665E+02 -0.57745290738E+02  0.63826569187E+02  0.00000000000E+00 0.  1.
        -13    1    4    4    0    0  0.30813234448E+01  0.36813850956E+02 -0.64855548431E+02  0.74639107301E+02  0.00000000000E+00 0.  1.
         13    1    4    4    0    0 -0.31978584091E+02 -0.44865642854E+02 -0.70742574190E+02  0.89666423773E+02  0.00000000000E+00 0. -1.
          3    1    1    2  501    0  0.47327653547E+02 -0.31133197350E+02  0.38919860272E+01  0.56783186972E+02  0.00000000000E+00 0. -1.
<scales pt_clust_5="13000.00000" pt_clust_6="13000.00000" pt_clust_7="13000.00000" pt_clust_8="13000.00000" pt_clust_9="56.64965"></scales>
<clustering>
<clus scale="   56.650">  1  9  2 -1</clus>
<clus scale="   67.915">  5  6 -1 -1</clus>
<clus scale="   73.596">  2  5  1 -1</clus>
<clus scale="   87.804">  7  8 -1 -1</clus>
<clus scale="   56.650">  1  5  2 -1</clus>
</clustering>
</event>
<event>
 9    1  0.1315259E-005  0.9497631E+02  0.7546771E-02  0.1291806E+00
         21   -1    0    0  501  502  0.00000000000E+00  0.00000000000E+00  0.43311854841E+02  0.43311854841E+02  0.00000000000E+00 0.  1.
          1   -1    0    0  502    0 -0.00000000000E+00 -0.00000000000E+00 -0.33295595718E+03  0.33295595718E+03  0.00000000000E+00 0. -1.
         23    2    1    2    0    0 -0.11144032109E+02 -0.24514830376E+02 -0.20677553184E+03  0.22791467492E+03  0.91998978873E+02 0.  0.
         23    2    1    2    0    0 -0.13682128386E+02  0.21042010575E+02 -0.78862139488E+02  0.12296711316E+03  0.90948925380E+02 0.  0.
        -11    1    4    4    0    0 -0.17432923485E+02 -0.23715030758E+02  0.30078288925E+01  0.29586424923E+02  0.00000000000E+00 0.  1.
         11    1    4    4    0    0  0.37507950993E+01  0.44757041333E+02 -0.81869968381E+02  0.93380688236E+02  0.00000000000E+00 0. -1.
        -13    1    3    3    0    0 -0.51261324723E+02 -0.17351605159E+02 -0.13382293104E+03  0.14435157944E+03  0.00000000000E+00 0.  1.
         13    1    3    3    0    0  0.40117292615E+02 -0.71632252162E+01 -0.72952600803E+02  0.83563095480E+02  0.00000000000E+00 0. -1.
          1    1    1    2  501    0  0.24826160494E+02  0.34728198008E+01 -0.40064310055E+01  0.25386023943E+02  0.00000000000E+00 0. -1.
<scales pt_clust_5="13000.00000" pt_clust_6="13000.00000" pt_clust_7="13000.00000" pt_clust_8="13000.00000" pt_clust_9="25.06788"></scales>
<clustering>
<clus scale="   25.068">  1  9  2 -1</clus>
<clus scale="   90.949">  5  6 -1 -1</clus>
<clus scale="   91.999">  7  8 -1 -1</clus>
<clus scale="   93.960">  1  5  2 -1</clus>
<clus scale="   25.068">  1  5  2 -1</clus>
</clustering>
</event>
<event>
 9    1  0.1315259E-005  0.1710052E+03  0.7546771E-02  0.1197838E+00
         -1   -1    0    0    0  501 -0.00000000000E+00  0.00000000000E+00  0.81866705261E+02  0.81866705261E+02  0.00000000000E+00 0.  1.
         21   -1    0    0  501  502  0.00000000000E+00 -0.00000000000E+00 -0.81180603214E+03  0.81180603214E+03  0.00000000000E+00 0. -1.
         23    2    1    2    0    0 -0.21128091423E+02  0.53638961305E+02 -0.17155396095E+02  0.10857089809E+03  0.90386934235E+02 0.  0.
         23    2    1    2    0    0 -0.90246118035E+02 -0.12894317300E+03 -0.51421850603E+03  0.54530366013E+03  0.90358763376E+02 0.  0.
        -11    1    3    3    0    0  0.22064481076E+02  0.38580251079E+02 -0.37838501404E+02  0.58369763465E+02  0.00000000000E+00 0. -1.
         11    1    3    3    0    0 -0.43192572498E+02  0.15058710225E+02  0.20683105309E+02  0.50201134627E+02  0.00000000000E+00 0.  1.
        -13    1    4    4    0    0 -0.72472218161E+02 -0.37284030131E+02 -0.31369256448E+03  0.32410699826E+03  0.00000000000E+00 0.  1.
         13    1    4    4    0    0 -0.17773899874E+02 -0.91659142868E+02 -0.20052594155E+03  0.22119666187E+03  0.00000000000E+00 0. -1.
         -1    1    1    2    0  502  0.11137420946E+03  0.75304211694E+02 -0.19856542475E+03  0.23979817918E+03  0.00000000000E+00 0.  1.
<scales pt_clust_5="13000.00000" pt_clust_6="13000.00000" pt_clust_7="13000.00000" pt_clust_8="13000.00000" pt_clust_9="145.18296"></scales>
<clustering>
<clus scale="   90.359">  7  8 -1 -1</clus>
<clus scale="   90.387">  5  6 -1 -1</clus>
<clus scale="  107.207">  1  5  2 -1</clus>
<clus scale="  145.183">  2  9  1 -1</clus>
<clus scale="  145.183">  2  5  1 -1</clus>
</clustering>
</event>
<event>
 9    1  0.1315259E-005  0.9884763E+02  0.7546771E-02  0.1285018E+00
          1   -1    0    0  502    0 -0.00000000000E+00  0.00000000000E+00  0.95048446928E+02  0.95048446928E+02  0.00000000000E+00 0. -1.
         21   -1    0    0  501  502  0.00000000000E+00 -0.00000000000E+00 -0.23226784088E+03  0.23226784088E+03  0.00000000000E+00 0.  1.
         23    2    1    2    0    0 -0.31254197577E+02  0.19448929600E+02  0.24067840349E+02  0.96092554670E+02  0.85436715733E+02 0.  0.
         23    2    1    2    0    0  0.16188127713E+02 -0.68453912794E+02 -0.11592060089E+03  0.16276494067E+03  0.90038028330E+02 0.  0.
        -13    1    3    3    0    0 -0.19906832555E+02  0.36878163457E+02  0.48440269226E+02  0.64052639328E+02  0.00000000000E+00 0. -1.
         13    1    3    3    0    0 -0.11347365023E+02 -0.17429233856E+02 -0.24372428876E+02  0.32039915342E+02  0.00000000000E+00 0.  1.
        -13    1    4    4    0    0 -0.36347644974E+02 -0.28347567612E+02 -0.32822447428E+02  0.56586649838E+02  0.00000000000E+00 0. -1.
         13    1    4    4    0    0  0.52535772687E+02 -0.40106345183E+02 -0.83098153458E+02  0.10617829083E+03  0.00000000000E+00 0.  1.
          1    1    1    2  501    0  0.15066069865E+02  0.49004983194E+02 -0.45366633417E+02  0.68458792472E+02  0.00000000000E+00 0. -1.
<scales pt_clust_5="13000.00000" pt_clust_6="13000.00000" pt_clust_7="13000.00000" pt_clust_8="13000.00000" pt_clust_9="51.26865"></scales>
<clustering>
<clus scale="   51.269">  2  9  1 -1</clus>
<clus scale="   85.437">  5  6 -1 -1</clus>
<clus scale="   90.038">  7  8 -1 -1</clus>
<clus scale="   94.675">  1  5  2 -1</clus>
<clus scale="   51.269">  2  5  1 -1</clus>
</clustering>
</event>
<event>
 9    1  0.1315259E-005  0.1167530E+03  0.7546771E-02  0.1249460E+00
         21   -1    0    0  501  502  0.00000000000E+00  0.00000000000E+00  0.17401396652E+03  0.17401396652E+03  0.00000000000E+00 0. -1.
          3   -1    0    0  502    0 -0.00000000000E+00 -0.00000000000E+00 -0.13209852884E+03  0.13209852884E+03  0.00000000000E+00 0. -1.
         23    2    1    2    0    0 -0.86631471356E+02 -0.61845978660E+01 -0.28702341353E+02  0.12970207838E+03  0.91954030125E+02 0.  0.
         23    2    1    2    0    0  0.50465163987E+02  0.26696837191E+02  0.15078909197E+02  0.10703232381E+03  0.89269765010E+02 0.  0.
        -11    1    4    4    0    0  0.10028427627E+02 -0.32541498861E+02  0.18754789345E+01  0.34103312596E+02  0.00000000000E+00 0.  1.
         11    1    4    4    0    0  0.40436736360E+02  0.59238336052E+02  0.13203430263E+02  0.72929011212E+02  0.00000000000E+00 0. -1.
        -13    1    3    3    0    0 -0.68081754262E+02  0.29368804512E+02 -0.44642830412E+02  0.86548450299E+02  0.00000000000E+00 0. -1.
         13    1    3    3    0    0 -0.18549717093E+02 -0.35553402378E+02  0.15940489059E+02  0.43153628079E+02  0.00000000000E+00 0.  1.
          3    1    1    2  501    0  0.36166307369E+02 -0.20512239325E+02  0.55538869832E+02  0.69378093179E+02  0.00000000000E+00 0. -1.
<scales pt_clust_5="13000.00000" pt_clust_6="13000.00000" pt_clust_7="13000.00000" pt_clust_8="13000.00000" pt_clust_9="41.57828"></scales>
<clustering>
<clus scale="   41.578">  1  9  2 -1</clus>
<clus scale="   89.270">  5  6 -1 -1</clus>
<clus scale="   91.954">  7  8 -1 -1</clus>
<clus scale="  114.651">  1  5  2 -1</clus>
<clus scale="   41.578">  1  5  2 -1</clus>
</clustering>
</event>
<event>
 9    1  0.1315259E-005  0.9573175E+02  0.7546771E-02  0.1290847E+00
         21   -1    0    0  501  502  0.00000000000E+00  0.00000000000E+00  0.96887930777E+02  0.96887930777E+02  0.00000000000E+00 0. -1.
          1   -1    0    0  502    0 -0.00000000000E+00 -0.00000000000E+00 -0.30349423272E+03  0.30349423272E+03  0.00000000000E+00 0. -1.
         23    2    1    2    0    0  0.88779491983E+00  0.21772847994E+02 -0.19348554554E+03  0.21486188027E+03  0.90852221605E+02 0.  0.
         23    2    1    2    0    0 -0.28728918871E+02 -0.14776196484E+02 -0.70560007065E+02  0.12130697593E+03  0.93236157421E+02 0.  0.
        -11    1    4    4    0    0 -0.49734195850E+02  0.22895894905E+02 -0.31790992446E+02  0.63311763844E+02  0.00000000000E+00 0. -1.
         11    1    4    4    0    0  0.21005276978E+02 -0.37672091389E+02 -0.38769014620E+02  0.57995212088E+02  0.00000000000E+00 0.  1.
        -11    1    3    3    0    0 -0.23208304713E+02 -0.13893948919E+02 -0.14335175812E+02  0.30613142436E+02  0.00000000000E+00 0.  1.
         11    1    3    3    0    0  0.24096099633E+02  0.35666796914E+02 -0.17915036973E+03  0.18424873784E+03  0.00000000000E+00 0. -1.
          1    1    1    2  501    0  0.27841123951E+02 -0.69966515106E+01  0.57439250670E+02  0.64213307288E+02  0.00000000000E+00 0. -1.
<scales pt_clust_5="13000.00000" pt_clust_6="13000.00000" pt_clust_7="13000.00000" pt_clust_8="13000.00000" pt_clust_9="28.70682"></scales>
<clustering>
<clus scale="   28.707">  1  9  2 -1</clus>
<clus scale="   90.852">  7  8 -1 -1</clus>
<clus scale="   93.236">  5  6 -1 -1</clus>
<clus scale="   93.412">  2  7  1 -1</clus>
<clus scale="   28.707">  1  5  2 -1</clus>
</clustering>
</event>
<event>
 9    1  0.1315259E-005  0.1225570E+03  0.7546771E-02  0.1239665E+00
          3   -1    0    0  502    0 -0.00000000000E+00  0.00000000000E+00  0.10671394529E+03  0.10671394529E+03  0.00000000000E+00 0. -1.
         21   -1    0    0  501  502  0.00000000000E+00 -0.00000000000E+00 -0.44455895503E+03  0.44455895503E+03  0.00000000000E+00 0.  1.
         23    2    1    2    0    0 -0.32190511794E+02  0.85975894381E+02  0.39612860828E+02  0.13437232148E+03  0.89770031598E+02 0.  0.
         23    2    1    2    0    0  0.45495174655E+02 -0.17724243447E+02 -0.18668706474E+03  0.21385181064E+03  0.92176879151E+02 0.  0.
        -13    1    3    3    0    0 -0.13379379655E+02  0.10144228145E+03  0.22945989709E+02  0.10486211284E+03  0.00000000000E+00 0. -1.
         13    1    3    3    0    0 -0.18811132139E+02 -0.15466387066E+02  0.16666871119E+02  0.29510208643E+02  0.00000000000E+00 0.  1.
        -13    1    4    4    0    0  0.68785460153E+02  0.10808750025E+01 -0.15828094949E+03  0.17258466557E+03  0.00000000000E+00 0.  1.
         13    1    4    4    0    0 -0.23290285498E+02 -0.18805118449E+02 -0.28406115250E+02  0.41267145068E+02  0.00000000000E+00 0. -1.
          3    1    1    2  501    0 -0.13304662861E+02 -0.68251650935E+02 -0.19077080583E+03  0.20304876820E+03  0.00000000000E+00 0. -1.
<scales pt_clust_5="13000.00000" pt_clust_6="13000.00000" pt_clust_7="13000.00000" pt_clust_8="13000.00000" pt_clust_9="69.53634"></scales>
<clustering>
<clus scale="   69.536">  2  9  1 -1</clus>
<clus scale="   89.770">  5  6 -1 -1</clus>
<clus scale="   92.177">  7  8 -1 -1</clus>
<clus scale="  120.757">  1  5  2 -1</clus>
<clus scale="   69.536">  2  5  1 -1</clus>
</clustering>
</event>
<event>
 9    1  0.1887825E-005  0.9605229E+02  0.7546771E-02  0.1291252E+00
         21   -1    0    0  501  502  0.00000000000E+00  0.00000000000E+00  0.20272024193E+03  0.20272024193E+03  0.00000000000E+00 0.  1.
          2   -1    0    0  502    0 -0.00000000000E+00 -0.00000000000E+00 -0.16509465543E+03  0.16509465543E+03  0.00000000000E+00 0. -1.
         23    2    1    2    0    0 -0.40782500313E+01 -0.22059306416E+02 -0.11592822273E+03  0.15014200748E+03  0.92736316850E+02 0.  0.
         23    2    1    2    0    0  0.42752500620E+02  0.38713459663E+02  0.13587009633E+03  0.17200263500E+03  0.88304672029E+02 0.  0.
        -11    1    3    3    0    0  0.12825384264E+02  0.21627302854E+02 -0.39518169851E-01  0.25144229397E+02  0.00000000000E+00 0.  1.
         11    1    3    3    0    0 -0.16903634296E+02 -0.43686609270E+02 -0.11588870456E+03  0.12499777809E+03  0.00000000000E+00 0. -1.
        -13    1    4    4    0    0 -0.25622760958E+02  0.13305819672E+00  0.46125065319E+02  0.52764242005E+02  0.00000000000E+00 0. -1.
         13    1    4    4    0    0  0.68375261578E+02  0.38580401466E+02  0.89745031007E+02  0.11923839299E+03  0.00000000000E+00 0.  1.
          2    1    1    2  501    0 -0.38674250588E+02 -0.16654153247E+02  0.17683712908E+02  0.45670254884E+02  0.00000000000E+00 0. -1.
<scales pt_clust_5="13000.00000" pt_clust_6="13000.00000" pt_clust_7="13000.00000" pt_clust_8="13000.00000" pt_clust_9="42.10770"></scales>
<clustering>
<clus scale="   42.108">  1  9  2 -1</clus>
<clus scale="   88.305">  7  8 -1 -1</clus>
<clus scale="   91.781">  1  7  2 -1</clus>
<clus scale="   92.736">  5  6 -1 -1</clus>
<clus scale="   42.108">  1  5  2 -1</clus>
</clustering>
</event>
<event>
 9    1  0.1315259E-005  0.9812760E+02  0.7546771E-02  0.1285843E+00
         21   -1    0    0  501  502  0.00000000000E+00  0.00000000000E+00  0.28631656763E+03  0.28631656763E+03  0.00000000000E+00 0. -1.
         -1   -1    0    0    0  501 -0.00000000000E+00 -0.00000000000E+00 -0.54365077394E+02  0.54365077394E+02  0.00000000000E+00 0.  1.
         23    2    1    2    0    0 -0.27006689342E+02 -0.10841580654E+02  0.23472972011E+02  0.99708795605E+02  0.92433556492E+02 0.  0.
         23    2    1    2    0    0  0.45950210988E+02  0.38219116052E+01  0.17619388258E+03  0.20288833203E+03  0.89405604507E+02 0.  0.
        -11    1    3    3    0    0  0.24747767613E+02 -0.22840233980E+02 -0.12085776827E+02  0.35779802845E+02  0.00000000000E+00 0. -1.
         11    1    3    3    0    0 -0.51754456955E+02  0.11998653327E+02  0.35558748838E+02  0.63928992760E+02  0.00000000000E+00 0.  1.
        -11    1    4    4    0    0  0.41891522387E+02 -0.16253900538E+02  0.17677660418E+03  0.18239807213E+03  0.00000000000E+00 0. -1.
         11    1    4    4    0    0  0.40586886007E+01  0.20075812143E+02 -0.58272160108E+00  0.20490259901E+02  0.00000000000E+00 0.  1.
         -1    1    1    2    0  502 -0.18943521646E+02  0.70196690483E+01  0.32284635643E+02  0.38084517386E+02  0.00000000000E+00 0.  1.
<scales pt_clust_5="13000.00000" pt_clust_6="13000.00000" pt_clust_7="13000.00000" pt_clust_8="13000.00000" pt_clust_9="20.20230"></scales>
<clustering>
<clus scale="   20.202">  1  9  2 -1</clus>
<clus scale="   89.406">  7  8 -1 -1</clus>
<clus scale="   92.434">  5  6 -1 -1</clus>
<clus scale="   95.281">  1  7  2 -1</clus>
<clus scale="   20.202">  1  5  2 -1</clus>
</clustering>
</event>
<event>
 9    1  0.1315259E-005  0.1251654E+03  0.7546771E-02  0.1235207E+00
          3   -1    0    0  502    0 -0.00000000000E+00  0.00000000000E+00  0.20109988055E+03  0.20109988055E+03  0.00000000000E+00 0. -1.
         21   -1    0    0  501  502  0.00000000000E+00 -0.00000000000E+00 -0.26709170287E+03  0.26709170287E+03  0.00000000000E+00 0.  1.
         23    2    1    2    0    0  0.10206290347E+02 -0.83367234918E+02  0.12689429532E+03  0.17683226308E+03  0.90073430386E+02 0.  0.
         23    2    1    2    0    0  0.61149985775E+01  0.10061740708E+03 -0.21786853649E+03  0.25689086862E+03  0.91460173700E+02 0.  0.
        -11    1    3    3    0    0  0.35290259174E+02 -0.52729541232E+02  0.12123339708E+03  0.13683326890E+03  0.00000000000E+00 0. -1.
         11    1    3    3    0    0 -0.25083968827E+02 -0.30637693686E+02  0.56608982401E+01  0.39998994180E+02  0.00000000000E+00 0.  1.
        -13    1    4    4    0    0 -0.41437199312E+02  0.59875025230E+02 -0.10429780841E+03  0.12720099439E+03  0.00000000000E+00 0. -1.
         13    1    4    4    0    0  0.47552197890E+02  0.40742381852E+02 -0.11357072808E+03  0.12968987424E+03  0.00000000000E+00 0.  1.
          3    1    1    2  501    0 -0.16321288924E+02 -0.17250172163E+02  0.24982418856E+02  0.34468451716E+02  0.00000000000E+00 0. -1.
<scales pt_clust_5="13000.00000" pt_clust_6="13000.00000" pt_clust_7="13000.00000" pt_clust_8="13000.00000" pt_clust_9="23.74770"></scales>
<clustering>
<clus scale="   23.748">  2  9  1 -1</clus>
<clus scale="   90.073">  5  6 -1 -1</clus>
<clus scale="   91.460">  7  8 -1 -1</clus>
<clus scale="  124.156">  1  5  2 -1</clus>
<clus scale="   23.748">  2  5  1 -1</clus>
</clustering>
</event>
<event>
 9    1  0.1315259E-005  0.1117201E+03  0.7546771E-02  0.1257752E+00
         21   -1    0    0  501  502  0.00000000000E+00  0.00000000000E+00  0.24547457253E+03  0.24547457253E+03  0.00000000000E+00 0. -1.
          1   -1    0    0  502    0 -0.00000000000E+00 -0.00000000000E+00 -0.19121653277E+03  0.19121653277E+03  0.00000000000E+00 0. -1.
         23    2    1    2    0    0  0.23077847960E+02 -0.65161294569E+02 -0.13635235694E+03  0.17672932550E+03  0.88671911408E+02 0.  0.
         23    2    1    2    0    0 -0.26459851135E+02  0.34409449877E+02  0.20342306699E+03  0.22647628418E+03  0.89590340705E+02 0.  0.
        -13    1    3    3    0    0  0.35983030522E+02 -0.82893567211E+02 -0.11306672856E+03  0.14474186360E+03  0.00000000000E+00 0. -1.
         13    1    3    3    0    0 -0.12905182562E+02  0.17732272642E+02 -0.23285628380E+02  0.31987461904E+02  0.00000000000E+00 0.  1.
        -13    1    4    4    0    0 -0.49483412419E+02 -0.90008922703E+01  0.97370650355E+02  0.10959319193E+03  0.00000000000E+00 0. -1.
         13    1    4    4    0    0  0.23023561284E+02  0.43410342147E+02  0.10605241663E+03  0.11688309225E+03  0.00000000000E+00 0.  1.
          1    1    1    2  501    0  0.33820031751E+01  0.30751844692E+02 -0.12812670282E+02  0.33485495625E+02  0.00000000000E+00 0. -1.
<scales pt_clust_5="13000.00000" pt_clust_6="13000.00000" pt_clust_7="13000.00000" pt_clust_8="13000.00000" pt_clust_9="30.93727"></scales>
<clustering>
<clus scale="   30.937">  1  9  2 -1</clus>
<clus scale="   88.672">  5  6 -1 -1</clus>
<clus scale="   89.590">  7  8 -1 -1</clus>
<clus scale="  110.985">  2  5  1 -1</clus>
<clus scale="   30.937">  1  5  2 -1</clus>
</clustering>
</event>
<event>
 9    1  0.1315259E-005  0.9777688E+02  0.7546771E-02  0.1289968E+00
         21   -1    0    0  501  502  0.00000000000E+00  0.00000000000E+00  0.64998737255E+02  0.64998737255E+02  0.00000000000E+00 0. -1.
          2   -1    0    0  502    0 -0.00000000000E+00 -0.00000000000E+00 -0.32688539067E+03  0.32688539067E+03  0.00000000000E+00 0. -1.
         23    2    1    2    0    0 -0.52896766844E+01 -0.19055171343E+02 -0.14406817780E+03  0.16987231090E+03  0.87805933291E+02 0.  0.
         23    2    1    2    0    0  0.27225306534E+02 -0.16947655098E+02 -0.14101078286E+03  0.17389468407E+03  0.96575773023E+02 0.  0.
        -11    1    4    4    0    0  0.60589680012E+02 -0.16421800356E+01 -0.61648140685E+02  0.86454030150E+02  0.00000000000E+00 0. -1.
         11    1    4    4    0    0 -0.33364373478E+02 -0.15305475063E+02 -0.79362642180E+02  0.87440653922E+02  0.00000000000E+00 0.  1.
        -13    1    3    3    0    0 -0.10294925575E+02 -0.44719697621E+02 -0.13435961357E+03  0.14198007820E+03  0.00000000000E+00 0.  1.
         13    1    3    3    0    0  0.50052488907E+01  0.25664526278E+02 -0.97085642357E+01  0.27892232701E+02  0.00000000000E+00 0. -1.
          2    1    1    2  501    0 -0.21935629849E+02  0.36002826441E+02  0.23192307247E+02  0.48117132958E+02  0.00000000000E+00 0. -1.
<scales pt_clust_5="13000.00000" pt_clust_6="13000.00000" pt_clust_7="13000.00000" pt_clust_8="13000.00000" pt_clust_9="42.15893"></scales>
<clustering>
<clus scale="   42.159">  1  9  2 -1</clus>
<clus scale="   87.806">  7  8 -1 -1</clus>
<clus scale="   89.125">  2  7  1 -1</clus>
<clus scale="   96.576">  5  6 -1 -1</clus>
<clus scale="   42.159">  1  5  2 -1</clus>
</clustering>
</event>
<event>
 9    1  0.1315259E-005  0.1867054E+03  0.7546771E-02  0.1161726E+00
          1   -1    0    0  502    0 -0.00000000000E+00  0.00000000000E+00  0.12210718824E+04  0.12210718824E+04  0.00000000000E+00 0. -1.
         21   -1    0    0  501  502  0.00000000000E+00 -0.00000000000E+00 -0.36343795738E+02  0.36343795738E+02  0.00000000000E+00 0.  1.
         23    2    1    2    0    0  0.87582175696E+02  0.13817511939E+03  0.58649483989E+03  0.61599238157E+03  0.93313534994E+02 0.  0.
         23    2    1    2    0    0 -0.51960699482E+02 -0.15356008900E+03  0.54277996399E+03  0.57374277183E+03  0.91049786910E+02 0.  0.
        -13    1    4    4    0    0 -0.26009255926E+02 -0.46763822150E+02  0.68648106890E+02  0.87039640599E+02  0.00000000000E+00 0.  1.
         13    1    4    4    0    0 -0.25951443556E+02 -0.10679626685E+03  0.47413185710E+03  0.48670313123E+03  0.00000000000E+00 0. -1.
        -13    1    3    3    0    0  0.58090153530E-01  0.43098331618E+02  0.60030667935E+02  0.73899598479E+02  0.00000000000E+00 0. -1.
         13    1    3    3    0    0  0.87524085543E+02  0.95076787770E+02  0.52646417196E+03  0.54209278309E+03  0.00000000000E+00 0.  1.
          1    1    1    2  501    0 -0.35621476214E+02  0.15384969608E+02  0.55453282766E+02  0.67680524725E+02  0.00000000000E+00 0. -1.
<scales pt_clust_5="13000.00000" pt_clust_6="13000.00000" pt_clust_7="13000.00000" pt_clust_8="13000.00000" pt_clust_9="38.80189"></scales>
<clustering>
<clus scale="   38.802">  2  9  1 -1</clus>
<clus scale="   91.050">  5  6 -1 -1</clus>
<clus scale="   93.314">  7  8 -1 -1</clus>
<clus scale="  185.584">  2  5  1 -1</clus>
<clus scale="   38.802">  2  5  1 -1</clus>
</clustering>
</event>
<event>
 9    1  0.1315259E-005  0.1077965E+03  0.7546771E-02  0.1265261E+00
         -1   -1    0    0    0  501 -0.00000000000E+00  0.00000000000E+00  0.62975900973E+03  0.62975900973E+03  0.00000000000E+00 0.  1.
         21   -1    0    0  501  502  0.00000000000E+00 -0.00000000000E+00 -0.25251321054E+02  0.25251321054E+02  0.00000000000E+00 0. -1.
         23    2    1    2    0    0 -0.79959228869E+01 -0.60093917371E+02  0.31390384420E+03  0.33243408076E+03  0.91113012022E+02 0.  0.
         23    2    1    2    0    0  0.23701192898E+02  0.45860304211E+02  0.27897626103E+03  0.29840080905E+03  0.92468235492E+02 0.  0.
        -11    1    4    4    0    0  0.16467302226E+02 -0.27374964043E+02  0.73454138096E+02  0.80100381412E+02  0.00000000000E+00 0. -1.
         11    1    4    4    0    0  0.72338906717E+01  0.73235268255E+02  0.20552212294E+03  0.21830042764E+03  0.00000000000E+00 0.  1.
        -13    1    3    3    0    0 -0.32748215291E+02 -0.12568703301E+02  0.39412497069E+02  0.52761376334E+02  0.00000000000E+00 0.  1.
         13    1    3    3    0    0  0.24752292404E+02 -0.47525214069E+02  0.27449134713E+03  0.27967270442E+03  0.00000000000E+00 0. -1.
         -1    1    1    2    0  502 -0.15705270011E+02  0.14233613159E+02  0.11627583452E+02  0.24175440981E+02  0.00000000000E+00 0.  1.
<scales pt_clust_5="13000.00000" pt_clust_6="13000.00000" pt_clust_7="13000.00000" pt_clust_8="13000.00000" pt_clust_9="21.19555"></scales>
<clustering>
<clus scale="   21.196">  2  9  1 -1</clus>
<clus scale="   91.113">  7  8 -1 -1</clus>
<clus scale="   92.468">  5  6 -1 -1</clus>
<clus scale="  106.636">  1  7  2 -1</clus>
<clus scale="   21.196">  2  5  1 -1</clus>
</clustering>
</event>
<event>
 9    1  0.1315259E-005  0.1345191E+03  0.7546771E-02  0.1221536E+00
         21   -1    0    0  501  502  0.00000000000E+00  0.00000000000E+00  0.34589611433E+03  0.34589611433E+03  0.00000000000E+00 0.  1.
         -2   -1    0    0    0  501 -0.00000000000E+00 -0.00000000000E+00 -0.20471103427E+03  0.20471103427E+03  0.00000000000E+00 0.  1.
         23    2    1    2    0    0  0.80223733075E+02  0.33692767011E+01 -0.83093207550E+02  0.14745681487E+03  0.91606941526E+02 0.  0.
         23    2    1    2    0    0 -0.19688638207E+03  0.10996784263E+01  0.14750170633E+03  0.26341920383E+03  0.94167228049E+02 0.  0.
        -13    1    4    4    0    0 -0.33994231272E+02 -0.37550426594E+02  0.38881028825E+02  0.63854339709E+02  0.00000000000E+00 0. -1.
         13    1    4    4    0    0 -0.16289215080E+03  0.38650105020E+02  0.10862067750E+03  0.19956486412E+03  0.00000000000E+00 0.  1.
        -13    1    3    3    0    0  0.83338658433E+01 -0.37924113876E+02 -0.24014606493E+02  0.45655153688E+02  0.00000000000E+00 0.  1.
         13    1    3    3    0    0  0.71889867232E+02  0.41293390578E+02 -0.59078601057E+02  0.10180166118E+03  0.00000000000E+00 0. -1.
         -2    1    1    2    0  502  0.11666264900E+03 -0.44689551273E+01  0.76776581288E+02  0.13973112991E+03  0.00000000000E+00 0.  1.
<scales pt_clust_5="13000.00000" pt_clust_6="13000.00000" pt_clust_7="13000.00000" pt_clust_8="13000.00000" pt_clust_9="116.74821"></scales>
<clustering>
<clus scale="   91.607">  7  8 -1 -1</clus>
<clus scale="   94.167">  5  6 -1 -1</clus>
<clus scale="  116.748">  1  9  2 -1</clus>
<clus scale="  132.739">  2  7  1 -1</clus>
<clus scale="  116.748">  1  5  2 -1</clus>
</clustering>
</event>
<event>
 9    1  0.1315259E-005  0.1009107E+03  0.7546771E-02  0.1279049E+00
          3   -1    0    0  502    0 -0.00000000000E+00  0.00000000000E+00  0.15470141604E+03  0.15470141604E+03  0.00000000000E+00 0. -1.
         21   -1    0    0  501  502  0.00000000000E+00 -0.00000000000E+00 -0.25250767270E+03  0.25250767270E+03  0.00000000000E+00 0.  1.
         23    2    1    2    0    0  0.44552649240E+02  0.24005340971E+02  0.10193752803E+03  0.14652674027E+03  0.92291012795E+02 0.  0.
         23    2    1    2    0    0  0.23203683907E+02 -0.21753330492E+02 -0.90819156299E+02  0.13238360762E+03  0.90915796658E+02 0.  0.
        -13    1    4    4    0    0 -0.55975557428E+01 -0.27353858471E+02  0.82072048914E+01  0.29101965839E+02  0.00000000000E+00 0. -1.
         13    1    4    4    0    0  0.28801239650E+02  0.56005279792E+01 -0.99026361190E+02  0.10328164178E+03  0.00000000000E+00 0.  1.
        -13    1    3    3    0    0  0.95756038656E+01 -0.30006619139E+02  0.77162853521E+01  0.32428851987E+02  0.00000000000E+00 0.  1.
         13    1    3    3    0    0  0.34977045374E+02  0.54011960110E+02  0.94221242678E+02  0.11409788828E+03  0.00000000000E+00 0. -1.
          3    1    1    2  501    0 -0.67756333146E+02 -0.22520104793E+01 -0.10892462839E+03  0.12829874085E+03  0.00000000000E+00 0. -1.
<scales pt_clust_5="13000.00000" pt_clust_6="13000.00000" pt_clust_7="13000.00000" pt_clust_8="13000.00000" pt_clust_9="67.79375"></scales>
<clustering>
<clus scale="   67.794">  2  9  1 -1</clus>
<clus scale="   90.916">  5  6 -1 -1</clus>
<clus scale="   92.291">  7  8 -1 -1</clus>
<clus scale="   99.654">  2  5  1 -1</clus>
<clus scale="   67.794">  2  5  1 -1</clus>
</clustering>
</event>
<event>
 9    1  0.1315259E-005  0.1128981E+03  0.7546771E-02  0.1255719E+00
         -2   -1    0    0    0  501 -0.00000000000E+00  0.00000000000E+00  0.62771645913E+03  0.62771645913E+03  0.00000000000E+00 0.  1.
         21   -1    0    0  501  502  0.00000000000E+00 -0.00000000000E+00 -0.83191674457E+02  0.83191674457E+02  0.00000000000E+00 0.  1.
         23    2    1    2    0    0  0.69145446046E+02  0.54298717243E+01  0.53251368740E+03  0.54457284814E+03  0.90433309419E+02 0.  0.
         23    2    1    2    0    0 -0.44185253139E+02 -0.29085686413E+02  0.48351999496E+02  0.11630259641E+03  0.91597294322E+02 0.  0.
        -11    1    4    4    0    0 -0.61961179173E+01  0.27842510896E+02  0.37331535481E+02  0.46981281715E+02  0.00000000000E+00 0. -1.
         11    1    4    4    0    0 -0.37989135222E+02 -0.56928197309E+02  0.11020464015E+02  0.69321314693E+02  0.00000000000E+00 0.  1.
        -13    1    3    3    0    0  0.39331124575E+01 -0.31921115808E+02  0.86782506120E+02  0.92550690848E+02  0.00000000000E+00 0. -1.
         13    1    3    3    0    0  0.65212333588E+02  0.37350987533E+02  0.44573118128E+03  0.45202215729E+03  0.00000000000E+00 0.  1.
         -2    1    1    2    0  502 -0.24960192907E+02  0.23655814688E+02 -0.36340902217E+02  0.50032689039E+02  0.00000000000E+00 0.  1.
<scales pt_clust_5="13000.00000" pt_clust_6="13000.00000" pt_clust_7="13000.00000" pt_clust_8="13000.00000" pt_clust_9="34.38908"></scales>
<clustering>
<clus scale="   34.389">  2  9  1 -1</clus>
<clus scale="   90.433">  7  8 -1 -1</clus>
<clus scale="   91.597">  5  6 -1 -1</clus>
<clus scale="  111.956">  1  7  2 -1</clus>
<clus scale="   34.389">  2  5  1 -1</clus>
</clustering>
</event>
<event>
 9    1  0.1315259E-005  0.1243630E+03  0.7546771E-02  0.1236964E+00
          1   -1    0    0  502    0 -0.00000000000E+00  0.00000000000E+00  0.26461784208E+03  0.26461784208E+03  0.00000000000E+00 0. -1.
         21   -1    0    0  501  502  0.00000000000E+00 -0.00000000000E+00 -0.12332850118E+03  0.12332850118E+03  0.00000000000E+00 0.  1.
         23    2    1    2    0    0  0.86739049253E+02  0.22061888524E+02  0.16452219077E+03  0.20831550775E+03  0.91199835108E+02 0.  0.
         23    2    1    2    0    0 -0.65777869234E+02 -0.39071457421E+02  0.29532340665E+02  0.12036143502E+03  0.88098859405E+02 0.  0.
        -11    1    3    3    0    0  0.36560458238E+02 -0.27336197124E+02  0.11052471472E+03  0.11958113289E+03  0.00000000000E+00 0. -1.
         11    1    3    3    0    0  0.50178591015E+02  0.49398085648E+02  0.53997476045E+02  0.88734374856E+02  0.00000000000E+00 0.  1.
        -13    1    4    4    0    0 -0.15565761150E+02 -0.60192903506E+02  0.17222620666E+02  0.64514317909E+02  0.00000000000E+00 0. -1.
         13    1    4    4    0    0 -0.50212108083E+02  0.21121446085E+02  0.12309719999E+02  0.55847117109E+02  0.00000000000E+00 0.  1.
          1    1    1    2  501    0 -0.20961180019E+02  0.17009568896E+02 -0.52765190540E+02  0.59269400490E+02  0.00000000000E+00 0. -1.
<scales pt_clust_5="13000.00000" pt_clust_6="13000.00000" pt_clust_7="13000.00000" pt_clust_8="13000.00000" pt_clust_9="26.99438"></scales>
<clustering>
<clus scale="   26.994">  2  9  1 -1</clus>
<clus scale="   88.099">  7  8 -1 -1</clus>
<clus scale="   91.200">  5  6 -1 -1</clus>
<clus scale="  122.107">  2  7  1 -1</clus>
<clus scale="   26.994">  2  5  1 -1</clus>
</clustering>
</event>
<event>
 9    1  0.1315259E-005  0.1051573E+03  0.7546771E-02  0.1272667E+00
         -3   -1    0    0    0  501 -0.00000000000E+00  0.00000000000E+00  0.43319894490E+03  0.43319894490E+03  0.00000000000E+00 0.  1.
         21   -1    0    0  501  502  0.00000000000E+00 -0.00000000000E+00 -0.35406498647E+02  0.35406498647E+02  0.00000000000E+00 0. -1.
         23    2    1    2    0    0 -0.82352471046E+01  0.67051573608E+02  0.23085042320E+03  0.25740855923E+03  0.91670691375E+02 0.  0.
         23    2    1    2    0    0 -0.14073588235E+01 -0.31140769959E+02  0.10292290438E+03  0.13716301893E+03  0.85140127459E+02 0.  0.
        -11    1    4    4    0    0  0.14355523414E+02 -0.57868976571E+02  0.66531769758E+02  0.89338546490E+02  0.00000000000E+00 0.  1.
         11    1    4    4    0    0 -0.15762882238E+02  0.26728206612E+02  0.36391134623E+02  0.47824472441E+02  0.00000000000E+00 0. -1.
        -13    1    3    3    0    0 -0.39080289952E+02  0.89421321575E+01  0.45053107976E+02  0.60307655638E+02  0.00000000000E+00 0. -1.
         13    1    3    3    0    0  0.30845042848E+02  0.58109441450E+02  0.18579731522E+03  0.19710090360E+03  0.00000000000E+00 0.  1.
         -3    1    1    2    0  502  0.96426059281E+01 -0.35910803648E+02  0.64019118678E+02  0.74033865387E+02  0.00000000000E+00 0.  1.
<scales pt_clust_5="13000.00000" pt_clust_6="13000.00000" pt_clust_7="13000.00000" pt_clust_8="13000.00000" pt_clust_9="37.18289"></scales>
<clustering>
<clus scale="   37.183">  2  9  1 -1</clus>
<clus scale="   85.140">  5  6 -1 -1</clus>
<clus scale="   91.671">  7  8 -1 -1</clus>
<clus scale="   99.516">  2  5  1 -1</clus>
<clus scale="   37.183">  2  5  1 -1</clus>
</clustering>
</event>
<event>
 9    1  0.1315259E-005  0.9714216E+02  0.7546771E-02  0.1286940E+00
          1   -1    0    0  502    0 -0.00000000000E+00  0.00000000000E+00  0.47863502076E+02  0.47863502076E+02  0.00000000000E+00 0. -1.
         21   -1    0    0  501  502  0.00000000000E+00 -0.00000000000E+00 -0.26674020929E+03  0.26674020929E+03  0.00000000000E+00 0.  1.
         23    2    1    2    0    0  0.96445521567E+01 -0.29423053387E+02 -0.54218660830E+02  0.10997299917E+03  0.90529906149E+02 0.  0.
         23    2    1    2    0    0  0.92467478332E+01  0.37576487794E+02 -0.12265238594E+03  0.15785641138E+03  0.91528924690E+02 0.  0.
        -11    1    3    3    0    0  0.32168227609E+02 -0.22333155013E+02 -0.70945283840E+02  0.81035782093E+02  0.00000000000E+00 0. -1.
         11    1    3    3    0    0 -0.22523675452E+02 -0.70898983746E+01  0.16726623010E+02  0.28937217077E+02  0.00000000000E+00 0.  1.
        -13    1    4    4    0    0  0.30455050723E+02  0.10224216926E+02 -0.11875835600E+03  0.12302679320E+03  0.00000000000E+00 0.  1.
         13    1    4    4    0    0 -0.21208302889E+02  0.27352270868E+02 -0.38940299465E+01  0.34829618176E+02  0.00000000000E+00 0. -1.
          1    1    1    2  501    0 -0.18891299990E+02 -0.81534344070E+01 -0.42005660441E+02  0.46774300818E+02  0.00000000000E+00 0. -1.
<scales pt_clust_5="13000.00000" pt_clust_6="13000.00000" pt_clust_7="13000.00000" pt_clust_8="13000.00000" pt_clust_9="20.57571"></scales>
<clustering>
<clus scale="   20.576">  2  9  1 -1</clus>
<clus scale="   90.530">  5  6 -1 -1</clus>
<clus scale="   91.529">  7  8 -1 -1</clus>
<clus scale="   96.201">  1  5  2 -1</clus>
<clus scale="   20.576">  2  5  1 -1</clus>
</clustering>
</event>
<event>
 9    1  0.1315259E-005  0.1259946E+03  0.7546771E-02  0.1233742E+00
         21   -1    0    0  501  502  0.00000000000E+00  0.00000000000E+00  0.19975255507E+03  0.19975255507E+03  0.00000000000E+00 0.  1.
          2   -1    0    0  502    0 -0.00000000000E+00 -0.00000000000E+00 -0.33136225237E+03  0.33136225237E+03  0.00000000000E+00 0. -1.
         23    2    1    2    0    0 -0.89022596670E+02 -0.10735842947E+02 -0.29182253967E+03  0.31854158756E+03  0.90928913464E+02 0.  0.
         23    2    1    2    0    0  0.59573762431E+02  0.11697653471E+01  0.13289227837E+03  0.17127967443E+03  0.90144149557E+02 0.  0.
        -11    1    4    4    0    0  0.60614010243E+02 -0.33561161655E+02  0.64949807639E+02  0.94967822559E+02  0.00000000000E+00 0.  1.
         11    1    4    4    0    0 -0.10402478122E+01  0.34730927002E+02  0.67942470735E+02  0.76311851868E+02  0.00000000000E+00 0. -1.
        -11    1    3    3    0    0 -0.25675481098E+02  0.93586308792E+01 -0.10176850333E+02  0.29161320001E+02  0.00000000000E+00 0.  1.
         11    1    3    3    0    0 -0.63347115573E+02 -0.20094473826E+02 -0.28164568934E+03  0.28938026756E+03  0.00000000000E+00 0. -1.
          2    1    1    2  501    0  0.29448834240E+02  0.95660775998E+01  0.27320564002E+02  0.41293545453E+02  0.00000000000E+00 0. -1.
<scales pt_clust_5="13000.00000" pt_clust_6="13000.00000" pt_clust_7="13000.00000" pt_clust_8="13000.00000" pt_clust_9="30.96359"></scales>
<clustering>
<clus scale="   30.964">  1  9  2 -1</clus>
<clus scale="   90.144">  5  6 -1 -1</clus>
<clus scale="   90.929">  7  8 -1 -1</clus>
<clus scale="  125.429">  1  5  2 -1</clus>
<clus scale="   30.964">  1  5  2 -1</clus>
</clustering>
</event>
<event>
 9    1  0.1315259E-005  0.9255218E+02  0.7546771E-02  0.1297147E+00
          3   -1    0    0  502    0 -0.00000000000E+00  0.00000000000E+00  0.39987114295E+03  0.39987114295E+03  0.00000000000E+00 0. -1.
         21   -1    0    0  501  502  0.00000000000E+00 -0.00000000000E+00 -0.32456134651E+02  0.32456134651E+02  0.00000000000E+00 0.  1.
         23    2    1    2    0    0  0.20846883208E+02  0.10099516770E+00  0.20666968346E+03  0.22700728637E+03  0.91571541776E+02 0.  0.
         23    2    1    2    0    0  0.38073515441E+01  0.15506766843E+02  0.90670892439E+02  0.12941307717E+03  0.90948216384E+02 0.  0.
        -11    1    3    3    0    0  0.49144500809E+02  0.25921144142E+02  0.12579875773E+03  0.13752241679E+03  0.00000000000E+00 0.  1.
         11    1    3    3    0    0 -0.28297617601E+02 -0.25820148974E+02  0.80870925730E+02  0.89484869578E+02  0.00000000000E+00 0. -1.
        -13    1    4    4    0    0  0.33241312347E+02  0.41429251904E+02  0.52468335569E+02  0.74661194722E+02  0.00000000000E+00 0.  1.
         13    1    4    4    0    0 -0.29433960803E+02 -0.25922485061E+02  0.38202556869E+02  0.54751882449E+02  0.00000000000E+00 0. -1.
          3    1    1    2  501    0 -0.24654234752E+02 -0.15607762010E+02  0.70074432397E+02  0.75906914058E+02  0.00000000000E+00 0. -1.
<scales pt_clust_5="13000.00000" pt_clust_6="13000.00000" pt_clust_7="13000.00000" pt_clust_8="13000.00000" pt_clust_9="29.17935"></scales>
<clustering>
<clus scale="   29.179">  2  9  1 -1</clus>
<clus scale="   90.948">  7  8 -1 -1</clus>
<clus scale="   91.572">  5  6 -1 -1</clus>
<clus scale="   91.936">  2  7  1 -1</clus>
<clus scale="   29.179">  2  5  1 -1</clus>
</clustering>
</event>
<event>
 9    1  0.1315259E-005  0.1143704E+03  0.7546771E-02  0.1255768E+00
         -1   -1    0    0    0  501 -0.00000000000E+00  0.00000000000E+00  0.36746932167E+02  0.36746932167E+02  0.00000000000E+00 0.  1.
         21   -1    0    0  501  502  0.00000000000E+00 -0.00000000000E+00 -0.59172205154E+03  0.59172205154E+03  0.00000000000E+00 0. -1.
         23    2    1    2    0    0  0.14509812864E+02 -0.75991307843E+02 -0.20553401959E+03  0.23800640084E+03  0.91747480050E+02 0.  0.
         23    2    1    2    0    0 -0.42359963012E+02  0.18588803176E+02 -0.23607653669E+03  0.26037721639E+03  0.99620547936E+02 0.  0.
        -11    1    3    3    0    0  0.34254313165E+02 -0.51307408454E+02 -0.50332957122E+02  0.79619185535E+02  0.00000000000E+00 0.  1.
         11    1    3    3    0    0 -0.19744500301E+02 -0.24683899389E+02 -0.15520106247E+03  0.15838721531E+03  0.00000000000E+00 0. -1.
        -11    1    4    4    0    0  0.16062219199E+02  0.18472799925E+02 -0.92841270312E+01  0.26180799021E+02  0.00000000000E+00 0.  1.
         11    1    4    4    0    0 -0.58422182210E+02  0.11600325120E+00 -0.22679240966E+03  0.23419641737E+03  0.00000000000E+00 0. -1.
         -1    1    1    2    0  502  0.27850150148E+02  0.57402504667E+02 -0.11336456309E+03  0.13008536647E+03  0.00000000000E+00 0.  1.
<scales pt_clust_5="13000.00000" pt_clust_6="13000.00000" pt_clust_7="13000.00000" pt_clust_8="13000.00000" pt_clust_9="63.80190"></scales>
<clustering>
<clus scale="   63.802">  2  9  1 -1</clus>
<clus scale="   91.747">  5  6 -1 -1</clus>
<clus scale="   99.621">  7  8 -1 -1</clus>
<clus scale="  107.582">  1  5  2 -1</clus>
<clus scale="   63.802">  2  5  1 -1</clus>
</clustering>
</event>
<event>
 9    1  0.1315259E-005  0.1419424E+03  0.7546771E-02  0.1211035E+00
         21   -1    0    0  501  502  0.00000000000E+00  0.00000000000E+00  0.34359106776E+03  0.34359106776E+03  0.00000000000E+00 0.  1.
          1   -1    0    0  502    0 -0.00000000000E+00 -0.00000000000E+00 -0.15213632406E+03  0.15213632406E+03  0.00000000000E+00 0. -1.
         23    2    1    2    0    0  0.16499329298E+02  0.10623827899E+03 -0.90496969477E+02  0.16922447310E+03  0.94278422886E+02 0.  0.
         23    2    1    2    0    0 -0.36029413026E+02 -0.91465931501E+02  0.26220855960E+03  0.29504757683E+03  0.92927975534E+02 0.  0.
        -13    1    3    3    0    0 -0.18871411271E+02  0.10568982039E+03 -0.72371204413E+02  0.12947609635E+03  0.00000000000E+00 0. -1.
         13    1    3    3    0    0  0.35370740569E+02  0.54845859726E+00 -0.18125765064E+02  0.39748376752E+02  0.00000000000E+00 0.  1.
        -13    1    4    4    0    0 -0.21899206981E+02 -0.10704339359E+03  0.24353834043E+03  0.26692468345E+03  0.00000000000E+00 0.  1.
         13    1    4    4    0    0 -0.14130206045E+02  0.15577462088E+02  0.18670219171E+02  0.28122893376E+02  0.00000000000E+00 0. -1.
          1    1    1    2  501    0  0.19530083728E+02 -0.14772347485E+02  0.19743153574E+02  0.31455341895E+02  0.00000000000E+00 0. -1.
<scales pt_clust_5="13000.00000" pt_clust_6="13000.00000" pt_clust_7="13000.00000" pt_clust_8="13000.00000" pt_clust_9="24.48768"></scales>
<clustering>
<clus scale="   24.488">  1  9  2 -1</clus>
<clus scale="   92.928">  7  8 -1 -1</clus>
<clus scale="   94.278">  5  6 -1 -1</clus>
<clus scale="  141.049">  1  7  2 -1</clus>
<clus scale="   24.488">  1  5  2 -1</clus>
</clustering>
</event>
<event>
 9    1  0.1315259E-005  0.1085656E+03  0.7546771E-02  0.1264568E+00
         21   -1    0    0  501  502  0.00000000000E+00  0.00000000000E+00  0.62514844407E+02  0.62514844407E+02  0.00000000000E+00 0. -1.
         -1   -1    0    0    0  501 -0.00000000000E+00 -0.00000000000E+00 -0.24098384200E+03  0.24098384200E+03  0.00000000000E+00 0.  1.
         23    2    1    2    0    0 -0.10673105024E+02 -0.45424055691E+02 -0.97779539829E+02  0.14089084716E+03  0.90067376983E+02 0.  0.
         23    2    1    2    0    0  0.12292408868E+02  0.69072759423E+02 -0.60534355080E+02  0.13149334910E+03  0.93294926457E+02 0.  0.
        -11    1    4    4    0    0  0.90579198211E+01  0.48071264916E+02 -0.85625457770E+02  0.98613444522E+02  0.00000000000E+00 0.  1.
         11    1    4    4    0    0  0.32344890465E+01  0.21001494507E+02  0.25091102690E+02  0.32879904579E+02  0.00000000000E+00 0. -1.
        -11    1    3    3    0    0  0.24753034619E+02 -0.25743487905E+02 -0.93561878661E+02  0.10014621826E+03  0.00000000000E+00 0.  1.
         11    1    3    3    0    0 -0.35426139643E+02 -0.19680567786E+02 -0.42176611679E+01  0.40744628899E+02  0.00000000000E+00 0. -1.
         -1    1    1    2    0  502 -0.16193038438E+01 -0.23648703732E+02 -0.20155102685E+02  0.31114490151E+02  0.00000000000E+00 0.  1.
<scales pt_clust_5="13000.00000" pt_clust_6="13000.00000" pt_clust_7="13000.00000" pt_clust_8="13000.00000" pt_clust_9="23.70409"></scales>
<clustering>
<clus scale="   23.704">  1  9  2 -1</clus>
<clus scale="   90.067">  7  8 -1 -1</clus>
<clus scale="   93.295">  5  6 -1 -1</clus>
<clus scale="  105.805">  2  7  1 -1</clus>
<clus scale="   23.704">  1  5  2 -1</clus>
</clustering>
</event>
<event>
 9    1  0.1315259E-005  0.1266409E+03  0.7546771E-02  0.1233369E+00
          2   -1    0    0  502    0 -0.00000000000E+00  0.00000000000E+00  0.57210094344E+03  0.57210094344E+03  0.00000000000E+00 0. -1.
         21   -1    0    0  501  502  0.00000000000E+00 -0.00000000000E+00 -0.75095523890E+02  0.75095523890E+02  0.00000000000E+00 0. -1.
         23    2    1    2    0    0  0.62891485972E+02  0.73880991435E+02  0.45480086618E+03  0.47428444966E+03  0.93210361037E+02 0.  0.
         23    2    1    2    0    0 -0.39001879121E+02 -0.11742813961E+02  0.11726309798E+02  0.99694603446E+02  0.90235621348E+02 0.  0.
        -11    1    3    3    0    0 -0.88653446243E+01  0.21263728190E+02  0.20111274570E+02  0.30581102607E+02  0.00000000000E+00 0.  1.
         11    1    3    3    0    0  0.71756830597E+02  0.52617263245E+02  0.43468959161E+03  0.44370334705E+03  0.00000000000E+00 0. -1.
        -13    1    4    4    0    0 -0.12338199048E+02  0.31518740638E+02 -0.20450460378E+02  0.39545966884E+02  0.00000000000E+00 0. -1.
         13    1    4    4    0    0 -0.26663680073E+02 -0.43261554598E+02  0.32176770175E+02  0.60148636562E+02  0.00000000000E+00 0.  1.
          2    1    1    2  501    0 -0.23889606851E+02 -0.62138177474E+02  0.30478243574E+02  0.73217414231E+02  0.00000000000E+00 0. -1.
<scales pt_clust_5="13000.00000" pt_clust_6="13000.00000" pt_clust_7="13000.00000" pt_clust_8="13000.00000" pt_clust_9="66.57226"></scales>
<clustering>
<clus scale="   66.572">  2  9  1 -1</clus>
<clus scale="   90.236">  7  8 -1 -1</clus>
<clus scale="   93.210">  5  6 -1 -1</clus>
<clus scale="  124.468">  2  7  1 -1</clus>
<clus scale="   66.572">  2  5  1 -1</clus>
</clustering>
</event>
<event>
 9    1  0.1315259E-005  0.1013304E+03  0.7546771E-02  0.1277863E+00
         -4   -1    0    0    0  501 -0.00000000000E+00  0.00000000000E+00  0.12559563488E+03  0.12559563488E+03  0.00000000000E+00 0.  1.
         21   -1    0    0  501  502  0.00000000000E+00 -0.00000000000E+00 -0.15254921506E+03  0.15254921506E+03  0.00000000000E+00 0.  1.
         23    2    1    2    0    0  0.21377148733E+02  0.53258856504E+01  0.44063811295E+01  0.94081098025E+02  0.91359122506E+02 0.  0.
         23    2    1    2    0    0 -0.64542001952E+02  0.24728279034E+02  0.12186821225E+02  0.11577920288E+03  0.92082286070E+02 0.  0.
        -13    1    4    4    0    0 -0.56644225319E+02  0.46653485902E+01 -0.32992995339E+02  0.65718121404E+02  0.00000000000E+00 0. -1.
         13    1    4    4    0    0 -0.78977766329E+01  0.20062930444E+02  0.45179816563E+02  0.50061081475E+02  0.00000000000E+00 0.  1.
        -13    1    3    3    0    0  0.43682695795E+02  0.93325609433E+01  0.34477410802E+02  0.56426646731E+02  0.00000000000E+00 0.  1.
         13    1    3    3    0    0 -0.22305547063E+02 -0.40066752929E+01 -0.30071029673E+02  0.37654451294E+02  0.00000000000E+00 0. -1.
         -4    1    1    2    0  502  0.43164853220E+02 -0.30054164684E+02 -0.43546782533E+02  0.68284549038E+02  0.00000000000E+00 0.  1.
<scales pt_clust_5="13000.00000" pt_clust_6="13000.00000" pt_clust_7="13000.00000" pt_clust_8="13000.00000" pt_clust_9="52.59712"></scales>
<clustering>
<clus scale="   52.597">  2  9  1 -1</clus>
<clus scale="   91.359">  7  8 -1 -1</clus>
<clus scale="   92.082">  5  6 -1 -1</clus>
<clus scale="  100.674">  1  7  2 -1</clus>
<clus scale="   52.597">  2  5  1 -1</clus>
</clustering>
</event>
<event>
 9    1  0.1315259E-005  0.1124134E+03  0.7546771E-02  0.1259052E+00
         21   -1    0    0  501  502  0.00000000000E+00  0.00000000000E+00  0.34657498122E+03  0.34657498122E+03  0.00000000000E+00 0. -1.
          3   -1    0    0  502    0 -0.00000000000E+00 -0.00000000000E+00 -0.10224182139E+03  0.10224182139E+03  0.00000000000E+00 0. -1.
         23    2    1    2    0    0  0.39971747674E+02  0.63424597289E+02 -0.24838942346E+02  0.12699986304E+03  0.99456382415E+02 0.  0.
         23    2    1    2    0    0  0.71037411286E+01 -0.56169264997E+01  0.97246863653E+02  0.13442399390E+03  0.92362571660E+02 0.  0.
        -11    1    3    3    0    0 -0.25763501316E+02  0.45478219905E+02 -0.26988005888E+02  0.58824985742E+02  0.00000000000E+00 0.  1.
         11    1    3    3    0    0  0.65735248990E+02  0.17946377384E+02  0.21490635421E+01  0.68174877302E+02  0.00000000000E+00 0. -1.
        -13    1    4    4    0    0  0.25901709316E+02  0.37606494015E+02  0.48731337326E+02  0.66782409175E+02  0.00000000000E+00 0. -1.
         13    1    4    4    0    0 -0.18797968187E+02 -0.43223420515E+02  0.48515526326E+02  0.67641584722E+02  0.00000000000E+00 0.  1.
          3    1    1    2  501    0 -0.47075488803E+02 -0.57807670790E+02  0.17192523852E+03  0.18739294568E+03  0.00000000000E+00 0. -1.
<scales pt_clust_5="13000.00000" pt_clust_6="13000.00000" pt_clust_7="13000.00000" pt_clust_8="13000.00000" pt_clust_9="74.55084"></scales>
<clustering>
<clus scale="   74.551">  1  9  2 -1</clus>
<clus scale="   92.363">  7  8 -1 -1</clus>
<clus scale="   99.456">  5  6 -1 -1</clus>
<clus scale="  106.189">  1  7  2 -1</clus>
<clus scale="   74.551">  1  5  2 -1</clus>
</clustering>
</event>
<event>
 9    1  0.1315259E-005  0.9392866E+02  0.7546771E-02  0.1294116E+00
         21   -1    0    0  501  502  0.00000000000E+00  0.00000000000E+00  0.25163967545E+02  0.25163967545E+02  0.00000000000E+00 0.  1.
          1   -1    0    0  502    0 -0.00000000000E+00 -0.00000000000E+00 -0.92100840256E+03  0.92100840256E+03  0.00000000000E+00 0. -1.
         23    2    1    2    0    0 -0.25570311453E+01  0.14823508838E+02 -0.42818615269E+03  0.43799900139E+03  0.90958611694E+02 0.  0.
         23    2    1    2    0    0 -0.65288660721E+02 -0.32938947602E+02 -0.19757264226E+03  0.22910803587E+03  0.90044209379E+02 0.  0.
        -11    1    3    3    0    0 -0.44734674949E+02 -0.48813296204E+01 -0.23627274583E+03  0.24051991382E+03  0.00000000000E+00 0.  1.
         11    1    3    3    0    0  0.42177643803E+02  0.19704838458E+02 -0.19191340686E+03  0.19747908757E+03  0.00000000000E+00 0. -1.
        -13    1    4    4    0    0 -0.20070921240E+02 -0.46412227529E+02 -0.16286711304E+03  0.17053631066E+03  0.00000000000E+00 0. -1.
         13    1    4    4    0    0 -0.45217739480E+02  0.13473279928E+02 -0.34705529224E+02  0.58571725213E+02  0.00000000000E+00 0.  1.
          1    1    1    2  501    0  0.67845691866E+02  0.18115438764E+02 -0.27008564006E+03  0.27906533284E+03  0.00000000000E+00 0. -1.
<scales pt_clust_5="13000.00000" pt_clust_6="13000.00000" pt_clust_7="13000.00000" pt_clust_8="13000.00000" pt_clust_9="70.22259"></scales>
<clustering>
<clus scale="   70.223">  1  9  2 -1</clus>
<clus scale="   90.044">  7  8 -1 -1</clus>
<clus scale="   90.959">  5  6 -1 -1</clus>
<clus scale="   93.043">  1  7  2 -1</clus>
<clus scale="   70.223">  1  5  2 -1</clus>
</clustering>
</event>
<event>
 9    1  0.1315259E-005  0.1163127E+03  0.7546771E-02  0.1250010E+00
         21   -1    0    0  501  502  0.00000000000E+00  0.00000000000E+00  0.13502125360E+03  0.13502125360E+03  0.00000000000E+00 0. -1.
          3   -1    0    0  502    0 -0.00000000000E+00 -0.00000000000E+00 -0.37857113260E+03  0.37857113260E+03  0.00000000000E+00 0. -1.
         23    2    1    2    0    0 -0.64138635150E+02  0.39600187089E+02 -0.29129368584E+03  0.31444348760E+03  0.91327740301E+02 0.  0.
         23    2    1    2    0    0  0.36838008202E+02 -0.52695023379E+02 -0.31415031766E+02  0.11439678536E+03  0.89251980049E+02 0.  0.
        -13    1    3    3    0    0 -0.82483993010E+02  0.47930989036E+02 -0.26252257195E+03  0.27931897464E+03  0.00000000000E+00 0.  1.
         13    1    3    3    0    0  0.18345357860E+02 -0.83308019463E+01 -0.28771113890E+02  0.35124512958E+02  0.00000000000E+00 0. -1.
        -13    1    4    4    0    0 -0.17225657636E+02 -0.16817187323E+02  0.20247493175E+02  0.31456351510E+02  0.00000000000E+00 0.  1.
         13    1    4    4    0    0  0.54063665838E+02 -0.35877836056E+02 -0.51662524941E+02  0.82940433850E+02  0.00000000000E+00 0. -1.
          3    1    1    2  501    0  0.27300626948E+02  0.13094836290E+02  0.79158838600E+02  0.84752113235E+02  0.00000000000E+00 0. -1.
<scales pt_clust_5="13000.00000" pt_clust_6="13000.00000" pt_clust_7="13000.00000" pt_clust_8="13000.00000" pt_clust_9="30.27869"></scales>
<clustering>
<clus scale="   30.279">  1  9  2 -1</clus>
<clus scale="   89.252">  7  8 -1 -1</clus>
<clus scale="   91.328">  5  6 -1 -1</clus>
<clus scale="  114.690">  1  7  2 -1</clus>
<clus scale="   30.279">  1  5  2 -1</clus>
</clustering>
</event>
<event>
 9    1  0.1315259E-005  0.1399926E+03  0.7546771E-02  0.1213472E+00
          1   -1    0    0  502    0 -0.00000000000E+00  0.00000000000E+00  0.19246360575E+03  0.19246360575E+03  0.00000000000E+00 0. -1.
         21   -1    0    0  501  502  0.00000000000E+00 -0.00000000000E+00 -0.19103120621E+03  0.19103120621E+03  0.00000000000E+00 0. -1.
         23    2    1    2    0    0  0.70455304661E+02  0.64575703819E+02  0.66792700451E+02  0.14746399402E+03  0.90279528243E+02 0.  0.
         23    2    1    2    0    0 -0.10905517183E+03 -0.68223301600E+02  0.28930549514E+01  0.15753384156E+03  0.90890550034E+02 0.  0.
        -13    1    4    4    0    0 -0.43669295219E+02 -0.46537842088E+02 -0.40997043334E+02  0.75852064265E+02  0.00000000000E+00 0.  1.
         13    1    4    4    0    0 -0.65385876615E+02 -0.21685459512E+02  0.43890098286E+02  0.81681777298E+02  0.00000000000E+00 0. -1.
        -13    1    3    3    0    0 -0.11493482891E+02  0.43971396451E+02  0.12909686697E+02  0.47246628085E+02  0.00000000000E+00 0.  1.
         13    1    3    3    0    0  0.81948787553E+02  0.20604307368E+02  0.53883013754E+02  0.10021736593E+03  0.00000000000E+00 0. -1.
          1    1    1    2  501    0  0.38599867172E+02  0.36475977807E+01 -0.68253355854E+02  0.78496976379E+02  0.00000000000E+00 0. -1.
<scales pt_clust_5="13000.00000" pt_clust_6="13000.00000" pt_clust_7="13000.00000" pt_clust_8="13000.00000" pt_clust_9="38.77183"></scales>
<clustering>
<clus scale="   38.772">  2  9  1 -1</clus>
<clus scale="   90.280">  7  8 -1 -1</clus>
<clus scale="   90.891">  5  6 -1 -1</clus>
<clus scale="  139.597">  1  7  2 -1</clus>
<clus scale="   38.772">  2  5  1 -1</clus>
</clustering>
</event>
<event>
 9    1  0.1315259E-005  0.3454954E+03  0.7546771E-02  0.1064514E+00
          2   -1    0    0  502    0 -0.00000000000E+00  0.00000000000E+00  0.99761694635E+03  0.99761694635E+03  0.00000000000E+00 0. -1.
         21   -1    0    0  501  502  0.00000000000E+00 -0.00000000000E+00 -0.27256027350E+03  0.27256027350E+03  0.00000000000E+00 0.  1.
         23    2    1    2    0    0  0.12109343183E+03 -0.30456826705E+03  0.78044950490E+03  0.85148770780E+03  0.92219511523E+02 0.  0.
         23    2    1    2    0    0 -0.12093011624E+03  0.34290904770E+03 -0.38480647299E+02  0.37678409324E+03  0.90965843520E+02 0.  0.
        -13    1    3    3    0    0  0.63796306938E+02 -0.15921254287E+03  0.29188986383E+03  0.33855323834E+03  0.00000000000E+00 0.  1.
         13    1    3    3    0    0  0.57297124897E+02 -0.14535572419E+03  0.48855964107E+03  0.51293446946E+03  0.00000000000E+00 0. -1.
        -13    1    4    4    0    0 -0.52811282775E+02  0.13424909065E+03  0.28997566071E+02  0.14714859417E+03  0.00000000000E+00 0. -1.
         13    1    4    4    0    0 -0.68118833470E+02  0.20865995705E+03 -0.67478213370E+02  0.22963549906E+03  0.00000000000E+00 0.  1.
          2    1    1    2  501    0 -0.16331558993E+00 -0.38340780650E+02 -0.16912184750E+02  0.41905418812E+02  0.00000000000E+00 0. -1.
<scales pt_clust_5="13000.00000" pt_clust_6="13000.00000" pt_clust_7="13000.00000" pt_clust_8="13000.00000" pt_clust_9="38.34113"></scales>
<clustering>
<clus scale="   38.341">  2  9  1 -1</clus>
<clus scale="   90.966">  7  8 -1 -1</clus>
<clus scale="   92.220">  5  6 -1 -1</clus>
<clus scale="  345.163">  2  7  1 -1</clus>
<clus scale="   38.341">  2  5  1 -1</clus>
</clustering>
</event>
<event>
 9    1  0.1315259E-005  0.1210814E+03  0.7546771E-02  0.1241940E+00
          2   -1    0    0  502    0 -0.00000000000E+00  0.00000000000E+00  0.35411950582E+03  0.35411950582E+03  0.00000000000E+00 0. -1.
         21   -1    0    0  501  502  0.00000000000E+00 -0.00000000000E+00 -0.79857882211E+02  0.79857882211E+02  0.00000000000E+00 0.  1.
         23    2    1    2    0    0  0.21748350508E+02 -0.80622531047E+02  0.22851457609E+03  0.25783241142E+03  0.85356063818E+02 0.  0.
         23    2    1    2    0    0  0.19906066676E+02  0.90278354497E+02  0.36693431664E+02  0.13243807375E+03  0.87447142149E+02 0.  0.
        -11    1    3    3    0    0  0.50992395472E+02 -0.63710894220E+02  0.18887882745E+03  0.20575352706E+03  0.00000000000E+00 0.  1.
         11    1    3    3    0    0 -0.29244044963E+02 -0.16911636827E+02  0.39635748638E+02  0.52078884359E+02  0.00000000000E+00 0. -1.
        -11    1    4    4    0    0  0.94884014843E+01  0.23019318530E+02 -0.28739906934E+02  0.38025005442E+02  0.00000000000E+00 0.  1.
         11    1    4    4    0    0  0.10417665192E+02  0.67259035968E+02  0.65433338598E+02  0.94413068308E+02  0.00000000000E+00 0. -1.
          2    1    1    2  501    0 -0.41654417185E+02 -0.96558234499E+01  0.90536158514E+01  0.43706902858E+02  0.00000000000E+00 0. -1.
<scales pt_clust_5="13000.00000" pt_clust_6="13000.00000" pt_clust_7="13000.00000" pt_clust_8="13000.00000" pt_clust_9="42.75892"></scales>
<clustering>
<clus scale="   42.759">  2  9  1 -1</clus>
<clus scale="   85.356">  5  6 -1 -1</clus>
<clus scale="   87.447">  7  8 -1 -1</clus>
<clus scale="  119.580">  1  5  2 -1</clus>
<clus scale="   42.759">  2  5  1 -1</clus>
</clustering>
</event>
<event>
 9    1  0.1315259E-005  0.9180642E+02  0.7546771E-02  0.1300042E+00
         21   -1    0    0  501  502  0.00000000000E+00  0.00000000000E+00  0.68374169598E+02  0.68374169598E+02  0.00000000000E+00 0. -1.
          2   -1    0    0  502    0 -0.00000000000E+00 -0.00000000000E+00 -0.30528922938E+03  0.30528922938E+03  0.00000000000E+00 0. -1.
         23    2    1    2    0    0  0.39575566081E+01  0.39575422060E+01 -0.16049016778E+03  0.18488497723E+03  0.91618974338E+02 0.  0.
         23    2    1    2    0    0  0.18852664271E+02  0.49067929598E+01 -0.11272565393E+03  0.14499911236E+03  0.89096408245E+02 0.  0.
        -11    1    4    4    0    0 -0.15592773553E+02  0.16907550102E+02  0.34268127419E+01  0.23253878883E+02  0.00000000000E+00 0.  1.
         11    1    4    4    0    0  0.34445437823E+02 -0.12000757143E+02 -0.11615246667E+03  0.12174523347E+03  0.00000000000E+00 0. -1.
        -11    1    3    3    0    0  0.47574012752E+02  0.38568790332E+01 -0.92886972088E+02  0.10443252266E+03  0.00000000000E+00 0.  1.
         11    1    3    3    0    0 -0.43616456144E+02  0.10066317276E+00 -0.67603195688E+02  0.80452454574E+02  0.00000000000E+00 0. -1.
          2    1    1    2  501    0 -0.22810220879E+02 -0.88643351657E+01  0.36300761924E+02  0.43779309391E+02  0.00000000000E+00 0. -1.
<scales pt_clust_5="13000.00000" pt_clust_6="13000.00000" pt_clust_7="13000.00000" pt_clust_8="13000.00000" pt_clust_9="24.47208"></scales>
<clustering>
<clus scale="   24.472">  1  9  2 -1</clus>
<clus scale="   89.096">  5  6 -1 -1</clus>
<clus scale="   89.289">  1  5  2 -1</clus>
<clus scale="   91.619">  7  8 -1 -1</clus>
<clus scale="   24.472">  1  5  2 -1</clus>
</clustering>
</event>
<event>
 9    1  0.1315259E-005  0.1658445E+03  0.7546771E-02  0.1202577E+00
         21   -1    0    0  501  502  0.00000000000E+00  0.00000000000E+00  0.36227782758E+02  0.36227782758E+02  0.00000000000E+00 0. -1.
         -1   -1    0    0    0  501 -0.00000000000E+00 -0.00000000000E+00 -0.12975331781E+04  0.12975331781E+04  0.00000000000E+00 0.  1.
         23    2    1    2    0    0  0.47149809737E+02 -0.24619568219E+02 -0.24097534562E+03  0.26327433220E+03  0.91733467720E+02 0.  0.
         23    2    1    2    0    0 -0.12173494003E+03  0.12215235294E+03 -0.71681024491E+03  0.74307273515E+03  0.92733864125E+02 0.  0.
        -13    1    3    3    0    0  0.31681669826E+02 -0.58756029767E+02 -0.17645053039E+03  0.18865521173E+03  0.00000000000E+00 0.  1.
         13    1    3    3    0    0  0.15468139911E+02  0.34136461548E+02 -0.64524815229E+02  0.74619120470E+02  0.00000000000E+00 0. -1.
        -13    1    4    4    0    0 -0.50797377549E+02 -0.37450383563E+01 -0.20734405086E+03  0.21350867501E+03  0.00000000000E+00 0.  1.
         13    1    4    4    0    0 -0.70937562479E+02  0.12589739129E+03 -0.50946619405E+03  0.52956406013E+03  0.00000000000E+00 0. -1.
         -1    1    1    2    0  502  0.74585130291E+02 -0.97532784716E+02 -0.30351980484E+03  0.32741389354E+03  0.00000000000E+00 0.  1.
<scales pt_clust_5="13000.00000" pt_clust_6="13000.00000" pt_clust_7="13000.00000" pt_clust_8="13000.00000" pt_clust_9="137.49485"></scales>
<clustering>
<clus scale="   91.733">  5  6 -1 -1</clus>
<clus scale="   92.734">  7  8 -1 -1</clus>
<clus scale="  106.039">  2  5  1 -1</clus>
<clus scale="  137.495">  1  9  2 -1</clus>
<clus scale="  137.495">  1  5  2 -1</clus>
</clustering>
</event>
<event>
 9    1  0.1315259E-005  0.8777717E+02  0.7546771E-02  0.1308393E+00
         21   -1    0    0  501  502  0.00000000000E+00  0.00000000000E+00  0.99712067700E+02  0.99712067700E+02  0.00000000000E+00 0.  1.
         -1   -1    0    0    0  501 -0.00000000000E+00 -0.00000000000E+00 -0.11679262674E+03  0.11679262674E+03  0.00000000000E+00 0.  1.
         23    2    1    2    0    0 -0.71805661290E+01 -0.56859538085E+01 -0.43718023300E+02  0.97976061769E+02  0.87201791942E+02 0.  0.
         23    2    1    2    0    0 -0.13533769346E+02  0.18465513454E+02  0.14100919053E+02  0.91150433224E+02  0.87094359513E+02 0.  0.
        -11    1    4    4    0    0 -0.38959597796E+02  0.24938283759E+02 -0.18048520254E+02  0.49653976080E+02  0.00000000000E+00 0.  1.
         11    1    4    4    0    0  0.25425828450E+02 -0.64727703053E+01  0.32149439306E+02  0.41496457144E+02  0.00000000000E+00 0. -1.
        -11    1    3    3    0    0 -0.45484542795E+02  0.29888721665E+01 -0.11078542296E+02  0.46909605514E+02  0.00000000000E+00 0.  1.
         11    1    3    3    0    0  0.38303976666E+02 -0.86748259749E+01 -0.32639481005E+02  0.51066456254E+02  0.00000000000E+00 0. -1.
         -1    1    1    2    0  502  0.20714335475E+02 -0.12779559645E+02  0.12536545212E+02  0.27378199443E+02  0.00000000000E+00 0.  1.
<scales pt_clust_5="13000.00000" pt_clust_6="13000.00000" pt_clust_7="13000.00000" pt_clust_8="13000.00000" pt_clust_9="24.33929"></scales>
<clustering>
<clus scale="   24.339">  1  9  2 -1</clus>
<clus scale="   87.094">  5  6 -1 -1</clus>
<clus scale="   87.202">  7  8 -1 -1</clus>
<clus scale="   87.670">  1  5  2 -1</clus>
<clus scale="   24.339">  1  5  2 -1</clus>
</clustering>
</event>
<event>
 9    1  0.1315259E-005  0.1584259E+03  0.7546771E-02  0.1198079E+00
         21   -1    0    0  501  502  0.00000000000E+00  0.00000000000E+00  0.29482554039E+02  0.29482554039E+02  0.00000000000E+00 0.  1.
         -3   -1    0    0    0  501 -0.00000000000E+00 -0.00000000000E+00 -0.13152188373E+04  0.13152188373E+04  0.00000000000E+00 0.  1.
         23    2    1    2    0    0  0.27099423583E+02  0.10566004124E+03 -0.97179691450E+03  0.98590925924E+03  0.12541691017E+03 0.  0.
         23    2    1    2    0    0 -0.35110381288E+02 -0.68670045568E+02 -0.28973105429E+03  0.31386466038E+03  0.92836561660E+02 0.  0.
        -11    1    4    4    0    0 -0.58738836590E+02 -0.31016992595E+02 -0.10813855205E+03  0.12691040617E+03  0.00000000000E+00 0.  1.
         11    1    4    4    0    0  0.23628455302E+02 -0.37653052974E+02 -0.18159250224E+03  0.18695425421E+03  0.00000000000E+00 0. -1.
        -13    1    3    3    0    0  0.61120238100E+02  0.11560828594E+03 -0.76491252667E+03  0.77601039474E+03  0.00000000000E+00 0.  1.
         13    1    3    3    0    0 -0.34020814517E+02 -0.99482446993E+01 -0.20688438783E+03  0.20989886450E+03  0.00000000000E+00 0. -1.
         -3    1    1    2    0  502  0.80109577046E+01 -0.36989995675E+02 -0.24208314420E+02  0.44927471667E+02  0.00000000000E+00 0.  1.
<scales pt_clust_5="13000.00000" pt_clust_6="13000.00000" pt_clust_7="13000.00000" pt_clust_8="13000.00000" pt_clust_9="37.84753"></scales>
<clustering>
<clus scale="   37.848">  1  9  2 -1</clus>
<clus scale="   92.837">  5  6 -1 -1</clus>
<clus scale="  125.417">  7  8 -1 -1</clus>
<clus scale="  134.119">  1  5  2 -1</clus>
<clus scale="   37.848">  1  5  2 -1</clus>
</clustering>
</event>
<event>
 9    1  0.1315259E-005  0.1620074E+03  0.7546771E-02  0.1186964E+00
         -3   -1    0    0    0  501 -0.00000000000E+00  0.00000000000E+00  0.13825870757E+03  0.13825870757E+03  0.00000000000E+00 0.  1.
         21   -1    0    0  501  502  0.00000000000E+00 -0.00000000000E+00 -0.28867908419E+03  0.28867908419E+03  0.00000000000E+00 0.  1.
         23    2    1    2    0    0  0.78712628647E+02 -0.14279869612E+03 -0.26362323772E+02  0.18802862643E+03  0.89847908816E+02 0.  0.
         23    2    1    2    0    0 -0.59117059177E+02  0.83275973780E+02 -0.64666389777E+02  0.15257081662E+03  0.93093488609E+02 0.  0.
        -11    1    4    4    0    0 -0.32651984591E+02  0.10105699302E+03 -0.52203474898E+02  0.11833795134E+03  0.00000000000E+00 0. -1.
         11    1    4    4    0    0 -0.26465074586E+02 -0.17781019236E+02 -0.12462914878E+02  0.34232865279E+02  0.00000000000E+00 0.  1.
        -13    1    3    3    0    0  0.28235517714E+02  0.76150574298E+00  0.12623560779E+02  0.30938303740E+02  0.00000000000E+00 0. -1.
         13    1    3    3    0    0  0.50477110933E+02 -0.14356020187E+03 -0.38985884551E+02  0.15709032269E+03  0.00000000000E+00 0.  1.
         -3    1    1    2    0  502 -0.19595569470E+02  0.59522722343E+02 -0.59391663065E+02  0.86338348720E+02  0.00000000000E+00 0.  1.
<scales pt_clust_5="13000.00000" pt_clust_6="13000.00000" pt_clust_7="13000.00000" pt_clust_8="13000.00000" pt_clust_9="62.66531"></scales>
<clustering>
<clus scale="   62.665">  2  9  1 -1</clus>
<clus scale="   89.848">  7  8 -1 -1</clus>
<clus scale="   93.093">  5  6 -1 -1</clus>
<clus scale="  160.164">  1  7  2 -1</clus>
<clus scale="   62.665">  2  5  1 -1</clus>
</clustering>
</event>
<event>
 9    1  0.1315259E-005  0.1648604E+03  0.7546771E-02  0.1183701E+00
          1   -1    0    0  502    0 -0.00000000000E+00  0.00000000000E+00  0.71669089798E+03  0.71669089798E+03  0.00000000000E+00 0. -1.
         21   -1    0    0  501  502  0.00000000000E+00 -0.00000000000E+00 -0.69908848602E+02  0.69908848602E+02  0.00000000000E+00 0.  1.
         23    2    1    2    0    0 -0.14405428522E+03  0.16978301315E+02  0.53437429081E+03  0.56139461805E+03  0.92564219259E+02 0.  0.
         23    2    1    2    0    0  0.10847910959E+03 -0.88666716682E+01  0.12013379720E+03  0.18790789902E+03  0.95031122260E+02 0.  0.
        -11    1    4    4    0    0  0.67135679715E+02  0.79198848464E+01  0.90590668205E+01  0.68205503872E+02  0.00000000000E+00 0.  1.
         11    1    4    4    0    0  0.41343429875E+02 -0.16786556515E+02  0.11107473038E+03  0.11970239514E+03  0.00000000000E+00 0. -1.
        -11    1    3    3    0    0 -0.98973003824E+02  0.54857665086E+02  0.35625201553E+03  0.37379207786E+03  0.00000000000E+00 0.  1.
         11    1    3    3    0    0 -0.45081281397E+02 -0.37879363771E+02  0.17812227528E+03  0.18760254019E+03  0.00000000000E+00 0. -1.
          1    1    1    2  501    0  0.35575175632E+02 -0.81116296464E+01 -0.77260386364E+01  0.37297229518E+02  0.00000000000E+00 0. -1.
<scales pt_clust_5="13000.00000" pt_clust_6="13000.00000" pt_clust_7="13000.00000" pt_clust_8="13000.00000" pt_clust_9="36.48824"></scales>
<clustering>
<clus scale="   36.488">  2  9  1 -1</clus>
<clus scale="   92.564">  7  8 -1 -1</clus>
<clus scale="   95.031">  5  6 -1 -1</clus>
<clus scale="  163.451">  1  7  2 -1</clus>
<clus scale="   36.488">  2  5  1 -1</clus>
</clustering>
</event>
<event>
 9    1  0.1315259E-005  0.1352128E+03  0.7546771E-02  0.1226354E+00
         21   -1    0    0  501  502  0.00000000000E+00  0.00000000000E+00  0.27134740920E+03  0.27134740920E+03  0.00000000000E+00 0. -1.
         -3   -1    0    0    0  501 -0.00000000000E+00 -0.00000000000E+00 -0.14866747199E+03  0.14866747199E+03  0.00000000000E+00 0.  1.
         23    2    1    2    0    0  0.39294178678E+02  0.58989437062E+02 -0.49635586253E+02  0.12597380007E+03  0.91552830205E+02 0.  0.
         23    2    1    2    0    0 -0.60500942881E+02 -0.58855347510E+02  0.22286270064E+02  0.14252038384E+03  0.11265463132E+03 0.  0.
        -11    1    4    4    0    0  0.30569660178E+02 -0.31245628943E+02  0.17959691171E+02  0.47258268678E+02  0.00000000000E+00 0.  1.
         11    1    4    4    0    0 -0.91070603059E+02 -0.27609718567E+02  0.43265788931E+01  0.95262115165E+02  0.00000000000E+00 0. -1.
        -11    1    3    3    0    0  0.41158883379E+02 -0.12958853725E+02 -0.25178683543E+02  0.49959500356E+02  0.00000000000E+00 0.  1.
         11    1    3    3    0    0 -0.18647047007E+01  0.71948290787E+02 -0.24456902710E+02  0.76014299714E+02  0.00000000000E+00 0. -1.
         -3    1    1    2    0  502  0.21206764203E+02 -0.13408955230E+00  0.15002925340E+03  0.15152069728E+03  0.00000000000E+00 0.  1.
<scales pt_clust_5="13000.00000" pt_clust_6="13000.00000" pt_clust_7="13000.00000" pt_clust_8="13000.00000" pt_clust_9="21.20719"></scales>
<clustering>
<clus scale="   21.207">  1  9  2 -1</clus>
<clus scale="   91.553">  7  8 -1 -1</clus>
<clus scale="  112.655">  5  6 -1 -1</clus>
<clus scale="  118.209">  2  7  1 -1</clus>
<clus scale="   21.207">  1  5  2 -1</clus>
</clustering>
</event>
<event>
 9    1  0.1315259E-005  0.9995258E+02  0.7546771E-02  0.1280846E+00
         -2   -1    0    0    0  501 -0.00000000000E+00  0.00000000000E+00  0.14870510629E+03  0.14870510629E+03  0.00000000000E+00 0.  1.
         21   -1    0    0  501  502  0.00000000000E+00 -0.00000000000E+00 -0.26007369095E+03  0.26007369095E+03  0.00000000000E+00 0.  1.
         23    2    1    2    0    0 -0.98173544727E+01  0.46224693895E+02  0.81659533801E+02  0.12968125584E+03  0.88971039563E+02 0.  0.
         23    2    1    2    0    0  0.43165486408E+02 -0.28678630829E+02 -0.22671175559E+02  0.10462275747E+03  0.88012590557E+02 0.  0.
        -13    1    3    3    0    0 -0.45248598389E+02  0.46776976483E+02  0.48673288511E+02  0.81268752910E+02  0.00000000000E+00 0.  1.
         13    1    3    3    0    0  0.35431243917E+02 -0.55228258823E+00  0.32986245290E+02  0.48412502929E+02  0.00000000000E+00 0. -1.
        -13    1    4    4    0    0 -0.92268222871E+01  0.23651574626E+02  0.44261345601E+01  0.25770562644E+02  0.00000000000E+00 0.  1.
         13    1    4    4    0    0  0.52392308695E+02 -0.52330205455E+02 -0.27097310119E+02  0.78852194827E+02  0.00000000000E+00 0. -1.
         -2    1    1    2    0  502 -0.33348131936E+02 -0.17546063066E+02 -0.17035694290E+03  0.17447478393E+03  0.00000000000E+00 0.  1.
<scales pt_clust_5="13000.00000" pt_clust_6="13000.00000" pt_clust_7="13000.00000" pt_clust_8="13000.00000" pt_clust_9="37.68239"></scales>
<clustering>
<clus scale="   37.682">  2  9  1 -1</clus>
<clus scale="   88.013">  7  8 -1 -1</clus>
<clus scale="   88.971">  5  6 -1 -1</clus>
<clus scale="   99.100">  2  7  1 -1</clus>
<clus scale="   37.682">  2  5  1 -1</clus>
</clustering>
</event>
<event>
 9    1  0.1315259E-005  0.1148039E+03  0.7546771E-02  0.1252343E+00
          1   -1    0    0  502    0 -0.00000000000E+00  0.00000000000E+00  0.99500280713E+03  0.99500280713E+03  0.00000000000E+00 0. -1.
         21   -1    0    0  501  502  0.00000000000E+00 -0.00000000000E+00 -0.19174206807E+02  0.19174206807E+02  0.00000000000E+00 0. -1.
         23    2    1    2    0    0 -0.59386749054E+02  0.87131410939E+01  0.59578177731E+03  0.60605489771E+03  0.93508866275E+02 0.  0.
         23    2    1    2    0    0  0.77218350081E+02 -0.23348035961E+02  0.34523083679E+03  0.36635730999E+03  0.92333869965E+02 0.  0.
        -13    1    4    4    0    0  0.52927217615E+01  0.25478384829E+02  0.31779624130E+02  0.41074389916E+02  0.00000000000E+00 0.  1.
         13    1    4    4    0    0  0.71925628320E+02 -0.48826420790E+02  0.31345121266E+03  0.32528292007E+03  0.00000000000E+00 0. -1.
        -13    1    3    3    0    0  0.23675823612E+02  0.99334305588E+01  0.94008264441E+02  0.97451379926E+02  0.00000000000E+00 0.  1.
         13    1    3    3    0    0 -0.83062572666E+02 -0.12202894649E+01  0.50177351287E+03  0.50860351779E+03  0.00000000000E+00 0. -1.
          1    1    1    2  501    0 -0.17831601028E+02  0.14634894867E+02  0.34815986222E+02  0.41764806232E+02  0.00000000000E+00 0. -1.
<scales pt_clust_5="13000.00000" pt_clust_6="13000.00000" pt_clust_7="13000.00000" pt_clust_8="13000.00000" pt_clust_9="23.06829"></scales>
<clustering>
<clus scale="   23.068">  2  9  1 -1</clus>
<clus scale="   92.334">  5  6 -1 -1</clus>
<clus scale="   93.509">  7  8 -1 -1</clus>
<clus scale="  113.849">  2  5  1 -1</clus>
<clus scale="   23.068">  2  5  1 -1</clus>
</clustering>
</event>
<event>
 9    1  0.1315259E-005  0.9253685E+02  0.7546771E-02  0.1297655E+00
         21   -1    0    0  501  502  0.00000000000E+00  0.00000000000E+00  0.18324894001E+03  0.18324894001E+03  0.00000000000E+00 0. -1.
          4   -1    0    0  502    0 -0.00000000000E+00 -0.00000000000E+00 -0.13606250631E+03  0.13606250631E+03  0.00000000000E+00 0. -1.
         23    2    1    2    0    0  0.51954348587E+01 -0.93408793893E+01 -0.47905693698E+02  0.10451354899E+03  0.92270698827E+02 0.  0.
         23    2    1    2    0    0  0.21088978317E+02 -0.64350819233E+02  0.67177569734E+02  0.13172829188E+03  0.90850118678E+02 0.  0.
        -13    1    4    4    0    0  0.28419002310E+02 -0.85872869596E+02  0.56093311934E+02  0.10643424763E+03  0.00000000000E+00 0. -1.
         13    1    4    4    0    0 -0.73300239924E+01  0.21522050363E+02  0.11084257800E+02  0.25294044250E+02  0.00000000000E+00 0.  1.
        -13    1    3    3    0    0 -0.24440303812E+02  0.29044048227E+01  0.18487558233E+02  0.30782362275E+02  0.00000000000E+00 0. -1.
         13    1    3    3    0    0  0.29635738671E+02 -0.12245284212E+02 -0.66393251931E+02  0.73731186712E+02  0.00000000000E+00 0.  1.
          4    1    1    2  501    0 -0.26284413176E+02  0.73691698623E+02  0.27914557662E+02  0.83069605461E+02  0.00000000000E+00 0. -1.
<scales pt_clust_5="13000.00000" pt_clust_6="13000.00000" pt_clust_7="13000.00000" pt_clust_8="13000.00000" pt_clust_9="78.23897"></scales>
<clustering>
<clus scale="   78.239">  1  9  2 -1</clus>
<clus scale="   90.850">  5  6 -1 -1</clus>
<clus scale="   91.120">  1  5  2 -1</clus>
<clus scale="   92.271">  7  8 -1 -1</clus>
<clus scale="   78.239">  1  5  2 -1</clus>
</clustering>
</event>
<event>
 9    1  0.1315259E-005  0.1163813E+03  0.7546771E-02  0.1250085E+00
          2   -1    0    0  502    0 -0.00000000000E+00  0.00000000000E+00  0.34823526690E+03  0.34823526690E+03  0.00000000000E+00 0. -1.
         21   -1    0    0  501  502  0.00000000000E+00 -0.00000000000E+00 -0.79029829559E+02  0.79029829559E+02  0.00000000000E+00 0. -1.
         23    2    1    2    0    0  0.79982195570E+02  0.13523788192E+02  0.13633159593E+03  0.18283521116E+03  0.90897557362E+02 0.  0.
         23    2    1    2    0    0 -0.28466105798E+02 -0.72113492235E+02  0.10805894868E+03  0.16256145533E+03  0.93481631494E+02 0.  0.
        -11    1    4    4    0    0 -0.11458334112E+02 -0.52259411937E+02  0.12179642774E+03  0.13302897943E+03  0.00000000000E+00 0. -1.
         11    1    4    4    0    0 -0.17007771686E+02 -0.19854080298E+02 -0.13737479057E+02  0.29532475904E+02  0.00000000000E+00 0.  1.
        -13    1    3    3    0    0 -0.16891420826E+02 -0.13055529458E+02  0.22451924175E+02  0.30981540409E+02  0.00000000000E+00 0.  1.
         13    1    3    3    0    0  0.96873616396E+02  0.26579317650E+02  0.11387967176E+03  0.15185367075E+03  0.00000000000E+00 0. -1.
          2    1    1    2  501    0 -0.51516089772E+02  0.58589704043E+02  0.24814892726E+02  0.81868429973E+02  0.00000000000E+00 0. -1.
<scales pt_clust_5="13000.00000" pt_clust_6="13000.00000" pt_clust_7="13000.00000" pt_clust_8="13000.00000" pt_clust_9="78.01706"></scales>
<clustering>
<clus scale="   78.017">  2  9  1 -1</clus>
<clus scale="   90.898">  7  8 -1 -1</clus>
<clus scale="   93.482">  5  6 -1 -1</clus>
<clus scale="  114.316">  1  7  2 -1</clus>
<clus scale="   78.017">  2  5  1 -1</clus>
</clustering>
</event>
<event>
 9    1  0.1315259E-005  0.9201466E+02  0.7546771E-02  0.1298769E+00
         -1   -1    0    0    0  501 -0.00000000000E+00  0.00000000000E+00  0.33030135144E+03  0.33030135144E+03  0.00000000000E+00 0.  1.
         21   -1    0    0  501  502  0.00000000000E+00 -0.00000000000E+00 -0.49750411633E+02  0.49750411633E+02  0.00000000000E+00 0.  1.
         23    2    1    2    0    0  0.14054943645E+02  0.12602185752E+02  0.16437128511E+03  0.18911748301E+03  0.91603201277E+02 0.  0.
         23    2    1    2    0    0  0.32062889413E+01  0.49884733637E+00  0.13482657514E+03  0.16234591074E+03  0.90374001982E+02 0.  0.
        -11    1    4    4    0    0  0.41738089436E+02  0.11775338680E+02  0.10074525578E+03  0.10968287593E+03  0.00000000000E+00 0.  1.
         11    1    4    4    0    0 -0.38531800494E+02 -0.11276491344E+02  0.34081319363E+02  0.52663034815E+02  0.00000000000E+00 0. -1.
        -13    1    3    3    0    0 -0.13804538875E+02  0.46867054971E+02  0.76452263515E+02  0.90730561179E+02  0.00000000000E+00 0. -1.
         13    1    3    3    0    0  0.27859482520E+02 -0.34264869220E+02  0.87919021593E+02  0.98386921828E+02  0.00000000000E+00 0.  1.
         -1    1    1    2    0  502 -0.17261232586E+02 -0.13101033088E+02 -0.18646920442E+02  0.28588369320E+02  0.00000000000E+00 0.  1.
<scales pt_clust_5="13000.00000" pt_clust_6="13000.00000" pt_clust_7="13000.00000" pt_clust_8="13000.00000" pt_clust_9="21.66996"></scales>
<clustering>
<clus scale="   21.670">  2  9  1 -1</clus>
<clus scale="   90.374">  5  6 -1 -1</clus>
<clus scale="   90.791">  2  5  1 -1</clus>
<clus scale="   91.603">  7  8 -1 -1</clus>
<clus scale="   21.670">  2  5  1 -1</clus>
</clustering>
</event>
<event>
 9    1  0.1315259E-005  0.1232184E+03  0.7546771E-02  0.1239421E+00
          1   -1    0    0  502    0 -0.00000000000E+00  0.00000000000E+00  0.59379703347E+03  0.59379703347E+03  0.00000000000E+00 0. -1.
         21   -1    0    0  501  502  0.00000000000E+00 -0.00000000000E+00 -0.41460932054E+02  0.41460932054E+02  0.00000000000E+00 0. -1.
         23    2    1    2    0    0 -0.13866223449E+02 -0.73002799295E+02  0.40094976704E+03  0.41791311400E+03  0.91482098281E+02 0.  0.
         23    2    1    2    0    0  0.38168910448E+02  0.77497762645E+02  0.13812495624E+03  0.18929686691E+03  0.96395183202E+02 0.  0.
        -13    1    4    4    0    0  0.24190756747E+02 -0.11644337383E+02  0.32793690475E+01  0.27046951149E+02  0.00000000000E+00 0.  1.
         13    1    4    4    0    0  0.13978153700E+02  0.89142100028E+02  0.13484558719E+03  0.16224991576E+03  0.00000000000E+00 0. -1.
        -13    1    3    3    0    0 -0.48998578477E+02 -0.49891167485E+02  0.18221205676E+03  0.19516972848E+03  0.00000000000E+00 0.  1.
         13    1    3    3    0    0  0.35132355029E+02 -0.23111631810E+02  0.21873771028E+03  0.22274338552E+03  0.00000000000E+00 0. -1.
          1    1    1    2  501    0 -0.24302686999E+02 -0.44949633502E+01  0.13261378131E+02  0.28047984613E+02  0.00000000000E+00 0. -1.
<scales pt_clust_5="13000.00000" pt_clust_6="13000.00000" pt_clust_7="13000.00000" pt_clust_8="13000.00000" pt_clust_9="24.71488"></scales>
<clustering>
<clus scale="   24.715">  2  9  1 -1</clus>
<clus scale="   91.482">  7  8 -1 -1</clus>
<clus scale="   96.395">  5  6 -1 -1</clus>
<clus scale="  119.414">  1  7  2 -1</clus>
<clus scale="   24.715">  2  5  1 -1</clus>
</clustering>
</event>
<event>
 9    1  0.1315259E-005  0.9997529E+02  0.7546771E-02  0.1281934E+00
         21   -1    0    0  501  502  0.00000000000E+00  0.00000000000E+00  0.55227021744E+02  0.55227021744E+02  0.00000000000E+00 0. -1.
          1   -1    0    0  502    0 -0.00000000000E+00 -0.00000000000E+00 -0.23691077653E+03  0.23691077653E+03  0.00000000000E+00 0. -1.
         23    2    1    2    0    0 -0.46418147877E+02 -0.86007216717E+01 -0.93606335825E+02  0.13962098765E+03  0.92213107641E+02 0.  0.
         23    2    1    2    0    0  0.29693938342E+02 -0.15100674092E+02 -0.61577851994E+02  0.11322708684E+03  0.88987532863E+02 0.  0.
        -11    1    3    3    0    0 -0.16750685575E+02  0.31694449462E+02 -0.28217305866E+01  0.35959501630E+02  0.00000000000E+00 0.  1.
         11    1    3    3    0    0 -0.29667462302E+02 -0.40295171134E+02 -0.90784605238E+02  0.10366148602E+03  0.00000000000E+00 0. -1.
        -13    1    4    4    0    0  0.44046897527E+02  0.17808695059E+02 -0.60999983214E+02  0.77319316820E+02  0.00000000000E+00 0.  1.
         13    1    4    4    0    0 -0.14352959185E+02 -0.32909369150E+02 -0.57786878081E+00  0.35907770017E+02  0.00000000000E+00 0. -1.
          1    1    1    2  501    0  0.16724209535E+02  0.23701395763E+02 -0.26499566972E+02  0.39289723789E+02  0.00000000000E+00 0. -1.
<scales pt_clust_5="13000.00000" pt_clust_6="13000.00000" pt_clust_7="13000.00000" pt_clust_8="13000.00000" pt_clust_9="29.00786"></scales>
<clustering>
<clus scale="   29.008">  1  9  2 -1</clus>
<clus scale="   88.988">  7  8 -1 -1</clus>
<clus scale="   92.213">  5  6 -1 -1</clus>
<clus scale="   97.008">  1  7  2 -1</clus>
<clus scale="   29.008">  1  5  2 -1</clus>
</clustering>
</event>
<event>
 9    1  0.1315259E-005  0.1067253E+03  0.7546771E-02  0.1267246E+00
          3   -1    0    0  502    0 -0.00000000000E+00  0.00000000000E+00  0.20604044119E+03  0.20604044119E+03  0.00000000000E+00 0. -1.
         21   -1    0    0  501  502  0.00000000000E+00 -0.00000000000E+00 -0.74916479331E+02  0.74916479331E+02  0.00000000000E+00 0.  1.
         23    2    1    2    0    0 -0.45057194709E+02  0.20631067971E+02  0.90276249021E+02  0.13630248722E+03  0.89290397720E+02 0.  0.
         23    2    1    2    0    0  0.58126444858E+02 -0.35991518829E+02  0.48149363052E+02  0.12320535766E+03  0.90482738544E+02 0.  0.
        -11    1    4    4    0    0  0.10498566151E+02  0.24220573594E+02  0.37262254716E+02  0.45665432254E+02  0.00000000000E+00 0.  1.
         11    1    4    4    0    0  0.47627878706E+02 -0.60212092423E+02  0.10887108336E+02  0.77539925406E+02  0.00000000000E+00 0. -1.
        -13    1    3    3    0    0 -0.46142473431E+02  0.48928933838E+02  0.39048782222E+02  0.77768732881E+02  0.00000000000E+00 0.  1.
         13    1    3    3    0    0  0.10852787223E+01 -0.28297865868E+02  0.51227466799E+02  0.58533754340E+02  0.00000000000E+00 0. -1.
          3    1    1    2  501    0 -0.13069250149E+02  0.15360450858E+02 -0.73016502127E+01  0.21449075641E+02  0.00000000000E+00 0. -1.
<scales pt_clust_5="13000.00000" pt_clust_6="13000.00000" pt_clust_7="13000.00000" pt_clust_8="13000.00000" pt_clust_9="20.16801"></scales>
<clustering>
<clus scale="   20.168">  2  9  1 -1</clus>
<clus scale="   89.290">  7  8 -1 -1</clus>
<clus scale="   90.483">  5  6 -1 -1</clus>
<clus scale="  105.716">  1  7  2 -1</clus>
<clus scale="   20.168">  2  5  1 -1</clus>
</clustering>
</event>
<event>
 9    1  0.1315259E-005  0.1661601E+03  0.7546771E-02  0.1181966E+00
         -3   -1    0    0    0  501 -0.00000000000E+00  0.00000000000E+00  0.62039094070E+03  0.62039094070E+03  0.00000000000E+00 0.  1.
         21   -1    0    0  501  502  0.00000000000E+00 -0.00000000000E+00 -0.15751840557E+03  0.15751840557E+03  0.00000000000E+00 0. -1.
         23    2    1    2    0    0  0.14095229138E+03 -0.11780037270E+02  0.54345309300E+03  0.56862038382E+03  0.89339570644E+02 0.  0.
         23    2    1    2    0    0 -0.12348714577E+03  0.24897957775E+02 -0.96797980961E+02  0.18208389010E+03  0.88970278416E+02 0.  0.
        -11    1    3    3    0    0  0.76150462099E+02  0.22074062623E+02  0.39806583883E+03  0.40588492108E+03  0.00000000000E+00 0.  1.
         11    1    3    3    0    0  0.64801829283E+02 -0.33854099894E+02  0.14538725417E+03  0.16273546274E+03  0.00000000000E+00 0. -1.
        -13    1    4    4    0    0 -0.87842734267E+02 -0.19496808685E+02 -0.31226571893E+02  0.95244791482E+02  0.00000000000E+00 0. -1.
         13    1    4    4    0    0 -0.35644411508E+02  0.44394766461E+02 -0.65571409068E+02  0.86839098614E+02  0.00000000000E+00 0.  1.
         -3    1    1    2    0  502 -0.17465145608E+02 -0.13117920505E+02  0.16217423089E+02  0.27205072342E+02  0.00000000000E+00 0.  1.
<scales pt_clust_5="13000.00000" pt_clust_6="13000.00000" pt_clust_7="13000.00000" pt_clust_8="13000.00000" pt_clust_9="21.84289"></scales>
<clustering>
<clus scale="   21.843">  2  9  1 -1</clus>
<clus scale="   88.970">  7  8 -1 -1</clus>
<clus scale="   89.340">  5  6 -1 -1</clus>
<clus scale="  165.962">  2  7  1 -1</clus>
<clus scale="   21.843">  2  5  1 -1</clus>
</clustering>
</event>
<event>
 9    1  0.1315259E-005  0.9925115E+02  0.7546771E-02  0.1282143E+00
         -3   -1    0    0    0  501 -0.00000000000E+00  0.00000000000E+00  0.50415617994E+03  0.50415617994E+03  0.00000000000E+00 0.  1.
         21   -1    0    0  501  502  0.00000000000E+00 -0.00000000000E+00 -0.53930068792E+02  0.53930068792E+02  0.00000000000E+00 0.  1.
         23    2    1    2    0    0  0.92421150880E+01  0.25276110883E+02  0.27027450003E+03  0.28647045270E+03  0.91064353242E+02 0.  0.
         23    2    1    2    0    0 -0.55787820612E+02 -0.71766446622E+02  0.79605927336E+02  0.15162783716E+03  0.91603458155E+02 0.  0.
        -11    1    4    4    0    0 -0.68029703902E+02 -0.49210174844E+02  0.19391880859E+02  0.86172657870E+02  0.00000000000E+00 0.  1.
         11    1    4    4    0    0  0.12241883290E+02 -0.22556271778E+02  0.60214046477E+02  0.65455179292E+02  0.00000000000E+00 0. -1.
        -13    1    3    3    0    0 -0.36653920902E+02  0.11873656184E+02  0.18245530028E+03  0.18647903429E+03  0.00000000000E+00 0.  1.
         13    1    3    3    0    0  0.45896035990E+02  0.13402454699E+02  0.87819199752E+02  0.99991418415E+02  0.00000000000E+00 0. -1.
         -3    1    1    2    0  502  0.46545705524E+02  0.46490335739E+02  0.10034568378E+03  0.11998795887E+03  0.00000000000E+00 0.  1.
<scales pt_clust_5="13000.00000" pt_clust_6="13000.00000" pt_clust_7="13000.00000" pt_clust_8="13000.00000" pt_clust_9="65.78646"></scales>
<clustering>
<clus scale="   65.786">  2  9  1 -1</clus>
<clus scale="   91.064">  7  8 -1 -1</clus>
<clus scale="   91.603">  5  6 -1 -1</clus>
<clus scale="   98.754">  1  7  2 -1</clus>
<clus scale="   65.786">  2  5  1 -1</clus>
</clustering>
</event>
<event>
 9    1  0.1315259E-005  0.9270831E+02  0.7546771E-02  0.1296447E+00
         21   -1    0    0  501  502  0.00000000000E+00  0.00000000000E+00  0.14994793511E+03  0.14994793511E+03  0.00000000000E+00 0.  1.
          2   -1    0    0  502    0 -0.00000000000E+00 -0.00000000000E+00 -0.21626729713E+03  0.21626729713E+03  0.00000000000E+00 0.  1.
         23    2    1    2    0    0  0.27120874983E+02  0.23089220654E+01 -0.13860175903E+03  0.16806076828E+03  0.91066466096E+02 0.  0.
         23    2    1    2    0    0  0.76525730899E+01 -0.56616287036E+01 -0.24862809965E+02  0.94918692201E+02  0.91108632386E+02 0.  0.
        -13    1    4    4    0    0  0.28357389152E+02 -0.25700843962E+02 -0.45515734703E+02  0.59467276762E+02  0.00000000000E+00 0.  1.
         13    1    4    4    0    0 -0.20704816062E+02  0.20039215259E+02  0.20652924739E+02  0.35451415439E+02  0.00000000000E+00 0. -1.
        -13    1    3    3    0    0  0.38076712234E+02  0.38866110761E+02 -0.62070794929E+02  0.82542075109E+02  0.00000000000E+00 0.  1.
         13    1    3    3    0    0 -0.10955837250E+02 -0.36557188695E+02 -0.76530964102E+02  0.85518693170E+02  0.00000000000E+00 0. -1.
          2    1    1    2  501    0 -0.34773448073E+02  0.33527066381E+01  0.97145206971E+02  0.10323577176E+03  0.00000000000E+00 0.  1.
<scales pt_clust_5="13000.00000" pt_clust_6="13000.00000" pt_clust_7="13000.00000" pt_clust_8="13000.00000" pt_clust_9="34.93470"></scales>
<clustering>
<clus scale="   34.935">  1  9  2 -1</clus>
<clus scale="   91.066">  7  8 -1 -1</clus>
<clus scale="   91.109">  5  6 -1 -1</clus>
<clus scale="   92.667">  2  7  1 -1</clus>
<clus scale="   34.935">  1  5  2 -1</clus>
</clustering>
</event>
<event>
 9    1  0.1315259E-005  0.1188223E+03  0.7546771E-02  0.1246403E+00
         21   -1    0    0  501  502  0.00000000000E+00  0.00000000000E+00  0.65459850501E+02  0.65459850501E+02  0.00000000000E+00 0. -1.
          1   -1    0    0  502    0 -0.00000000000E+00 -0.00000000000E+00 -0.58808762077E+03  0.58808762077E+03  0.00000000000E+00 0. -1.
         23    2    1    2    0    0  0.51269564711E+02 -0.24696705260E+02 -0.30612446456E+03  0.32563076950E+03  0.95313769850E+02 0.  0.
         23    2    1    2    0    0 -0.60105996731E+02  0.95585602448E+02 -0.21116801750E+03  0.25628023358E+03  0.91314228191E+02 0.  0.
        -11    1    3    3    0    0  0.75870594721E+02 -0.39171568013E+01 -0.24547391677E+03  0.25696134938E+03  0.00000000000E+00 0. -1.
         11    1    3    3    0    0 -0.24601030010E+02 -0.20779548459E+02 -0.60650547797E+02  0.68669420121E+02  0.00000000000E+00 0.  1.
        -11    1    4    4    0    0 -0.59362369725E+02  0.29072802986E+02 -0.53098607952E+02  0.84785499817E+02  0.00000000000E+00 0.  1.
         11    1    4    4    0    0 -0.74362700614E+00  0.66512799462E+02 -0.15806940954E+03  0.17149473376E+03  0.00000000000E+00 0. -1.
          1    1    1    2  501    0  0.88364320207E+01 -0.70888897188E+02 -0.53352882090E+01  0.71636468196E+02  0.00000000000E+00 0. -1.
<scales pt_clust_5="13000.00000" pt_clust_6="13000.00000" pt_clust_7="13000.00000" pt_clust_8="13000.00000" pt_clust_9="71.43751"></scales>
<clustering>
<clus scale="   71.438">  1  9  2 -1</clus>
<clus scale="   91.314">  7  8 -1 -1</clus>
<clus scale="   95.314">  5  6 -1 -1</clus>
<clus scale="  115.639">  1  7  2 -1</clus>
<clus scale="   71.438">  1  5  2 -1</clus>
</clustering>
</event>
<event>
 9    1  0.1315259E-005  0.1035468E+03  0.7546771E-02  0.1273803E+00
         -2   -1    0    0    0  501 -0.00000000000E+00  0.00000000000E+00  0.18719096844E+03  0.18719096844E+03  0.00000000000E+00 0.  1.
         21   -1    0    0  501  502  0.00000000000E+00 -0.00000000000E+00 -0.12030597675E+03  0.12030597675E+03  0.00000000000E+00 0.  1.
         23    2    1    2    0    0  0.67317934015E+02 -0.32599790135E+02  0.61083968490E+02  0.13137990831E+03  0.89078496532E+02 0.  0.
         23    2    1    2    0    0 -0.29509117985E+02 -0.28176079452E+02  0.23587473734E+02  0.10236359143E+03  0.90869447207E+02 0.  0.
        -13    1    3    3    0    0  0.28088213198E+02 -0.10694465126E+02 -0.21780737010E+02  0.37117648224E+02  0.00000000000E+00 0. -1.
         13    1    3    3    0    0  0.39229720818E+02 -0.21905325009E+02  0.82864705500E+02  0.94262260087E+02  0.00000000000E+00 0.  1.
        -13    1    4    4    0    0 -0.55269422383E+02 -0.57113738938E-02  0.31158379415E+02  0.63447251248E+02  0.00000000000E+00 0. -1.
         13    1    4    4    0    0  0.25760304398E+02 -0.28170368078E+02 -0.75709056816E+01  0.38916340182E+02  0.00000000000E+00 0.  1.
         -2    1    1    2    0  502 -0.37808816031E+02  0.60775869588E+02 -0.17786450531E+02  0.73753445453E+02  0.00000000000E+00 0.  1.
<scales pt_clust_5="13000.00000" pt_clust_6="13000.00000" pt_clust_7="13000.00000" pt_clust_8="13000.00000" pt_clust_9="71.57662"></scales>
<clustering>
<clus scale="   71.577">  2  9  1 -1</clus>
<clus scale="   89.078">  5  6 -1 -1</clus>
<clus scale="   90.869">  7  8 -1 -1</clus>
<clus scale="  101.979">  1  5  2 -1</clus>
<clus scale="   71.577">  2  5  1 -1</clus>
</clustering>
</event>
<event>
 9    1  0.1315259E-005  0.9645653E+02  0.7546771E-02  0.1288877E+00
         21   -1    0    0  501  502  0.00000000000E+00  0.00000000000E+00  0.74779702378E+02  0.74779702378E+02  0.00000000000E+00 0. -1.
         -3   -1    0    0    0  501 -0.00000000000E+00 -0.00000000000E+00 -0.42100546751E+03  0.42100546751E+03  0.00000000000E+00 0.  1.
         23    2    1    2    0    0  0.26057973196E+02 -0.18186218212E+02 -0.26847044176E+03  0.28529515768E+03  0.91143800647E+02 0.  0.
         23    2    1    2    0    0  0.26144710427E+02  0.69037103913E+02 -0.20230613877E+02  0.11764592270E+03  0.89339900325E+02 0.  0.
        -11    1    3    3    0    0  0.30154438272E+02 -0.39388036935E+02 -0.25514106631E+03  0.25991858594E+03  0.00000000000E+00 0.  1.
         11    1    3    3    0    0 -0.40964650760E+01  0.21201818723E+02 -0.13329375455E+02  0.25376571740E+02  0.00000000000E+00 0. -1.
        -13    1    4    4    0    0  0.56734233987E+02  0.30947091470E+02  0.37158737347E+00  0.64626881819E+02  0.00000000000E+00 0.  1.
         13    1    4    4    0    0 -0.30589523560E+02  0.38090012443E+02 -0.20602201250E+02  0.53019040881E+02  0.00000000000E+00 0. -1.
         -3    1    1    2    0  502 -0.52202683623E+02 -0.50850885701E+02 -0.57524709490E+02  0.92844089504E+02  0.00000000000E+00 0.  1.
<scales pt_clust_5="13000.00000" pt_clust_6="13000.00000" pt_clust_7="13000.00000" pt_clust_8="13000.00000" pt_clust_9="72.87615"></scales>
<clustering>
<clus scale="   72.876">  1  9  2 -1</clus>
<clus scale="   89.340">  7  8 -1 -1</clus>
<clus scale="   91.144">  5  6 -1 -1</clus>
<clus scale="   94.754">  1  7  2 -1</clus>
<clus scale="   72.876">  1  5  2 -1</clus>
</clustering>
</event>
<event>
 9    1  0.1315259E-005  0.9283056E+02  0.7546771E-02  0.1297131E+00
         21   -1    0    0  501  502  0.00000000000E+00  0.00000000000E+00  0.91043226329E+02  0.91043226329E+02  0.00000000000E+00 0. -1.
          3   -1    0    0  502    0 -0.00000000000E+00 -0.00000000000E+00 -0.31137677081E+03  0.31137677081E+03  0.00000000000E+00 0. -1.
         23    2    1    2    0    0 -0.40015295497E+01 -0.35300700059E+01 -0.17038133146E+03  0.19316512029E+03  0.90854234658E+02 0.  0.
         23    2    1    2    0    0 -0.12372783923E+02  0.48647357905E+02 -0.97773459132E+02  0.14150120987E+03  0.89125147243E+02 0.  0.
        -11    1    3    3    0    0 -0.44052906192E+02 -0.42583405161E+01 -0.12515163084E+03  0.13274683691E+03  0.00000000000E+00 0. -1.
         11    1    3    3    0    0  0.40051376642E+02  0.72827051020E+00 -0.45229700622E+02  0.60418283385E+02  0.00000000000E+00 0.  1.
        -13    1    4    4    0    0 -0.21919404783E+02  0.17902140726E+02  0.92234371533E+01  0.29766066948E+02  0.00000000000E+00 0.  1.
         13    1    4    4    0    0  0.95466208608E+01  0.30745217179E+02 -0.10699689629E+03  0.11173514292E+03  0.00000000000E+00 0. -1.
          3    1    1    2  501    0  0.16374313472E+02 -0.45117287899E+02  0.47821246111E+02  0.67753666975E+02  0.00000000000E+00 0. -1.
<scales pt_clust_5="13000.00000" pt_clust_6="13000.00000" pt_clust_7="13000.00000" pt_clust_8="13000.00000" pt_clust_9="47.99675"></scales>
<clustering>
<clus scale="   47.997">  1  9  2 -1</clus>
<clus scale="   89.125">  7  8 -1 -1</clus>
<clus scale="   90.854">  5  6 -1 -1</clus>
<clus scale="   91.139">  1  7  2 -1</clus>
<clus scale="   47.997">  1  5  2 -1</clus>
</clustering>
</event>
<event>
 9    1  0.1315259E-005  0.1125724E+03  0.7546771E-02  0.1256023E+00
         21   -1    0    0  501  502  0.00000000000E+00  0.00000000000E+00  0.27450134452E+02  0.27450134452E+02  0.00000000000E+00 0. -1.
         -2   -1    0    0    0  501 -0.00000000000E+00 -0.00000000000E+00 -0.73677362556E+03  0.73677362556E+03  0.00000000000E+00 0.  1.
         23    2    1    2    0    0 -0.59216047453E+02  0.38891334153E+02 -0.52557856149E+03  0.53807620857E+03  0.90962111775E+02 0.  0.
         23    2    1    2    0    0  0.34503624842E+02 -0.43964048839E+02 -0.14362491560E+03  0.17875502260E+03  0.90564363885E+02 0.  0.
        -11    1    3    3    0    0 -0.42811858600E+02  0.66616806587E+02 -0.42954919247E+03  0.43678732000E+03  0.00000000000E+00 0.  1.
         11    1    3    3    0    0 -0.16404188854E+02 -0.27725472433E+02 -0.96029369017E+02  0.10128888857E+03  0.00000000000E+00 0. -1.
        -13    1    4    4    0    0 -0.24733189306E+02 -0.37661559849E+02 -0.78363819309E+02  0.90393649778E+02  0.00000000000E+00 0. -1.
         13    1    4    4    0    0  0.59236814147E+02 -0.63024889900E+01 -0.65261096290E+02  0.88361372821E+02  0.00000000000E+00 0.  1.
         -2    1    1    2    0  502  0.24712422612E+02  0.50727146856E+01 -0.40120014020E+02  0.47392528848E+02  0.00000000000E+00 0.  1.
<scales pt_clust_5="13000.00000" pt_clust_6="13000.00000" pt_clust_7="13000.00000" pt_clust_8="13000.00000" pt_clust_9="25.22769"></scales>
<clustering>
<clus scale="   25.228">  1  9  2 -1</clus>
<clus scale="   90.564">  7  8 -1 -1</clus>
<clus scale="   90.962">  5  6 -1 -1</clus>
<clus scale="  112.251">  1  7  2 -1</clus>
<clus scale="   25.228">  1  5  2 -1</clus>
</clustering>
</event>
<event>
 9    1  0.1315259E-005  0.1478274E+03  0.7546771E-02  0.1221463E+00
         21   -1    0    0  501  502  0.00000000000E+00  0.00000000000E+00  0.93166955926E+02  0.93166955926E+02  0.00000000000E+00 0.  1.
         -1   -1    0    0    0  501 -0.00000000000E+00 -0.00000000000E+00 -0.49678988986E+03  0.49678988986E+03  0.00000000000E+00 0.  1.
         23    2    1    2    0    0 -0.19784827956E+02  0.12879400250E+02 -0.18855881671E+03  0.21351582258E+03  0.97351223753E+02 0.  0.
         23    2    1    2    0    0  0.98832201126E+02  0.71184267569E+02 -0.21205833474E+03  0.26101042856E+03  0.91228847174E+02 0.  0.
        -11    1    4    4    0    0  0.68404620853E+01  0.50494210037E+02 -0.11453725184E+03  0.12536043725E+03  0.00000000000E+00 0.  1.
         11    1    4    4    0    0  0.91991739040E+02  0.20690057532E+02 -0.97521082895E+02  0.13564999131E+03  0.00000000000E+00 0. -1.
        -13    1    3    3    0    0 -0.42866142398E+02  0.12139414432E+02 -0.18482987469E+03  0.19012352334E+03  0.00000000000E+00 0. -1.
         13    1    3    3    0    0  0.23081314442E+02  0.73998581805E+00 -0.37289420149E+01  0.23392299245E+02  0.00000000000E+00 0.  1.
         -1    1    1    2    0  502 -0.79047373170E+02 -0.84063667819E+02 -0.30057824897E+01  0.11543059465E+03  0.00000000000E+00 0.  1.
<scales pt_clust_5="13000.00000" pt_clust_6="13000.00000" pt_clust_7="13000.00000" pt_clust_8="13000.00000" pt_clust_9="116.31961"></scales>
<clustering>
<clus scale="   91.229">  5  6 -1 -1</clus>
<clus scale="   97.351">  7  8 -1 -1</clus>
<clus scale="  100.173">  2  7  1 -1</clus>
<clus scale="  116.320">  1  9  2 -1</clus>
<clus scale="  116.320">  1  5  2 -1</clus>
</clustering>
</event>
<event>
 9    1  0.1315259E-005  0.1204655E+03  0.7546771E-02  0.1242654E+00
          3   -1    0    0  502    0 -0.00000000000E+00  0.00000000000E+00  0.51722026361E+03  0.51722026361E+03  0.00000000000E+00 0. -1.
         21   -1    0    0  501  502  0.00000000000E+00 -0.00000000000E+00 -0.10442752668E+03  0.10442752668E+03  0.00000000000E+00 0.  1.
         23    2    1    2    0    0  0.32750391306E+02  0.73781644582E+02  0.45002402812E+03  0.46588245166E+03  0.89490299318E+02 0.  0.
         23    2    1    2    0    0 -0.26963577551E+00 -0.74225847421E+02 -0.19281861171E+02  0.11865228387E+03  0.90537424129E+02 0.  0.
        -13    1    4    4    0    0  0.26351785287E+02  0.90810686585E+01  0.39778022456E+01  0.28155022758E+02  0.00000000000E+00 0. -1.
         13    1    4    4    0    0 -0.26621421063E+02 -0.83306916079E+02 -0.23259663417E+02  0.90497261109E+02  0.00000000000E+00 0.  1.
        -13    1    3    3    0    0  0.55406445491E+02  0.29718505498E+02  0.16478452395E+03  0.17637177524E+03  0.00000000000E+00 0.  1.
         13    1    3    3    0    0 -0.22656054185E+02  0.44063139084E+02  0.28523950418E+03  0.28951067642E+03  0.00000000000E+00 0. -1.
          3    1    1    2  501    0 -0.32480755531E+02  0.44420283845E+00 -0.17949430021E+02  0.37113054766E+02  0.00000000000E+00 0. -1.
<scales pt_clust_5="13000.00000" pt_clust_6="13000.00000" pt_clust_7="13000.00000" pt_clust_8="13000.00000" pt_clust_9="32.48379"></scales>
<clustering>
<clus scale="   32.484">  2  9  1 -1</clus>
<clus scale="   89.490">  7  8 -1 -1</clus>
<clus scale="   90.537">  5  6 -1 -1</clus>
<clus scale="  119.681">  1  7  2 -1</clus>
<clus scale="   32.484">  2  5  1 -1</clus>
</clustering>
</event>
<event>
 9    1  0.1315259E-005  0.1319121E+03  0.7546771E-02  0.1227945E+00
          1   -1    0    0  502    0 -0.00000000000E+00  0.00000000000E+00  0.24623778998E+03  0.24623778998E+03  0.00000000000E+00 0. -1.
         21   -1    0    0  501  502  0.00000000000E+00 -0.00000000000E+00 -0.20042858207E+03  0.20042858207E+03  0.00000000000E+00 0.  1.
         23    2    1    2    0    0  0.19115682647E+02 -0.80785125379E+02  0.12827532821E+03  0.17881790537E+03  0.92895843011E+02 0.  0.
         23    2    1    2    0    0 -0.10640126303E+03  0.37416389458E+02 -0.27656443557E+02  0.15602843063E+03  0.10420545725E+03 0.  0.
        -11    1    4    4    0    0 -0.78318051411E+02  0.71051580336E+02 -0.35437583960E+02  0.11152518371E+03  0.00000000000E+00 0.  1.
         11    1    4    4    0    0 -0.28083211616E+02 -0.33635190879E+02  0.77811404021E+01  0.44503246916E+02  0.00000000000E+00 0. -1.
        -11    1    3    3    0    0 -0.36824908134E+02 -0.30878871204E+02  0.64229210504E+02  0.80218264927E+02  0.00000000000E+00 0.  1.
         11    1    3    3    0    0  0.55940590781E+02 -0.49906254175E+02  0.64046117709E+02  0.98599640447E+02  0.00000000000E+00 0. -1.
          1    1    1    2  501    0  0.87285580380E+02  0.43368735921E+02 -0.54809676746E+02  0.11182003605E+03  0.00000000000E+00 0. -1.
<scales pt_clust_5="13000.00000" pt_clust_6="13000.00000" pt_clust_7="13000.00000" pt_clust_8="13000.00000" pt_clust_9="97.46599"></scales>
<clustering>
<clus scale="   92.896">  7  8 -1 -1</clus>
<clus scale="   97.466">  2  9  1 -1</clus>
<clus scale="  104.205">  5  6 -1 -1</clus>
<clus scale="  123.173">  1  7  2 -1</clus>
<clus scale="   97.466">  2  5  1 -1</clus>
</clustering>
</event>
<event>
 9    1  0.1315259E-005  0.1111810E+03  0.7546771E-02  0.1258660E+00
          1   -1    0    0  502    0 -0.00000000000E+00  0.00000000000E+00  0.90279483174E+03  0.90279483174E+03  0.00000000000E+00 0. -1.
         21   -1    0    0  501  502  0.00000000000E+00 -0.00000000000E+00 -0.61381313380E+02  0.61381313380E+02  0.00000000000E+00 0. -1.
         23    2    1    2    0    0  0.36043408027E+01  0.61898039899E+02  0.61616121359E+03  0.62589862699E+03  0.90830014442E+02 0.  0.
         23    2    1    2    0    0  0.94669625668E+02 -0.69230946180E+02  0.10156557947E+03  0.18013217354E+03  0.91524702003E+02 0.  0.
        -11    1    3    3    0    0  0.11718305782E+02 -0.22090404705E+02  0.11541308464E+03  0.11809100209E+03  0.00000000000E+00 0.  1.
         11    1    3    3    0    0 -0.81139649796E+01  0.83988444604E+02  0.50074812895E+03  0.50780762490E+03  0.00000000000E+00 0. -1.
        -13    1    4    4    0    0  0.70875062267E+02 -0.53604738359E+02  0.16438207404E+02  0.90371218253E+02  0.00000000000E+00 0. -1.
         13    1    4    4    0    0  0.23794563400E+02 -0.15626207821E+02  0.85127372069E+02  0.89760955285E+02  0.00000000000E+00 0.  1.
          1    1    1    2  501    0 -0.98273966470E+02  0.73329062819E+01  0.12368672530E+03  0.15814534459E+03  0.00000000000E+00 0. -1.
<scales pt_clust_5="13000.00000" pt_clust_6="13000.00000" pt_clust_7="13000.00000" pt_clust_8="13000.00000" pt_clust_9="98.54717"></scales>
<clustering>
<clus scale="   90.830">  5  6 -1 -1</clus>
<clus scale="   91.525">  7  8 -1 -1</clus>
<clus scale="   98.547">  2  9  1 -1</clus>
<clus scale="  110.610">  1  5  2 -1</clus>
<clus scale="   98.547">  2  5  1 -1</clus>
</clustering>
</event>
<event>
 9    1  0.1315259E-005  0.1142367E+03  0.7546771E-02  0.1253602E+00
         21   -1    0    0  501  502  0.00000000000E+00  0.00000000000E+00  0.67637629206E+02  0.67637629206E+02  0.00000000000E+00 0. -1.
         -1   -1    0    0    0  501 -0.00000000000E+00 -0.00000000000E+00 -0.56915088805E+03  0.56915088805E+03  0.00000000000E+00 0.  1.
         23    2    1    2    0    0  0.36537643761E+02  0.54265325692E+02 -0.48482741437E+03  0.49772923590E+03  0.91635394659E+02 0.  0.
         23    2    1    2    0    0 -0.19662324327E+02 -0.67169022731E+02 -0.14369493207E+02  0.11768997425E+03  0.93520923277E+02 0.  0.
        -11    1    3    3    0    0 -0.18852967079E+02 -0.11729483303E+02 -0.54285684702E+02  0.58651092997E+02  0.00000000000E+00 0. -1.
         11    1    3    3    0    0  0.55390610840E+02  0.65994808995E+02 -0.43054172967E+03  0.43907814290E+03  0.00000000000E+00 0.  1.
        -13    1    4    4    0    0 -0.55362567360E+02 -0.24031439678E+02 -0.12675827226E+02  0.61670094483E+02  0.00000000000E+00 0.  1.
         13    1    4    4    0    0  0.35700243034E+02 -0.43137583052E+02 -0.16936659812E+01  0.56019879763E+02  0.00000000000E+00 0. -1.
         -1    1    1    2    0  502 -0.16875319434E+02  0.12903697039E+02 -0.23163512638E+01  0.21369307112E+02  0.00000000000E+00 0.  1.
<scales pt_clust_5="13000.00000" pt_clust_6="13000.00000" pt_clust_7="13000.00000" pt_clust_8="13000.00000" pt_clust_9="21.24339"></scales>
<clustering>
<clus scale="   21.243">  1  9  2 -1</clus>
<clus scale="   91.635">  5  6 -1 -1</clus>
<clus scale="   93.521">  7  8 -1 -1</clus>
<clus scale="  112.698">  2  5  1 -1</clus>
<clus scale="   21.243">  1  5  2 -1</clus>
</clustering>
</event>
<event>
 9    1  0.1315259E-005  0.1438950E+03  0.7546771E-02  0.1208500E+00
         21   -1    0    0  501  502  0.00000000000E+00  0.00000000000E+00  0.41570476277E+03  0.41570476277E+03  0.00000000000E+00 0. -1.
          2   -1    0    0  502    0 -0.00000000000E+00 -0.00000000000E+00 -0.18424832929E+03  0.18424832929E+03  0.00000000000E+00 0. -1.
         23    2    1    2    0    0  0.80579812599E+02  0.72856072011E+02 -0.11015648710E+03  0.17963621331E+03  0.91288575718E+02 0.  0.
         23    2    1    2    0    0 -0.12811069057E+03 -0.41709071646E+02  0.15085507750E+03  0.22127448455E+03  0.89739330334E+02 0.  0.
        -11    1    3    3    0    0  0.71605240485E+02  0.23430989676E+02 -0.22539610828E+02  0.78640675216E+02  0.00000000000E+00 0.  1.
         11    1    3    3    0    0  0.89745721142E+01  0.49425082336E+02 -0.87616876269E+02  0.10099553810E+03  0.00000000000E+00 0. -1.
        -13    1    4    4    0    0 -0.43589747829E+02 -0.50615095932E+02  0.10569194769E+03  0.12503096360E+03  0.00000000000E+00 0.  1.
         13    1    4    4    0    0 -0.84520942744E+02  0.89060242862E+01  0.45163129810E+02  0.96243520952E+02  0.00000000000E+00 0. -1.
          2    1    1    2  501    0  0.47530877973E+02 -0.31147000366E+02  0.19075784308E+03  0.19904239420E+03  0.00000000000E+00 0. -1.
<scales pt_clust_5="13000.00000" pt_clust_6="13000.00000" pt_clust_7="13000.00000" pt_clust_8="13000.00000" pt_clust_9="56.82711"></scales>
<clustering>
<clus scale="   56.827">  1  9  2 -1</clus>
<clus scale="   89.739">  7  8 -1 -1</clus>
<clus scale="   91.289">  5  6 -1 -1</clus>
<clus scale="  142.917">  1  7  2 -1</clus>
<clus scale="   56.827">  1  5  2 -1</clus>
</clustering>
</event>
<event>
 9    1  0.1600930E-005  0.1015367E+03  0.7546771E-02  0.1278257E+00
         21   -1    0    0  501  502  0.00000000000E+00  0.00000000000E+00  0.64230552661E+03  0.64230552661E+03  0.00000000000E+00 0. -1.
          2   -1    0    0  502    0 -0.00000000000E+00 -0.00000000000E+00 -0.13078820287E+03  0.13078820287E+03  0.00000000000E+00 0. -1.
         23    2    1    2    0    0 -0.31166591350E+02  0.36706890827E+02 -0.88902228681E+02  0.13656582134E+03  0.91803404311E+02 0.  0.
         23    2    1    2    0    0  0.40089808391E+02  0.22260008075E+02  0.14015402983E+03  0.17241469970E+03  0.89336307837E+02 0.  0.
        -11    1    3    3    0    0  0.13294137094E+02  0.52146784368E+02 -0.62957603734E+02  0.82823191612E+02  0.00000000000E+00 0. -1.
         11    1    3    3    0    0 -0.44460728445E+02 -0.15439893541E+02 -0.25944624947E+02  0.53742629727E+02  0.00000000000E+00 0.  1.
        -13    1    4    4    0    0 -0.26300861726E+02  0.72863574592E+01  0.18351692954E+02  0.32887854397E+02  0.00000000000E+00 0.  1.
         13    1    4    4    0    0  0.66390670116E+02  0.14973650616E+02  0.12180233687E+03  0.13952684530E+03  0.00000000000E+00 0. -1.
          2    1    1    2  501    0 -0.89232170401E+01 -0.58966898902E+02  0.46026552259E+03  0.46411320844E+03  0.00000000000E+00 0. -1.
<scales pt_clust_5="13000.00000" pt_clust_6="13000.00000" pt_clust_7="13000.00000" pt_clust_8="13000.00000" pt_clust_9="59.63823"></scales>
<clustering>
<clus scale="   59.638">  1  9  2 -1</clus>
<clus scale="   89.336">  7  8 -1 -1</clus>
<clus scale="   91.803">  5  6 -1 -1</clus>
<clus scale="   99.312">  1  7  2 -1</clus>
<clus scale="   59.638">  1  5  2 -1</clus>
</clustering>
</event>
<event>
 9    1  0.1315259E-005  0.1231250E+03  0.7546771E-02  0.1239420E+00
          2   -1    0    0  502    0 -0.00000000000E+00  0.00000000000E+00  0.20096369130E+03  0.20096369130E+03  0.00000000000E+00 0. -1.
         21   -1    0    0  501  502  0.00000000000E+00 -0.00000000000E+00 -0.13838027896E+03  0.13838027896E+03  0.00000000000E+00 0.  1.
         23    2    1    2    0    0 -0.69100398100E+02 -0.19037108106E+02  0.52852024557E+02  0.12720151871E+03  0.90827382210E+02 0.  0.
         23    2    1    2    0    0  0.84529494707E+02  0.45994408394E+02  0.68124049945E+02  0.14600278073E+03  0.86111582972E+02 0.  0.
        -11    1    3    3    0    0 -0.64280521519E+02  0.12006257534E+02  0.66215083776E+02  0.93062199555E+02  0.00000000000E+00 0. -1.
         11    1    3    3    0    0 -0.48198765810E+01 -0.31043365640E+02 -0.13363059218E+02  0.34139319152E+02  0.00000000000E+00 0.  1.
        -13    1    4    4    0    0  0.79696421362E+02 -0.49171951222E+00  0.56934155618E+02  0.97945185904E+02  0.00000000000E+00 0.  1.
         13    1    4    4    0    0  0.48330733451E+01  0.46486127906E+02  0.11189894328E+02  0.48057594829E+02  0.00000000000E+00 0. -1.
          2    1    1    2  501    0 -0.15429096607E+02 -0.26957300288E+02 -0.58392662165E+02  0.66139670816E+02  0.00000000000E+00 0. -1.
<scales pt_clust_5="13000.00000" pt_clust_6="13000.00000" pt_clust_7="13000.00000" pt_clust_8="13000.00000" pt_clust_9="31.06047"></scales>
<clustering>
<clus scale="   31.060">  2  9  1 -1</clus>
<clus scale="   86.112">  7  8 -1 -1</clus>
<clus scale="   90.827">  5  6 -1 -1</clus>
<clus scale="  119.689">  2  7  1 -1</clus>
<clus scale="   31.060">  2  5  1 -1</clus>
</clustering>
</event>
<event>
 9    1  0.1315259E-005  0.9602344E+02  0.7546771E-02  0.1289587E+00
         21   -1    0    0  501  502  0.00000000000E+00  0.00000000000E+00  0.11455247836E+03  0.11455247836E+03  0.00000000000E+00 0. -1.
         -2   -1    0    0    0  501 -0.00000000000E+00 -0.00000000000E+00 -0.19086910873E+03  0.19086910873E+03  0.00000000000E+00 0. -1.
         23    2    1    2    0    0 -0.18642179429E+02 -0.52531615906E+02 -0.46750525065E+02  0.11648291924E+03  0.90970090448E+02 0.  0.
         23    2    1    2    0    0  0.28460199386E+02 -0.29724866515E+02 -0.32245424190E+02  0.10605500743E+03  0.92273217031E+02 0.  0.
        -11    1    3    3    0    0 -0.54476083663E+02 -0.19245430195E+02 -0.24735027756E+02  0.62847847001E+02  0.00000000000E+00 0.  1.
         11    1    3    3    0    0  0.35833904233E+02 -0.33286185711E+02 -0.22015497309E+02  0.53635072234E+02  0.00000000000E+00 0. -1.
        -13    1    4    4    0    0  0.20321804709E+02  0.18138865396E+02  0.20705085490E+02  0.34215416841E+02  0.00000000000E+00 0.  1.
         13    1    4    4    0    0  0.81383946774E+01 -0.47863731912E+02 -0.52950509680E+02  0.71839590588E+02  0.00000000000E+00 0. -1.
         -2    1    1    2    0  502 -0.98180199569E+01  0.82256482421E+02  0.26793188813E+01  0.82883660428E+02  0.00000000000E+00 0. -1.
<scales pt_clust_5="13000.00000" pt_clust_6="13000.00000" pt_clust_7="13000.00000" pt_clust_8="13000.00000" pt_clust_9="82.84034"></scales>
<clustering>
<clus scale="   82.840">  1  9  2 -1</clus>
<clus scale="   90.970">  5  6 -1 -1</clus>
<clus scale="   92.273">  7  8 -1 -1</clus>
<clus scale="   94.772">  2  5  1 -1</clus>
<clus scale="   82.840">  1  5  2 -1</clus>
</clustering>
</event>
<event>
 9    1  0.1315259E-005  0.1127125E+03  0.7546771E-02  0.1262296E+00
         21   -1    0    0  501  502  0.00000000000E+00  0.00000000000E+00  0.13155210099E+03  0.13155210099E+03  0.00000000000E+00 0.  1.
          3   -1    0    0  502    0 -0.00000000000E+00 -0.00000000000E+00 -0.19095648643E+03  0.19095648643E+03  0.00000000000E+00 0. -1.
         23    2    1    2    0    0 -0.39303584457E+02 -0.12484990265E+02 -0.12841562038E+03  0.16234768160E+03  0.90363440792E+02 0.  0.
         23    2    1    2    0    0  0.24673648593E+02  0.32734653845E+02  0.35754917953E+02  0.11856683751E+03  0.10535337822E+03 0.  0.
        -11    1    4    4    0    0 -0.22128103526E+02  0.30434681178E+02  0.56044201151E+02  0.67504631447E+02  0.00000000000E+00 0.  1.
         11    1    4    4    0    0  0.46801752119E+02  0.22999726673E+01 -0.20289283199E+02  0.51062206067E+02  0.00000000000E+00 0. -1.
        -13    1    3    3    0    0 -0.50350045103E+02  0.27098846139E+02 -0.86127502010E+02  0.10337998407E+03  0.00000000000E+00 0.  1.
         13    1    3    3    0    0  0.11046460645E+02 -0.39583836404E+02 -0.42288118365E+02  0.58967697531E+02  0.00000000000E+00 0. -1.
          3    1    1    2  501    0  0.14629935864E+02 -0.20249663580E+02  0.33256316986E+02  0.41594068303E+02  0.00000000000E+00 0. -1.
<scales pt_clust_5="13000.00000" pt_clust_6="13000.00000" pt_clust_7="13000.00000" pt_clust_8="13000.00000" pt_clust_9="24.98167"></scales>
<clustering>
<clus scale="   24.982">  1  9  2 -1</clus>
<clus scale="   90.363">  7  8 -1 -1</clus>
<clus scale="   98.845">  2  7  1 -1</clus>
<clus scale="  105.353">  5  6 -1 -1</clus>
<clus scale="   24.982">  1  5  2 -1</clus>
</clustering>
</event>
<event>
 9    1  0.1315259E-005  0.1491996E+03  0.7546771E-02  0.1211665E+00
          2   -1    0    0  502    0 -0.00000000000E+00  0.00000000000E+00  0.72215446381E+03  0.72215446381E+03  0.00000000000E+00 0. -1.
         21   -1    0    0  501  502  0.00000000000E+00 -0.00000000000E+00 -0.17013597242E+03  0.17013597242E+03  0.00000000000E+00 0. -1.
         23    2    1    2    0    0  0.56554201986E+02  0.51782386159E+02  0.47903685268E+03  0.49379765087E+03  0.92087026748E+02 0.  0.
         23    2    1    2    0    0 -0.17467916938E+03 -0.88802656883E+02  0.14768711296E+03  0.25390746021E+03  0.65259412577E+02 0.  0.
        -11    1    3    3    0    0 -0.19696453288E+02  0.99123211356E+01  0.35348142096E+02  0.41661679420E+02  0.00000000000E+00 0.  1.
         11    1    3    3    0    0  0.76250655274E+02  0.41870065023E+02  0.44368871059E+03  0.45213597145E+03  0.00000000000E+00 0. -1.
        -13    1    4    4    0    0 -0.28142881006E+02 -0.31810643869E+02  0.72421279332E+01  0.43085812417E+02  0.00000000000E+00 0.  1.
         13    1    4    4    0    0 -0.14653628838E+03 -0.56992013014E+02  0.14044498503E+03  0.21082164779E+03  0.00000000000E+00 0. -1.
          2    1    1    2  501    0  0.11812496740E+03  0.37020270724E+02 -0.74705474251E+02  0.14458532516E+03  0.00000000000E+00 0. -1.
<scales pt_clust_5="13000.00000" pt_clust_6="13000.00000" pt_clust_7="13000.00000" pt_clust_8="13000.00000" pt_clust_9="134.17053"></scales>
<clustering>
<clus scale="   65.259">  7  8 -1 -1</clus>
<clus scale="   92.087">  5  6 -1 -1</clus>
<clus scale="  119.832">  1  5  2 -1</clus>
<clus scale="  134.171">  2  9  1 -1</clus>
<clus scale="  134.171">  2  5  1 -1</clus>
</clustering>
</event>
<event>
 9    1  0.1315259E-005  0.1132129E+03  0.7546771E-02  0.1255653E+00
         21   -1    0    0  501  502  0.00000000000E+00  0.00000000000E+00  0.30544989934E+03  0.30544989934E+03  0.00000000000E+00 0. -1.
         -4   -1    0    0    0  501 -0.00000000000E+00 -0.00000000000E+00 -0.83037352220E+02  0.83037352220E+02  0.00000000000E+00 0.  1.
         23    2    1    2    0    0  0.37692610181E+01 -0.60392099775E+02  0.10842467829E+02  0.11356715533E+03  0.95490976629E+02 0.  0.
         23    2    1    2    0    0  0.29925313765E+02  0.61895018276E+02  0.21163043541E+03  0.24119196588E+03  0.93057001478E+02 0.  0.
        -11    1    4    4    0    0 -0.23534596696E+02  0.42823057922E+02  0.14832609819E+03  0.15616761167E+03  0.00000000000E+00 0. -1.
         11    1    4    4    0    0  0.53459910461E+02  0.19071960354E+02  0.63304337222E+02  0.85024354213E+02  0.00000000000E+00 0.  1.
        -13    1    3    3    0    0 -0.95935328050E+01  0.24880542832E+02  0.87691715020E+00  0.26680447278E+02  0.00000000000E+00 0. -1.
         13    1    3    3    0    0  0.13362793823E+02 -0.85272642607E+02  0.99655506787E+01  0.86886708053E+02  0.00000000000E+00 0.  1.
         -4    1    1    2    0  502 -0.33694574784E+02 -0.15029185006E+01 -0.60356115599E-01  0.33728130347E+02  0.00000000000E+00 0.  1.
<scales pt_clust_5="13000.00000" pt_clust_6="13000.00000" pt_clust_7="13000.00000" pt_clust_8="13000.00000" pt_clust_9="33.72809"></scales>
<clustering>
<clus scale="   33.728">  1  9  2 -1</clus>
<clus scale="   93.057">  5  6 -1 -1</clus>
<clus scale="   95.491">  7  8 -1 -1</clus>
<clus scale="  111.168">  1  5  2 -1</clus>
<clus scale="   33.728">  1  5  2 -1</clus>
</clustering>
</event>
<event>
 9    1  0.1315259E-005  0.1538295E+03  0.7546771E-02  0.1201089E+00
          2   -1    0    0  502    0 -0.00000000000E+00  0.00000000000E+00  0.45282095577E+03  0.45282095577E+03  0.00000000000E+00 0. -1.
         21   -1    0    0  501  502  0.00000000000E+00 -0.00000000000E+00 -0.70318247124E+02  0.70318247124E+02  0.00000000000E+00 0.  1.
         23    2    1    2    0    0  0.88867514437E+02 -0.59513593808E+02  0.30534071190E+03  0.33610121529E+03  0.91059176375E+02 0.  0.
         23    2    1    2    0    0 -0.68571683628E+02  0.56171214480E+02  0.50577399337E+02  0.15342499805E+03  0.11455948486E+03 0.  0.
        -13    1    3    3    0    0  0.42718995461E+02  0.39089081925E+01  0.37385743927E+02  0.56902425128E+02  0.00000000000E+00 0.  1.
         13    1    3    3    0    0  0.46148518976E+02 -0.63422502000E+02  0.26795496798E+03  0.27919879016E+03  0.00000000000E+00 0. -1.
        -13    1    4    4    0    0 -0.82280686980E+02  0.81564411542E+02  0.37823846595E+02  0.12187496893E+03  0.00000000000E+00 0.  1.
         13    1    4    4    0    0  0.13709003352E+02 -0.25393197062E+02  0.12753552741E+02  0.31550029119E+02  0.00000000000E+00 0. -1.
          2    1    1    2  501    0 -0.20295830809E+02  0.33423793277E+01  0.26584597403E+02  0.33612989556E+02  0.00000000000E+00 0. -1.
<scales pt_clust_5="13000.00000" pt_clust_6="13000.00000" pt_clust_7="13000.00000" pt_clust_8="13000.00000" pt_clust_9="20.56922"></scales>
<clustering>
<clus scale="   20.569">  2  9  1 -1</clus>
<clus scale="   91.059">  5  6 -1 -1</clus>
<clus scale="  114.559">  7  8 -1 -1</clus>
<clus scale="  137.228">  1  5  2 -1</clus>
<clus scale="   20.569">  2  5  1 -1</clus>
</clustering>
</event>
<event>
 9    1  0.1315259E-005  0.9945749E+02  0.7546771E-02  0.1283002E+00
          4   -1    0    0  502    0 -0.00000000000E+00  0.00000000000E+00  0.22801260555E+03  0.22801260555E+03  0.00000000000E+00 0. -1.
         21   -1    0    0  501  502  0.00000000000E+00 -0.00000000000E+00 -0.13404901051E+03  0.13404901051E+03  0.00000000000E+00 0. -1.
         23    2    1    2    0    0  0.87941698119E+00 -0.12978957354E+02  0.96242278814E+02  0.13378164140E+03  0.92009372552E+02 0.  0.
         23    2    1    2    0    0  0.48464177024E+02  0.41200263579E+02  0.71698378199E+02  0.13498561205E+03  0.95048513147E+02 0.  0.
        -11    1    3    3    0    0 -0.37123194967E+02 -0.26560044848E+02  0.75948231519E+02  0.88609827095E+02  0.00000000000E+00 0.  1.
         11    1    3    3    0    0  0.38002611948E+02  0.13581087495E+02  0.20294047294E+02  0.45171814309E+02  0.00000000000E+00 0. -1.
        -13    1    4    4    0    0  0.95901254436E+01 -0.21882185758E+02 -0.89060653826E+01  0.25497422618E+02  0.00000000000E+00 0.  1.
         13    1    4    4    0    0  0.38874051581E+02  0.63082449337E+02  0.80604443581E+02  0.10948818944E+03  0.00000000000E+00 0. -1.
          4    1    1    2  501    0 -0.49343594006E+02 -0.28221306226E+02 -0.73977061974E+02  0.93294362599E+02  0.00000000000E+00 0. -1.
<scales pt_clust_5="13000.00000" pt_clust_6="13000.00000" pt_clust_7="13000.00000" pt_clust_8="13000.00000" pt_clust_9="56.84393"></scales>
<clustering>
<clus scale="   56.844">  2  9  1 -1</clus>
<clus scale="   92.009">  5  6 -1 -1</clus>
<clus scale="   95.049">  7  8 -1 -1</clus>
<clus scale="   96.557">  1  5  2 -1</clus>
<clus scale="   56.844">  2  5  1 -1</clus>
</clustering>
</event>
<event>
 9    1  0.1315259E-005  0.1330940E+03  0.7546771E-02  0.1223117E+00
         21   -1    0    0  501  502  0.00000000000E+00  0.00000000000E+00  0.85508917903E+02  0.85508917903E+02  0.00000000000E+00 0. -1.
          2   -1    0    0  502    0 -0.00000000000E+00 -0.00000000000E+00 -0.37595744410E+03  0.37595744410E+03  0.00000000000E+00 0. -1.
         23    2    1    2    0    0  0.79766456695E+02 -0.38290948398E+02 -0.23518091940E+03  0.26816356055E+03  0.93662938333E+02 0.  0.
         23    2    1    2    0    0 -0.10041617402E+03  0.39634714002E+02 -0.77447251231E+02  0.16296877504E+03  0.94373864783E+02 0.  0.
        -11    1    4    4    0    0 -0.82664637792E+02  0.69893222464E-01 -0.10675429107E+02  0.83351136842E+02  0.00000000000E+00 0.  1.
         11    1    4    4    0    0 -0.17751536232E+02  0.39564820779E+02 -0.66771822124E+02  0.79617638194E+02  0.00000000000E+00 0. -1.
        -11    1    3    3    0    0  0.94180049108E+02 -0.91514097340E+01 -0.15442515772E+03  0.18110979898E+03  0.00000000000E+00 0. -1.
         11    1    3    3    0    0 -0.14413592413E+02 -0.29139538664E+02 -0.80755761677E+02  0.87053761572E+02  0.00000000000E+00 0.  1.
          2    1    1    2  501    0  0.20649717329E+02 -0.13437656036E+01  0.22179644427E+02  0.30334026417E+02  0.00000000000E+00 0. -1.
<scales pt_clust_5="13000.00000" pt_clust_6="13000.00000" pt_clust_7="13000.00000" pt_clust_8="13000.00000" pt_clust_9="20.69339"></scales>
<clustering>
<clus scale="   20.693">  1  9  2 -1</clus>
<clus scale="   93.663">  7  8 -1 -1</clus>
<clus scale="   94.374">  5  6 -1 -1</clus>
<clus scale="  132.591">  2  7  1 -1</clus>
<clus scale="   20.693">  1  5  2 -1</clus>
</clustering>
</event>
<event>
 9    1  0.1315259E-005  0.1018938E+03  0.7546771E-02  0.1280055E+00
          3   -1    0    0  502    0 -0.00000000000E+00  0.00000000000E+00  0.48932024201E+03  0.48932024201E+03  0.00000000000E+00 0. -1.
         21   -1    0    0  501  502  0.00000000000E+00 -0.00000000000E+00 -0.56111555402E+02  0.56111555402E+02  0.00000000000E+00 0. -1.
         23    2    1    2    0    0  0.32401133959E+01 -0.34317060339E+02  0.35526173968E+03  0.36942641878E+03  0.95272326778E+02 0.  0.
         23    2    1    2    0    0 -0.29976427562E+02  0.35764920495E+02  0.10021255760E+03  0.14118176290E+03  0.87818094531E+02 0.  0.
        -13    1    4    4    0    0  0.23373814114E+02  0.75523647098E+01  0.68990957460E+02  0.73233364051E+02  0.00000000000E+00 0. -1.
         13    1    4    4    0    0 -0.53350241676E+02  0.28212555785E+02  0.31221600144E+02  0.67948398851E+02  0.00000000000E+00 0.  1.
        -13    1    3    3    0    0  0.15848766365E+02  0.29616429549E+02  0.16288459641E+03  0.16631208026E+03  0.00000000000E+00 0. -1.
         13    1    3    3    0    0 -0.12608652969E+02 -0.63933489889E+02  0.19237714327E+03  0.20311433852E+03  0.00000000000E+00 0.  1.
          3    1    1    2  501    0  0.26736314166E+02 -0.14478601553E+01 -0.22265610670E+02  0.34823615733E+02  0.00000000000E+00 0. -1.
<scales pt_clust_5="13000.00000" pt_clust_6="13000.00000" pt_clust_7="13000.00000" pt_clust_8="13000.00000" pt_clust_9="26.77549"></scales>
<clustering>
<clus scale="   26.775">  2  9  1 -1</clus>
<clus scale="   87.818">  5  6 -1 -1</clus>
<clus scale="   94.961">  2  5  1 -1</clus>
<clus scale="   95.272">  7  8 -1 -1</clus>
<clus scale="   26.775">  2  5  1 -1</clus>
</clustering>
</event>
<event>
 9    1  0.1315259E-005  0.1490719E+03  0.7546771E-02  0.1201891E+00
         21   -1    0    0  501  502  0.00000000000E+00  0.00000000000E+00  0.15432810396E+03  0.15432810396E+03  0.00000000000E+00 0. -1.
          2   -1    0    0  502    0 -0.00000000000E+00 -0.00000000000E+00 -0.27123859108E+03  0.27123859108E+03  0.00000000000E+00 0. -1.
         23    2    1    2    0    0  0.13142381567E+03  0.12195349969E+02 -0.16645800303E+03  0.23050987036E+03  0.89473949682E+02 0.  0.
         23    2    1    2    0    0 -0.80707280317E+02 -0.41014892189E+02  0.20645984472E+02  0.12995665962E+03  0.90920790948E+02 0.  0.
        -11    1    4    4    0    0 -0.64212708920E+02  0.13176718495E+02 -0.87584996861E+01  0.66133268586E+02  0.00000000000E+00 0. -1.
         11    1    4    4    0    0 -0.16494571397E+02 -0.54191610684E+02  0.29404484158E+02  0.63823391031E+02  0.00000000000E+00 0.  1.
        -13    1    3    3    0    0  0.85220479145E+02  0.47493174682E+00 -0.37655672531E+02  0.93170302670E+02  0.00000000000E+00 0.  1.
         13    1    3    3    0    0  0.46203336524E+02  0.11720418222E+02 -0.12880233050E+03  0.13733956769E+03  0.00000000000E+00 0. -1.
          2    1    1    2  501    0 -0.50716535352E+02  0.28819542220E+02  0.28901531449E+02  0.65100165069E+02  0.00000000000E+00 0. -1.
<scales pt_clust_5="13000.00000" pt_clust_6="13000.00000" pt_clust_7="13000.00000" pt_clust_8="13000.00000" pt_clust_9="58.33295"></scales>
<clustering>
<clus scale="   58.333">  1  9  2 -1</clus>
<clus scale="   89.474">  7  8 -1 -1</clus>
<clus scale="   90.921">  5  6 -1 -1</clus>
<clus scale="  148.194">  2  7  1 -1</clus>
<clus scale="   58.333">  1  5  2 -1</clus>
</clustering>
</event>
<event>
 9    1  0.1315259E-005  0.9959403E+02  0.7546771E-02  0.1301459E+00
          1   -1    0    0  502    0 -0.00000000000E+00  0.00000000000E+00  0.54444266292E+03  0.54444266292E+03  0.00000000000E+00 0. -1.
         21   -1    0    0  501  502  0.00000000000E+00 -0.00000000000E+00 -0.60947906854E+02  0.60947906854E+02  0.00000000000E+00 0. -1.
         23    2    1    2    0    0  0.12733508025E+02  0.28556656880E+02  0.27747729819E+03  0.28481251187E+03  0.56097157025E+02 0.  0.
         23    2    1    2    0    0  0.28636308324E+00 -0.68653679573E+02  0.24030406204E+03  0.26623783801E+03  0.91777635822E+02 0.  0.
        -11    1    3    3    0    0 -0.21439102435E+02  0.40108512836E+01  0.81371460877E+02  0.84243911866E+02  0.00000000000E+00 0.  1.
         11    1    3    3    0    0  0.34172610460E+02  0.24545805596E+02  0.19610583731E+03  0.20056860000E+03  0.00000000000E+00 0. -1.
        -13    1    4    4    0    0 -0.27378748622E+02 -0.32002073734E+02  0.31896091845E+02  0.52830760683E+02  0.00000000000E+00 0.  1.
         13    1    4    4    0    0  0.27665111705E+02 -0.36651605840E+02  0.20840797019E+03  0.21340707733E+03  0.00000000000E+00 0. -1.
          1    1    1    2  501    0 -0.13019871109E+02  0.40097022693E+02 -0.34286604163E+02  0.54340219889E+02  0.00000000000E+00 0. -1.
<scales pt_clust_5="13000.00000" pt_clust_6="13000.00000" pt_clust_7="13000.00000" pt_clust_8="13000.00000" pt_clust_9="42.15790"></scales>
<clustering>
<clus scale="   42.158">  2  9  1 -1</clus>
<clus scale="   56.097">  5  6 -1 -1</clus>
<clus scale="   68.138">  1  5  2 -1</clus>
<clus scale="   91.778">  7  8 -1 -1</clus>
<clus scale="   42.158">  2  5  1 -1</clus>
</clustering>
</event>
<event>
 9    1  0.1315259E-005  0.1018524E+03  0.7546771E-02  0.1280390E+00
          1   -1    0    0  502    0 -0.00000000000E+00  0.00000000000E+00  0.22575809692E+03  0.22575809692E+03  0.00000000000E+00 0. -1.
         21   -1    0    0  501  502  0.00000000000E+00 -0.00000000000E+00 -0.13192938935E+03  0.13192938935E+03  0.00000000000E+00 0.  1.
         23    2    1    2    0    0 -0.26541009134E+00  0.23237541838E+02  0.14532460421E+03  0.17238837894E+03  0.89768918952E+02 0.  0.
         23    2    1    2    0    0  0.11086252907E+02 -0.50836016280E+02  0.15914067644E+02  0.11165897075E+03  0.97505192917E+02 0.  0.
        -11    1    3    3    0    0  0.18636024170E+02 -0.28255480453E+02  0.32443072710E+02  0.46885248633E+02  0.00000000000E+00 0.  1.
         11    1    3    3    0    0 -0.18901434262E+02  0.51493022290E+02  0.11288153150E+03  0.12550313030E+03  0.00000000000E+00 0. -1.
        -11    1    4    4    0    0  0.51526790821E+02 -0.41333616769E+02  0.22107518034E+02  0.69657881113E+02  0.00000000000E+00 0. -1.
         11    1    4    4    0    0 -0.40440537914E+02 -0.95023995105E+01 -0.61934503896E+01  0.42001089640E+02  0.00000000000E+00 0.  1.
          1    1    1    2  501    0 -0.10820842816E+02  0.27598474442E+02 -0.67409964286E+02  0.73640136582E+02  0.00000000000E+00 0. -1.
<scales pt_clust_5="13000.00000" pt_clust_6="13000.00000" pt_clust_7="13000.00000" pt_clust_8="13000.00000" pt_clust_9="29.64399"></scales>
<clustering>
<clus scale="   29.644">  2  9  1 -1</clus>
<clus scale="   89.769">  5  6 -1 -1</clus>
<clus scale="   94.473">  1  5  2 -1</clus>
<clus scale="   97.505">  7  8 -1 -1</clus>
<clus scale="   29.644">  2  5  1 -1</clus>
</clustering>
</event>
<event>
 9    1  0.1315259E-005  0.1258010E+03  0.7546771E-02  0.1240542E+00
         -1   -1    0    0    0  501 -0.00000000000E+00  0.00000000000E+00  0.13992428819E+03  0.13992428819E+03  0.00000000000E+00 0.  1.
         21   -1    0    0  501  502  0.00000000000E+00 -0.00000000000E+00 -0.50839053473E+03  0.50839053473E+03  0.00000000000E+00 0. -1.
         23    2    1    2    0    0 -0.66022043713E+02  0.18150895005E+02  0.10468933178E+03  0.15188978275E+03  0.86152682302E+02 0.  0.
         23    2    1    2    0    0  0.62352296563E+02  0.85395553085E+01 -0.38260532293E+03  0.40195178505E+03  0.10591350945E+03 0.  0.
        -11    1    4    4    0    0  0.89722189803E+02  0.38936690181E+01 -0.33513990018E+03  0.34696395302E+03  0.00000000000E+00 0. -1.
         11    1    4    4    0    0 -0.27369893240E+02  0.46458862904E+01 -0.47465422744E+02  0.54987832032E+02  0.00000000000E+00 0.  1.
        -13    1    3    3    0    0 -0.65673438150E+02  0.41321245102E+02  0.49509122735E+02  0.92041289697E+02  0.00000000000E+00 0.  1.
         13    1    3    3    0    0 -0.34860556389E+00 -0.23170350098E+02  0.55180209050E+02  0.59848493050E+02  0.00000000000E+00 0. -1.
         -1    1    1    2    0  502  0.36697471502E+01 -0.26690450313E+02 -0.90550255396E+02  0.94473255127E+02  0.00000000000E+00 0.  1.
<scales pt_clust_5="13000.00000" pt_clust_6="13000.00000" pt_clust_7="13000.00000" pt_clust_8="13000.00000" pt_clust_9="26.94155"></scales>
<clustering>
<clus scale="   26.942">  2  9  1 -1</clus>
<clus scale="   86.153">  7  8 -1 -1</clus>
<clus scale="  105.914">  5  6 -1 -1</clus>
<clus scale="  109.684">  1  7  2 -1</clus>
<clus scale="   26.942">  2  5  1 -1</clus>
</clustering>
</event>
<event>
 9    1  0.1315259E-005  0.1104263E+03  0.7546771E-02  0.1262236E+00
         21   -1    0    0  501  502  0.00000000000E+00  0.00000000000E+00  0.46108292977E+02  0.46108292977E+02  0.00000000000E+00 0.  1.
         -1   -1    0    0    0  501 -0.00000000000E+00 -0.00000000000E+00 -0.53654309671E+03  0.53654309671E+03  0.00000000000E+00 0.  1.
         23    2    1    2    0    0 -0.46160808930E+01 -0.57122202698E+02 -0.34193842850E+03  0.35882197588E+03  0.92450350158E+02 0.  0.
         23    2    1    2    0    0 -0.61887691928E+01  0.37766537864E+02 -0.16524035997E+03  0.19604906875E+03  0.98317081684E+02 0.  0.
        -11    1    4    4    0    0 -0.52684220509E+01 -0.24004749030E+02 -0.11147291716E+03  0.11414988176E+03  0.00000000000E+00 0.  1.
         11    1    4    4    0    0 -0.92034714193E+00  0.61771286894E+02 -0.53767442809E+02  0.81899186990E+02  0.00000000000E+00 0. -1.
        -13    1    3    3    0    0 -0.36553657918E+02 -0.65873303300E+02 -0.22443508534E+03  0.23674156696E+03  0.00000000000E+00 0.  1.
         13    1    3    3    0    0  0.31937577025E+02  0.87511006018E+01 -0.11750334316E+03  0.12208040892E+03  0.00000000000E+00 0. -1.
         -1    1    1    2    0  502  0.10804850086E+02  0.19355664835E+02  0.16743984734E+02  0.27780345055E+02  0.00000000000E+00 0.  1.
<scales pt_clust_5="13000.00000" pt_clust_6="13000.00000" pt_clust_7="13000.00000" pt_clust_8="13000.00000" pt_clust_9="22.16724"></scales>
<clustering>
<clus scale="   22.167">  1  9  2 -1</clus>
<clus scale="   92.450">  7  8 -1 -1</clus>
<clus scale="   98.317">  5  6 -1 -1</clus>
<clus scale="  105.237">  2  7  1 -1</clus>
<clus scale="   22.167">  1  5  2 -1</clus>
</clustering>
</event>
<event>
 9    1  0.1315259E-005  0.1309493E+03  0.7546771E-02  0.1244077E+00
         21   -1    0    0  501  502  0.00000000000E+00  0.00000000000E+00  0.15340278704E+03  0.15340278704E+03  0.00000000000E+00 0. -1.
          1   -1    0    0  502    0 -0.00000000000E+00 -0.00000000000E+00 -0.37755703172E+03  0.37755703172E+03  0.00000000000E+00 0. -1.
         23    2    1    2    0    0  0.14844337498E+02  0.24483658980E+02  0.71496199219E+02  0.11536323679E+03  0.85890430127E+02 0.  0.
         23    2    1    2    0    0 -0.37325930881E+01 -0.11544768819E+03 -0.28856297094E+03  0.32368272149E+03  0.90331694532E+02 0.  0.
        -11    1    4    4    0    0  0.20933534032E+02 -0.34782074991E+02 -0.26749942262E+02  0.48616509529E+02  0.00000000000E+00 0.  1.
         11    1    4    4    0    0 -0.24666127120E+02 -0.80665613199E+02 -0.26181302868E+03  0.27506621196E+03  0.00000000000E+00 0. -1.
        -13    1    3    3    0    0  0.10901766506E+02 -0.30527482819E+02  0.41246652206E+02  0.52460099489E+02  0.00000000000E+00 0. -1.
         13    1    3    3    0    0  0.39425709922E+01  0.55011141798E+02  0.30249547013E+02  0.62903137302E+02  0.00000000000E+00 0.  1.
          1    1    1    2  501    0 -0.11111744410E+02  0.90964029211E+02 -0.70874729610E+01  0.91913860473E+02  0.00000000000E+00 0. -1.
<scales pt_clust_5="13000.00000" pt_clust_6="13000.00000" pt_clust_7="13000.00000" pt_clust_8="13000.00000" pt_clust_9="94.80452"></scales>
<clustering>
<clus scale="   85.890">  7  8 -1 -1</clus>
<clus scale="   90.332">  5  6 -1 -1</clus>
<clus scale="   90.537">  2  7  1 -1</clus>
<clus scale="   94.805">  1  9  2 -1</clus>
<clus scale="   94.805">  1  5  2 -1</clus>
</clustering>
</event>
<event>
 9    1  0.1315259E-005  0.9732736E+02  0.7546771E-02  0.1291730E+00
          1   -1    0    0  502    0 -0.00000000000E+00  0.00000000000E+00  0.35412650891E+03  0.35412650891E+03  0.00000000000E+00 0. -1.
         21   -1    0    0  501  502  0.00000000000E+00 -0.00000000000E+00 -0.69003207459E+02  0.69003207459E+02  0.00000000000E+00 0. -1.
         23    2    1    2    0    0 -0.41125818455E+02 -0.20965865806E+01  0.27102605929E+03  0.28465158959E+03  0.76652945294E+02 0.  0.
         23    2    1    2    0    0  0.46853070626E+02 -0.17702808882E+02  0.37049168016E+02  0.10762997645E+03  0.87766572859E+02 0.  0.
        -11    1    4    4    0    0  0.10488040160E+02  0.35269873305E+02  0.13125682745E+02  0.39067204877E+02  0.00000000000E+00 0.  1.
         11    1    4    4    0    0  0.36365030465E+02 -0.52972682187E+02  0.23923485271E+02  0.68562771577E+02  0.00000000000E+00 0. -1.
        -13    1    3    3    0    0 -0.49541632053E+02 -0.26493566257E+02  0.22475263154E+03  0.23166792558E+03  0.00000000000E+00 0. -1.
         13    1    3    3    0    0  0.84158135981E+01  0.24396979677E+02  0.46273427755E+02  0.52983664011E+02  0.00000000000E+00 0.  1.
          1    1    1    2  501    0 -0.57272521709E+01  0.19799395463E+02 -0.22951925855E+02  0.30848150327E+02  0.00000000000E+00 0. -1.
<scales pt_clust_5="13000.00000" pt_clust_6="13000.00000" pt_clust_7="13000.00000" pt_clust_8="13000.00000" pt_clust_9="20.61110"></scales>
<clustering>
<clus scale="   20.611">  2  9  1 -1</clus>
<clus scale="   76.653">  7  8 -1 -1</clus>
<clus scale="   87.438">  1  7  2 -1</clus>
<clus scale="   87.767">  5  6 -1 -1</clus>
<clus scale="   20.611">  2  5  1 -1</clus>
</clustering>
</event>
<event>
 9    1  0.1315259E-005  0.1304143E+03  0.7546771E-02  0.1227397E+00
          4   -1    0    0  502    0 -0.00000000000E+00  0.00000000000E+00  0.32158647727E+03  0.32158647727E+03  0.00000000000E+00 0. -1.
         21   -1    0    0  501  502  0.00000000000E+00 -0.00000000000E+00 -0.10745842616E+03  0.10745842616E+03  0.00000000000E+00 0. -1.
         23    2    1    2    0    0  0.30945567607E+02  0.75053719530E+02  0.16386550800E+03  0.20485443741E+03  0.92318724240E+02 0.  0.
         23    2    1    2    0    0 -0.92779671115E+02 -0.81883515734E+02  0.43582529944E+02  0.16162270237E+03  0.94390060300E+02 0.  0.
        -11    1    3    3    0    0  0.51323322833E+02  0.74443786896E+02  0.16046296076E+03  0.18418556580E+03  0.00000000000E+00 0. -1.
         11    1    3    3    0    0 -0.20377755226E+02  0.60993263421E+00  0.34025472397E+01  0.20668871609E+02  0.00000000000E+00 0.  1.
        -11    1    4    4    0    0 -0.23344908966E+02 -0.48990796889E+02  0.62221224987E+02  0.82562484176E+02  0.00000000000E+00 0.  1.
         11    1    4    4    0    0 -0.69434762149E+02 -0.32892718845E+02 -0.18638695043E+02  0.79060218193E+02  0.00000000000E+00 0. -1.
          4    1    1    2  501    0  0.61834103508E+02  0.68297962039E+01  0.66800131683E+01  0.62567763655E+02  0.00000000000E+00 0. -1.
<scales pt_clust_5="13000.00000" pt_clust_6="13000.00000" pt_clust_7="13000.00000" pt_clust_8="13000.00000" pt_clust_9="62.21015"></scales>
<clustering>
<clus scale="   62.210">  2  9  1 -1</clus>
<clus scale="   92.319">  5  6 -1 -1</clus>
<clus scale="   94.390">  7  8 -1 -1</clus>
<clus scale="  128.923">  1  5  2 -1</clus>
<clus scale="   62.210">  2  5  1 -1</clus>
</clustering>
</event>
<event>
 9    1  0.1315259E-005  0.1264375E+03  0.7546771E-02  0.1234948E+00
         -1   -1    0    0    0  501 -0.00000000000E+00  0.00000000000E+00  0.32459753887E+03  0.32459753887E+03  0.00000000000E+00 0.  1.
         21   -1    0    0  501  502  0.00000000000E+00 -0.00000000000E+00 -0.68789071569E+02  0.68789071569E+02  0.00000000000E+00 0. -1.
         23    2    1    2    0    0 -0.66613284830E+02  0.18323409931E+01  0.16654564586E+03  0.20593170459E+03  0.10114211592E+03 0.  0.
         23    2    1    2    0    0  0.92105048410E+02  0.62994872385E+01  0.91467841394E+02  0.16060683787E+03  0.94367191756E+02 0.  0.
        -11    1    4    4    0    0  0.12917161886E+02  0.21064577131E+02  0.74224278188E+02  0.78229233369E+02  0.00000000000E+00 0.  1.
         11    1    4    4    0    0  0.79187886524E+02 -0.14765089893E+02  0.17243563206E+02  0.82377604503E+02  0.00000000000E+00 0. -1.
        -13    1    3    3    0    0 -0.83427232803E+02  0.29656645352E+02  0.11867341181E+03  0.14806417007E+03  0.00000000000E+00 0. -1.
         13    1    3    3    0    0  0.16813947973E+02 -0.27824304359E+02  0.47872234045E+02  0.57867534525E+02  0.00000000000E+00 0.  1.
         -1    1    1    2    0  502 -0.25491763581E+02 -0.81318282316E+01 -0.22050199527E+01  0.26848067972E+02  0.00000000000E+00 0.  1.
<scales pt_clust_5="13000.00000" pt_clust_6="13000.00000" pt_clust_7="13000.00000" pt_clust_8="13000.00000" pt_clust_9="26.75737"></scales>
<clustering>
<clus scale="   26.757">  2  9  1 -1</clus>
<clus scale="   94.367">  5  6 -1 -1</clus>
<clus scale="  101.142">  7  8 -1 -1</clus>
<clus scale="  121.086">  2  5  1 -1</clus>
<clus scale="   26.757">  2  5  1 -1</clus>
</clustering>
</event>
<event>
 9    1  0.1315259E-005  0.1557685E+03  0.7546771E-02  0.1194265E+00
          1   -1    0    0  502    0 -0.00000000000E+00  0.00000000000E+00  0.27448595853E+03  0.27448595853E+03  0.00000000000E+00 0. -1.
         21   -1    0    0  501  502  0.00000000000E+00 -0.00000000000E+00 -0.36934916128E+03  0.36934916128E+03  0.00000000000E+00 0. -1.
         23    2    1    2    0    0 -0.58462071306E+02 -0.11529671457E+03  0.19490175925E+03  0.25127211706E+03  0.91868573962E+02 0.  0.
         23    2    1    2    0    0  0.73301435555E+02  0.88884834245E+02 -0.53532518788E+02  0.15439591565E+03  0.87742543769E+02 0.  0.
        -11    1    4    4    0    0 -0.11731901139E+02  0.47856640449E+02 -0.27637127371E+02  0.56495188722E+02  0.00000000000E+00 0.  1.
         11    1    4    4    0    0  0.85033336694E+02  0.41028193796E+02 -0.25895391417E+02  0.97900726923E+02  0.00000000000E+00 0. -1.
        -11    1    3    3    0    0 -0.71631617089E+02 -0.71499440316E+02  0.17330812887E+03  0.20069620342E+03  0.00000000000E+00 0. -1.
         11    1    3    3    0    0  0.13169545783E+02 -0.43797274253E+02  0.21593630376E+02  0.50575913644E+02  0.00000000000E+00 0.  1.
          1    1    1    2  501    0 -0.14839364248E+02  0.26411880324E+02 -0.23623244321E+03  0.23816708710E+03  0.00000000000E+00 0. -1.
<scales pt_clust_5="13000.00000" pt_clust_6="13000.00000" pt_clust_7="13000.00000" pt_clust_8="13000.00000" pt_clust_9="30.29512"></scales>
<clustering>
<clus scale="   30.295">  2  9  1 -1</clus>
<clus scale="   87.743">  5  6 -1 -1</clus>
<clus scale="   91.869">  7  8 -1 -1</clus>
<clus scale="  153.371">  2  5  1 -1</clus>
<clus scale="   30.295">  2  5  1 -1</clus>
</clustering>
</event>
<event>
 9    1  0.1315259E-005  0.1240953E+03  0.7546771E-02  0.1237727E+00
         -1   -1    0    0    0  501 -0.00000000000E+00  0.00000000000E+00  0.29866954759E+03  0.29866954759E+03  0.00000000000E+00 0.  1.
         21   -1    0    0  501  502  0.00000000000E+00 -0.00000000000E+00 -0.96911480221E+02  0.96911480221E+02  0.00000000000E+00 0.  1.
         23    2    1    2    0    0  0.65037651382E+01 -0.70056074160E+02  0.13529896888E+03  0.17943657795E+03  0.94559621616E+02 0.  0.
         23    2    1    2    0    0 -0.91933178574E+01  0.93954064909E+02  0.10703819828E+03  0.16897442764E+03  0.90461582453E+02 0.  0.
        -11    1    4    4    0    0  0.16227134874E+02  0.74987298881E+02  0.24480365726E+02  0.80533863721E+02  0.00000000000E+00 0.  1.
         11    1    4    4    0    0 -0.25420452732E+02  0.18966766028E+02  0.82557832556E+02  0.88440563923E+02  0.00000000000E+00 0. -1.
        -13    1    3    3    0    0  0.49408203390E+02 -0.38467481935E+02  0.89190980105E+02  0.10897682626E+03  0.00000000000E+00 0.  1.
         13    1    3    3    0    0 -0.42904438252E+02 -0.31588592225E+02  0.46107988772E+02  0.70459751696E+02  0.00000000000E+00 0. -1.
         -1    1    1    2    0  502  0.26895527191E+01 -0.23897990750E+02 -0.40579099792E+02  0.47170022214E+02  0.00000000000E+00 0.  1.
<scales pt_clust_5="13000.00000" pt_clust_6="13000.00000" pt_clust_7="13000.00000" pt_clust_8="13000.00000" pt_clust_9="24.04886"></scales>
<clustering>
<clus scale="   24.049">  2  9  1 -1</clus>
<clus scale="   90.462">  5  6 -1 -1</clus>
<clus scale="   94.560">  7  8 -1 -1</clus>
<clus scale="  121.002">  2  5  1 -1</clus>
<clus scale="   24.049">  2  5  1 -1</clus>
</clustering>
</event>
<event>
 9    1  0.1315259E-005  0.9888436E+02  0.7546771E-02  0.1283597E+00
          3   -1    0    0  502    0 -0.00000000000E+00  0.00000000000E+00  0.13322529080E+03  0.13322529080E+03  0.00000000000E+00 0. -1.
         21   -1    0    0  501  502  0.00000000000E+00 -0.00000000000E+00 -0.20544575107E+03  0.20544575107E+03  0.00000000000E+00 0. -1.
         23    2    1    2    0    0 -0.15683211296E+02  0.34337966572E+02  0.49117745279E+02  0.11020915582E+03  0.91150677784E+02 0.  0.
         23    2    1    2    0    0  0.56687436865E+02 -0.46691146087E+01 -0.10188895964E+02  0.10633180658E+03  0.89260144295E+02 0.  0.
        -13    1    3    3    0    0 -0.44368176938E+02  0.20754525935E+02 -0.31239062099E+01  0.49082015664E+02  0.00000000000E+00 0.  1.
         13    1    3    3    0    0  0.28684965642E+02  0.13583440637E+02  0.52241651489E+02  0.61127140157E+02  0.00000000000E+00 0. -1.
        -13    1    4    4    0    0  0.76831754950E+02  0.11273123471E+02 -0.17541272024E+02  0.79610917000E+02  0.00000000000E+00 0. -1.
         13    1    4    4    0    0 -0.20144318085E+02 -0.15942238080E+02  0.73523760592E+01  0.26720889577E+02  0.00000000000E+00 0.  1.
          3    1    1    2  501    0 -0.41004225569E+02 -0.29668851964E+02 -0.11114930958E+03  0.12213007947E+03  0.00000000000E+00 0. -1.
<scales pt_clust_5="13000.00000" pt_clust_6="13000.00000" pt_clust_7="13000.00000" pt_clust_8="13000.00000" pt_clust_9="50.61213"></scales>
<clustering>
<clus scale="   50.612">  2  9  1 -1</clus>
<clus scale="   89.260">  7  8 -1 -1</clus>
<clus scale="   91.151">  5  6 -1 -1</clus>
<clus scale="   97.144">  2  7  1 -1</clus>
<clus scale="   50.612">  2  5  1 -1</clus>
</clustering>
</event>
<event>
 9    1  0.1315259E-005  0.1166250E+03  0.7546771E-02  0.1249099E+00
         -1   -1    0    0    0  501 -0.00000000000E+00  0.00000000000E+00  0.57176803224E+03  0.57176803224E+03  0.00000000000E+00 0.  1.
         21   -1    0    0  501  502  0.00000000000E+00 -0.00000000000E+00 -0.60613403194E+02  0.60613403194E+02  0.00000000000E+00 0.  1.
         23    2    1    2    0    0  0.10449458839E+02  0.81191749978E+02  0.35147339598E+03  0.37235565043E+03  0.91727263515E+02 0.  0.
         23    2    1    2    0    0  0.13148559094E+02 -0.59113524092E+02  0.18779769104E+03  0.21719063918E+03  0.90755207282E+02 0.  0.
        -11    1    3    3    0    0  0.25576364694E+02  0.23206302509E+02  0.31256051338E+02  0.46579219104E+02  0.00000000000E+00 0. -1.
         11    1    3    3    0    0 -0.15126905855E+02  0.57985447469E+02  0.32021734464E+03  0.32577643133E+03  0.00000000000E+00 0.  1.
        -13    1    4    4    0    0 -0.23363492301E+02  0.12256252277E+02  0.28369437079E+02  0.38741366167E+02  0.00000000000E+00 0.  1.
         13    1    4    4    0    0  0.36512051395E+02 -0.71369776369E+02  0.15942825396E+03  0.17844927301E+03  0.00000000000E+00 0. -1.
         -1    1    1    2    0  502 -0.23598017933E+02 -0.22078225886E+02 -0.28116457977E+02  0.42835145824E+02  0.00000000000E+00 0.  1.
<scales pt_clust_5="13000.00000" pt_clust_6="13000.00000" pt_clust_7="13000.00000" pt_clust_8="13000.00000" pt_clust_9="32.31586"></scales>
<clustering>
<clus scale="   32.316">  2  9  1 -1</clus>
<clus scale="   90.755">  7  8 -1 -1</clus>
<clus scale="   91.727">  5  6 -1 -1</clus>
<clus scale="  115.862">  2  7  1 -1</clus>
<clus scale="   32.316">  2  5  1 -1</clus>
</clustering>
</event>
<event>
 9    1  0.1315259E-005  0.1069130E+03  0.7546771E-02  0.1267168E+00
         21   -1    0    0  501  502  0.00000000000E+00  0.00000000000E+00  0.18213466677E+02  0.18213466677E+02  0.00000000000E+00 0. -1.
          2   -1    0    0  502    0 -0.00000000000E+00 -0.00000000000E+00 -0.90037006860E+03  0.90037006860E+03  0.00000000000E+00 0. -1.
         23    2    1    2    0    0  0.86880699405E+01 -0.59181098889E+02 -0.43604467096E+03  0.44956772012E+03  0.91642211209E+02 0.  0.
         23    2    1    2    0    0 -0.39245622485E+02  0.39734344781E+02 -0.36848465201E+03  0.38335406931E+03  0.89779544749E+02 0.  0.
        -11    1    4    4    0    0  0.16612803475E+02 -0.12291842957E+02 -0.30400752170E+02  0.36759765710E+02  0.00000000000E+00 0.  1.
         11    1    4    4    0    0 -0.55858425960E+02  0.52026187739E+02 -0.33808389984E+03  0.34659430360E+03  0.00000000000E+00 0. -1.
        -11    1    3    3    0    0 -0.39195922944E+02 -0.14420497160E+02 -0.21458459908E+03  0.21861111883E+03  0.00000000000E+00 0. -1.
         11    1    3    3    0    0  0.47883992885E+02 -0.44760601730E+02 -0.22146007188E+03  0.23095660129E+03  0.00000000000E+00 0.  1.
          2    1    1    2  501    0  0.30557552545E+02  0.19446754108E+02 -0.77627278958E+02  0.85661745846E+02  0.00000000000E+00 0. -1.
<scales pt_clust_5="13000.00000" pt_clust_6="13000.00000" pt_clust_7="13000.00000" pt_clust_8="13000.00000" pt_clust_9="36.22072"></scales>
<clustering>
<clus scale="   36.221">  1  9  2 -1</clus>
<clus scale="   89.780">  5  6 -1 -1</clus>
<clus scale="   91.642">  7  8 -1 -1</clus>
<clus scale="  105.321">  1  5  2 -1</clus>
<clus scale="   36.221">  1  5  2 -1</clus>
</clustering>
</event>
<event>
 9    1  0.1315259E-005  0.1600586E+03  0.7546771E-02  0.1212931E+00
         21   -1    0    0  501  502  0.00000000000E+00  0.00000000000E+00  0.48715141710E+03  0.48715141710E+03  0.00000000000E+00 0.  1.
         -4   -1    0    0    0  501 -0.00000000000E+00 -0.00000000000E+00 -0.10236631810E+03  0.10236631810E+03  0.00000000000E+00 0.  1.
         23    2    1    2    0    0  0.19004796214E+02  0.20178635504E+01  0.38343781872E+02  0.10196600012E+03  0.92528728078E+02 0.  0.
         23    2    1    2    0    0 -0.11764876547E+03  0.80285030998E+02  0.71103043073E+02  0.18371697032E+03  0.91702585745E+02 0.  0.
        -11    1    3    3    0    0  0.44128397261E+02  0.32626774574E+02  0.22640557307E+02  0.59366797952E+02  0.00000000000E+00 0.  1.
         11    1    3    3    0    0 -0.25123601047E+02 -0.30608911023E+02  0.15703224565E+02  0.42599202168E+02  0.00000000000E+00 0. -1.
        -11    1    4    4    0    0 -0.32565595868E+02  0.24129502273E+02  0.71021506544E+02  0.81772888575E+02  0.00000000000E+00 0.  1.
         11    1    4    4    0    0 -0.85083169597E+02  0.56155528725E+02  0.81536528878E-01  0.10194408175E+03  0.00000000000E+00 0. -1.
         -4    1    1    2    0  502  0.98643969251E+02 -0.82302894549E+02  0.27533827405E+03  0.30383476476E+03  0.00000000000E+00 0.  1.
<scales pt_clust_5="13000.00000" pt_clust_6="13000.00000" pt_clust_7="13000.00000" pt_clust_8="13000.00000" pt_clust_9="131.18458"></scales>
<clustering>
<clus scale="   91.703">  7  8 -1 -1</clus>
<clus scale="   92.529">  5  6 -1 -1</clus>
<clus scale="   94.482">  2  5  1 -1</clus>
<clus scale="  131.185">  1  9  2 -1</clus>
<clus scale="  131.185">  1  5  2 -1</clus>
</clustering>
</event>
<event>
 9    1  0.1315259E-005  0.3063472E+03  0.7546771E-02  0.1101926E+00
          1   -1    0    0  502    0 -0.00000000000E+00  0.00000000000E+00  0.23166352837E+04  0.23166352837E+04  0.00000000000E+00 0. -1.
         21   -1    0    0  501  502  0.00000000000E+00 -0.00000000000E+00 -0.87864840526E+02  0.87864840526E+02  0.00000000000E+00 0. -1.
         23    2    1    2    0    0  0.15490819260E+03  0.26594122017E+02  0.81833214209E+03  0.83827977234E+03  0.91332833440E+02 0.  0.
         23    2    1    2    0    0 -0.21029378601E+03  0.25630994328E+03  0.10490171665E+04  0.11039136240E+04  0.90939596467E+02 0.  0.
        -11    1    4    4    0    0 -0.17180130374E+02  0.12120414278E+02  0.20707182757E+02  0.29510146385E+02  0.00000000000E+00 0.  1.
         11    1    4    4    0    0 -0.19311365564E+03  0.24418952900E+03  0.10283099838E+04  0.10744034777E+04  0.00000000000E+00 0. -1.
        -13    1    3    3    0    0  0.89724253939E+02 -0.29340412669E+02  0.48167721680E+03  0.49084034343E+03  0.00000000000E+00 0.  1.
         13    1    3    3    0    0  0.65183938657E+02  0.55934534686E+02  0.33665492530E+03  0.34743942890E+03  0.00000000000E+00 0. -1.
          1    1    1    2  501    0  0.55385593419E+02 -0.28290406529E+03  0.36142113455E+03  0.46230672785E+03  0.00000000000E+00 0. -1.
<scales pt_clust_5="13000.00000" pt_clust_6="13000.00000" pt_clust_7="13000.00000" pt_clust_8="13000.00000" pt_clust_9="292.53815"></scales>
<clustering>
<clus scale="   90.940">  5  6 -1 -1</clus>
<clus scale="   91.333">  7  8 -1 -1</clus>
<clus scale="  181.784">  1  7  2 -1</clus>
<clus scale="  292.538">  2  9  1 -1</clus>
<clus scale="  292.538">  2  5  1 -1</clus>
</clustering>
</event>
<event>
 9    1  0.1315259E-005  0.9339369E+02  0.7546771E-02  0.1295553E+00
          1   -1    0    0  502    0 -0.00000000000E+00  0.00000000000E+00  0.33571365484E+03  0.33571365484E+03  0.00000000000E+00 0. -1.
         21   -1    0    0  501  502  0.00000000000E+00 -0.00000000000E+00 -0.56209557713E+02  0.56209557713E+02  0.00000000000E+00 0.  1.
         23    2    1    2    0    0  0.23257475816E+02  0.58250756768E+01  0.22575289804E+03  0.24389245317E+03  0.89130892805E+02 0.  0.
         23    2    1    2    0    0 -0.27812691948E+02 -0.38903452027E+02  0.55898922066E+02  0.11457120634E+03  0.87834204161E+02 0.  0.
        -11    1    3    3    0    0 -0.14531115648E+02 -0.34243298435E+02  0.93724661307E+02  0.10083684320E+03  0.00000000000E+00 0.  1.
         11    1    3    3    0    0  0.37788591465E+02  0.40068374112E+02  0.13202823674E+03  0.14305560997E+03  0.00000000000E+00 0. -1.
        -11    1    4    4    0    0 -0.54649287330E+02 -0.46399210976E+02  0.45052002104E+02  0.84670622287E+02  0.00000000000E+00 0.  1.
         11    1    4    4    0    0  0.26836595382E+02  0.74957589495E+01  0.10846919962E+02  0.29900584051E+02  0.00000000000E+00 0. -1.
          1    1    1    2  501    0  0.45552161313E+01  0.33078376350E+02 -0.21477229781E+01  0.33459553045E+02  0.00000000000E+00 0. -1.
<scales pt_clust_5="13000.00000" pt_clust_6="13000.00000" pt_clust_7="13000.00000" pt_clust_8="13000.00000" pt_clust_9="33.39055"></scales>
<clustering>
<clus scale="   33.391">  2  9  1 -1</clus>
<clus scale="   87.834">  7  8 -1 -1</clus>
<clus scale="   89.131">  5  6 -1 -1</clus>
<clus scale="   92.157">  2  7  1 -1</clus>
<clus scale="   33.391">  2  5  1 -1</clus>
</clustering>
</event>
<event>
 9    1  0.1315259E-005  0.1004943E+03  0.7546771E-02  0.1280357E+00
          3   -1    0    0  502    0 -0.00000000000E+00  0.00000000000E+00  0.63580098270E+02  0.63580098270E+02  0.00000000000E+00 0. -1.
         21   -1    0    0  501  502  0.00000000000E+00 -0.00000000000E+00 -0.23748434804E+03  0.23748434804E+03  0.00000000000E+00 0. -1.
         23    2    1    2    0    0  0.36305371865E+02  0.35467895119E+02 -0.51800131850E+02  0.11771464246E+03  0.92722337005E+02 0.  0.
         23    2    1    2    0    0 -0.38742920833E+01 -0.13743940818E+02 -0.72859353199E+02  0.12051070791E+03  0.94923333925E+02 0.  0.
        -11    1    3    3    0    0 -0.30666432985E+02  0.20965650229E+02 -0.16820854257E+02  0.40779035539E+02  0.00000000000E+00 0.  1.
         11    1    3    3    0    0  0.66971804850E+02  0.14502244890E+02 -0.34979277593E+02  0.76935606923E+02  0.00000000000E+00 0. -1.
        -13    1    4    4    0    0  0.27095957823E+02  0.23296604770E+02 -0.33676158255E+01  0.35892388615E+02  0.00000000000E+00 0. -1.
         13    1    4    4    0    0 -0.30970249907E+02 -0.37040545588E+02 -0.69491737374E+02  0.84618319293E+02  0.00000000000E+00 0.  1.
          3    1    1    2  501    0 -0.32431079782E+02 -0.21723954301E+02 -0.49244764723E+02  0.62839095943E+02  0.00000000000E+00 0. -1.
<scales pt_clust_5="13000.00000" pt_clust_6="13000.00000" pt_clust_7="13000.00000" pt_clust_8="13000.00000" pt_clust_9="39.03467"></scales>
<clustering>
<clus scale="   39.035">  2  9  1 -1</clus>
<clus scale="   92.722">  5  6 -1 -1</clus>
<clus scale="   94.923">  7  8 -1 -1</clus>
<clus scale="   98.418">  1  5  2 -1</clus>
<clus scale="   39.035">  2  5  1 -1</clus>
</clustering>
</event>
<event>
 9    1  0.1315259E-005  0.1257884E+03  0.7546771E-02  0.1234535E+00
         21   -1    0    0  501  502  0.00000000000E+00  0.00000000000E+00  0.16870790747E+03  0.16870790747E+03  0.00000000000E+00 0.  1.
         -1   -1    0    0    0  501 -0.00000000000E+00 -0.00000000000E+00 -0.71353466702E+03  0.71353466702E+03  0.00000000000E+00 0.  1.
         23    2    1    2    0    0 -0.81414797411E+02  0.30914931140E+02 -0.65789375158E+03  0.66998686294E+03  0.92054907189E+02 0.  0.
         23    2    1    2    0    0  0.43665026329E+02 -0.57185751995E+01  0.16417673828E+02  0.10548028236E+03  0.94430997703E+02 0.  0.
        -11    1    3    3    0    0 -0.10023443464E+03  0.19010925770E+02 -0.58274947144E+03  0.59161246069E+03  0.00000000000E+00 0.  1.
         11    1    3    3    0    0  0.18819637229E+02  0.11904005371E+02 -0.75144280146E+02  0.78374402250E+02  0.00000000000E+00 0. -1.
        -11    1    4    4    0    0  0.11374882309E+02  0.34491711656E+02 -0.20826906791E+02  0.41866766856E+02  0.00000000000E+00 0.  1.
         11    1    4    4    0    0  0.32290144020E+02 -0.40210286855E+02  0.37244580619E+02  0.63613515508E+02  0.00000000000E+00 0. -1.
         -1    1    1    2    0  502  0.37749771082E+02 -0.25196355941E+02  0.96649318204E+02  0.10677542919E+03  0.00000000000E+00 0.  1.
<scales pt_clust_5="13000.00000" pt_clust_6="13000.00000" pt_clust_7="13000.00000" pt_clust_8="13000.00000" pt_clust_9="45.38614"></scales>
<clustering>
<clus scale="   45.386">  1  9  2 -1</clus>
<clus scale="   92.055">  5  6 -1 -1</clus>
<clus scale="   94.431">  7  8 -1 -1</clus>
<clus scale="  124.015">  2  5  1 -1</clus>
<clus scale="   45.386">  1  5  2 -1</clus>
</clustering>
</event>
<event>
 9    1  0.1315259E-005  0.1189069E+03  0.7546771E-02  0.1245127E+00
          2   -1    0    0  502    0 -0.00000000000E+00  0.00000000000E+00  0.34111174426E+03  0.34111174426E+03  0.00000000000E+00 0. -1.
         21   -1    0    0  501  502  0.00000000000E+00 -0.00000000000E+00 -0.14276091410E+03  0.14276091410E+03  0.00000000000E+00 0. -1.
         23    2    1    2    0    0  0.10921849437E+02  0.62553694894E+02  0.19345927506E+03  0.22372775667E+03  0.92711199195E+02 0.  0.
         23    2    1    2    0    0 -0.62241061252E+02 -0.92438311022E+02  0.79362862932E+02  0.16489403569E+03  0.92047748166E+02 0.  0.
        -11    1    4    4    0    0  0.35582080132E+01 -0.63587089901E+02  0.66182844066E+02  0.91848504043E+02  0.00000000000E+00 0.  1.
         11    1    4    4    0    0 -0.65799269266E+02 -0.28851221121E+02  0.13180018867E+02  0.73045531645E+02  0.00000000000E+00 0. -1.
        -11    1    3    3    0    0  0.48749102209E+02  0.19515328054E+02  0.11643593428E+03  0.12772881346E+03  0.00000000000E+00 0. -1.
         11    1    3    3    0    0 -0.37827252772E+02  0.43038366840E+02  0.77023340779E+02  0.95998943209E+02  0.00000000000E+00 0.  1.
          2    1    1    2  501    0  0.51319211815E+02  0.29884616128E+02 -0.74471307839E+02  0.95250865999E+02  0.00000000000E+00 0. -1.
<scales pt_clust_5="13000.00000" pt_clust_6="13000.00000" pt_clust_7="13000.00000" pt_clust_8="13000.00000" pt_clust_9="59.38646"></scales>
<clustering>
<clus scale="   59.386">  2  9  1 -1</clus>
<clus scale="   92.048">  5  6 -1 -1</clus>
<clus scale="   92.711">  7  8 -1 -1</clus>
<clus scale="  118.390">  2  5  1 -1</clus>
<clus scale="   59.386">  2  5  1 -1</clus>
</clustering>
</event>
<event>
 9    1  0.1315259E-005  0.1160464E+03  0.7546771E-02  0.1258687E+00
         -3   -1    0    0    0  501 -0.00000000000E+00  0.00000000000E+00  0.27814541494E+03  0.27814541494E+03  0.00000000000E+00 0.  1.
         21   -1    0    0  501  502  0.00000000000E+00 -0.00000000000E+00 -0.69508971355E+02  0.69508971355E+02  0.00000000000E+00 0. -1.
         23    2    1    2    0    0 -0.19971622849E+02 -0.67780945972E+00  0.16114174820E+03  0.18766891661E+03  0.94093751665E+02 0.  0.
         23    2    1    2    0    0  0.34415973899E+02  0.22210383273E+02  0.55618167996E+02  0.13281412780E+03  0.11343919758E+03 0.  0.
        -11    1    4    4    0    0  0.29674451034E+02  0.66960223039E+02  0.21466818606E+02  0.76322138431E+02  0.00000000000E+00 0. -1.
         11    1    4    4    0    0  0.47415228649E+01 -0.44749839766E+02  0.34151349390E+02  0.56491989373E+02  0.00000000000E+00 0.  1.
        -13    1    3    3    0    0 -0.47050418104E+02  0.24945820180E+02  0.61898522909E+02  0.81654534023E+02  0.00000000000E+00 0. -1.
         13    1    3    3    0    0  0.27078795255E+02 -0.25623629640E+02  0.99243225290E+02  0.10601438258E+03  0.00000000000E+00 0.  1.
         -3    1    1    2    0  502 -0.14444351051E+02 -0.21532573813E+02 -0.81234726151E+01  0.27171341881E+02  0.00000000000E+00 0.  1.
<scales pt_clust_5="13000.00000" pt_clust_6="13000.00000" pt_clust_7="13000.00000" pt_clust_8="13000.00000" pt_clust_9="25.92858"></scales>
<clustering>
<clus scale="   25.929">  2  9  1 -1</clus>
<clus scale="   94.094">  7  8 -1 -1</clus>
<clus scale="   97.221">  1  7  2 -1</clus>
<clus scale="  113.439">  5  6 -1 -1</clus>
<clus scale="   25.929">  2  5  1 -1</clus>
</clustering>
</event>
<event>
 9    1  0.1315259E-005  0.1045999E+03  0.7546771E-02  0.1275349E+00
         21   -1    0    0  501  502  0.00000000000E+00  0.00000000000E+00  0.19097992852E+02  0.19097992852E+02  0.00000000000E+00 0. -1.
          2   -1    0    0  502    0 -0.00000000000E+00 -0.00000000000E+00 -0.11091315288E+04  0.11091315288E+04  0.00000000000E+00 0. -1.
         23    2    1    2    0    0 -0.63879280406E+02  0.15461332608E+02 -0.51152825608E+03  0.52379728101E+03  0.91557738902E+02 0.  0.
         23    2    1    2    0    0  0.33786547518E+01 -0.58806633286E+02 -0.33849783632E+03  0.35315010090E+03  0.81636836944E+02 0.  0.
        -13    1    3    3    0    0  0.15752374679E+02  0.24905004302E+02 -0.89759661243E+02  0.94473241364E+02  0.00000000000E+00 0.  1.
         13    1    3    3    0    0 -0.79631655085E+02 -0.94436716938E+01 -0.42176859484E+03  0.42932403965E+03  0.00000000000E+00 0. -1.
        -13    1    4    4    0    0  0.21593488605E+02 -0.73239882765E+02 -0.27943159947E+03  0.28967633310E+03  0.00000000000E+00 0. -1.
         13    1    4    4    0    0 -0.18214833853E+02  0.14433249479E+02 -0.59066236851E+02  0.63473767799E+02  0.00000000000E+00 0.  1.
          2    1    1    2  501    0  0.60500625654E+02  0.43345300678E+02 -0.24000744357E+03  0.25128213977E+03  0.00000000000E+00 0. -1.
<scales pt_clust_5="13000.00000" pt_clust_6="13000.00000" pt_clust_7="13000.00000" pt_clust_8="13000.00000" pt_clust_9="74.42540"></scales>
<clustering>
<clus scale="   74.425">  1  9  2 -1</clus>
<clus scale="   81.637">  7  8 -1 -1</clus>
<clus scale="   91.558">  5  6 -1 -1</clus>
<clus scale="   96.036">  1  7  2 -1</clus>
<clus scale="   74.425">  1  5  2 -1</clus>
</clustering>
</event>
<event>
 9    1  0.1315259E-005  0.9014170E+02  0.7546771E-02  0.1304359E+00
         21   -1    0    0  501  502  0.00000000000E+00  0.00000000000E+00  0.15070758374E+03  0.15070758374E+03  0.00000000000E+00 0. -1.
          1   -1    0    0  502    0 -0.00000000000E+00 -0.00000000000E+00 -0.34552767633E+03  0.34552767633E+03  0.00000000000E+00 0. -1.
         23    2    1    2    0    0  0.39895512222E+01 -0.47046969747E+02 -0.20602184095E+03  0.22779189470E+03  0.84940063934E+02 0.  0.
         23    2    1    2    0    0 -0.16830618074E+02 -0.41530780713E+02 -0.89799216224E+02  0.13349113042E+03  0.88022197285E+02 0.  0.
        -11    1    3    3    0    0 -0.81878768579E+01 -0.69655475878E+02 -0.13254612979E+03  0.14995800469E+03  0.00000000000E+00 0. -1.
         11    1    3    3    0    0  0.12177428080E+02  0.22608506132E+02 -0.73475711154E+02  0.77833890008E+02  0.00000000000E+00 0.  1.
        -13    1    4    4    0    0  0.36169156070E+02 -0.12138758404E+02 -0.33509541025E+02  0.50778407282E+02  0.00000000000E+00 0.  1.
         13    1    4    4    0    0 -0.52999774145E+02 -0.29392022309E+02 -0.56289675199E+02  0.82712723138E+02  0.00000000000E+00 0. -1.
          1    1    1    2  501    0  0.12841066852E+02  0.88577750460E+02  0.10100096458E+03  0.13495223496E+03  0.00000000000E+00 0. -1.
<scales pt_clust_5="13000.00000" pt_clust_6="13000.00000" pt_clust_7="13000.00000" pt_clust_8="13000.00000" pt_clust_9="89.50369"></scales>
<clustering>
<clus scale="   84.940">  5  6 -1 -1</clus>
<clus scale="   88.022">  7  8 -1 -1</clus>
<clus scale="   89.504">  1  9  2 -1</clus>
<clus scale="   87.135">  2  5  1 -1</clus>
<clus scale="   89.504">  1  5  2 -1</clus>
</clustering>
</event>
<event>
 9    1  0.1315259E-005  0.1653378E+03  0.7546771E-02  0.1183910E+00
          2   -1    0    0  502    0 -0.00000000000E+00  0.00000000000E+00  0.18751166748E+03  0.18751166748E+03  0.00000000000E+00 0. -1.
         21   -1    0    0  501  502  0.00000000000E+00 -0.00000000000E+00 -0.22804008825E+03  0.22804008825E+03  0.00000000000E+00 0.  1.
         23    2    1    2    0    0 -0.17044899255E+02  0.10951950001E+03 -0.79996072834E+00  0.14095389990E+03  0.87076474940E+02 0.  0.
         23    2    1    2    0    0  0.62581731040E+02 -0.16189262812E+03 -0.65540907829E+01  0.19767525594E+03  0.94376133660E+02 0.  0.
        -11    1    4    4    0    0  0.52141590802E+02 -0.86833803484E+02  0.39817948196E+02  0.10883163105E+03  0.00000000000E+00 0. -1.
         11    1    4    4    0    0  0.10440140238E+02 -0.75058824641E+02 -0.46372038979E+02  0.88843624891E+02  0.00000000000E+00 0.  1.
        -13    1    3    3    0    0  0.29670935446E+02  0.25526879298E+02  0.17903512781E+02  0.43040931063E+02  0.00000000000E+00 0.  1.
         13    1    3    3    0    0 -0.46715834701E+02  0.83992620711E+02 -0.18703473509E+02  0.97912968840E+02  0.00000000000E+00 0. -1.
          2    1    1    2  501    0 -0.45536831785E+02  0.52373128116E+02 -0.33174369258E+02  0.76922599887E+02  0.00000000000E+00 0. -1.
<scales pt_clust_5="13000.00000" pt_clust_6="13000.00000" pt_clust_7="13000.00000" pt_clust_8="13000.00000" pt_clust_9="69.40135"></scales>
<clustering>
<clus scale="   69.401">  2  9  1 -1</clus>
<clus scale="   87.076">  7  8 -1 -1</clus>
<clus scale="   94.376">  5  6 -1 -1</clus>
<clus scale="  161.282">  1  7  2 -1</clus>
<clus scale="   69.401">  2  5  1 -1</clus>
</clustering>
</event>
<event>
 9    1  0.1315259E-005  0.3665881E+03  0.7546771E-02  0.1076798E+00
         21   -1    0    0  501  502  0.00000000000E+00  0.00000000000E+00  0.17949477914E+03  0.17949477914E+03  0.00000000000E+00 0. -1.
          2   -1    0    0  502    0 -0.00000000000E+00 -0.00000000000E+00 -0.18944573286E+04  0.18944573286E+04  0.00000000000E+00 0. -1.
         23    2    1    2    0    0 -0.14677477867E+03 -0.11217321139E+03 -0.47585435808E+03  0.51865489207E+03  0.91868721305E+02 0.  0.
         23    2    1    2    0    0  0.41911075698E+03  0.28066792836E+03 -0.10840626801E+04  0.11994932454E+04  0.95727940308E+02 0.  0.
        -11    1    4    4    0    0  0.40529764571E+03  0.24163689358E+03 -0.10041568763E+04  0.11094979055E+04  0.00000000000E+00 0. -1.
         11    1    4    4    0    0  0.13813111270E+02  0.39031034781E+02 -0.79905803810E+02  0.89995339888E+02  0.00000000000E+00 0.  1.
        -13    1    3    3    0    0 -0.65062145084E+02  0.20666039874E+01 -0.17209604843E+03  0.18399566152E+03  0.00000000000E+00 0. -1.
         13    1    3    3    0    0 -0.81712633585E+02 -0.11423981538E+03 -0.30375830965E+03  0.33465923054E+03  0.00000000000E+00 0.  1.
          2    1    1    2  501    0 -0.27233597831E+03 -0.16849471697E+03 -0.15504551121E+03  0.35580397029E+03  0.00000000000E+00 0. -1.
<scales pt_clust_5="13000.00000" pt_clust_6="13000.00000" pt_clust_7="13000.00000" pt_clust_8="13000.00000" pt_clust_9="353.86866"></scales>
<clustering>
<clus scale="   91.869">  7  8 -1 -1</clus>
<clus scale="   95.728">  5  6 -1 -1</clus>
<clus scale="  206.314">  2  7  1 -1</clus>
<clus scale="  353.869">  1  9  2 -1</clus>
<clus scale="  353.869">  1  5  2 -1</clus>
</clustering>
</event>
<event>
 9    1  0.1315259E-005  0.2719137E+03  0.7546771E-02  0.1101562E+00
         -2   -1    0    0    0  501 -0.00000000000E+00  0.00000000000E+00  0.37434386834E+03  0.37434386834E+03  0.00000000000E+00 0.  1.
         21   -1    0    0  501  502  0.00000000000E+00 -0.00000000000E+00 -0.47188471364E+03  0.47188471364E+03  0.00000000000E+00 0. -1.
         23    2    1    2    0    0  0.16075383563E+03 -0.17130978913E+03  0.21037873312E+03  0.33540322031E+03  0.11422464412E+03 0.  0.
         23    2    1    2    0    0 -0.22099968971E+03  0.19573740269E+03 -0.15610953471E+03  0.34568130150E+03  0.89282594711E+02 0.  0.
        -11    1    3    3    0    0  0.16344858206E+03 -0.12077221235E+03  0.19703994569E+03  0.28306555151E+03  0.00000000000E+00 0.  1.
         11    1    3    3    0    0 -0.26947464341E+01 -0.50537576778E+02  0.13338787423E+02  0.52337668795E+02  0.00000000000E+00 0. -1.
        -11    1    4    4    0    0 -0.20423199534E+03  0.16370803526E+03 -0.16372583253E+03  0.30873480039E+03  0.00000000000E+00 0. -1.
         11    1    4    4    0    0 -0.16767694368E+02  0.32029367431E+02  0.76162978235E+01  0.36946501119E+02  0.00000000000E+00 0.  1.
         -2    1    1    2    0  502  0.60245854079E+02 -0.24427613566E+02 -0.15181004371E+03  0.16514406017E+03  0.00000000000E+00 0.  1.
<scales pt_clust_5="13000.00000" pt_clust_6="13000.00000" pt_clust_7="13000.00000" pt_clust_8="13000.00000" pt_clust_9="65.00978"></scales>
<clustering>
<clus scale="   65.010">  2  9  1 -1</clus>
<clus scale="   89.283">  7  8 -1 -1</clus>
<clus scale="  114.225">  5  6 -1 -1</clus>
<clus scale="  262.414">  2  7  1 -1</clus>
<clus scale="   65.010">  2  5  1 -1</clus>
</clustering>
</event>
<event>
 9    1  0.1315259E-005  0.1165650E+03  0.7546771E-02  0.1250949E+00
         21   -1    0    0  501  502  0.00000000000E+00  0.00000000000E+00  0.21154043649E+03  0.21154043649E+03  0.00000000000E+00 0.  1.
          1   -1    0    0  502    0 -0.00000000000E+00 -0.00000000000E+00 -0.12655432224E+03  0.12655432224E+03  0.00000000000E+00 0. -1.
         23    2    1    2    0    0 -0.41508741499E+02 -0.28805744104E+02  0.52845971774E+01  0.10451789829E+03  0.91341762530E+02 0.  0.
         23    2    1    2    0    0  0.37523805916E+02  0.98351351611E+02  0.79769340187E+02  0.16391714586E+03  0.97080681394E+02 0.  0.
        -11    1    3    3    0    0 -0.70465543376E+02 -0.15641708170E+02  0.78482576588E+01  0.72606136008E+02  0.00000000000E+00 0.  1.
         11    1    3    3    0    0  0.28956801878E+02 -0.13164035934E+02 -0.25636604814E+01  0.31911762285E+02  0.00000000000E+00 0. -1.
        -13    1    4    4    0    0 -0.20394349206E+02  0.79672153860E+02  0.48884311952E+02  0.95672658243E+02  0.00000000000E+00 0.  1.
         13    1    4    4    0    0  0.57918155122E+02  0.18679197750E+02  0.30885028235E+02  0.68244487620E+02  0.00000000000E+00 0. -1.
          1    1    1    2  501    0  0.39849355827E+01 -0.69545607507E+02 -0.67823108509E-01  0.69659714578E+02  0.00000000000E+00 0. -1.
<scales pt_clust_5="13000.00000" pt_clust_6="13000.00000" pt_clust_7="13000.00000" pt_clust_8="13000.00000" pt_clust_9="69.65972"></scales>
<clustering>
<clus scale="   69.660">  1  9  2 -1</clus>
<clus scale="   91.342">  5  6 -1 -1</clus>
<clus scale="   97.081">  7  8 -1 -1</clus>
<clus scale="  111.831">  2  5  1 -1</clus>
<clus scale="   69.660">  1  5  2 -1</clus>
</clustering>
</event>
<event>
 9    1  0.1315259E-005  0.1008286E+03  0.7546771E-02  0.1278589E+00
          1   -1    0    0  502    0 -0.00000000000E+00  0.00000000000E+00  0.36844185468E+03  0.36844185468E+03  0.00000000000E+00 0. -1.
         21   -1    0    0  501  502  0.00000000000E+00 -0.00000000000E+00 -0.77611670630E+02  0.77611670630E+02  0.00000000000E+00 0.  1.
         23    2    1    2    0    0 -0.14078116531E+02 -0.58739169016E+02  0.75004883554E+02  0.13266942017E+03  0.91252173401E+02 0.  0.
         23    2    1    2    0    0 -0.66074775184E+02  0.10005287879E+02  0.51652615552E+02  0.12430172176E+03  0.91197278680E+02 0.  0.
        -13    1    3    3    0    0 -0.27773877504E+02 -0.77649889306E+02  0.42862480341E+02  0.92941302992E+02  0.00000000000E+00 0.  1.
         13    1    3    3    0    0  0.13695760973E+02  0.18910720290E+02  0.32142403213E+02  0.39728117181E+02  0.00000000000E+00 0. -1.
        -13    1    4    4    0    0 -0.57891033058E+02 -0.20334589091E+02 -0.28108502526E+01  0.61422863017E+02  0.00000000000E+00 0.  1.
         13    1    4    4    0    0 -0.81837421255E+01  0.30339876969E+02  0.54463465804E+02  0.62878858745E+02  0.00000000000E+00 0. -1.
          1    1    1    2  501    0  0.80152891715E+02  0.48733881137E+02  0.16417268494E+03  0.18908238337E+03  0.00000000000E+00 0. -1.
<scales pt_clust_5="13000.00000" pt_clust_6="13000.00000" pt_clust_7="13000.00000" pt_clust_8="13000.00000" pt_clust_9="93.80558"></scales>
<clustering>
<clus scale="   91.197">  7  8 -1 -1</clus>
<clus scale="   91.252">  5  6 -1 -1</clus>
<clus scale="   93.806">  2  9  1 -1</clus>
<clus scale="  100.779">  2  7  1 -1</clus>
<clus scale="   93.806">  2  5  1 -1</clus>
</clustering>
</event>
<event>
 9    1  0.1315259E-005  0.1111234E+03  0.7546771E-02  0.1258728E+00
         21   -1    0    0  501  502  0.00000000000E+00  0.00000000000E+00  0.51634019985E+02  0.51634019985E+02  0.00000000000E+00 0.  1.
          1   -1    0    0  502    0 -0.00000000000E+00 -0.00000000000E+00 -0.39783649591E+03  0.39783649591E+03  0.00000000000E+00 0. -1.
         23    2    1    2    0    0 -0.22010096187E+02  0.64687623661E+02 -0.17875590658E+03  0.21198481384E+03  0.91186370545E+02 0.  0.
         23    2    1    2    0    0  0.59186788964E+02 -0.30372878212E+02 -0.13929304161E+03  0.17958726196E+03  0.91779330459E+02 0.  0.
        -11    1    3    3    0    0  0.15551693790E+02  0.23325644302E+02 -0.14283864888E+03  0.14556380208E+03  0.00000000000E+00 0. -1.
         11    1    3    3    0    0 -0.37561789978E+02  0.41361979359E+02 -0.35917257698E+02  0.66421011761E+02  0.00000000000E+00 0.  1.
        -11    1    4    4    0    0  0.72996613097E+02 -0.48879479846E+02 -0.93467521741E+02  0.12827270440E+03  0.00000000000E+00 0.  1.
         11    1    4    4    0    0 -0.13809824133E+02  0.18506601634E+02 -0.45825519868E+02  0.51314557562E+02  0.00000000000E+00 0. -1.
          1    1    1    2  501    0 -0.37176692776E+02 -0.34314745449E+02 -0.28153527734E+02  0.57898440091E+02  0.00000000000E+00 0. -1.
<scales pt_clust_5="13000.00000" pt_clust_6="13000.00000" pt_clust_7="13000.00000" pt_clust_8="13000.00000" pt_clust_9="50.59257"></scales>
<clustering>
<clus scale="   50.593">  1  9  2 -1</clus>
<clus scale="   91.186">  5  6 -1 -1</clus>
<clus scale="   91.779">  7  8 -1 -1</clus>
<clus scale="  110.634">  2  5  1 -1</clus>
<clus scale="   50.593">  1  5  2 -1</clus>
</clustering>
</event>
<event>
 9    1  0.1315259E-005  0.9356159E+02  0.7546771E-02  0.1297162E+00
         21   -1    0    0  501  502  0.00000000000E+00  0.00000000000E+00  0.25437964368E+03  0.25437964368E+03  0.00000000000E+00 0.  1.
         -1   -1    0    0    0  501 -0.00000000000E+00 -0.00000000000E+00 -0.17151836828E+03  0.17151836828E+03  0.00000000000E+00 0.  1.
         23    2    1    2    0    0 -0.56659174887E+00  0.35047360336E+02 -0.99558528774E+02  0.13975378371E+03  0.91600114177E+02 0.  0.
         23    2    1    2    0    0 -0.22384017952E+02  0.20440790522E+02 -0.21390735650E+01  0.92062686815E+02  0.86902776084E+02 0.  0.
        -13    1    4    4    0    0 -0.50987702199E+01  0.54012851880E+02 -0.22158376529E+00  0.54253430539E+02  0.00000000000E+00 0.  1.
         13    1    4    4    0    0 -0.17285247732E+02 -0.33572061358E+02 -0.19174897997E+01  0.37809256276E+02  0.00000000000E+00 0. -1.
        -13    1    3    3    0    0 -0.15222112523E+02  0.20129490111E+02  0.10785817387E+02  0.27445271697E+02  0.00000000000E+00 0. -1.
         13    1    3    3    0    0  0.14655520774E+02  0.14917870225E+02 -0.11034434616E+03  0.11230851201E+03  0.00000000000E+00 0.  1.
         -1    1    1    2    0  502  0.22950609701E+02 -0.55488150858E+02  0.18455887774E+03  0.19408154143E+03  0.00000000000E+00 0.  1.
<scales pt_clust_5="13000.00000" pt_clust_6="13000.00000" pt_clust_7="13000.00000" pt_clust_8="13000.00000" pt_clust_9="60.04719"></scales>
<clustering>
<clus scale="   60.047">  1  9  2 -1</clus>
<clus scale="   86.903">  5  6 -1 -1</clus>
<clus scale="   88.968">  1  5  2 -1</clus>
<clus scale="   91.600">  7  8 -1 -1</clus>
<clus scale="   60.047">  1  5  2 -1</clus>
</clustering>
</event>
<event>
 9    1  0.1346001E-005  0.1287980E+03  0.7546771E-02  0.1233013E+00
          1   -1    0    0  502    0 -0.00000000000E+00  0.00000000000E+00  0.49611882395E+03  0.49611882395E+03  0.00000000000E+00 0. -1.
         21   -1    0    0  501  502  0.00000000000E+00 -0.00000000000E+00 -0.69087677263E+02  0.69087677263E+02  0.00000000000E+00 0.  1.
         23    2    1    2    0    0  0.26248647528E+02  0.61214567449E+02  0.32810489862E+03  0.34784436724E+03  0.94375126812E+02 0.  0.
         23    2    1    2    0    0 -0.11346165587E+02 -0.99574011693E+02  0.98568951409E+02  0.17620805044E+03  0.10625309209E+03 0.  0.
        -11    1    4    4    0    0 -0.68531243073E+01 -0.12239203794E+03  0.86292104297E+02  0.14991031828E+03  0.00000000000E+00 0.  1.
         11    1    4    4    0    0 -0.44930412800E+01  0.22818026243E+02  0.12276847111E+02  0.26297732157E+02  0.00000000000E+00 0. -1.
        -13    1    3    3    0    0 -0.11988062040E+02 -0.21369230459E+02  0.70625271494E+02  0.74754843425E+02  0.00000000000E+00 0.  1.
         13    1    3    3    0    0  0.38236709568E+02  0.82583797907E+02  0.25747962712E+03  0.27308952382E+03  0.00000000000E+00 0. -1.
          1    1    1    2  501    0 -0.14902481941E+02  0.38359444244E+02  0.35729666265E+00  0.41154083535E+02  0.00000000000E+00 0. -1.
<scales pt_clust_5="13000.00000" pt_clust_6="13000.00000" pt_clust_7="13000.00000" pt_clust_8="13000.00000" pt_clust_9="41.15253"></scales>
<clustering>
<clus scale="   41.153">  2  9  1 -1</clus>
<clus scale="   94.375">  7  8 -1 -1</clus>
<clus scale="  106.253">  5  6 -1 -1</clus>
<clus scale="  119.188">  1  7  2 -1</clus>
<clus scale="   41.153">  2  5  1 -1</clus>
</clustering>
</event>
<event>
 9    1  0.1315259E-005  0.9568263E+02  0.7546771E-02  0.1289984E+00
         21   -1    0    0  501  502  0.00000000000E+00  0.00000000000E+00  0.20525954317E+02  0.20525954317E+02  0.00000000000E+00 0.  1.
          1   -1    0    0  502    0 -0.00000000000E+00 -0.00000000000E+00 -0.64864114761E+03  0.64864114761E+03  0.00000000000E+00 0. -1.
         23    2    1    2    0    0 -0.25552241560E+02  0.18532409964E+02 -0.38451580901E+03  0.39683622056E+03  0.92898930613E+02 0.  0.
         23    2    1    2    0    0 -0.24581431235E+01 -0.14037947593E+02 -0.18843874149E+03  0.21030283645E+03  0.92276851287E+02 0.  0.
        -11    1    3    3    0    0 -0.10602032779E+02  0.52931836866E+02 -0.29301476761E+03  0.29794602949E+03  0.00000000000E+00 0.  1.
         11    1    3    3    0    0 -0.14950208780E+02 -0.34399426902E+02 -0.91501041397E+02  0.98890191073E+02  0.00000000000E+00 0. -1.
        -13    1    4    4    0    0 -0.23306635954E+02  0.33659447633E+02 -0.73699385363E+02  0.84307515070E+02  0.00000000000E+00 0.  1.
         13    1    4    4    0    0  0.20848492830E+02 -0.47697395226E+02 -0.11473935613E+03  0.12599532138E+03  0.00000000000E+00 0. -1.
          1    1    1    2  501    0  0.28010384683E+02 -0.44944623703E+01 -0.55160642799E+02  0.62028044916E+02  0.00000000000E+00 0. -1.
<scales pt_clust_5="13000.00000" pt_clust_6="13000.00000" pt_clust_7="13000.00000" pt_clust_8="13000.00000" pt_clust_9="28.36868"></scales>
<clustering>
<clus scale="   28.369">  1  9  2 -1</clus>
<clus scale="   92.277">  7  8 -1 -1</clus>
<clus scale="   92.899">  5  6 -1 -1</clus>
<clus scale="   95.079">  1  7  2 -1</clus>
<clus scale="   28.369">  1  5  2 -1</clus>
</clustering>
</event>
<event>
 9    1  0.1315259E-005  0.9702014E+02  0.7546771E-02  0.1287623E+00
         -3   -1    0    0    0  501 -0.00000000000E+00  0.00000000000E+00  0.16505692955E+03  0.16505692955E+03  0.00000000000E+00 0.  1.
         21   -1    0    0  501  502  0.00000000000E+00 -0.00000000000E+00 -0.95140248850E+02  0.95140248850E+02  0.00000000000E+00 0. -1.
         23    2    1    2    0    0 -0.84821559056E+01 -0.37608869454E+01  0.28445840567E+02  0.95760119322E+02  0.90965616403E+02 0.  0.
         23    2    1    2    0    0  0.70505153387E+01  0.53058192590E+02  0.42268802651E+02  0.11511251466E+03  0.92732722303E+02 0.  0.
        -11    1    4    4    0    0 -0.20649531840E+02  0.69722105329E+02  0.18626848669E+02  0.75063537273E+02  0.00000000000E+00 0.  1.
         11    1    4    4    0    0  0.27700047178E+02 -0.16663912738E+02  0.23641953982E+02  0.40048977384E+02  0.00000000000E+00 0. -1.
        -13    1    3    3    0    0  0.85911101935E+00 -0.37206171086E+02  0.44069885567E+02  0.57681817348E+02  0.00000000000E+00 0.  1.
         13    1    3    3    0    0 -0.93412669249E+01  0.33445284141E+02 -0.15624045001E+02  0.38078301974E+02  0.00000000000E+00 0. -1.
         -3    1    1    2    0  502  0.14316405669E+01 -0.49297305645E+02 -0.79796251311E+00  0.49324544425E+02  0.00000000000E+00 0.  1.
<scales pt_clust_5="13000.00000" pt_clust_6="13000.00000" pt_clust_7="13000.00000" pt_clust_8="13000.00000" pt_clust_9="49.31809"></scales>
<clustering>
<clus scale="   49.318">  2  9  1 -1</clus>
<clus scale="   90.966">  7  8 -1 -1</clus>
<clus scale="   92.733">  5  6 -1 -1</clus>
<clus scale="   95.333">  1  7  2 -1</clus>
<clus scale="   49.318">  2  5  1 -1</clus>
</clustering>
</event>
<event>
 9    1  0.1315259E-005  0.9790026E+02  0.7546771E-02  0.1287403E+00
         21   -1    0    0  501  502  0.00000000000E+00  0.00000000000E+00  0.62178260015E+02  0.62178260015E+02  0.00000000000E+00 0. -1.
          1   -1    0    0  502    0 -0.00000000000E+00 -0.00000000000E+00 -0.64097483952E+03  0.64097483952E+03  0.00000000000E+00 0. -1.
         23    2    1    2    0    0  0.10523149043E+02 -0.14277926118E+02 -0.45127938001E+03  0.46179900286E+03  0.96387988751E+02 0.  0.
         23    2    1    2    0    0  0.38864910234E+02  0.25186663492E+02 -0.15338130810E+03  0.18454623575E+03  0.91578590231E+02 0.  0.
        -11    1    4    4    0    0  0.66406800762E+02  0.32235754376E+02 -0.10340716403E+03  0.12705136214E+03  0.00000000000E+00 0. -1.
         11    1    4    4    0    0 -0.27541890528E+02 -0.70490908843E+01 -0.49974144069E+02  0.57494873611E+02  0.00000000000E+00 0.  1.
        -13    1    3    3    0    0  0.26799655998E+02 -0.51018914011E+02 -0.25150764672E+03  0.25802567219E+03  0.00000000000E+00 0. -1.
         13    1    3    3    0    0 -0.16276506956E+02  0.36740987893E+02 -0.19977173329E+03  0.20377333067E+03  0.00000000000E+00 0.  1.
          1    1    1    2  501    0 -0.49388059276E+02 -0.10908737374E+02  0.25864108603E+02  0.56807860935E+02  0.00000000000E+00 0. -1.
<scales pt_clust_5="13000.00000" pt_clust_6="13000.00000" pt_clust_7="13000.00000" pt_clust_8="13000.00000" pt_clust_9="50.57846"></scales>
<clustering>
<clus scale="   50.578">  1  9  2 -1</clus>
<clus scale="   91.579">  5  6 -1 -1</clus>
<clus scale="   93.169">  1  5  2 -1</clus>
<clus scale="   96.388">  7  8 -1 -1</clus>
<clus scale="   50.578">  1  5  2 -1</clus>
</clustering>
</event>
<event>
 9    1  0.1315259E-005  0.1124007E+03  0.7546771E-02  0.1257085E+00
         21   -1    0    0  501  502  0.00000000000E+00  0.00000000000E+00  0.32685732634E+03  0.32685732634E+03  0.00000000000E+00 0.  1.
         -1   -1    0    0    0  501 -0.00000000000E+00 -0.00000000000E+00 -0.63754838739E+02  0.63754838739E+02  0.00000000000E+00 0.  1.
         23    2    1    2    0    0  0.57100793451E+02 -0.54446240344E+01  0.50859021926E+02  0.11957978567E+03  0.91774399952E+02 0.  0.
         23    2    1    2    0    0 -0.70404190941E+02  0.41770551947E+02  0.11791621443E+03  0.16908050963E+03  0.89344591327E+02 0.  0.
        -11    1    3    3    0    0  0.77689011102E+02  0.48202497150E+01  0.56145840371E+02  0.95974854230E+02  0.00000000000E+00 0.  1.
         11    1    3    3    0    0 -0.20588217651E+02 -0.10264873749E+02 -0.52868184455E+01  0.23604931443E+02  0.00000000000E+00 0. -1.
        -13    1    4    4    0    0 -0.53598015203E+02  0.14635958477E+02  0.98849553615E+01  0.56432888077E+02  0.00000000000E+00 0.  1.
         13    1    4    4    0    0 -0.16806175738E+02  0.27134593470E+02  0.10803125907E+03  0.11264762155E+03  0.00000000000E+00 0. -1.
         -1    1    1    2    0  502  0.13303397490E+02 -0.36325927913E+02  0.94327251249E+02  0.10195186978E+03  0.00000000000E+00 0.  1.
<scales pt_clust_5="13000.00000" pt_clust_6="13000.00000" pt_clust_7="13000.00000" pt_clust_8="13000.00000" pt_clust_9="38.68531"></scales>
<clustering>
<clus scale="   38.685">  1  9  2 -1</clus>
<clus scale="   89.345">  7  8 -1 -1</clus>
<clus scale="   91.774">  5  6 -1 -1</clus>
<clus scale="  110.426">  1  7  2 -1</clus>
<clus scale="   38.685">  1  5  2 -1</clus>
</clustering>
</event>
<event>
 9    1  0.1315259E-005  0.1494082E+03  0.7546771E-02  0.1201878E+00
         21   -1    0    0  501  502  0.00000000000E+00  0.00000000000E+00  0.42327413340E+02  0.42327413340E+02  0.00000000000E+00 0.  1.
          1   -1    0    0  502    0 -0.00000000000E+00 -0.00000000000E+00 -0.66651298838E+03  0.66651298838E+03  0.00000000000E+00 0. -1.
         23    2    1    2    0    0 -0.10748754639E+03 -0.67782627690E+02 -0.38411252520E+03  0.41458356827E+03  0.90493346848E+02 0.  0.
         23    2    1    2    0    0  0.83752354486E+02  0.64239911754E+02 -0.15888069193E+03  0.20959214686E+03  0.86859487764E+02 0.  0.
        -11    1    4    4    0    0 -0.69047840658E+01  0.20779716622E+02 -0.38545438664E+00  0.21900256641E+02  0.00000000000E+00 0. -1.
         11    1    4    4    0    0  0.90657138551E+02  0.43460195132E+02 -0.15849523754E+03  0.18769189022E+03  0.00000000000E+00 0.  1.
        -13    1    3    3    0    0 -0.39240184508E+02  0.20598970242E+02 -0.11219099585E+03  0.12062723244E+03  0.00000000000E+00 0.  1.
         13    1    3    3    0    0 -0.68247361880E+02 -0.88381597932E+02 -0.27192152934E+03  0.29395633583E+03  0.00000000000E+00 0. -1.
          1    1    1    2  501    0  0.23735191902E+02  0.35427159358E+01 -0.81192357917E+02  0.84664686588E+02  0.00000000000E+00 0. -1.
<scales pt_clust_5="13000.00000" pt_clust_6="13000.00000" pt_clust_7="13000.00000" pt_clust_8="13000.00000" pt_clust_9="23.99814"></scales>
<clustering>
<clus scale="   23.998">  1  9  2 -1</clus>
<clus scale="   86.859">  5  6 -1 -1</clus>
<clus scale="   90.493">  7  8 -1 -1</clus>
<clus scale="  147.236">  1  5  2 -1</clus>
<clus scale="   23.998">  1  5  2 -1</clus>
</clustering>
</event>
<event>
 9    1  0.1315259E-005  0.1044434E+03  0.7546771E-02  0.1271693E+00
         21   -1    0    0  501  502  0.00000000000E+00  0.00000000000E+00  0.37116549479E+03  0.37116549479E+03  0.00000000000E+00 0.  1.
          3   -1    0    0  502    0 -0.00000000000E+00 -0.00000000000E+00 -0.18732221340E+03  0.18732221340E+03  0.00000000000E+00 0. -1.
         23    2    1    2    0    0  0.19538978965E+02 -0.42202970663E+02 -0.15737881997E+03  0.18876708536E+03  0.93284817128E+02 0.  0.
         23    2    1    2    0    0 -0.41068135297E+02  0.39593371630E+02  0.20627548934E+03  0.23304252409E+03  0.92222631268E+02 0.  0.
        -11    1    3    3    0    0  0.43371323581E+02 -0.52478972117E+02 -0.70134817531E+02  0.97744600126E+02  0.00000000000E+00 0. -1.
         11    1    3    3    0    0 -0.23832344616E+02  0.10276001454E+02 -0.87244002440E+02  0.91022485231E+02  0.00000000000E+00 0.  1.
        -11    1    4    4    0    0 -0.43840462640E+02 -0.91611798859E+01  0.41057441113E+02  0.60758759468E+02  0.00000000000E+00 0. -1.
         11    1    4    4    0    0  0.27723273427E+01  0.48754551516E+02  0.16521804823E+03  0.17228376462E+03  0.00000000000E+00 0.  1.
          3    1    1    2  501    0  0.21529156331E+02  0.26095990338E+01  0.13494661202E+03  0.13667809874E+03  0.00000000000E+00 0. -1.
<scales pt_clust_5="13000.00000" pt_clust_6="13000.00000" pt_clust_7="13000.00000" pt_clust_8="13000.00000" pt_clust_9="21.68674"></scales>
<clustering>
<clus scale="   21.687">  1  9  2 -1</clus>
<clus scale="   92.223">  7  8 -1 -1</clus>
<clus scale="   93.285">  5  6 -1 -1</clus>
<clus scale="  103.496">  1  7  2 -1</clus>
<clus scale="   21.687">  1  5  2 -1</clus>
</clustering>
</event>
<event>
 9    1  0.1315259E-005  0.3801403E+03  0.7546771E-02  0.1085538E+00
          2   -1    0    0  502    0 -0.00000000000E+00  0.00000000000E+00  0.15625926700E+04  0.15625926700E+04  0.00000000000E+00 0. -1.
         21   -1    0    0  501  502  0.00000000000E+00 -0.00000000000E+00 -0.26066385653E+03  0.26066385653E+03  0.00000000000E+00 0. -1.
         23    2    1    2    0    0 -0.24476901866E+02  0.11246923519E+03  0.71626150274E+03  0.73104763542E+03  0.90286529210E+02 0.  0.
         23    2    1    2    0    0  0.20852753260E+03  0.22915175509E+03  0.62419142514E+03  0.70225550535E+03  0.86911454212E+02 0.  0.
        -11    1    3    3    0    0  0.26035331695E+02  0.18623950315E+02  0.84506855982E+02  0.90366469056E+02  0.00000000000E+00 0.  1.
         11    1    3    3    0    0 -0.50512233561E+02  0.93845284875E+02  0.63175464675E+03  0.64068116636E+03  0.00000000000E+00 0. -1.
        -11    1    4    4    0    0  0.88764575958E+02  0.43256599748E+02  0.15875690556E+03  0.18695999152E+03  0.00000000000E+00 0.  1.
         11    1    4    4    0    0  0.11976295665E+03  0.18589515534E+03  0.46543451958E+03  0.51529551383E+03  0.00000000000E+00 0. -1.
          2    1    1    2  501    0 -0.18405063074E+03 -0.34162099028E+03 -0.38524114399E+02  0.38995338576E+03  0.00000000000E+00 0. -1.
<scales pt_clust_5="13000.00000" pt_clust_6="13000.00000" pt_clust_7="13000.00000" pt_clust_8="13000.00000" pt_clust_9="370.07166"></scales>
<clustering>
<clus scale="   86.911">  7  8 -1 -1</clus>
<clus scale="   90.287">  5  6 -1 -1</clus>
<clus scale="  146.288">  1  5  2 -1</clus>
<clus scale="  370.072">  2  9  1 -1</clus>
<clus scale="  370.072">  2  5  1 -1</clus>
</clustering>
</event>
<event>
 9    1  0.1315259E-005  0.9795843E+02  0.7546771E-02  0.1286147E+00
         -1   -1    0    0    0  501 -0.00000000000E+00  0.00000000000E+00  0.11382360000E+03  0.11382360000E+03  0.00000000000E+00 0.  1.
         21   -1    0    0  501  502  0.00000000000E+00 -0.00000000000E+00 -0.14579691859E+03  0.14579691859E+03  0.00000000000E+00 0. -1.
         23    2    1    2    0    0 -0.18649763080E+02  0.16116753051E+02  0.26159874380E+02  0.97666584756E+02  0.90812220315E+02 0.  0.
         23    2    1    2    0    0  0.58885232677E+01 -0.38803578820E+02 -0.37131414423E+01  0.10162911877E+03  0.93671222515E+02 0.  0.
        -11    1    4    4    0    0  0.44137476503E+02 -0.42773117266E+02  0.65994789482E+01  0.61815932535E+02  0.00000000000E+00 0.  1.
         11    1    4    4    0    0 -0.38248953236E+02  0.39695384455E+01 -0.10312620391E+02  0.39813186238E+02  0.00000000000E+00 0. -1.
        -13    1    3    3    0    0 -0.12711401783E+02  0.41557821982E+02 -0.17449455106E+02  0.46830714138E+02  0.00000000000E+00 0. -1.
         13    1    3    3    0    0 -0.59383612966E+01 -0.25441068931E+02  0.43609329486E+02  0.50835870618E+02  0.00000000000E+00 0.  1.
         -1    1    1    2    0  502  0.12761239812E+02  0.22686825769E+02 -0.54420051525E+02  0.60324815068E+02  0.00000000000E+00 0.  1.
<scales pt_clust_5="13000.00000" pt_clust_6="13000.00000" pt_clust_7="13000.00000" pt_clust_8="13000.00000" pt_clust_9="26.02962"></scales>
<clustering>
<clus scale="   26.030">  2  9  1 -1</clus>
<clus scale="   90.812">  7  8 -1 -1</clus>
<clus scale="   93.671">  5  6 -1 -1</clus>
<clus scale="   95.228">  1  7  2 -1</clus>
<clus scale="   26.030">  2  5  1 -1</clus>
</clustering>
</event>
<event>
 9    1  0.1315259E-005  0.1016986E+03  0.7546771E-02  0.1280537E+00
         -1   -1    0    0    0  501 -0.00000000000E+00  0.00000000000E+00  0.27753262106E+03  0.27753262106E+03  0.00000000000E+00 0.  1.
         21   -1    0    0  501  502  0.00000000000E+00 -0.00000000000E+00 -0.17342314866E+03  0.17342314866E+03  0.00000000000E+00 0.  1.
         23    2    1    2    0    0  0.19560766462E+02  0.40872999836E+02  0.15959700080E+03  0.18913478253E+03  0.90815954527E+02 0.  0.
         23    2    1    2    0    0 -0.79455151486E+01  0.10436781748E+02  0.72971910228E+02  0.12300659628E+03  0.98151237499E+02 0.  0.
        -13    1    4    4    0    0 -0.50085935991E+02  0.22554502508E+02  0.44862192710E+02  0.70921949369E+02  0.00000000000E+00 0.  1.
         13    1    4    4    0    0  0.42140420843E+02 -0.12117720760E+02  0.28109717518E+02  0.52084646914E+02  0.00000000000E+00 0. -1.
        -13    1    3    3    0    0  0.54902703231E+02  0.36355028634E+02  0.10509916148E+03  0.12402350048E+03  0.00000000000E+00 0.  1.
         13    1    3    3    0    0 -0.35341936769E+02  0.45179712027E+01  0.54497839328E+02  0.65111282046E+02  0.00000000000E+00 0. -1.
         -1    1    1    2    0  502 -0.11615251313E+02 -0.51309781585E+02 -0.12845943864E+03  0.13881439091E+03  0.00000000000E+00 0.  1.
<scales pt_clust_5="13000.00000" pt_clust_6="13000.00000" pt_clust_7="13000.00000" pt_clust_8="13000.00000" pt_clust_9="52.60806"></scales>
<clustering>
<clus scale="   52.608">  2  9  1 -1</clus>
<clus scale="   90.816">  7  8 -1 -1</clus>
<clus scale="   94.639">  1  7  2 -1</clus>
<clus scale="   98.151">  5  6 -1 -1</clus>
<clus scale="   52.608">  2  5  1 -1</clus>
</clustering>
</event>
<event>
 9    1  0.1315259E-005  0.9390574E+02  0.7546771E-02  0.1294180E+00
          1   -1    0    0  502    0 -0.00000000000E+00  0.00000000000E+00  0.40908997440E+03  0.40908997440E+03  0.00000000000E+00 0. -1.
         21   -1    0    0  501  502  0.00000000000E+00 -0.00000000000E+00 -0.73828869170E+02  0.73828869170E+02  0.00000000000E+00 0. -1.
         23    2    1    2    0    0 -0.17450048487E+01  0.99240547357E+01  0.17378991913E+03  0.19623114042E+03  0.90565957038E+02 0.  0.
         23    2    1    2    0    0 -0.58894204700E+02  0.12347805593E+02  0.18805023980E+03  0.21683360096E+03  0.89626570635E+02 0.  0.
        -13    1    3    3    0    0 -0.12570297799E+02 -0.38560886695E+02  0.91877882298E+02  0.10043156687E+03  0.00000000000E+00 0.  1.
         13    1    3    3    0    0  0.10825292950E+02  0.48484941431E+02  0.81912036833E+02  0.95799573543E+02  0.00000000000E+00 0. -1.
        -13    1    4    4    0    0 -0.81132938708E+02  0.20766133347E+02  0.13804845947E+03  0.16146567190E+03  0.00000000000E+00 0. -1.
         13    1    4    4    0    0  0.22238734008E+02 -0.84183277539E+01  0.50001780328E+02  0.55367929060E+02  0.00000000000E+00 0.  1.
          1    1    1    2  501    0  0.60639209548E+02 -0.22271860329E+02 -0.26579053706E+02  0.69854102192E+02  0.00000000000E+00 0. -1.
<scales pt_clust_5="13000.00000" pt_clust_6="13000.00000" pt_clust_7="13000.00000" pt_clust_8="13000.00000" pt_clust_9="64.59992"></scales>
<clustering>
<clus scale="   64.600">  2  9  1 -1</clus>
<clus scale="   89.627">  7  8 -1 -1</clus>
<clus scale="   90.566">  5  6 -1 -1</clus>
<clus scale="   93.000">  2  7  1 -1</clus>
<clus scale="   64.600">  2  5  1 -1</clus>
</clustering>
</event>
<event>
 9    1  0.1315259E-005  0.1007250E+03  0.7546771E-02  0.1279671E+00
         -1   -1    0    0    0  501 -0.00000000000E+00  0.00000000000E+00  0.40950364716E+03  0.40950364716E+03  0.00000000000E+00 0.  1.
         21   -1    0    0  501  502  0.00000000000E+00 -0.00000000000E+00 -0.73165408730E+02  0.73165408730E+02  0.00000000000E+00 0.  1.
         23    2    1    2    0    0  0.11826263424E+02 -0.43362786072E+02  0.28037982410E+03  0.29793491961E+03  0.90178594130E+02 0.  0.
         23    2    1    2    0    0 -0.28189756025E+02  0.23039508130E+02  0.95382598901E+02  0.13745765327E+03  0.92039583823E+02 0.  0.
        -11    1    3    3    0    0  0.46226299214E+02 -0.28627761549E+02  0.22222007864E+03  0.22877539820E+03  0.00000000000E+00 0.  1.
         11    1    3    3    0    0 -0.34400035790E+02 -0.14735024523E+02  0.58159745458E+02  0.69159521411E+02  0.00000000000E+00 0. -1.
        -13    1    4    4    0    0  0.32022594572E+02 -0.11048255507E+01  0.45374659237E+02  0.55547519328E+02  0.00000000000E+00 0. -1.
         13    1    4    4    0    0 -0.60212350597E+02  0.24144333681E+02  0.50007939664E+02  0.81910133944E+02  0.00000000000E+00 0.  1.
         -1    1    1    2    0  502  0.16363492602E+02  0.20323277942E+02 -0.39424184571E+02  0.47276483007E+02  0.00000000000E+00 0.  1.
<scales pt_clust_5="13000.00000" pt_clust_6="13000.00000" pt_clust_7="13000.00000" pt_clust_8="13000.00000" pt_clust_9="26.09214"></scales>
<clustering>
<clus scale="   26.092">  2  9  1 -1</clus>
<clus scale="   90.179">  5  6 -1 -1</clus>
<clus scale="   92.040">  7  8 -1 -1</clus>
<clus scale="   99.027">  1  5  2 -1</clus>
<clus scale="   26.092">  2  5  1 -1</clus>
</clustering>
</event>
<event>
 9    1  0.1315259E-005  0.1742823E+03  0.7546771E-02  0.1191691E+00
         -1   -1    0    0    0  501 -0.00000000000E+00  0.00000000000E+00  0.51039524010E+03  0.51039524010E+03  0.00000000000E+00 0.  1.
         21   -1    0    0  501  502  0.00000000000E+00 -0.00000000000E+00 -0.20715891691E+03  0.20715891691E+03  0.00000000000E+00 0.  1.
         23    2    1    2    0    0 -0.73478840589E+02 -0.50570124728E+01  0.31576139229E+03  0.33635206948E+03  0.89458059395E+02 0.  0.
         23    2    1    2    0    0  0.38842996262E+02 -0.14370443928E+03  0.91030329175E+02  0.19666663903E+03  0.90727624507E+02 0.  0.
        -11    1    3    3    0    0 -0.39548778892E+02 -0.38701900240E+02  0.24359079222E+03  0.24979675148E+03  0.00000000000E+00 0.  1.
         11    1    3    3    0    0 -0.33930061698E+02  0.33644887768E+02  0.72170600076E+02  0.86555318006E+02  0.00000000000E+00 0. -1.
        -11    1    4    4    0    0  0.27906357652E+02 -0.68535852453E+02 -0.50675770112E+01  0.74172826598E+02  0.00000000000E+00 0.  1.
         11    1    4    4    0    0  0.10936638610E+02 -0.75168586827E+02  0.96097906187E+02  0.12249381243E+03  0.00000000000E+00 0. -1.
         -1    1    1    2    0  502  0.34635844328E+02  0.14876145175E+03 -0.10355539829E+03  0.18453544850E+03  0.00000000000E+00 0.  1.
<scales pt_clust_5="13000.00000" pt_clust_6="13000.00000" pt_clust_7="13000.00000" pt_clust_8="13000.00000" pt_clust_9="148.80468"></scales>
<clustering>
<clus scale="   89.458">  5  6 -1 -1</clus>
<clus scale="   90.728">  7  8 -1 -1</clus>
<clus scale="  115.877">  1  5  2 -1</clus>
<clus scale="  148.805">  2  9  1 -1</clus>
<clus scale="  148.805">  2  5  1 -1</clus>
</clustering>
</event>
<event>
 9    1  0.1315259E-005  0.2056553E+03  0.7546771E-02  0.1145341E+00
          2   -1    0    0  502    0 -0.00000000000E+00  0.00000000000E+00  0.44365399764E+03  0.44365399764E+03  0.00000000000E+00 0. -1.
         21   -1    0    0  501  502  0.00000000000E+00 -0.00000000000E+00 -0.15332627316E+03  0.15332627316E+03  0.00000000000E+00 0. -1.
         23    2    1    2    0    0 -0.17683147870E+03  0.10725412278E+03  0.28486526420E+03  0.36350307867E+03  0.90628090259E+02 0.  0.
         23    2    1    2    0    0  0.12561622278E+03 -0.64290564667E+02  0.11368169317E+02  0.16636722891E+03  0.87384823915E+02 0.  0.
        -11    1    4    4    0    0  0.81914239934E+02 -0.87259221212E+01 -0.26030477548E+02  0.86392535454E+02  0.00000000000E+00 0.  1.
         11    1    4    4    0    0  0.43701982845E+02 -0.55564642546E+02  0.37398646865E+02  0.79974693455E+02  0.00000000000E+00 0. -1.
        -11    1    3    3    0    0 -0.10170962825E+02  0.45711965095E+02  0.76327325406E+02  0.89548271012E+02  0.00000000000E+00 0.  1.
         11    1    3    3    0    0 -0.16666051587E+03  0.61542157689E+02  0.20853793880E+03  0.27395480766E+03  0.00000000000E+00 0. -1.
          2    1    1    2  501    0  0.51215255917E+02 -0.42963558116E+02 -0.59057090400E+01  0.67109963223E+02  0.00000000000E+00 0. -1.
<scales pt_clust_5="13000.00000" pt_clust_6="13000.00000" pt_clust_7="13000.00000" pt_clust_8="13000.00000" pt_clust_9="66.84961"></scales>
<clustering>
<clus scale="   66.850">  2  9  1 -1</clus>
<clus scale="   87.385">  5  6 -1 -1</clus>
<clus scale="   90.628">  7  8 -1 -1</clus>
<clus scale="  204.247">  2  5  1 -1</clus>
<clus scale="   66.850">  2  5  1 -1</clus>
</clustering>
</event>
<event>
 9    1  0.1315259E-005  0.9291190E+02  0.7546771E-02  0.1295975E+00
          4   -1    0    0  502    0 -0.00000000000E+00  0.00000000000E+00  0.16772077570E+03  0.16772077570E+03  0.00000000000E+00 0. -1.
         21   -1    0    0  501  502  0.00000000000E+00 -0.00000000000E+00 -0.29255323739E+03  0.29255323739E+03  0.00000000000E+00 0. -1.
         23    2    1    2    0    0 -0.17222746437E+02  0.14961171996E+02  0.80435489865E+02  0.12350845973E+03  0.90906611052E+02 0.  0.
         23    2    1    2    0    0 -0.13980284059E+02 -0.24100323587E+02  0.29691297332E+02  0.99567320151E+02  0.90861455884E+02 0.  0.
        -11    1    3    3    0    0  0.13284664970E+02 -0.23960827143E+02 -0.18999050182E+01  0.27462942301E+02  0.00000000000E+00 0.  1.
         11    1    3    3    0    0 -0.30507411407E+02  0.38921999139E+02  0.82335394883E+02  0.96045517430E+02  0.00000000000E+00 0. -1.
        -13    1    4    4    0    0  0.11590289896E+02 -0.18027569426E+02 -0.28533348291E+02  0.35685852154E+02  0.00000000000E+00 0.  1.
         13    1    4    4    0    0 -0.25570573955E+02 -0.60727541612E+01  0.58224645623E+02  0.63881467997E+02  0.00000000000E+00 0. -1.
          4    1    1    2  501    0  0.31203030496E+02  0.91391515907E+01 -0.23495924889E+03  0.23719823322E+03  0.00000000000E+00 0. -1.
<scales pt_clust_5="13000.00000" pt_clust_6="13000.00000" pt_clust_7="13000.00000" pt_clust_8="13000.00000" pt_clust_9="32.51389"></scales>
<clustering>
<clus scale="   32.514">  2  9  1 -1</clus>
<clus scale="   90.861">  7  8 -1 -1</clus>
<clus scale="   90.907">  5  6 -1 -1</clus>
<clus scale="   92.868">  2  7  1 -1</clus>
<clus scale="   32.514">  2  5  1 -1</clus>
</clustering>
</event>
<event>
 9    1  0.1315259E-005  0.2715671E+03  0.7546771E-02  0.1100528E+00
          2   -1    0    0  502    0 -0.00000000000E+00  0.00000000000E+00  0.60421634246E+03  0.60421634246E+03  0.00000000000E+00 0. -1.
         21   -1    0    0  501  502  0.00000000000E+00 -0.00000000000E+00 -0.96887601645E+03  0.96887601645E+03  0.00000000000E+00 0.  1.
         23    2    1    2    0    0 -0.72943832046E+02 -0.24418762207E+03  0.53856589028E+03  0.60296231065E+03  0.92530711022E+02 0.  0.
         23    2    1    2    0    0  0.50398179827E+02  0.26522422791E+03 -0.89367545869E+03  0.93784925311E+03  0.89562986119E+02 0.  0.
        -13    1    4    4    0    0  0.24155606160E+02  0.80613275762E+02 -0.15920535572E+03  0.18007870176E+03  0.00000000000E+00 0. -1.
         13    1    4    4    0    0  0.26242573667E+02  0.18461095215E+03 -0.73447010298E+03  0.75777055135E+03  0.00000000000E+00 0.  1.
        -13    1    3    3    0    0 -0.36805362683E+02 -0.65765281535E+02  0.81641470795E+02  0.11110822081E+03  0.00000000000E+00 0.  1.
         13    1    3    3    0    0 -0.36138469363E+02 -0.17842234054E+03  0.45692441948E+03  0.49185408984E+03  0.00000000000E+00 0. -1.
          2    1    1    2  501    0  0.22545652219E+02 -0.21036605842E+02 -0.95501055815E+01  0.32280795157E+02  0.00000000000E+00 0. -1.
<scales pt_clust_5="13000.00000" pt_clust_6="13000.00000" pt_clust_7="13000.00000" pt_clust_8="13000.00000" pt_clust_9="30.83578"></scales>
<clustering>
<clus scale="   30.836">  2  9  1 -1</clus>
<clus scale="   89.563">  5  6 -1 -1</clus>
<clus scale="   92.531">  7  8 -1 -1</clus>
<clus scale="  270.570">  2  5  1 -1</clus>
<clus scale="   30.836">  2  5  1 -1</clus>
</clustering>
</event>
<event>
 9    1  0.1315259E-005  0.1516580E+03  0.7546771E-02  0.1198652E+00
         -1   -1    0    0    0  501 -0.00000000000E+00  0.00000000000E+00  0.42293518304E+02  0.42293518304E+02  0.00000000000E+00 0.  1.
         21   -1    0    0  501  502  0.00000000000E+00 -0.00000000000E+00 -0.72597910180E+03  0.72597910180E+03  0.00000000000E+00 0.  1.
         23    2    1    2    0    0 -0.10657960690E+03 -0.27047105873E+01 -0.22774389594E+03  0.26753115253E+03  0.91318713148E+02 0.  0.
         23    2    1    2    0    0  0.13919720986E+03  0.17635128839E+02 -0.33780636975E+03  0.37727981877E+03  0.92412429920E+02 0.  0.
        -11    1    4    4    0    0  0.13441393035E+03 -0.11301142803E+02 -0.30363169993E+03  0.33224543594E+03  0.00000000000E+00 0.  1.
         11    1    4    4    0    0  0.47832795131E+01  0.28936271642E+02 -0.34174669821E+02  0.45034382830E+02  0.00000000000E+00 0. -1.
        -11    1    3    3    0    0 -0.13287092579E+01 -0.30794782775E+02 -0.61209639711E+02  0.68532504026E+02  0.00000000000E+00 0.  1.
         11    1    3    3    0    0 -0.10525089764E+03  0.28090072188E+02 -0.16653425623E+03  0.19899864850E+03  0.00000000000E+00 0. -1.
         -1    1    1    2    0  502 -0.32617602966E+02 -0.14930418252E+02 -0.11813531781E+03  0.12346164881E+03  0.00000000000E+00 0.  1.
<scales pt_clust_5="13000.00000" pt_clust_6="13000.00000" pt_clust_7="13000.00000" pt_clust_8="13000.00000" pt_clust_9="35.87235"></scales>
<clustering>
<clus scale="   35.872">  2  9  1 -1</clus>
<clus scale="   91.319">  7  8 -1 -1</clus>
<clus scale="   92.412">  5  6 -1 -1</clus>
<clus scale="  150.994">  1  7  2 -1</clus>
<clus scale="   35.872">  2  5  1 -1</clus>
</clustering>
</event>
<event>
 9    1  0.1315259E-005  0.1063853E+03  0.7546771E-02  0.1268410E+00
         21   -1    0    0  501  502  0.00000000000E+00  0.00000000000E+00  0.25843073894E+03  0.25843073894E+03  0.00000000000E+00 0.  1.
          3   -1    0    0  502    0 -0.00000000000E+00 -0.00000000000E+00 -0.19587941032E+03  0.19587941032E+03  0.00000000000E+00 0.  1.
         23    2    1    2    0    0  0.99174153480E+01 -0.42037763889E+02 -0.96273883314E+02  0.14035430585E+03  0.92548051531E+02 0.  0.
         23    2    1    2    0    0 -0.40742033135E+02  0.46629471210E+02 -0.34292117163E+02  0.11834003722E+03  0.94837725932E+02 0.  0.
        -11    1    4    4    0    0 -0.85692930274E+01  0.27883464161E+02 -0.64241675197E+02  0.70554327923E+02  0.00000000000E+00 0.  1.
         11    1    4    4    0    0 -0.32172740107E+02  0.18746007049E+02  0.29949558034E+02  0.47785709294E+02  0.00000000000E+00 0. -1.
        -13    1    3    3    0    0  0.28185673100E+02  0.12585882270E+02 -0.71069361384E+02  0.77483486810E+02  0.00000000000E+00 0. -1.
         13    1    3    3    0    0 -0.18268257752E+02 -0.54623646160E+02 -0.25204521930E+02  0.62870819040E+02  0.00000000000E+00 0.  1.
          3    1    1    2  501    0  0.30824617787E+02 -0.45917073211E+01  0.19311732909E+03  0.19561580620E+03  0.00000000000E+00 0.  1.
<scales pt_clust_5="13000.00000" pt_clust_6="13000.00000" pt_clust_7="13000.00000" pt_clust_8="13000.00000" pt_clust_9="31.16474"></scales>
<clustering>
<clus scale="   31.165">  1  9  2 -1</clus>
<clus scale="   92.548">  7  8 -1 -1</clus>
<clus scale="   94.838">  5  6 -1 -1</clus>
<clus scale="  104.349">  2  7  1 -1</clus>
<clus scale="   31.165">  1  5  2 -1</clus>
</clustering>
</event>
<event>
 9    1  0.1315259E-005  0.1192958E+03  0.7546771E-02  0.1248813E+00
         21   -1    0    0  501  502  0.00000000000E+00  0.00000000000E+00  0.28978842193E+03  0.28978842193E+03  0.00000000000E+00 0. -1.
          3   -1    0    0  502    0 -0.00000000000E+00 -0.00000000000E+00 -0.11595923635E+03  0.11595923635E+03  0.00000000000E+00 0. -1.
         23    2    1    2    0    0 -0.12166497393E+02  0.41031665640E+02  0.25257671155E+02  0.10638016923E+03  0.94059391922E+02 0.  0.
         23    2    1    2    0    0 -0.18532862539E+02 -0.13595303251E+03  0.77828167960E+02  0.17706811187E+03  0.80431327661E+02 0.  0.
        -13    1    3    3    0    0  0.83294222055E+00  0.69959892596E+02  0.26045677030E+02  0.74655593607E+02  0.00000000000E+00 0. -1.
         13    1    3    3    0    0 -0.12999439614E+02 -0.28928226956E+02 -0.78800587466E+00  0.31724575621E+02  0.00000000000E+00 0.  1.
        -13    1    4    4    0    0  0.24467241418E+02 -0.64090175382E+02  0.10054920457E+02  0.69334680417E+02  0.00000000000E+00 0. -1.
         13    1    4    4    0    0 -0.43000103957E+02 -0.71862857132E+02  0.67773247503E+02  0.10773343145E+03  0.00000000000E+00 0.  1.
          3    1    1    2  501    0  0.30699359932E+02  0.94921366874E+02  0.70743346466E+02  0.12229937718E+03  0.00000000000E+00 0. -1.
<scales pt_clust_5="13000.00000" pt_clust_6="13000.00000" pt_clust_7="13000.00000" pt_clust_8="13000.00000" pt_clust_9="99.76230"></scales>
<clustering>
<clus scale="   80.431">  7  8 -1 -1</clus>
<clus scale="   94.059">  5  6 -1 -1</clus>
<clus scale="   99.762">  1  9  2 -1</clus>
<clus scale="  108.874">  1  7  2 -1</clus>
<clus scale="   99.762">  1  5  2 -1</clus>
</clustering>
</event>
<event>
 9    1  0.1315259E-005  0.1506757E+03  0.7546771E-02  0.1214466E+00
          1   -1    0    0  502    0 -0.00000000000E+00  0.00000000000E+00  0.38723812384E+03  0.38723812384E+03  0.00000000000E+00 0. -1.
         21   -1    0    0  501  502  0.00000000000E+00 -0.00000000000E+00 -0.15156551261E+03  0.15156551261E+03  0.00000000000E+00 0.  1.
         23    2    1    2    0    0 -0.12964621437E+02  0.53400784479E+02  0.14849281723E+02  0.11062599978E+03  0.94857184585E+02 0.  0.
         23    2    1    2    0    0  0.13160870774E+03 -0.36854191160E+02  0.25552905095E+03  0.30345916945E+03  0.90073793558E+02 0.  0.
        -11    1    4    4    0    0  0.29682410201E+02  0.70520263444E+01  0.13990076979E+03  0.14318869348E+03  0.00000000000E+00 0. -1.
         11    1    4    4    0    0  0.10192629754E+03 -0.43906217505E+02  0.11562828116E+03  0.16027047598E+03  0.00000000000E+00 0.  1.
        -13    1    3    3    0    0  0.40715857273E+02  0.14103563129E+02  0.65039496576E+01  0.43577435532E+02  0.00000000000E+00 0.  1.
         13    1    3    3    0    0 -0.53680478709E+02  0.39297221349E+02  0.83453320655E+01  0.67048564247E+02  0.00000000000E+00 0. -1.
          1    1    1    2  501    0 -0.11864408631E+03 -0.16546593318E+02 -0.34705721444E+02  0.12471846723E+03  0.00000000000E+00 0. -1.
<scales pt_clust_5="13000.00000" pt_clust_6="13000.00000" pt_clust_7="13000.00000" pt_clust_8="13000.00000" pt_clust_9="120.78853"></scales>
<clustering>
<clus scale="   90.074">  5  6 -1 -1</clus>
<clus scale="   94.857">  7  8 -1 -1</clus>
<clus scale="  109.625">  1  7  2 -1</clus>
<clus scale="  120.789">  2  9  1 -1</clus>
<clus scale="  120.789">  2  5  1 -1</clus>
</clustering>
</event>
<event>
 9    1  0.1315259E-005  0.9881261E+02  0.7546771E-02  0.1284249E+00
         21   -1    0    0  501  502  0.00000000000E+00  0.00000000000E+00  0.61822770942E+02  0.61822770942E+02  0.00000000000E+00 0. -1.
          1   -1    0    0  502    0 -0.00000000000E+00 -0.00000000000E+00 -0.28503683319E+03  0.28503683319E+03  0.00000000000E+00 0. -1.
         23    2    1    2    0    0  0.34554627896E+02  0.20624451599E+02 -0.14325305933E+03  0.17654637081E+03  0.95014692166E+02 0.  0.
         23    2    1    2    0    0 -0.16979757117E+02  0.15646060958E+02 -0.87592023616E+02  0.12929301097E+03  0.92256212313E+02 0.  0.
        -11    1    4    4    0    0  0.85889962201E+01  0.50198358174E+02 -0.37250259683E+02  0.63096971923E+02  0.00000000000E+00 0. -1.
         11    1    4    4    0    0 -0.25568753337E+02 -0.34552297216E+02 -0.50341763933E+02  0.66196039051E+02  0.00000000000E+00 0.  1.
        -13    1    3    3    0    0  0.21196626143E+02  0.56528403176E+02 -0.11147491493E+03  0.12677308067E+03  0.00000000000E+00 0. -1.
         13    1    3    3    0    0  0.13358001753E+02 -0.35903951577E+02 -0.31778144401E+02  0.49773290139E+02  0.00000000000E+00 0.  1.
          1    1    1    2  501    0 -0.17574870779E+02 -0.36270512557E+02  0.76310206991E+01  0.41020222342E+02  0.00000000000E+00 0. -1.
<scales pt_clust_5="13000.00000" pt_clust_6="13000.00000" pt_clust_7="13000.00000" pt_clust_8="13000.00000" pt_clust_9="40.30417"></scales>
<clustering>
<clus scale="   40.304">  1  9  2 -1</clus>
<clus scale="   92.256">  5  6 -1 -1</clus>
<clus scale="   95.015">  7  8 -1 -1</clus>
<clus scale="   96.163">  1  5  2 -1</clus>
<clus scale="   40.304">  1  5  2 -1</clus>
</clustering>
</event>
<event>
 9    1  0.1315259E-005  0.1196724E+03  0.7546771E-02  0.1244119E+00
         21   -1    0    0  501  502  0.00000000000E+00  0.00000000000E+00  0.20555922733E+02  0.20555922733E+02  0.00000000000E+00 0. -1.
          1   -1    0    0  502    0 -0.00000000000E+00 -0.00000000000E+00 -0.11945817447E+04  0.11945817447E+04  0.00000000000E+00 0. -1.
         23    2    1    2    0    0  0.68594421371E+02 -0.81231081131E+02 -0.63886818891E+03  0.65406796502E+03  0.91370984908E+02 0.  0.
         23    2    1    2    0    0 -0.25435145007E+02  0.31464806223E+02 -0.28844549502E+03  0.30571449038E+03  0.92863154160E+02 0.  0.
        -11    1    4    4    0    0  0.21226434220E+02 -0.21430393604E+02 -0.71894790112E+02  0.77965916431E+02  0.00000000000E+00 0.  1.
         11    1    4    4    0    0 -0.46661579227E+02  0.52895199827E+02 -0.21655070491E+03  0.22774857395E+03  0.00000000000E+00 0. -1.
        -13    1    3    3    0    0  0.85295302954E+02 -0.37599953299E+02 -0.40664577321E+03  0.41719279723E+03  0.00000000000E+00 0. -1.
         13    1    3    3    0    0 -0.16700881584E+02 -0.43631127832E+02 -0.23222241570E+03  0.23687516779E+03  0.00000000000E+00 0.  1.
          1    1    1    2  501    0 -0.43159276364E+02  0.49766274908E+02 -0.24671213800E+03  0.25535521199E+03  0.00000000000E+00 0. -1.
<scales pt_clust_5="13000.00000" pt_clust_6="13000.00000" pt_clust_7="13000.00000" pt_clust_8="13000.00000" pt_clust_9="65.87416"></scales>
<clustering>
<clus scale="   65.874">  1  9  2 -1</clus>
<clus scale="   91.371">  7  8 -1 -1</clus>
<clus scale="   92.863">  5  6 -1 -1</clus>
<clus scale="  118.518">  2  7  1 -1</clus>
<clus scale="   65.874">  1  5  2 -1</clus>
</clustering>
</event>
<event>
 9    1  0.1315259E-005  0.1117690E+03  0.7546771E-02  0.1257342E+00
         -2   -1    0    0    0  501 -0.00000000000E+00  0.00000000000E+00  0.15605666245E+03  0.15605666245E+03  0.00000000000E+00 0.  1.
         21   -1    0    0  501  502  0.00000000000E+00 -0.00000000000E+00 -0.33670266935E+03  0.33670266935E+03  0.00000000000E+00 0.  1.
         23    2    1    2    0    0  0.58300136406E+02 -0.28300599508E+02  0.10795358354E+03  0.15686071215E+03  0.93549329113E+02 0.  0.
         23    2    1    2    0    0 -0.51427477232E+02 -0.24669790235E+02 -0.13850781256E+03  0.17658560254E+03  0.93512977279E+02 0.  0.
        -13    1    4    4    0    0 -0.14286758584E+02  0.23905816352E+02 -0.31127489147E+01  0.28023003624E+02  0.00000000000E+00 0. -1.
         13    1    4    4    0    0 -0.37140718648E+02 -0.48575606588E+02 -0.13539506365E+03  0.14856259892E+03  0.00000000000E+00 0.  1.
        -13    1    3    3    0    0 -0.12321688332E+01 -0.46486468277E+02  0.23951727859E+02  0.52308653589E+02  0.00000000000E+00 0.  1.
         13    1    3    3    0    0  0.59532305239E+02  0.18185868769E+02  0.84001855685E+02  0.10455205856E+03  0.00000000000E+00 0. -1.
         -2    1    1    2    0  502 -0.68726591738E+01  0.52970389744E+02 -0.15009177788E+03  0.15931301711E+03  0.00000000000E+00 0.  1.
<scales pt_clust_5="13000.00000" pt_clust_6="13000.00000" pt_clust_7="13000.00000" pt_clust_8="13000.00000" pt_clust_9="53.41438"></scales>
<clustering>
<clus scale="   53.414">  2  9  1 -1</clus>
<clus scale="   93.513">  5  6 -1 -1</clus>
<clus scale="   93.549">  7  8 -1 -1</clus>
<clus scale="  111.739">  2  5  1 -1</clus>
<clus scale="   53.414">  2  5  1 -1</clus>
</clustering>
</event>
<event>
 9    1  0.1315259E-005  0.1005614E+03  0.7546771E-02  0.1280201E+00
         21   -1    0    0  501  502  0.00000000000E+00  0.00000000000E+00  0.62305751326E+02  0.62305751326E+02  0.00000000000E+00 0. -1.
          1   -1    0    0  502    0 -0.00000000000E+00 -0.00000000000E+00 -0.27342979721E+03  0.27342979721E+03  0.00000000000E+00 0. -1.
         23    2    1    2    0    0 -0.55818180327E+01 -0.50980636701E+02 -0.14665045205E+03  0.18056101969E+03  0.92009481757E+02 0.  0.
         23    2    1    2    0    0 -0.69594920144E+00  0.27333772561E+02 -0.82371029632E+02  0.12486112004E+03  0.89764655108E+02 0.  0.
        -11    1    4    4    0    0  0.73690408527E+01  0.57520044283E+02 -0.33839511210E+02  0.67141423698E+02  0.00000000000E+00 0.  1.
         11    1    4    4    0    0 -0.80649900542E+01 -0.30186271722E+02 -0.48531518422E+02  0.57719696338E+02  0.00000000000E+00 0. -1.
        -11    1    3    3    0    0 -0.46908921094E+02 -0.25104598528E+02 -0.98964370294E+02  0.11235939806E+03  0.00000000000E+00 0.  1.
         11    1    3    3    0    0  0.41327103062E+02 -0.25876038173E+02 -0.47686081759E+02  0.68201621627E+02  0.00000000000E+00 0. -1.
          1    1    1    2  501    0  0.62777672342E+01  0.23646864141E+02  0.17897435803E+02  0.30313408806E+02  0.00000000000E+00 0. -1.
<scales pt_clust_5="13000.00000" pt_clust_6="13000.00000" pt_clust_7="13000.00000" pt_clust_8="13000.00000" pt_clust_9="24.46599"></scales>
<clustering>
<clus scale="   24.466">  1  9  2 -1</clus>
<clus scale="   89.765">  5  6 -1 -1</clus>
<clus scale="   92.009">  7  8 -1 -1</clus>
<clus scale="   98.512">  1  5  2 -1</clus>
<clus scale="   24.466">  1  5  2 -1</clus>
</clustering>
</event>
<event>
 9    1  0.1315259E-005  0.1033042E+03  0.7546771E-02  0.1274917E+00
          2   -1    0    0  502    0 -0.00000000000E+00  0.00000000000E+00  0.43241824499E+03  0.43241824499E+03  0.00000000000E+00 0.  1.
         21   -1    0    0  501  502  0.00000000000E+00 -0.00000000000E+00 -0.57553612615E+02  0.57553612615E+02  0.00000000000E+00 0. -1.
         23    2    1    2    0    0  0.35258066144E+02 -0.18124557882E+02  0.27450415560E+03  0.29340933674E+03  0.95733362106E+02 0.  0.
         23    2    1    2    0    0 -0.17497548953E+02  0.39991391082E+02  0.12322820996E+03  0.16027853560E+03  0.92728321805E+02 0.  0.
        -11    1    4    4    0    0 -0.24036522030E+02  0.58994012201E+02  0.12480291905E+03  0.14012072106E+03  0.00000000000E+00 0.  1.
         11    1    4    4    0    0  0.65389730775E+01 -0.19002621119E+02 -0.15747090923E+01  0.20157814540E+02  0.00000000000E+00 0. -1.
        -11    1    3    3    0    0 -0.49439043492E+01 -0.50333331681E+02  0.16113231507E+03  0.16888312358E+03  0.00000000000E+00 0.  1.
         11    1    3    3    0    0  0.40201970493E+02  0.32208773799E+02  0.11337184052E+03  0.12452621316E+03  0.00000000000E+00 0. -1.
          2    1    1    2  501    0 -0.17760517191E+02 -0.21866833200E+02 -0.22867733187E+02  0.36283985258E+02  0.00000000000E+00 0.  1.
<scales pt_clust_5="13000.00000" pt_clust_6="13000.00000" pt_clust_7="13000.00000" pt_clust_8="13000.00000" pt_clust_9="28.17081"></scales>
<clustering>
<clus scale="   28.171">  2  9  1 -1</clus>
<clus scale="   92.728">  5  6 -1 -1</clus>
<clus scale="   95.733">  7  8 -1 -1</clus>
<clus scale="  100.526">  2  5  1 -1</clus>
<clus scale="   28.171">  2  5  1 -1</clus>
</clustering>
</event>
<event>
 9    1  0.1315259E-005  0.1304924E+03  0.7546771E-02  0.1232734E+00
         21   -1    0    0  501  502  0.00000000000E+00  0.00000000000E+00  0.15353015734E+03  0.15353015734E+03  0.00000000000E+00 0. -1.
          2   -1    0    0  502    0 -0.00000000000E+00 -0.00000000000E+00 -0.24923598518E+03  0.24923598518E+03  0.00000000000E+00 0. -1.
         23    2    1    2    0    0 -0.64315262594E+02 -0.25319420361E+02 -0.17822286082E+03  0.22076528883E+03  0.11043730612E+03 0.  0.
         23    2    1    2    0    0  0.49824425787E+02  0.62142569241E+02  0.53297376160E+02  0.13281023477E+03  0.91944417108E+02 0.  0.
        -13    1    3    3    0    0 -0.90181115163E+02 -0.25139345391E+01 -0.15449442052E+03  0.17890634245E+03  0.00000000000E+00 0. -1.
         13    1    3    3    0    0  0.25865852569E+02 -0.22805485822E+02 -0.23728440307E+02  0.41858946381E+02  0.00000000000E+00 0.  1.
        -13    1    4    4    0    0 -0.82274335428E+01  0.39856726015E+02 -0.12209962518E+02  0.42489203994E+02  0.00000000000E+00 0. -1.
         13    1    4    4    0    0  0.58051859329E+02  0.22285843226E+02  0.65507338678E+02  0.90321030776E+02  0.00000000000E+00 0.  1.
          2    1    1    2  501    0  0.14490836807E+02 -0.36823148880E+02  0.29219656828E+02  0.49190618922E+02  0.00000000000E+00 0. -1.
<scales pt_clust_5="13000.00000" pt_clust_6="13000.00000" pt_clust_7="13000.00000" pt_clust_8="13000.00000" pt_clust_9="39.57182"></scales>
<clustering>
<clus scale="   39.572">  1  9  2 -1</clus>
<clus scale="   91.944">  7  8 -1 -1</clus>
<clus scale="  110.437">  5  6 -1 -1</clus>
<clus scale="  115.263">  1  7  2 -1</clus>
<clus scale="   39.572">  1  5  2 -1</clus>
</clustering>
</event>
<event>
 9    1  0.1315259E-005  0.2323515E+03  0.7546771E-02  0.1125036E+00
          4   -1    0    0  502    0 -0.00000000000E+00  0.00000000000E+00  0.78270994697E+02  0.78270994697E+02  0.00000000000E+00 0. -1.
         21   -1    0    0  501  502  0.00000000000E+00 -0.00000000000E+00 -0.11766570271E+04  0.11766570271E+04  0.00000000000E+00 0.  1.
         23    2    1    2    0    0 -0.86052870174E+02 -0.19672714762E+03 -0.16041062860E+03  0.28324209276E+03  0.91585185835E+02 0.  0.
         23    2    1    2    0    0  0.10477467208E+03  0.18180166163E+03 -0.87217069194E+03  0.90166067573E+03  0.90998253806E+02 0.  0.
        -11    1    4    4    0    0  0.43946292367E+02  0.97299478981E+02 -0.26622589805E+03  0.28683565681E+03  0.00000000000E+00 0. -1.
         11    1    4    4    0    0  0.60828379710E+02  0.84502182648E+02 -0.60594479389E+03  0.61482501892E+03  0.00000000000E+00 0.  1.
        -13    1    3    3    0    0  0.18135372192E+02 -0.13327382453E+02 -0.16102743628E+02  0.27673257848E+02  0.00000000000E+00 0.  1.
         13    1    3    3    0    0 -0.10418824237E+03 -0.18339976517E+03 -0.14430788497E+03  0.25556883491E+03  0.00000000000E+00 0. -1.
          4    1    1    2  501    0 -0.18721801904E+02  0.14925485994E+02 -0.65804711894E+02  0.70025253346E+02  0.00000000000E+00 0. -1.
<scales pt_clust_5="13000.00000" pt_clust_6="13000.00000" pt_clust_7="13000.00000" pt_clust_8="13000.00000" pt_clust_9="23.94318"></scales>
<clustering>
<clus scale="   23.943">  2  9  1 -1</clus>
<clus scale="   90.998">  5  6 -1 -1</clus>
<clus scale="   91.585">  7  8 -1 -1</clus>
<clus scale="  232.121">  2  5  1 -1</clus>
<clus scale="   23.943">  2  5  1 -1</clus>
</clustering>
</event>
<event>
 9    1  0.1315259E-005  0.1376163E+03  0.7546771E-02  0.1216863E+00
         21   -1    0    0  501  502  0.00000000000E+00  0.00000000000E+00  0.15307369590E+03  0.15307369590E+03  0.00000000000E+00 0.  1.
          1   -1    0    0  502    0 -0.00000000000E+00 -0.00000000000E+00 -0.22559608389E+03  0.22559608389E+03  0.00000000000E+00 0. -1.
         23    2    1    2    0    0 -0.10471104698E+03 -0.57225203555E+02 -0.92910679394E+02  0.17643652482E+03  0.90875330332E+02 0.  0.
         23    2    1    2    0    0  0.83000621225E+02  0.18199846929E+02 -0.35903025183E+02  0.13037900409E+03  0.92137505601E+02 0.  0.
        -11    1    3    3    0    0 -0.72495039661E+02 -0.45141790092E+01 -0.88517103134E+02  0.11450408785E+03  0.00000000000E+00 0. -1.
         11    1    3    3    0    0 -0.32216007320E+02 -0.52711024546E+02 -0.43935762603E+01  0.61932436967E+02  0.00000000000E+00 0.  1.
        -11    1    4    4    0    0  0.64133765573E+02 -0.97546586897E+00  0.20955800068E+02  0.67477677618E+02  0.00000000000E+00 0.  1.
         11    1    4    4    0    0  0.18866855652E+02  0.19175312797E+02 -0.56858825251E+02  0.62901326472E+02  0.00000000000E+00 0. -1.
          1    1    1    2  501    0  0.21710425756E+02  0.39025356626E+02  0.56291316583E+02  0.71854250876E+02  0.00000000000E+00 0. -1.
<scales pt_clust_5="13000.00000" pt_clust_6="13000.00000" pt_clust_7="13000.00000" pt_clust_8="13000.00000" pt_clust_9="44.65782"></scales>
<clustering>
<clus scale="   44.658">  1  9  2 -1</clus>
<clus scale="   90.875">  5  6 -1 -1</clus>
<clus scale="   92.138">  7  8 -1 -1</clus>
<clus scale="  136.774">  2  5  1 -1</clus>
<clus scale="   44.658">  1  5  2 -1</clus>
</clustering>
</event>
<event>
 9    1  0.1315259E-005  0.1928285E+03  0.7546771E-02  0.1156010E+00
          2   -1    0    0  502    0 -0.00000000000E+00  0.00000000000E+00  0.37404261398E+03  0.37404261398E+03  0.00000000000E+00 0. -1.
         21   -1    0    0  501  502  0.00000000000E+00 -0.00000000000E+00 -0.13562001452E+03  0.13562001452E+03  0.00000000000E+00 0.  1.
         23    2    1    2    0    0 -0.89433875233E+02 -0.15550654216E+03  0.20195935015E+03  0.28508566214E+03  0.91134806454E+02 0.  0.
         23    2    1    2    0    0  0.74932881911E+02  0.13604849984E+03  0.61267958070E+02  0.18987584541E+03  0.90415390751E+02 0.  0.
        -11    1    4    4    0    0  0.18259930358E+02  0.81833359724E+01  0.44777746456E+02  0.49045271148E+02  0.00000000000E+00 0.  1.
         11    1    4    4    0    0  0.56672951553E+02  0.12786516387E+03  0.16490211614E+02  0.14083057426E+03  0.00000000000E+00 0. -1.
        -13    1    3    3    0    0 -0.12857095147E+02 -0.47170689736E+02  0.71781907351E+01  0.49415638092E+02  0.00000000000E+00 0. -1.
         13    1    3    3    0    0 -0.76576780086E+02 -0.10833585243E+03  0.19478115942E+03  0.23567002405E+03  0.00000000000E+00 0.  1.
          2    1    1    2  501    0  0.14500993322E+02  0.19458042326E+02 -0.24804708760E+02  0.34701120950E+02  0.00000000000E+00 0. -1.
<scales pt_clust_5="13000.00000" pt_clust_6="13000.00000" pt_clust_7="13000.00000" pt_clust_8="13000.00000" pt_clust_9="24.26714"></scales>
<clustering>
<clus scale="   24.267">  2  9  1 -1</clus>
<clus scale="   90.415">  5  6 -1 -1</clus>
<clus scale="   91.135">  7  8 -1 -1</clus>
<clus scale="  192.490">  2  5  1 -1</clus>
<clus scale="   24.267">  2  5  1 -1</clus>
</clustering>
</event>
<event>
 9    1  0.1315259E-005  0.2274251E+03  0.7546771E-02  0.1154747E+00
          2   -1    0    0  502    0 -0.00000000000E+00  0.00000000000E+00  0.32350818111E+03  0.32350818111E+03  0.00000000000E+00 0. -1.
         21   -1    0    0  501  502  0.00000000000E+00 -0.00000000000E+00 -0.69981749516E+03  0.69981749516E+03  0.00000000000E+00 0. -1.
         23    2    1    2    0    0  0.32500743963E+02 -0.70745453954E+01  0.22766044445E+03  0.25775121321E+03  0.11618976888E+03 0.  0.
         23    2    1    2    0    0  0.18936942962E+03  0.58552724816E+02 -0.41732550251E+03  0.47110467654E+03  0.92140320971E+02 0.  0.
        -11    1    3    3    0    0  0.74783385602E+02 -0.14603442786E+02  0.12391201693E+03  0.14546478351E+03  0.00000000000E+00 0. -1.
         11    1    3    3    0    0 -0.42282641640E+02  0.75288973904E+01  0.10374842753E+03  0.11228642970E+03  0.00000000000E+00 0.  1.
        -13    1    4    4    0    0  0.14159004266E+02 -0.17401249458E+02 -0.84075836276E+02  0.87017395560E+02  0.00000000000E+00 0.  1.
         13    1    4    4    0    0  0.17521042536E+03  0.75953974274E+02 -0.33324966624E+03  0.38408728098E+03  0.00000000000E+00 0. -1.
          2    1    1    2  501    0 -0.22187017358E+03 -0.51478179421E+02 -0.18664425599E+03  0.29446978653E+03  0.00000000000E+00 0. -1.
<scales pt_clust_5="13000.00000" pt_clust_6="13000.00000" pt_clust_7="13000.00000" pt_clust_8="13000.00000" pt_clust_9="207.92398"></scales>
<clustering>
<clus scale="   92.140">  7  8 -1 -1</clus>
<clus scale="  116.190">  5  6 -1 -1</clus>
<clus scale="  120.857">  1  5  2 -1</clus>
<clus scale="  207.924">  2  9  1 -1</clus>
<clus scale="  207.924">  2  5  1 -1</clus>
</clustering>
</event>
<event>
 9    1  0.1315259E-005  0.1224835E+03  0.7546771E-02  0.1239646E+00
          2   -1    0    0  502    0 -0.00000000000E+00  0.00000000000E+00  0.13626714462E+03  0.13626714462E+03  0.00000000000E+00 0. -1.
         21   -1    0    0  501  502  0.00000000000E+00 -0.00000000000E+00 -0.28371070554E+03  0.28371070554E+03  0.00000000000E+00 0. -1.
         23    2    1    2    0    0 -0.13106305622E+01  0.88700515123E+02  0.67577699019E+02  0.14414253014E+03  0.91328114261E+02 0.  0.
         23    2    1    2    0    0 -0.92219976059E+01 -0.62469292689E+02 -0.74196044696E+02  0.13220122055E+03  0.89356879401E+02 0.  0.
        -13    1    3    3    0    0 -0.22998468648E+02 -0.36292098761E+01 -0.60718301927E+01  0.24061750692E+02  0.00000000000E+00 0.  1.
         13    1    3    3    0    0  0.21687838086E+02  0.92329725000E+02  0.73649529211E+02  0.12008077945E+03  0.00000000000E+00 0. -1.
        -13    1    4    4    0    0  0.35523747001E+02 -0.46839818691E+01 -0.18581107480E+02  0.40362530177E+02  0.00000000000E+00 0.  1.
         13    1    4    4    0    0 -0.44745744607E+02 -0.57785310820E+02 -0.55614937216E+02  0.91838690368E+02  0.00000000000E+00 0. -1.
          2    1    1    2  501    0  0.10532628168E+02 -0.26231222435E+02 -0.14082521524E+03  0.14363409948E+03  0.00000000000E+00 0. -1.
<scales pt_clust_5="13000.00000" pt_clust_6="13000.00000" pt_clust_7="13000.00000" pt_clust_8="13000.00000" pt_clust_9="28.26682"></scales>
<clustering>
<clus scale="   28.267">  2  9  1 -1</clus>
<clus scale="   89.357">  7  8 -1 -1</clus>
<clus scale="   91.328">  5  6 -1 -1</clus>
<clus scale="  121.021">  2  7  1 -1</clus>
<clus scale="   28.267">  2  5  1 -1</clus>
</clustering>
</event>
<event>
 9    1  0.1315259E-005  0.9094263E+02  0.7546771E-02  0.1301788E+00
          1   -1    0    0  502    0 -0.00000000000E+00  0.00000000000E+00  0.55982301085E+03  0.55982301085E+03  0.00000000000E+00 0. -1.
         21   -1    0    0  501  502  0.00000000000E+00 -0.00000000000E+00 -0.21201593055E+02  0.21201593055E+02  0.00000000000E+00 0. -1.
         23    2    1    2    0    0 -0.11200886123E+02  0.22206037308E+00  0.27872547000E+03  0.29335665900E+03  0.90800509849E+02 0.  0.
         23    2    1    2    0    0 -0.12247548032E+02 -0.11555936627E+02  0.15354377804E+03  0.17817333396E+03  0.88805985474E+02 0.  0.
        -13    1    3    3    0    0  0.31159186960E+02  0.21913299728E+02  0.74674857916E+02  0.83829720516E+02  0.00000000000E+00 0. -1.
         13    1    3    3    0    0 -0.42360073082E+02 -0.21691239355E+02  0.20405061209E+03  0.20952693848E+03  0.00000000000E+00 0.  1.
        -13    1    4    4    0    0 -0.10920276306E+02 -0.50341370064E+02  0.84134059155E+02  0.98651132201E+02  0.00000000000E+00 0. -1.
         13    1    4    4    0    0 -0.13272717261E+01  0.38785433437E+02  0.69409718886E+02  0.79522201762E+02  0.00000000000E+00 0.  1.
          1    1    1    2  501    0  0.23448434155E+02  0.11333876254E+02  0.10635216975E+03  0.10949461094E+03  0.00000000000E+00 0. -1.
<scales pt_clust_5="13000.00000" pt_clust_6="13000.00000" pt_clust_7="13000.00000" pt_clust_8="13000.00000" pt_clust_9="26.04393"></scales>
<clustering>
<clus scale="   26.044">  2  9  1 -1</clus>
<clus scale="   88.806">  7  8 -1 -1</clus>
<clus scale="   88.951">  2  7  1 -1</clus>
<clus scale="   90.801">  5  6 -1 -1</clus>
<clus scale="   26.044">  2  5  1 -1</clus>
</clustering>
</event>
<event>
 9    1  0.1315259E-005  0.1233964E+03  0.7546771E-02  0.1239960E+00
          2   -1    0    0  502    0 -0.00000000000E+00  0.00000000000E+00  0.61480524127E+03  0.61480524127E+03  0.00000000000E+00 0. -1.
         21   -1    0    0  501  502  0.00000000000E+00 -0.00000000000E+00 -0.43691669043E+02  0.43691669043E+02  0.00000000000E+00 0.  1.
         23    2    1    2    0    0 -0.85737806418E+02 -0.41107544935E+02  0.39455027222E+03  0.41600307547E+03  0.91366513514E+02 0.  0.
         23    2    1    2    0    0  0.27629558057E+02  0.20413431754E+02  0.11271414382E+03  0.15371585563E+03  0.98711627375E+02 0.  0.
        -11    1    3    3    0    0 -0.37954461804E+02  0.26333142270E+02  0.10145886272E+03  0.11148038562E+03  0.00000000000E+00 0.  1.
         11    1    3    3    0    0 -0.47783344614E+02 -0.67440687205E+02  0.29309140950E+03  0.30452268986E+03  0.00000000000E+00 0. -1.
        -13    1    4    4    0    0  0.23386114168E+02 -0.15746507370E+02  0.11385116648E+03  0.11729002916E+03  0.00000000000E+00 0. -1.
         13    1    4    4    0    0  0.42434438884E+01  0.36159939124E+02 -0.11370226598E+01  0.36425826470E+02  0.00000000000E+00 0.  1.
          2    1    1    2  501    0  0.58108248361E+02  0.20694113181E+02  0.63849156177E+02  0.88777979210E+02  0.00000000000E+00 0. -1.
<scales pt_clust_5="13000.00000" pt_clust_6="13000.00000" pt_clust_7="13000.00000" pt_clust_8="13000.00000" pt_clust_9="61.68318"></scales>
<clustering>
<clus scale="   61.683">  2  9  1 -1</clus>
<clus scale="   91.367">  5  6 -1 -1</clus>
<clus scale="   98.712">  7  8 -1 -1</clus>
<clus scale="  117.603">  1  5  2 -1</clus>
<clus scale="   61.683">  2  5  1 -1</clus>
</clustering>
</event>
<event>
 9    1  0.1315259E-005  0.1021291E+03  0.7546771E-02  0.1276659E+00
         -4   -1    0    0    0  501 -0.00000000000E+00  0.00000000000E+00  0.33861888848E+03  0.33861888848E+03  0.00000000000E+00 0.  1.
         21   -1    0    0  501  502  0.00000000000E+00 -0.00000000000E+00 -0.54263838614E+02  0.54263838614E+02  0.00000000000E+00 0. -1.
         23    2    1    2    0    0  0.27362210080E+02  0.19730117344E+02  0.20435279963E+03  0.22763996643E+03  0.94455913139E+02 0.  0.
         23    2    1    2    0    0 -0.21471430666E+02 -0.52486363963E+02  0.73643491461E+02  0.13135903614E+03  0.92822366942E+02 0.  0.
        -11    1    4    4    0    0 -0.31898888849E+02  0.15606049876E+02  0.43531463804E+02  0.56178966201E+02  0.00000000000E+00 0. -1.
         11    1    4    4    0    0  0.10427458183E+02 -0.68092413840E+02  0.30112027657E+02  0.75180069941E+02  0.00000000000E+00 0.  1.
        -11    1    3    3    0    0 -0.21042732027E+02  0.36807641107E+02  0.53313109734E+02  0.68116713694E+02  0.00000000000E+00 0. -1.
         11    1    3    3    0    0  0.48404942107E+02 -0.17077523763E+02  0.15103968990E+03  0.15952325273E+03  0.00000000000E+00 0.  1.
         -4    1    1    2    0  502 -0.58907794146E+01  0.32756246619E+02  0.63587587754E+01  0.33883724527E+02  0.00000000000E+00 0.  1.
<scales pt_clust_5="13000.00000" pt_clust_6="13000.00000" pt_clust_7="13000.00000" pt_clust_8="13000.00000" pt_clust_9="33.28172"></scales>
<clustering>
<clus scale="   33.282">  2  9  1 -1</clus>
<clus scale="   92.822">  5  6 -1 -1</clus>
<clus scale="   94.456">  7  8 -1 -1</clus>
<clus scale="  100.620">  2  5  1 -1</clus>
<clus scale="   33.282">  2  5  1 -1</clus>
</clustering>
</event>
<event>
 9    1  0.1315259E-005  0.1310514E+03  0.7546771E-02  0.1225950E+00
         21   -1    0    0  501  502  0.00000000000E+00  0.00000000000E+00  0.97346272432E+02  0.97346272432E+02  0.00000000000E+00 0. -1.
          1   -1    0    0  502    0 -0.00000000000E+00 -0.00000000000E+00 -0.30775474796E+03  0.30775474796E+03  0.00000000000E+00 0. -1.
         23    2    1    2    0    0  0.99299549488E+02 -0.16320392667E+02 -0.13664386377E+03  0.19312408367E+03  0.92187908331E+02 0.  0.
         23    2    1    2    0    0 -0.86335207755E+02 -0.22026619093E+02 -0.10106496134E+03  0.16315197841E+03  0.92008160521E+02 0.  0.
        -11    1    4    4    0    0 -0.13212998516E+02  0.28776069878E+02 -0.53595379359E+02  0.62250383260E+02  0.00000000000E+00 0.  1.
         11    1    4    4    0    0 -0.73122209240E+02 -0.50802688971E+02 -0.47469581976E+02  0.10090159515E+03  0.00000000000E+00 0. -1.
        -11    1    3    3    0    0  0.57552966138E+02  0.31835882629E+02 -0.38826945932E+02  0.76376691893E+02  0.00000000000E+00 0.  1.
         11    1    3    3    0    0  0.41746583350E+02 -0.48156275297E+02 -0.97816917834E+02  0.11674739178E+03  0.00000000000E+00 0. -1.
          1    1    1    2  501    0 -0.12964341733E+02  0.38347011760E+02  0.27300349573E+02  0.48824958313E+02  0.00000000000E+00 0. -1.
<scales pt_clust_5="13000.00000" pt_clust_6="13000.00000" pt_clust_7="13000.00000" pt_clust_8="13000.00000" pt_clust_9="40.47922"></scales>
<clustering>
<clus scale="   40.479">  1  9  2 -1</clus>
<clus scale="   92.008">  5  6 -1 -1</clus>
<clus scale="   92.188">  7  8 -1 -1</clus>
<clus scale="  130.925">  1  5  2 -1</clus>
<clus scale="   40.479">  1  5  2 -1</clus>
</clustering>
</event>
<event>
 9    1  0.1315259E-005  0.1136720E+03  0.7546771E-02  0.1254205E+00
         21   -1    0    0  501  502  0.00000000000E+00  0.00000000000E+00  0.31002254770E+03  0.31002254770E+03  0.00000000000E+00 0.  1.
         -1   -1    0    0    0  501 -0.00000000000E+00 -0.00000000000E+00 -0.17464615029E+03  0.17464615029E+03  0.00000000000E+00 0.  1.
         23    2    1    2    0    0  0.47673418681E+02  0.18284872147E+02 -0.71372591283E+02  0.12714226184E+03  0.92000090006E+02 0.  0.
         23    2    1    2    0    0 -0.89334241495E+02 -0.42398474683E+02 -0.95433979083E+01  0.13594239682E+03  0.92795589613E+02 0.  0.
        -13    1    3    3    0    0 -0.11628184651E+02  0.40230535935E+02 -0.25606179162E+02  0.49085508159E+02  0.00000000000E+00 0.  1.
         13    1    3    3    0    0  0.59301603332E+02 -0.21945663788E+02 -0.45766412121E+02  0.78056753682E+02  0.00000000000E+00 0. -1.
        -13    1    4    4    0    0 -0.90303007203E+02  0.19484783473E+01  0.10799727118E+01  0.90330482224E+02  0.00000000000E+00 0. -1.
         13    1    4    4    0    0  0.96876570865E+00 -0.44346953031E+02 -0.10623370620E+02  0.45611914600E+02  0.00000000000E+00 0.  1.
         -1    1    1    2    0  502  0.41660822813E+02  0.24113602537E+02  0.21629238660E+03  0.22158403933E+03  0.00000000000E+00 0.  1.
<scales pt_clust_5="13000.00000" pt_clust_6="13000.00000" pt_clust_7="13000.00000" pt_clust_8="13000.00000" pt_clust_9="48.13616"></scales>
<clustering>
<clus scale="   48.136">  1  9  2 -1</clus>
<clus scale="   92.000">  5  6 -1 -1</clus>
<clus scale="   92.796">  7  8 -1 -1</clus>
<clus scale="  113.023">  2  5  1 -1</clus>
<clus scale="   48.136">  1  5  2 -1</clus>
</clustering>
</event>
<event>
 9    1  0.1315259E-005  0.1006896E+03  0.7546771E-02  0.1282950E+00
          1   -1    0    0  502    0 -0.00000000000E+00  0.00000000000E+00  0.46023372980E+03  0.46023372980E+03  0.00000000000E+00 0. -1.
         21   -1    0    0  501  502  0.00000000000E+00 -0.00000000000E+00 -0.55716297240E+02  0.55716297240E+02  0.00000000000E+00 0.  1.
         23    2    1    2    0    0  0.20972689041E+02  0.22145527026E+02  0.19437806325E+03  0.21709776651E+03  0.91751461568E+02 0.  0.
         23    2    1    2    0    0  0.87181471380E+01 -0.90995818728E+02  0.76111617240E+02  0.14527704525E+03  0.83403815761E+02 0.  0.
        -13    1    4    4    0    0 -0.14338824423E+02 -0.85050517791E+02  0.26471605785E+02  0.90221607031E+02  0.00000000000E+00 0.  1.
         13    1    4    4    0    0  0.23056971561E+02 -0.59453009370E+01  0.49640011454E+02  0.55055438223E+02  0.00000000000E+00 0. -1.
        -13    1    3    3    0    0  0.17527299522E+02 -0.32286094212E+02  0.11548551674E+03  0.12118788176E+03  0.00000000000E+00 0.  1.
         13    1    3    3    0    0  0.34453895195E+01  0.54431621237E+02  0.78892546511E+02  0.95909884759E+02  0.00000000000E+00 0. -1.
          1    1    1    2  501    0 -0.29690836179E+02  0.68850291702E+02  0.13402775207E+03  0.15357521527E+03  0.00000000000E+00 0. -1.
<scales pt_clust_5="13000.00000" pt_clust_6="13000.00000" pt_clust_7="13000.00000" pt_clust_8="13000.00000" pt_clust_9="74.97942"></scales>
<clustering>
<clus scale="   74.979">  2  9  1 -1</clus>
<clus scale="   83.404">  5  6 -1 -1</clus>
<clus scale="   91.751">  7  8 -1 -1</clus>
<clus scale="   93.146">  2  5  1 -1</clus>
<clus scale="   74.979">  2  5  1 -1</clus>
</clustering>
</event>
<event>
 9    1  0.1315259E-005  0.1208247E+03  0.7546771E-02  0.1242963E+00
         21   -1    0    0  501  502  0.00000000000E+00  0.00000000000E+00  0.56960999239E+03  0.56960999239E+03  0.00000000000E+00 0.  1.
          4   -1    0    0  502    0 -0.00000000000E+00 -0.00000000000E+00 -0.31696668518E+02  0.31696668518E+02  0.00000000000E+00 0. -1.
         23    2    1    2    0    0 -0.67746309676E+02  0.53419690033E+02  0.23612116551E+03  0.26879652804E+03  0.95158514740E+02 0.  0.
         23    2    1    2    0    0  0.57219388314E+02 -0.27146955334E+02  0.24537874039E+03  0.26939479092E+03  0.91388246266E+02 0.  0.
        -11    1    3    3    0    0 -0.91014693390E+02  0.33666255962E+02  0.16533221912E+03  0.19170767821E+03  0.00000000000E+00 0.  1.
         11    1    3    3    0    0  0.23268383714E+02  0.19753434070E+02  0.70788946390E+02  0.77088849837E+02  0.00000000000E+00 0. -1.
        -11    1    4    4    0    0  0.47488495716E-01 -0.36220589688E+02  0.17281478836E+03  0.17656977218E+03  0.00000000000E+00 0.  1.
         11    1    4    4    0    0  0.57171899819E+02  0.90736343540E+01  0.72563952031E+02  0.92825018737E+02  0.00000000000E+00 0. -1.
          4    1    1    2  501    0  0.10526921362E+02 -0.26272734699E+02  0.56413417969E+02  0.63115341946E+02  0.00000000000E+00 0. -1.
<scales pt_clust_5="13000.00000" pt_clust_6="13000.00000" pt_clust_7="13000.00000" pt_clust_8="13000.00000" pt_clust_9="28.30324"></scales>
<clustering>
<clus scale="   28.303">  1  9  2 -1</clus>
<clus scale="   91.388">  7  8 -1 -1</clus>
<clus scale="   95.159">  5  6 -1 -1</clus>
<clus scale="  117.878">  1  7  2 -1</clus>
<clus scale="   28.303">  1  5  2 -1</clus>
</clustering>
</event>
<event>
 9    1  0.1315259E-005  0.9224795E+02  0.7546771E-02  0.1297684E+00
         -2   -1    0    0    0  501 -0.00000000000E+00  0.00000000000E+00  0.83567711685E+02  0.83567711685E+02  0.00000000000E+00 0.  1.
         21   -1    0    0  501  502  0.00000000000E+00 -0.00000000000E+00 -0.20452516704E+03  0.20452516704E+03  0.00000000000E+00 0.  1.
         23    2    1    2    0    0 -0.76902756648E+01  0.31326153659E+01  0.14177993077E+02  0.92149147249E+02  0.90672466782E+02 0.  0.
         23    2    1    2    0    0  0.39770109909E+02  0.13761093185E+02 -0.71353284159E+02  0.12257699764E+03  0.90348214500E+02 0.  0.
        -13    1    4    4    0    0  0.66391880007E+02  0.63624108131E+01 -0.67122007131E+02  0.94624129288E+02  0.00000000000E+00 0. -1.
         13    1    4    4    0    0 -0.26621770099E+02  0.73986823723E+01 -0.42312770283E+01  0.27952868356E+02  0.00000000000E+00 0.  1.
        -13    1    3    3    0    0 -0.34048837090E+02 -0.29592890707E+02 -0.60459975979E+01  0.45515014825E+02  0.00000000000E+00 0. -1.
         13    1    3    3    0    0  0.26358561425E+02  0.32725506073E+02  0.20223990675E+02  0.46634132424E+02  0.00000000000E+00 0.  1.
         -2    1    1    2    0  502 -0.32079834244E+02 -0.16893708551E+02 -0.63782164273E+02  0.73366733831E+02  0.00000000000E+00 0.  1.
<scales pt_clust_5="13000.00000" pt_clust_6="13000.00000" pt_clust_7="13000.00000" pt_clust_8="13000.00000" pt_clust_9="36.25622"></scales>
<clustering>
<clus scale="   36.256">  2  9  1 -1</clus>
<clus scale="   90.348">  5  6 -1 -1</clus>
<clus scale="   90.672">  7  8 -1 -1</clus>
<clus scale="   91.929">  2  5  1 -1</clus>
<clus scale="   36.256">  2  5  1 -1</clus>
</clustering>
</event>
<event>
 9    1  0.1315259E-005  0.2139748E+03  0.7546771E-02  0.1139699E+00
          1   -1    0    0  502    0 -0.00000000000E+00  0.00000000000E+00  0.36477200204E+03  0.36477200204E+03  0.00000000000E+00 0. -1.
         21   -1    0    0  501  502  0.00000000000E+00 -0.00000000000E+00 -0.16221560345E+03  0.16221560345E+03  0.00000000000E+00 0.  1.
         23    2    1    2    0    0 -0.14005661682E+03 -0.12179492087E+03  0.18645929755E+03  0.27816618479E+03  0.90329939953E+02 0.  0.
         23    2    1    2    0    0  0.15930253818E+03  0.10518729775E+03  0.30598017485E+02  0.21955548125E+03  0.10405145070E+03 0.  0.
        -11    1    4    4    0    0  0.66105059875E+02  0.20574309269E+01 -0.23798955563E+02  0.70288706411E+02  0.00000000000E+00 0.  1.
         11    1    4    4    0    0  0.93197478307E+02  0.10312986683E+03  0.54396973048E+02  0.14926677484E+03  0.00000000000E+00 0. -1.
        -11    1    3    3    0    0 -0.11461266142E+03 -0.43573879194E+02  0.94644233376E+02  0.15489440279E+03  0.00000000000E+00 0.  1.
         11    1    3    3    0    0 -0.25443955407E+02 -0.78221041678E+02  0.91815064170E+02  0.12327178200E+03  0.00000000000E+00 0. -1.
          1    1    1    2  501    0 -0.19245921358E+02  0.16607623119E+02 -0.14500916433E+02  0.29265939452E+02  0.00000000000E+00 0. -1.
<scales pt_clust_5="13000.00000" pt_clust_6="13000.00000" pt_clust_7="13000.00000" pt_clust_8="13000.00000" pt_clust_9="25.42083"></scales>
<clustering>
<clus scale="   25.421">  2  9  1 -1</clus>
<clus scale="   90.330">  7  8 -1 -1</clus>
<clus scale="  104.051">  5  6 -1 -1</clus>
<clus scale="  207.649">  1  7  2 -1</clus>
<clus scale="   25.421">  2  5  1 -1</clus>
</clustering>
</event>
<event>
 9    1  0.1315259E-005  0.1939817E+03  0.7546771E-02  0.1180457E+00
         21   -1    0    0  501  502  0.00000000000E+00  0.00000000000E+00  0.92703910521E+03  0.92703910521E+03  0.00000000000E+00 0.  1.
         -1   -1    0    0    0  501 -0.00000000000E+00 -0.00000000000E+00 -0.88729497139E+02  0.88729497139E+02  0.00000000000E+00 0.  1.
         23    2    1    2    0    0  0.36759338408E+02 -0.46766528373E+02  0.59404402913E+02  0.12316743302E+03  0.90016533678E+02 0.  0.
         23    2    1    2    0    0 -0.15504979048E+02 -0.13412597950E+03  0.10278341543E+03  0.19237654698E+03  0.90631796794E+02 0.  0.
        -11    1    4    4    0    0  0.32213394107E+02 -0.96053129421E+02  0.58824970332E+02  0.11715068743E+03  0.00000000000E+00 0.  1.
         11    1    4    4    0    0 -0.47718373155E+02 -0.38072850076E+02  0.43958445101E+02  0.75225859551E+02  0.00000000000E+00 0. -1.
        -13    1    3    3    0    0  0.59854378671E+02 -0.15726985081E+02  0.57430208395E+02  0.84428156098E+02  0.00000000000E+00 0. -1.
         13    1    3    3    0    0 -0.23095040263E+02 -0.31039543292E+02  0.19741945175E+01  0.38739276923E+02  0.00000000000E+00 0.  1.
         -1    1    1    2    0  502 -0.21254359360E+02  0.18089250787E+03  0.67612178972E+03  0.70022462234E+03  0.00000000000E+00 0.  1.
<scales pt_clust_5="13000.00000" pt_clust_6="13000.00000" pt_clust_7="13000.00000" pt_clust_8="13000.00000" pt_clust_9="171.50741"></scales>
<clustering>
<clus scale="   90.017">  7  8 -1 -1</clus>
<clus scale="   90.632">  5  6 -1 -1</clus>
<clus scale="  107.895">  2  7  1 -1</clus>
<clus scale="  171.507">  1  9  2 -1</clus>
<clus scale="  171.507">  1  5  2 -1</clus>
</clustering>
</event>
<event>
 9    1  0.1315259E-005  0.1244337E+03  0.7546771E-02  0.1236660E+00
         21   -1    0    0  501  502  0.00000000000E+00  0.00000000000E+00  0.80324528171E+02  0.80324528171E+02  0.00000000000E+00 0.  1.
         -1   -1    0    0    0  501 -0.00000000000E+00 -0.00000000000E+00 -0.45471083367E+03  0.45471083367E+03  0.00000000000E+00 0.  1.
         23    2    1    2    0    0  0.82893729124E+02 -0.51865477931E+02 -0.29403552156E+03  0.32297521426E+03  0.91075259847E+02 0.  0.
         23    2    1    2    0    0 -0.53571107226E+02  0.23704724198E+02 -0.11448866683E+03  0.15897305636E+03  0.93450523478E+02 0.  0.
        -11    1    3    3    0    0  0.25735248712E+02 -0.53336140022E+02 -0.22828350851E+03  0.23583979121E+03  0.00000000000E+00 0.  1.
         11    1    3    3    0    0  0.57158480412E+02  0.14706620910E+01 -0.65752013050E+02  0.87135423050E+02  0.00000000000E+00 0. -1.
        -11    1    4    4    0    0 -0.79452745628E+02  0.89110266356E+01 -0.76197556501E+02  0.11044551960E+03  0.00000000000E+00 0. -1.
         11    1    4    4    0    0  0.25881638402E+02  0.14793697563E+02 -0.38291110327E+02  0.48527536760E+02  0.00000000000E+00 0.  1.
         -1    1    1    2    0  502 -0.29322621898E+02  0.28160753732E+02  0.34137882892E+02  0.53087091219E+02  0.00000000000E+00 0.  1.
<scales pt_clust_5="13000.00000" pt_clust_6="13000.00000" pt_clust_7="13000.00000" pt_clust_8="13000.00000" pt_clust_9="40.65519"></scales>
<clustering>
<clus scale="   40.655">  1  9  2 -1</clus>
<clus scale="   91.075">  5  6 -1 -1</clus>
<clus scale="   93.451">  7  8 -1 -1</clus>
<clus scale="  122.660">  2  5  1 -1</clus>
<clus scale="   40.655">  1  5  2 -1</clus>
</clustering>
</event>
<event>
 9    1  0.1315259E-005  0.1053230E+03  0.7546771E-02  0.1269913E+00
         21   -1    0    0  501  502  0.00000000000E+00  0.00000000000E+00  0.13407536843E+03  0.13407536843E+03  0.00000000000E+00 0. -1.
         -2   -1    0    0    0  501 -0.00000000000E+00 -0.00000000000E+00 -0.21371002730E+03  0.21371002730E+03  0.00000000000E+00 0.  1.
         23    2    1    2    0    0 -0.45881309966E+02  0.14592739258E+02 -0.14427032192E+03  0.17768556082E+03  0.91870507200E+02 0.  0.
         23    2    1    2    0    0  0.54686115480E+02 -0.52450511089E+02  0.51869333648E+02  0.12918877706E+03  0.90871805336E+02 0.  0.
        -11    1    4    4    0    0  0.21611218247E+02 -0.24532960307E+02  0.73763395521E+02  0.80684257537E+02  0.00000000000E+00 0. -1.
         11    1    4    4    0    0  0.33074897233E+02 -0.27917550782E+02 -0.21894061873E+02  0.48504519521E+02  0.00000000000E+00 0.  1.
        -11    1    3    3    0    0 -0.56339336170E+02 -0.14918875084E+02 -0.13156519982E+03  0.14389612725E+03  0.00000000000E+00 0.  1.
         11    1    3    3    0    0  0.10458026204E+02  0.29511614342E+02 -0.12705122097E+02  0.33789433565E+02  0.00000000000E+00 0. -1.
         -2    1    1    2    0  502 -0.88048055141E+01  0.37857771831E+02  0.12766329396E+02  0.40911057850E+02  0.00000000000E+00 0.  1.
<scales pt_clust_5="13000.00000" pt_clust_6="13000.00000" pt_clust_7="13000.00000" pt_clust_8="13000.00000" pt_clust_9="38.86818"></scales>
<clustering>
<clus scale="   38.868">  1  9  2 -1</clus>
<clus scale="   90.872">  5  6 -1 -1</clus>
<clus scale="   91.871">  7  8 -1 -1</clus>
<clus scale="  104.453">  1  5  2 -1</clus>
<clus scale="   38.868">  1  5  2 -1</clus>
</clustering>
</event>
<event>
 9    1  0.1315259E-005  0.1173034E+03  0.7546771E-02  0.1250995E+00
         21   -1    0    0  501  502  0.00000000000E+00  0.00000000000E+00  0.37090819445E+02  0.37090819445E+02  0.00000000000E+00 0. -1.
          2   -1    0    0  502    0 -0.00000000000E+00 -0.00000000000E+00 -0.52383716160E+03  0.52383716160E+03  0.00000000000E+00 0. -1.
         23    2    1    2    0    0  0.30602562811E+01 -0.73760994250E+02 -0.27889575154E+03  0.30264865996E+03  0.91451198487E+02 0.  0.
         23    2    1    2    0    0 -0.17464754005E+02  0.42039505066E+02 -0.18851003961E+03  0.21843212114E+03  0.10051974380E+03 0.  0.
        -13    1    4    4    0    0 -0.59641752743E+02  0.23005059632E+02 -0.11492195004E+03  0.13150447155E+03  0.00000000000E+00 0. -1.
         13    1    4    4    0    0  0.42176998738E+02  0.19034445434E+02 -0.73588089570E+02  0.86927649583E+02  0.00000000000E+00 0.  1.
        -13    1    3    3    0    0  0.31938482376E+02 -0.20003456454E+02 -0.35688336087E+02  0.51902430186E+02  0.00000000000E+00 0.  1.
         13    1    3    3    0    0 -0.28878226095E+02 -0.53757537796E+02 -0.24320741546E+03  0.25074622977E+03  0.00000000000E+00 0. -1.
          2    1    1    2  501    0  0.14404497724E+02  0.31721489184E+02 -0.19340551009E+02  0.39847199952E+02  0.00000000000E+00 0. -1.
<scales pt_clust_5="13000.00000" pt_clust_6="13000.00000" pt_clust_7="13000.00000" pt_clust_8="13000.00000" pt_clust_9="34.83881"></scales>
<clustering>
<clus scale="   34.839">  1  9  2 -1</clus>
<clus scale="   91.451">  7  8 -1 -1</clus>
<clus scale="  100.520">  5  6 -1 -1</clus>
<clus scale="  109.632">  2  7  1 -1</clus>
<clus scale="   34.839">  1  5  2 -1</clus>
</clustering>
</event>
<event>
 9    1  0.1315259E-005  0.1117515E+03  0.7546771E-02  0.1257454E+00
         -3   -1    0    0    0  501 -0.00000000000E+00  0.00000000000E+00  0.93833268062E+02  0.93833268062E+02  0.00000000000E+00 0.  1.
         21   -1    0    0  501  502  0.00000000000E+00 -0.00000000000E+00 -0.33160855389E+03  0.33160855389E+03  0.00000000000E+00 0. -1.
         23    2    1    2    0    0 -0.56206591779E+02 -0.16511799327E+02  0.28263078065E+02  0.11231587569E+03  0.91565462237E+02 0.  0.
         23    2    1    2    0    0  0.90415424359E+02  0.19200964383E+02 -0.19633928780E+03  0.23543787096E+03  0.91314014003E+02 0.  0.
        -11    1    4    4    0    0  0.95126941285E+02  0.43222550786E+02 -0.14688667248E+03  0.18025819928E+03  0.00000000000E+00 0. -1.
         11    1    4    4    0    0 -0.47115169253E+01 -0.24021586404E+02 -0.49452615313E+02  0.55179671677E+02  0.00000000000E+00 0.  1.
        -13    1    3    3    0    0 -0.54998513435E+02  0.19080457597E+02 -0.11068349272E+02  0.59257140479E+02  0.00000000000E+00 0. -1.
         13    1    3    3    0    0 -0.12080783443E+01 -0.35592256924E+02  0.39331427337E+02  0.53058735215E+02  0.00000000000E+00 0.  1.
         -3    1    1    2    0  502 -0.34208832580E+02 -0.26891650552E+01 -0.69699076093E+02  0.77688075297E+02  0.00000000000E+00 0.  1.
<scales pt_clust_5="13000.00000" pt_clust_6="13000.00000" pt_clust_7="13000.00000" pt_clust_8="13000.00000" pt_clust_9="34.31437"></scales>
<clustering>
<clus scale="   34.314">  2  9  1 -1</clus>
<clus scale="   91.314">  5  6 -1 -1</clus>
<clus scale="   91.565">  7  8 -1 -1</clus>
<clus scale="  111.546">  2  5  1 -1</clus>
<clus scale="   34.314">  2  5  1 -1</clus>
</clustering>
</event>
<event>
 9    1  0.1315259E-005  0.1163705E+03  0.7546771E-02  0.1249364E+00
         21   -1    0    0  501  502  0.00000000000E+00  0.00000000000E+00  0.81605001003E+02  0.81605001003E+02  0.00000000000E+00 0. -1.
          1   -1    0    0  502    0 -0.00000000000E+00 -0.00000000000E+00 -0.51441879411E+03  0.51441879411E+03  0.00000000000E+00 0. -1.
         23    2    1    2    0    0  0.32536407163E+02  0.52618517613E+02 -0.25254396195E+03  0.27578183290E+03  0.91923013724E+02 0.  0.
         23    2    1    2    0    0 -0.35036428497E+02 -0.75204742069E+02 -0.23233530403E+03  0.26343350238E+03  0.92380799551E+02 0.  0.
        -13    1    3    3    0    0 -0.19056666588E+02  0.44393942933E+02 -0.18008192972E+03  0.18644967182E+03  0.00000000000E+00 0.  1.
         13    1    3    3    0    0  0.51593073751E+02  0.82245746793E+01 -0.72462032234E+02  0.89332161080E+02  0.00000000000E+00 0. -1.
        -13    1    4    4    0    0 -0.19673059728E+02 -0.45165791706E+01 -0.92008760160E-01  0.20185074488E+02  0.00000000000E+00 0.  1.
         13    1    4    4    0    0 -0.15363368769E+02 -0.70688162898E+02 -0.23224329527E+03  0.24324842789E+03  0.00000000000E+00 0. -1.
          1    1    1    2  501    0  0.25000213342E+01  0.22586224456E+02  0.52065472881E+02  0.56808459829E+02  0.00000000000E+00 0. -1.
<scales pt_clust_5="13000.00000" pt_clust_6="13000.00000" pt_clust_7="13000.00000" pt_clust_8="13000.00000" pt_clust_9="22.72416"></scales>
<clustering>
<clus scale="   22.724">  1  9  2 -1</clus>
<clus scale="   91.923">  5  6 -1 -1</clus>
<clus scale="   92.381">  7  8 -1 -1</clus>
<clus scale="  116.007">  2  5  1 -1</clus>
<clus scale="   22.724">  1  5  2 -1</clus>
</clustering>
</event>
<event>
 9    1  0.1315259E-005  0.9891294E+02  0.7546771E-02  0.1282858E+00
         21   -1    0    0  501  502  0.00000000000E+00  0.00000000000E+00  0.40943637046E+02  0.40943637046E+02  0.00000000000E+00 0. -1.
          2   -1    0    0  502    0 -0.00000000000E+00 -0.00000000000E+00 -0.57745923165E+03  0.57745923165E+03  0.00000000000E+00 0. -1.
         23    2    1    2    0    0  0.10785764179E+02  0.29989373419E+02 -0.36179190194E+03  0.37417644537E+03  0.89994092773E+02 0.  0.
         23    2    1    2    0    0 -0.22441704777E+02 -0.59781627831E+02 -0.18087289240E+03  0.21164955988E+03  0.89459822571E+02 0.  0.
        -11    1    3    3    0    0  0.50588153928E+02  0.16299632024E+02 -0.18889277554E+03  0.19622772478E+03  0.00000000000E+00 0. -1.
         11    1    3    3    0    0 -0.39802389750E+02  0.13689741395E+02 -0.17289912641E+03  0.17794872060E+03  0.00000000000E+00 0.  1.
        -13    1    4    4    0    0 -0.93715900965E+01 -0.82725345603E+02 -0.13098019121E+03  0.15520025771E+03  0.00000000000E+00 0. -1.
         13    1    4    4    0    0 -0.13070114681E+02  0.22943717773E+02 -0.49892701196E+02  0.56449302172E+02  0.00000000000E+00 0.  1.
          2    1    1    2  501    0  0.11655940598E+02  0.29792254411E+02  0.61491997376E+01  0.32576863439E+02  0.00000000000E+00 0. -1.
<scales pt_clust_5="13000.00000" pt_clust_6="13000.00000" pt_clust_7="13000.00000" pt_clust_8="13000.00000" pt_clust_9="31.99124"></scales>
<clustering>
<clus scale="   31.991">  1  9  2 -1</clus>
<clus scale="   89.460">  7  8 -1 -1</clus>
<clus scale="   89.994">  5  6 -1 -1</clus>
<clus scale="   98.427">  1  7  2 -1</clus>
<clus scale="   31.991">  1  5  2 -1</clus>
</clustering>
</event>
<event>
 9    1  0.1315259E-005  0.1392371E+03  0.7546771E-02  0.1215534E+00
          1   -1    0    0  502    0 -0.00000000000E+00  0.00000000000E+00  0.72433800416E+02  0.72433800416E+02  0.00000000000E+00 0. -1.
         21   -1    0    0  501  502  0.00000000000E+00 -0.00000000000E+00 -0.73226079774E+03  0.73226079774E+03  0.00000000000E+00 0.  1.
         23    2    1    2    0    0 -0.20869948946E+02  0.99827644286E+02 -0.37509870211E+02  0.14229641899E+03  0.91870382388E+02 0.  0.
         23    2    1    2    0    0  0.67042253456E+02 -0.99402545969E+02 -0.27704396947E+03  0.31405120301E+03  0.86598309440E+02 0.  0.
        -13    1    3    3    0    0  0.20502194415E+02  0.25181942392E+02  0.21135368640E+02  0.38744986850E+02  0.00000000000E+00 0. -1.
         13    1    3    3    0    0 -0.41372143361E+02  0.74645701894E+02 -0.58645238851E+02  0.10355143214E+03  0.00000000000E+00 0.  1.
        -13    1    4    4    0    0 -0.34870595378E+00 -0.75879427319E+02 -0.15733560962E+03  0.17467771221E+03  0.00000000000E+00 0.  1.
         13    1    4    4    0    0  0.67390959410E+02 -0.23523118649E+02 -0.11970835985E+03  0.13937349080E+03  0.00000000000E+00 0. -1.
          1    1    1    2  501    0 -0.46172304510E+02 -0.42509831756E+00 -0.34527315764E+03  0.34834697616E+03  0.00000000000E+00 0. -1.
<scales pt_clust_5="13000.00000" pt_clust_6="13000.00000" pt_clust_7="13000.00000" pt_clust_8="13000.00000" pt_clust_9="46.17426"></scales>
<clustering>
<clus scale="   46.174">  2  9  1 -1</clus>
<clus scale="   86.598">  7  8 -1 -1</clus>
<clus scale="   91.870">  5  6 -1 -1</clus>
<clus scale="  135.816">  2  7  1 -1</clus>
<clus scale="   46.174">  2  5  1 -1</clus>
</clustering>
</event>
<event>
 9    1  0.1315259E-005  0.1076591E+03  0.7546771E-02  0.1265167E+00
         21   -1    0    0  501  502  0.00000000000E+00  0.00000000000E+00  0.41000941415E+03  0.41000941415E+03  0.00000000000E+00 0. -1.
          3   -1    0    0  502    0 -0.00000000000E+00 -0.00000000000E+00 -0.50493980996E+02  0.50493980996E+02  0.00000000000E+00 0. -1.
         23    2    1    2    0    0  0.71590181990E+02 -0.42197880972E+01  0.71695856452E+02  0.13636199381E+03  0.91166533086E+02 0.  0.
         23    2    1    2    0    0 -0.34488660713E+02  0.15241742320E+02  0.13780124397E+03  0.16921075068E+03  0.90671477764E+02 0.  0.
        -11    1    4    4    0    0 -0.40411676600E+02 -0.17466316074E+02  0.22952906046E+02  0.49648884165E+02  0.00000000000E+00 0.  1.
         11    1    4    4    0    0  0.59230158877E+01  0.32708058394E+02  0.11484833793E+03  0.11956186652E+03  0.00000000000E+00 0. -1.
        -13    1    3    3    0    0  0.45328281184E+02  0.40904676236E+02  0.23864660840E+02  0.65554310690E+02  0.00000000000E+00 0. -1.
         13    1    3    3    0    0  0.26261900806E+02 -0.45124464333E+02  0.47831195612E+02  0.70807683121E+02  0.00000000000E+00 0.  1.
          3    1    1    2  501    0 -0.37101521277E+02 -0.11021954223E+02  0.15001833273E+03  0.15493065066E+03  0.00000000000E+00 0. -1.
<scales pt_clust_5="13000.00000" pt_clust_6="13000.00000" pt_clust_7="13000.00000" pt_clust_8="13000.00000" pt_clust_9="38.70409"></scales>
<clustering>
<clus scale="   38.704">  1  9  2 -1</clus>
<clus scale="   90.671">  5  6 -1 -1</clus>
<clus scale="   91.167">  7  8 -1 -1</clus>
<clus scale="  107.240">  1  5  2 -1</clus>
<clus scale="   38.704">  1  5  2 -1</clus>
</clustering>
</event>
<event>
 9    1  0.1315259E-005  0.9797451E+02  0.7546771E-02  0.1286087E+00
         -4   -1    0    0    0  501 -0.00000000000E+00  0.00000000000E+00  0.30740999796E+03  0.30740999796E+03  0.00000000000E+00 0.  1.
         21   -1    0    0  501  502  0.00000000000E+00 -0.00000000000E+00 -0.11954672339E+03  0.11954672339E+03  0.00000000000E+00 0.  1.
         23    2    1    2    0    0 -0.29139374225E+02 -0.36774750765E+02  0.17125630076E+03  0.19805816588E+03  0.87731585523E+02 0.  0.
         23    2    1    2    0    0  0.18556907939E+02  0.15742240210E+02  0.10300535023E+03  0.13934949326E+03  0.90642165341E+02 0.  0.
        -11    1    4    4    0    0  0.50231949354E+02 -0.67850752592E+00  0.31113143236E+02  0.59090919695E+02  0.00000000000E+00 0. -1.
         11    1    4    4    0    0 -0.31675041415E+02  0.16420747736E+02  0.71892206993E+02  0.80258573568E+02  0.00000000000E+00 0.  1.
        -13    1    3    3    0    0 -0.52989521429E+02 -0.47225259794E+02  0.10377634325E+03  0.12572845327E+03  0.00000000000E+00 0.  1.
         13    1    3    3    0    0  0.23850147204E+02  0.10450509029E+02  0.67479957514E+02  0.72329712613E+02  0.00000000000E+00 0. -1.
         -4    1    1    2    0  502  0.10582466286E+02  0.21032510555E+02 -0.86398376426E+02  0.89549062206E+02  0.00000000000E+00 0.  1.
<scales pt_clust_5="13000.00000" pt_clust_6="13000.00000" pt_clust_7="13000.00000" pt_clust_8="13000.00000" pt_clust_9="23.54475"></scales>
<clustering>
<clus scale="   23.545">  2  9  1 -1</clus>
<clus scale="   87.732">  7  8 -1 -1</clus>
<clus scale="   90.642">  5  6 -1 -1</clus>
<clus scale="   95.288">  1  7  2 -1</clus>
<clus scale="   23.545">  2  5  1 -1</clus>
</clustering>
</event>
<event>
 9    1  0.1315259E-005  0.9797356E+02  0.7546771E-02  0.1286776E+00
         -3   -1    0    0    0  501 -0.00000000000E+00  0.00000000000E+00  0.10972913795E+03  0.10972913795E+03  0.00000000000E+00 0.  1.
         21   -1    0    0  501  502  0.00000000000E+00 -0.00000000000E+00 -0.13455434118E+03  0.13455434118E+03  0.00000000000E+00 0.  1.
         23    2    1    2    0    0 -0.27745988611E+01 -0.34141418497E+02  0.40942801428E+02  0.10217947442E+03  0.87126328672E+02 0.  0.
         23    2    1    2    0    0 -0.20323640102E+02  0.38723496591E+02 -0.60540545203E+02  0.11798242899E+03  0.91335296582E+02 0.  0.
        -13    1    4    4    0    0 -0.34085183454E+02  0.62644692475E+02 -0.31636622245E+02  0.78019440484E+02  0.00000000000E+00 0. -1.
         13    1    4    4    0    0  0.13761543353E+02 -0.23921195884E+02 -0.28903922959E+02  0.39962988506E+02  0.00000000000E+00 0.  1.
        -13    1    3    3    0    0  0.30408573815E+02 -0.20000959203E+01 -0.11244170336E+02  0.32482504702E+02  0.00000000000E+00 0.  1.
         13    1    3    3    0    0 -0.33183172676E+02 -0.32141322577E+02  0.52186971764E+02  0.69696969717E+02  0.00000000000E+00 0. -1.
         -3    1    1    2    0  502  0.23098238963E+02 -0.45820780941E+01 -0.52274594555E+01  0.24121575720E+02  0.00000000000E+00 0.  1.
<scales pt_clust_5="13000.00000" pt_clust_6="13000.00000" pt_clust_7="13000.00000" pt_clust_8="13000.00000" pt_clust_9="23.54834"></scales>
<clustering>
<clus scale="   23.548">  2  9  1 -1</clus>
<clus scale="   87.126">  7  8 -1 -1</clus>
<clus scale="   91.335">  5  6 -1 -1</clus>
<clus scale="   94.062">  1  7  2 -1</clus>
<clus scale="   23.548">  2  5  1 -1</clus>
</clustering>
</event>
<event>
 9    1  0.1315259E-005  0.9796766E+02  0.7546771E-02  0.1291118E+00
         21   -1    0    0  501  502  0.00000000000E+00  0.00000000000E+00  0.13980843235E+03  0.13980843235E+03  0.00000000000E+00 0. -1.
          2   -1    0    0  502    0 -0.00000000000E+00 -0.00000000000E+00 -0.22283728253E+03  0.22283728253E+03  0.00000000000E+00 0. -1.
         23    2    1    2    0    0  0.19256586014E+02 -0.19573872553E+02 -0.13133580785E+03  0.15567647266E+03  0.78943759247E+02 0.  0.
         23    2    1    2    0    0 -0.34535780929E+02  0.56865204070E+02 -0.31841133475E+02  0.11725963449E+03  0.91156966287E+02 0.  0.
        -11    1    4    4    0    0 -0.52477393203E+02  0.10300358058E+02  0.71186899189E+01  0.53950439476E+02  0.00000000000E+00 0.  1.
         11    1    4    4    0    0  0.17941612274E+02  0.46564846012E+02 -0.38959823394E+02  0.63309195019E+02  0.00000000000E+00 0. -1.
        -13    1    3    3    0    0  0.24089259095E+02  0.13528781279E+02 -0.11532622056E+03  0.11858944925E+03  0.00000000000E+00 0. -1.
         13    1    3    3    0    0 -0.48326730817E+01 -0.33102653831E+02 -0.16009587298E+02  0.37087023408E+02  0.00000000000E+00 0.  1.
          2    1    1    2  501    0  0.15279194915E+02 -0.37291331517E+02  0.80148091150E+02  0.89709607727E+02  0.00000000000E+00 0. -1.
<scales pt_clust_5="13000.00000" pt_clust_6="13000.00000" pt_clust_7="13000.00000" pt_clust_8="13000.00000" pt_clust_9="40.30009"></scales>
<clustering>
<clus scale="   40.300">  1  9  2 -1</clus>
<clus scale="   78.944">  7  8 -1 -1</clus>
<clus scale="   86.719">  2  7  1 -1</clus>
<clus scale="   91.157">  5  6 -1 -1</clus>
<clus scale="   40.300">  1  5  2 -1</clus>
</clustering>
</event>
<event>
 9    1  0.1315259E-005  0.1342320E+03  0.7546771E-02  0.1222003E+00
         21   -1    0    0  501  502  0.00000000000E+00  0.00000000000E+00  0.40607604608E+02  0.40607604608E+02  0.00000000000E+00 0.  1.
          1   -1    0    0  502    0 -0.00000000000E+00 -0.00000000000E+00 -0.92851512587E+03  0.92851512587E+03  0.00000000000E+00 0. -1.
         23    2    1    2    0    0 -0.85165394975E+02  0.32776159396E+02 -0.26581429354E+03  0.29484008345E+03  0.89140423116E+02 0.  0.
         23    2    1    2    0    0  0.11599729434E+03  0.17850892361E+02 -0.20779153400E+03  0.25576192136E+03  0.91993544153E+02 0.  0.
        -13    1    3    3    0    0 -0.18600355288E+02 -0.29625539300E+02 -0.94079686490E+02  0.10037247235E+03  0.00000000000E+00 0. -1.
         13    1    3    3    0    0 -0.66565039687E+02  0.62401698695E+02 -0.17173460705E+03  0.19446761110E+03  0.00000000000E+00 0.  1.
        -13    1    4    4    0    0  0.25357093716E+02  0.23697434937E+02 -0.70322160964E+01  0.35411900366E+02  0.00000000000E+00 0.  1.
         13    1    4    4    0    0  0.90640200623E+02 -0.58465425755E+01 -0.20075931790E+03  0.22035002100E+03  0.00000000000E+00 0. -1.
          1    1    1    2  501    0 -0.30831899365E+02 -0.50627051757E+02 -0.41430169373E+03  0.41852072567E+03  0.00000000000E+00 0. -1.
<scales pt_clust_5="13000.00000" pt_clust_6="13000.00000" pt_clust_7="13000.00000" pt_clust_8="13000.00000" pt_clust_9="59.27654"></scales>
<clustering>
<clus scale="   59.277">  1  9  2 -1</clus>
<clus scale="   89.140">  5  6 -1 -1</clus>
<clus scale="   91.994">  7  8 -1 -1</clus>
<clus scale="  132.293">  2  5  1 -1</clus>
<clus scale="   59.277">  1  5  2 -1</clus>
</clustering>
</event>
<event>
 9    1  0.1315259E-005  0.9393186E+02  0.7546771E-02  0.1294273E+00
         21   -1    0    0  501  502  0.00000000000E+00  0.00000000000E+00  0.67804008204E+02  0.67804008204E+02  0.00000000000E+00 0.  1.
          1   -1    0    0  502    0 -0.00000000000E+00 -0.00000000000E+00 -0.50336543660E+03  0.50336543660E+03  0.00000000000E+00 0. -1.
         23    2    1    2    0    0 -0.17494878927E+02 -0.17134075284E+02 -0.39013377736E+03  0.40121052286E+03  0.90365215063E+02 0.  0.
         23    2    1    2    0    0  0.58525481779E+01  0.34732981014E+02 -0.83046298297E+02  0.12682624328E+03  0.89149178533E+02 0.  0.
        -11    1    4    4    0    0 -0.27546907949E+02 -0.11239700579E+02 -0.57041305486E+02  0.64334077581E+02  0.00000000000E+00 0.  1.
         11    1    4    4    0    0  0.33399456127E+02  0.45972681593E+02 -0.26004992812E+02  0.62492165698E+02  0.00000000000E+00 0. -1.
        -13    1    3    3    0    0  0.13028501588E+02 -0.45835325809E+02 -0.14810008810E+03  0.15557716748E+03  0.00000000000E+00 0.  1.
         13    1    3    3    0    0 -0.30523380516E+02  0.28701250525E+02 -0.24203368925E+03  0.24563335537E+03  0.00000000000E+00 0. -1.
          1    1    1    2  501    0  0.11642330749E+02 -0.17598905730E+02  0.37618647253E+02  0.43132678671E+02  0.00000000000E+00 0. -1.
<scales pt_clust_5="13000.00000" pt_clust_6="13000.00000" pt_clust_7="13000.00000" pt_clust_8="13000.00000" pt_clust_9="21.10131"></scales>
<clustering>
<clus scale="   21.101">  1  9  2 -1</clus>
<clus scale="   89.149">  5  6 -1 -1</clus>
<clus scale="   90.365">  7  8 -1 -1</clus>
<clus scale="   92.763">  1  5  2 -1</clus>
<clus scale="   21.101">  1  5  2 -1</clus>
</clustering>
</event>
<event>
 9    1  0.1315259E-005  0.9564867E+02  0.7546771E-02  0.1289940E+00
          2   -1    0    0  502    0 -0.00000000000E+00  0.00000000000E+00  0.10075315894E+03  0.10075315894E+03  0.00000000000E+00 0. -1.
         21   -1    0    0  501  502  0.00000000000E+00 -0.00000000000E+00 -0.13420772282E+03  0.13420772282E+03  0.00000000000E+00 0.  1.
         23    2    1    2    0    0  0.13214658068E+02  0.38960422885E+02  0.16739388583E+02  0.97835406501E+02  0.87172345935E+02 0.  0.
         23    2    1    2    0    0 -0.33619150518E+02 -0.20428486628E+02 -0.52543797325E+02  0.10946145992E+03  0.87597889380E+02 0.  0.
        -11    1    4    4    0    0 -0.38710220938E+02  0.27522920826E+02 -0.21697246393E+02  0.52218415112E+02  0.00000000000E+00 0.  1.
         11    1    4    4    0    0  0.50910704197E+01 -0.47951407454E+02 -0.30846550932E+02  0.57243044811E+02  0.00000000000E+00 0. -1.
        -13    1    3    3    0    0  0.20410462693E+02  0.11102603321E+02  0.49229273286E+02  0.54436900501E+02  0.00000000000E+00 0. -1.
         13    1    3    3    0    0 -0.71958046250E+01  0.27857819564E+02 -0.32489884703E+02  0.43398506000E+02  0.00000000000E+00 0.  1.
          2    1    1    2  501    0  0.20404492450E+02 -0.18531936257E+02  0.23498448560E+01  0.27664015335E+02  0.00000000000E+00 0. -1.
<scales pt_clust_5="13000.00000" pt_clust_6="13000.00000" pt_clust_7="13000.00000" pt_clust_8="13000.00000" pt_clust_9="27.56405"></scales>
<clustering>
<clus scale="   27.564">  2  9  1 -1</clus>
<clus scale="   87.172">  7  8 -1 -1</clus>
<clus scale="   87.598">  5  6 -1 -1</clus>
<clus scale="   95.259">  1  7  2 -1</clus>
<clus scale="   27.564">  2  5  1 -1</clus>
</clustering>
</event>
<event>
 9    1  0.1315259E-005  0.9369620E+02  0.7546771E-02  0.1294568E+00
          1   -1    0    0  502    0 -0.00000000000E+00  0.00000000000E+00  0.43972181273E+02  0.43972181273E+02  0.00000000000E+00 0. -1.
         21   -1    0    0  501  502  0.00000000000E+00 -0.00000000000E+00 -0.29468244649E+03  0.29468244649E+03  0.00000000000E+00 0. -1.
         23    2    1    2    0    0  0.20163253456E+02  0.12139003673E+02 -0.53335142663E+02  0.10857756660E+03  0.91599881691E+02 0.  0.
         23    2    1    2    0    0 -0.17407299062E+02  0.12592746721E+02 -0.15620018368E+03  0.18196645575E+03  0.90838881017E+02 0.  0.
        -13    1    4    4    0    0 -0.42756233903E+02  0.13131832593E+02 -0.14905952913E+03  0.15562545997E+03  0.00000000000E+00 0.  1.
         13    1    4    4    0    0  0.25348934841E+02 -0.53908587173E+00 -0.71406545448E+01  0.26340995776E+02  0.00000000000E+00 0. -1.
        -13    1    3    3    0    0 -0.23695307907E+02  0.36404142226E+02 -0.32714956772E+02  0.54378282288E+02  0.00000000000E+00 0.  1.
         13    1    3    3    0    0  0.43858561362E+02 -0.24265138553E+02 -0.20620185890E+02  0.54199284312E+02  0.00000000000E+00 0. -1.
          1    1    1    2  501    0 -0.27559543936E+01 -0.24731750394E+02 -0.41174938872E+02  0.48110605413E+02  0.00000000000E+00 0. -1.
<scales pt_clust_5="13000.00000" pt_clust_6="13000.00000" pt_clust_7="13000.00000" pt_clust_8="13000.00000" pt_clust_9="24.88483"></scales>
<clustering>
<clus scale="   24.885">  2  9  1 -1</clus>
<clus scale="   90.839">  5  6 -1 -1</clus>
<clus scale="   91.600">  7  8 -1 -1</clus>
<clus scale="   92.952">  2  5  1 -1</clus>
<clus scale="   24.885">  2  5  1 -1</clus>
</clustering>
</event>
<event>
 9    1  0.1315259E-005  0.9812425E+02  0.7546771E-02  0.1284635E+00
         -1   -1    0    0    0  501 -0.00000000000E+00  0.00000000000E+00  0.25297569219E+03  0.25297569219E+03  0.00000000000E+00 0.  1.
         21   -1    0    0  501  502  0.00000000000E+00 -0.00000000000E+00 -0.58386267424E+02  0.58386267424E+02  0.00000000000E+00 0. -1.
         23    2    1    2    0    0 -0.42988037762E+02  0.36769176196E+02  0.11193432389E+03  0.15429752047E+03  0.89880410833E+02 0.  0.
         23    2    1    2    0    0  0.14409711184E+02 -0.65680204923E+01  0.58510795055E+02  0.10898348595E+03  0.90571013038E+02 0.  0.
        -13    1    4    4    0    0 -0.31935984482E+02 -0.32797253015E+01 -0.26077720006E+01  0.32209690742E+02  0.00000000000E+00 0. -1.
         13    1    4    4    0    0  0.46345695666E+02 -0.32882951908E+01  0.61118567056E+02  0.76773795210E+02  0.00000000000E+00 0.  1.
        -13    1    3    3    0    0 -0.68373859612E+02  0.20901329432E+02  0.55857304493E+02  0.90729756505E+02  0.00000000000E+00 0. -1.
         13    1    3    3    0    0  0.25385821850E+02  0.15867846764E+02  0.56077019392E+02  0.63567763968E+02  0.00000000000E+00 0.  1.
         -1    1    1    2    0  502  0.28578326579E+02 -0.30201155704E+02  0.24144305830E+02  0.48080953192E+02  0.00000000000E+00 0.  1.
<scales pt_clust_5="13000.00000" pt_clust_6="13000.00000" pt_clust_7="13000.00000" pt_clust_8="13000.00000" pt_clust_9="41.57921"></scales>
<clustering>
<clus scale="   41.579">  2  9  1 -1</clus>
<clus scale="   89.880">  7  8 -1 -1</clus>
<clus scale="   90.571">  5  6 -1 -1</clus>
<clus scale="   97.487">  1  7  2 -1</clus>
<clus scale="   41.579">  2  5  1 -1</clus>
</clustering>
</event>
<event>
 9    1  0.1315259E-005  0.1534511E+03  0.7546771E-02  0.1196477E+00
         21   -1    0    0  501  502  0.00000000000E+00  0.00000000000E+00  0.13550903620E+03  0.13550903620E+03  0.00000000000E+00 0.  1.
          1   -1    0    0  502    0 -0.00000000000E+00 -0.00000000000E+00 -0.34231952266E+03  0.34231952266E+03  0.00000000000E+00 0. -1.
         23    2    1    2    0    0 -0.86272394446E+02  0.65647469804E+01 -0.20921743357E+02  0.12707434189E+03  0.90687083292E+02 0.  0.
         23    2    1    2    0    0  0.17061633134E+03  0.23399069814E+01 -0.67539081345E+02  0.20515258583E+03  0.91709586639E+02 0.  0.
        -11    1    4    4    0    0  0.11469957378E+02  0.25842328339E+02 -0.27347849730E+02  0.39335616699E+02  0.00000000000E+00 0. -1.
         11    1    4    4    0    0  0.15914637396E+03 -0.23502421358E+02 -0.40191231615E+02  0.16581696913E+03  0.00000000000E+00 0.  1.
        -11    1    3    3    0    0  0.16308980900E+02  0.15297873832E+02 -0.47445219816E+01  0.22858658985E+02  0.00000000000E+00 0.  1.
         11    1    3    3    0    0 -0.10258137535E+03 -0.87331268513E+01 -0.16177221375E+02  0.10421568291E+03  0.00000000000E+00 0. -1.
          1    1    1    2  501    0 -0.84343936890E+02 -0.89046539618E+01 -0.11834966175E+03  0.14560163114E+03  0.00000000000E+00 0. -1.
<scales pt_clust_5="13000.00000" pt_clust_6="13000.00000" pt_clust_7="13000.00000" pt_clust_8="13000.00000" pt_clust_9="84.81273"></scales>
<clustering>
<clus scale="   84.813">  1  9  2 -1</clus>
<clus scale="   90.687">  7  8 -1 -1</clus>
<clus scale="   91.710">  5  6 -1 -1</clus>
<clus scale="  152.842">  2  7  1 -1</clus>
<clus scale="   84.813">  1  5  2 -1</clus>
</clustering>
</event>
<event>
 9    1  0.1315259E-005  0.1521962E+03  0.7546771E-02  0.1199832E+00
         21   -1    0    0  501  502  0.00000000000E+00  0.00000000000E+00  0.71745152540E+02  0.71745152540E+02  0.00000000000E+00 0. -1.
          2   -1    0    0  502    0 -0.00000000000E+00 -0.00000000000E+00 -0.67105631328E+03  0.67105631328E+03  0.00000000000E+00 0. -1.
         23    2    1    2    0    0 -0.45009009679E+02  0.11150594788E+03 -0.35444204618E+03  0.38807298243E+03  0.10252847518E+03 0.  0.
         23    2    1    2    0    0  0.15964513939E+02 -0.10500978195E+03 -0.27711527735E+03  0.31084684806E+03  0.92471433430E+02 0.  0.
        -11    1    3    3    0    0 -0.73581075855E+02  0.69409589764E+02 -0.18128189279E+03  0.20759332968E+03  0.00000000000E+00 0. -1.
         11    1    3    3    0    0  0.28572066176E+02  0.42096358117E+02 -0.17316015339E+03  0.18047965274E+03  0.00000000000E+00 0.  1.
        -13    1    4    4    0    0  0.13373479165E+02 -0.67719380939E+02 -0.62876290844E+02  0.93371261372E+02  0.00000000000E+00 0.  1.
         13    1    4    4    0    0  0.25910347745E+01 -0.37290401012E+02 -0.21423898650E+03  0.21747558669E+03  0.00000000000E+00 0. -1.
          2    1    1    2  501    0  0.29044495740E+02 -0.64961659296E+01  0.32246162789E+02  0.43881635329E+02  0.00000000000E+00 0. -1.
<scales pt_clust_5="13000.00000" pt_clust_6="13000.00000" pt_clust_7="13000.00000" pt_clust_8="13000.00000" pt_clust_9="29.76211"></scales>
<clustering>
<clus scale="   29.762">  1  9  2 -1</clus>
<clus scale="   92.471">  7  8 -1 -1</clus>
<clus scale="  102.528">  5  6 -1 -1</clus>
<clus scale="  145.611">  1  7  2 -1</clus>
<clus scale="   29.762">  1  5  2 -1</clus>
</clustering>
</event>
<event>
 9    1  0.1315259E-005  0.1254831E+03  0.7546771E-02  0.1234941E+00
          2   -1    0    0  502    0 -0.00000000000E+00  0.00000000000E+00  0.80141540699E+03  0.80141540699E+03  0.00000000000E+00 0. -1.
         21   -1    0    0  501  502  0.00000000000E+00 -0.00000000000E+00 -0.28859443661E+02  0.28859443661E+02  0.00000000000E+00 0. -1.
         23    2    1    2    0    0 -0.62270823803E+02 -0.59625825994E+02  0.34615856198E+03  0.36847073751E+03  0.92260716157E+02 0.  0.
         23    2    1    2    0    0  0.80579442929E+02  0.32803722162E+02  0.22237917981E+03  0.25521741098E+03  0.90079389684E+02 0.  0.
        -11    1    3    3    0    0 -0.55103343622E+02  0.77520543873E+01  0.19572608882E+03  0.20348261515E+03  0.00000000000E+00 0.  1.
         11    1    3    3    0    0 -0.71674801801E+01 -0.67377880381E+02  0.15043247316E+03  0.16498812236E+03  0.00000000000E+00 0. -1.
        -11    1    4    4    0    0  0.94613533601E+02  0.11915992329E+02  0.19987464483E+03  0.22145786340E+03  0.00000000000E+00 0. -1.
         11    1    4    4    0    0 -0.14034090672E+02  0.20887729834E+02  0.22504534971E+02  0.33759547581E+02  0.00000000000E+00 0.  1.
          2    1    1    2  501    0 -0.18308619127E+02  0.26822103832E+02  0.20401822154E+03  0.20658670216E+03  0.00000000000E+00 0. -1.
<scales pt_clust_5="13000.00000" pt_clust_6="13000.00000" pt_clust_7="13000.00000" pt_clust_8="13000.00000" pt_clust_9="32.47510"></scales>
<clustering>
<clus scale="   32.475">  2  9  1 -1</clus>
<clus scale="   90.079">  7  8 -1 -1</clus>
<clus scale="   92.261">  5  6 -1 -1</clus>
<clus scale="  123.888">  2  7  1 -1</clus>
<clus scale="   32.475">  2  5  1 -1</clus>
</clustering>
</event>
<event>
 9    1  0.1315259E-005  0.9190895E+02  0.7546771E-02  0.1299441E+00
          2   -1    0    0  502    0 -0.00000000000E+00  0.00000000000E+00  0.64512695031E+03  0.64512695031E+03  0.00000000000E+00 0. -1.
         21   -1    0    0  501  502  0.00000000000E+00 -0.00000000000E+00 -0.16050376724E+02  0.16050376724E+02  0.00000000000E+00 0.  1.
         23    2    1    2    0    0 -0.71424792553E+01  0.11383090622E+02  0.29309343225E+03  0.30744214336E+03  0.91849451397E+02 0.  0.
         23    2    1    2    0    0 -0.30760058375E+01  0.63329580288E+01  0.27260731142E+03  0.28714110259E+03  0.89920511517E+02 0.  0.
        -11    1    4    4    0    0  0.18718096883E+02 -0.33363151224E+02  0.72502972557E+02  0.81976509075E+02  0.00000000000E+00 0. -1.
         11    1    4    4    0    0 -0.21794102720E+02  0.39696109252E+02  0.20010433886E+03  0.20516459352E+03  0.00000000000E+00 0.  1.
        -13    1    3    3    0    0  0.52557406991E+01  0.46210742639E+02  0.93211557866E+02  0.10417029358E+03  0.00000000000E+00 0. -1.
         13    1    3    3    0    0 -0.12398219954E+02 -0.34827652017E+02  0.19988187439E+03  0.20327184978E+03  0.00000000000E+00 0.  1.
          2    1    1    2  501    0  0.10218485093E+02 -0.17716048651E+02  0.63375829915E+02  0.66594081079E+02  0.00000000000E+00 0. -1.
<scales pt_clust_5="13000.00000" pt_clust_6="13000.00000" pt_clust_7="13000.00000" pt_clust_8="13000.00000" pt_clust_9="20.45180"></scales>
<clustering>
<clus scale="   20.452">  2  9  1 -1</clus>
<clus scale="   89.921">  5  6 -1 -1</clus>
<clus scale="   89.981">  2  5  1 -1</clus>
<clus scale="   91.849">  7  8 -1 -1</clus>
<clus scale="   20.452">  2  5  1 -1</clus>
</clustering>
</event>
<event>
 9    1  0.1315259E-005  0.1107331E+03  0.7546771E-02  0.1259667E+00
         21   -1    0    0  501  502  0.00000000000E+00  0.00000000000E+00  0.31568555773E+03  0.31568555773E+03  0.00000000000E+00 0. -1.
         -1   -1    0    0    0  501 -0.00000000000E+00 -0.00000000000E+00 -0.23882006376E+03  0.23882006376E+03  0.00000000000E+00 0.  1.
         23    2    1    2    0    0 -0.56924435974E+02  0.82324112576E+01 -0.18165129726E+03  0.21145337167E+03  0.91690624329E+02 0.  0.
         23    2    1    2    0    0  0.93551976897E+02 -0.13150061435E+02  0.65097779059E+02  0.14613431181E+03  0.90513091616E+02 0.  0.
        -13    1    4    4    0    0  0.38555973588E+02 -0.82695976156E+01 -0.20370481887E+02  0.44383621712E+02  0.00000000000E+00 0.  1.
         13    1    4    4    0    0  0.54996003309E+02 -0.48804638196E+01  0.85468260946E+02  0.10175069010E+03  0.00000000000E+00 0. -1.
        -13    1    3    3    0    0 -0.18468458523E+02  0.37641754209E+02 -0.14441109466E+03  0.15037469827E+03  0.00000000000E+00 0.  1.
         13    1    3    3    0    0 -0.38455977451E+02 -0.29409342951E+02 -0.37240202598E+02  0.61078673398E+02  0.00000000000E+00 0. -1.
         -1    1    1    2    0  502 -0.36627540923E+02  0.49176501775E+01  0.19341901217E+03  0.19691793800E+03  0.00000000000E+00 0.  1.
<scales pt_clust_5="13000.00000" pt_clust_6="13000.00000" pt_clust_7="13000.00000" pt_clust_8="13000.00000" pt_clust_9="36.95619"></scales>
<clustering>
<clus scale="   36.956">  1  9  2 -1</clus>
<clus scale="   90.513">  5  6 -1 -1</clus>
<clus scale="   91.691">  7  8 -1 -1</clus>
<clus scale="  109.760">  1  5  2 -1</clus>
<clus scale="   36.956">  1  5  2 -1</clus>
</clustering>
</event>
<event>
 9    1  0.1496585E-005  0.9571642E+02  0.7546771E-02  0.1291324E+00
         21   -1    0    0  501  502  0.00000000000E+00  0.00000000000E+00  0.29945628814E+03  0.29945628814E+03  0.00000000000E+00 0. -1.
          1   -1    0    0  502    0 -0.00000000000E+00 -0.00000000000E+00 -0.21157454454E+03  0.21157454454E+03  0.00000000000E+00 0. -1.
         23    2    1    2    0    0 -0.20412423655E+02  0.16601687045E+02 -0.14208906430E+03  0.17031894870E+03  0.90149648027E+02 0.  0.
         23    2    1    2    0    0  0.22394434146E+02  0.41569387836E+02  0.11382847617E+01  0.10459300298E+03  0.93321358193E+02 0.  0.
        -11    1    3    3    0    0  0.27163036088E+02  0.27724869387E+02 -0.33604183057E+02  0.51339458811E+02  0.00000000000E+00 0. -1.
         11    1    3    3    0    0 -0.47575459744E+02 -0.11123182342E+02 -0.10848488125E+03  0.11897948989E+03  0.00000000000E+00 0.  1.
        -13    1    4    4    0    0  0.35251768495E+02 -0.20689491211E+02  0.30812915179E+01  0.40990689016E+02  0.00000000000E+00 0.  1.
         13    1    4    4    0    0 -0.12857334349E+02  0.62258879047E+02 -0.19430067562E+01  0.63602313967E+02  0.00000000000E+00 0. -1.
          1    1    1    2  501    0 -0.19820104905E+01 -0.58171074881E+02  0.22883252314E+03  0.23611888100E+03  0.00000000000E+00 0. -1.
<scales pt_clust_5="13000.00000" pt_clust_6="13000.00000" pt_clust_7="13000.00000" pt_clust_8="13000.00000" pt_clust_9="58.20483"></scales>
<clustering>
<clus scale="   58.205">  1  9  2 -1</clus>
<clus scale="   90.150">  5  6 -1 -1</clus>
<clus scale="   92.627">  2  5  1 -1</clus>
<clus scale="   93.321">  7  8 -1 -1</clus>
<clus scale="   58.205">  1  5  2 -1</clus>
</clustering>
</event>
<event>
 9    1  0.1315259E-005  0.1644596E+03  0.7546771E-02  0.1184146E+00
          1   -1    0    0  502    0 -0.00000000000E+00  0.00000000000E+00  0.76261391054E+03  0.76261391054E+03  0.00000000000E+00 0. -1.
         21   -1    0    0  501  502  0.00000000000E+00 -0.00000000000E+00 -0.45003781980E+02  0.45003781980E+02  0.00000000000E+00 0.  1.
         23    2    1    2    0    0  0.83589255720E+02  0.12091995086E+03  0.40999275523E+03  0.44487123845E+03  0.90595591904E+02 0.  0.
         23    2    1    2    0    0 -0.59421713974E+02 -0.11246101277E+03  0.29735176784E+03  0.33516011028E+03  0.87953431996E+02 0.  0.
        -13    1    4    4    0    0 -0.78410495039E+02 -0.65047221604E+02  0.22031111766E+03  0.24272687394E+03  0.00000000000E+00 0.  1.
         13    1    4    4    0    0  0.18988781064E+02 -0.47413791166E+02  0.77040650180E+02  0.92433236334E+02  0.00000000000E+00 0. -1.
        -13    1    3    3    0    0  0.21995236588E+02  0.90228209384E+02  0.15442085639E+03  0.18019634039E+03  0.00000000000E+00 0.  1.
         13    1    3    3    0    0  0.61594019132E+02  0.30691741472E+02  0.25557189884E+03  0.26467489806E+03  0.00000000000E+00 0. -1.
          1    1    1    2  501    0 -0.24167541746E+02 -0.84589380861E+01  0.10265605488E+02  0.27586343788E+02  0.00000000000E+00 0. -1.
<scales pt_clust_5="13000.00000" pt_clust_6="13000.00000" pt_clust_7="13000.00000" pt_clust_8="13000.00000" pt_clust_9="25.60515"></scales>
<clustering>
<clus scale="   25.605">  2  9  1 -1</clus>
<clus scale="   87.953">  5  6 -1 -1</clus>
<clus scale="   90.596">  7  8 -1 -1</clus>
<clus scale="  163.019">  2  5  1 -1</clus>
<clus scale="   25.605">  2  5  1 -1</clus>
</clustering>
</event>
<event>
 9    1  0.1315259E-005  0.1063140E+03  0.7546771E-02  0.1269235E+00
          1   -1    0    0  502    0 -0.00000000000E+00  0.00000000000E+00  0.18093488791E+03  0.18093488791E+03  0.00000000000E+00 0. -1.
         21   -1    0    0  501  502  0.00000000000E+00 -0.00000000000E+00 -0.12239190099E+03  0.12239190099E+03  0.00000000000E+00 0. -1.
         23    2    1    2    0    0 -0.76735598949E+01 -0.76051044199E+02  0.75063850335E+02  0.14003514752E+03  0.90181018346E+02 0.  0.
         23    2    1    2    0    0  0.61654571776E+01  0.12511609452E+02  0.74202109010E+01  0.95374712838E+02  0.94057020396E+02 0.  0.
        -11    1    3    3    0    0 -0.39400270916E+02 -0.70696129210E+01  0.13371316805E+02  0.42203707044E+02  0.00000000000E+00 0.  1.
         11    1    3    3    0    0  0.31726711021E+02 -0.68981431278E+02  0.61692533529E+02  0.97831440481E+02  0.00000000000E+00 0. -1.
        -13    1    4    4    0    0 -0.70848931742E+01 -0.35354670780E+02 -0.17189797634E+02  0.39945432779E+02  0.00000000000E+00 0. -1.
         13    1    4    4    0    0  0.13250350352E+02  0.47866280232E+02  0.24610008535E+02  0.55429280058E+02  0.00000000000E+00 0.  1.
          1    1    1    2  501    0  0.15081027174E+01  0.63539434747E+02 -0.23941074321E+02  0.67916928533E+02  0.00000000000E+00 0. -1.
<scales pt_clust_5="13000.00000" pt_clust_6="13000.00000" pt_clust_7="13000.00000" pt_clust_8="13000.00000" pt_clust_9="63.55733"></scales>
<clustering>
<clus scale="   63.557">  2  9  1 -1</clus>
<clus scale="   90.181">  5  6 -1 -1</clus>
<clus scale="   94.057">  7  8 -1 -1</clus>
<clus scale="  102.901">  1  5  2 -1</clus>
<clus scale="   63.557">  2  5  1 -1</clus>
</clustering>
</event>
<event>
 9    1  0.1315259E-005  0.1169941E+03  0.7546771E-02  0.1249262E+00
         -1   -1    0    0    0  501 -0.00000000000E+00  0.00000000000E+00  0.29084985665E+02  0.29084985665E+02  0.00000000000E+00 0.  1.
         21   -1    0    0  501  502  0.00000000000E+00 -0.00000000000E+00 -0.64363989293E+03  0.64363989293E+03  0.00000000000E+00 0. -1.
         23    2    1    2    0    0  0.44579489667E+02 -0.48737946880E+02 -0.22601437028E+03  0.25266432809E+03  0.91619041429E+02 0.  0.
         23    2    1    2    0    0 -0.28042778988E+02  0.80809607669E+02 -0.31532777085E+03  0.33843847413E+03  0.88274614468E+02 0.  0.
        -11    1    3    3    0    0  0.21328224195E+02 -0.68927217096E+02 -0.19908739907E+03  0.21175846352E+03  0.00000000000E+00 0.  1.
         11    1    3    3    0    0  0.23251265471E+02  0.20189270216E+02 -0.26926971209E+02  0.40905864572E+02  0.00000000000E+00 0. -1.
        -13    1    4    4    0    0 -0.22067177891E+02 -0.10094893167E+02 -0.28193523364E+02  0.37198682339E+02  0.00000000000E+00 0.  1.
         13    1    4    4    0    0 -0.59756010970E+01  0.90904500835E+02 -0.28713424748E+03  0.30123979179E+03  0.00000000000E+00 0. -1.
         -1    1    1    2    0  502 -0.16536710679E+02 -0.32071660788E+02 -0.73212766137E+02  0.81622076371E+02  0.00000000000E+00 0.  1.
<scales pt_clust_5="13000.00000" pt_clust_6="13000.00000" pt_clust_7="13000.00000" pt_clust_8="13000.00000" pt_clust_9="36.08401"></scales>
<clustering>
<clus scale="   36.084">  2  9  1 -1</clus>
<clus scale="   88.275">  7  8 -1 -1</clus>
<clus scale="   91.619">  5  6 -1 -1</clus>
<clus scale="  114.394">  2  7  1 -1</clus>
<clus scale="   36.084">  2  5  1 -1</clus>
</clustering>
</event>
<event>
 9    1  0.2014064E-005  0.1109779E+03  0.7546771E-02  0.1259872E+00
         21   -1    0    0  501  502  0.00000000000E+00  0.00000000000E+00  0.86159486388E+02  0.86159486388E+02  0.00000000000E+00 0. -1.
          1   -1    0    0  502    0 -0.00000000000E+00 -0.00000000000E+00 -0.65672200447E+03  0.65672200447E+03  0.00000000000E+00 0. -1.
         23    2    1    2    0    0  0.35301863551E+02 -0.55098637010E+02 -0.49455639296E+03  0.50654547377E+03  0.87864724472E+02 0.  0.
         23    2    1    2    0    0 -0.82641242392E+01  0.62554082611E+02 -0.13291611546E+03  0.17289021332E+03  0.90791096000E+02 0.  0.
        -11    1    4    4    0    0 -0.46048324627E+02  0.32698438461E+02 -0.43338508274E+02  0.71188920333E+02  0.00000000000E+00 0.  1.
         11    1    4    4    0    0  0.37784200388E+02  0.29855644149E+02 -0.89577607182E+02  0.10170129299E+03  0.00000000000E+00 0. -1.
        -13    1    3    3    0    0 -0.26038995314E+02 -0.31694248556E+02 -0.13690457440E+03  0.14291751873E+03  0.00000000000E+00 0.  1.
         13    1    3    3    0    0  0.61340858865E+02 -0.23404388454E+02 -0.35765181857E+03  0.36362795504E+03  0.00000000000E+00 0. -1.
          1    1    1    2  501    0 -0.27037739312E+02 -0.74554456002E+01  0.56909990335E+02  0.63445803771E+02  0.00000000000E+00 0. -1.
<scales pt_clust_5="13000.00000" pt_clust_6="13000.00000" pt_clust_7="13000.00000" pt_clust_8="13000.00000" pt_clust_9="28.04680"></scales>
<clustering>
<clus scale="   28.047">  1  9  2 -1</clus>
<clus scale="   87.865">  7  8 -1 -1</clus>
<clus scale="   90.791">  5  6 -1 -1</clus>
<clus scale="  108.597">  2  7  1 -1</clus>
<clus scale="   28.047">  1  5  2 -1</clus>
</clustering>
</event>
<event>
 9    1  0.1315259E-005  0.2630901E+03  0.7546771E-02  0.1105359E+00
         21   -1    0    0  501  502  0.00000000000E+00  0.00000000000E+00  0.85939915754E+02  0.85939915754E+02  0.00000000000E+00 0. -1.
          3   -1    0    0  502    0 -0.00000000000E+00 -0.00000000000E+00 -0.12428949631E+04  0.12428949631E+04  0.00000000000E+00 0. -1.
         23    2    1    2    0    0 -0.85103195285E+02  0.20597428653E+03 -0.59061959107E+03  0.63777669767E+03  0.90882639557E+02 0.  0.
         23    2    1    2    0    0  0.95948370541E+02 -0.26976236276E+03 -0.54637950588E+03  0.62334720385E+03  0.89740458729E+02 0.  0.
        -11    1    3    3    0    0 -0.93753728773E+02  0.11506936124E+03 -0.39244113788E+03  0.41957212283E+03  0.00000000000E+00 0.  1.
         11    1    3    3    0    0  0.86505334875E+01  0.90904925290E+02 -0.19817845319E+03  0.21820457484E+03  0.00000000000E+00 0. -1.
        -13    1    4    4    0    0  0.86410349610E+02 -0.11533910016E+03 -0.23555372291E+03  0.27614382651E+03  0.00000000000E+00 0. -1.
         13    1    4    4    0    0  0.95380209309E+01 -0.15442326260E+03 -0.31082578297E+03  0.34720337734E+03  0.00000000000E+00 0.  1.
          3    1    1    2  501    0 -0.10845175255E+02  0.63788076230E+02 -0.19955950397E+02  0.67710977335E+02  0.00000000000E+00 0. -1.
<scales pt_clust_5="13000.00000" pt_clust_6="13000.00000" pt_clust_7="13000.00000" pt_clust_8="13000.00000" pt_clust_9="64.70345"></scales>
<clustering>
<clus scale="   64.703">  1  9  2 -1</clus>
<clus scale="   89.740">  7  8 -1 -1</clus>
<clus scale="   90.883">  5  6 -1 -1</clus>
<clus scale="  262.698">  1  7  2 -1</clus>
<clus scale="   64.703">  1  5  2 -1</clus>
</clustering>
</event>
<event>
 9    1  0.1315259E-005  0.1104633E+03  0.7546771E-02  0.1260322E+00
          1   -1    0    0  502    0 -0.00000000000E+00  0.00000000000E+00  0.36595364372E+03  0.36595364372E+03  0.00000000000E+00 0. -1.
         21   -1    0    0  501  502  0.00000000000E+00 -0.00000000000E+00 -0.67611769462E+02  0.67611769462E+02  0.00000000000E+00 0.  1.
         23    2    1    2    0    0 -0.55475555015E+02 -0.33152469267E+02  0.27467739340E+03  0.29612341262E+03  0.89804129255E+02 0.  0.
         23    2    1    2    0    0  0.31071979119E+02  0.46669076045E+02  0.22282676224E+02  0.10951096837E+03  0.91392909943E+02 0.  0.
        -11    1    3    3    0    0 -0.18227250127E+02 -0.51333094518E+02  0.78078500348E+02  0.95202791223E+02  0.00000000000E+00 0. -1.
         11    1    3    3    0    0 -0.37248304888E+02  0.18180625251E+02  0.19659889305E+03  0.20092062139E+03  0.00000000000E+00 0.  1.
        -13    1    4    4    0    0  0.47243747345E+02  0.32275656481E+01  0.37840358116E+02  0.60615852262E+02  0.00000000000E+00 0. -1.
         13    1    4    4    0    0 -0.16171768226E+02  0.43441510397E+02 -0.15557681892E+02  0.48895116106E+02  0.00000000000E+00 0.  1.
          1    1    1    2  501    0  0.24403575896E+02 -0.13516606778E+02  0.13818046287E+01  0.27931032193E+02  0.00000000000E+00 0. -1.
<scales pt_clust_5="13000.00000" pt_clust_6="13000.00000" pt_clust_7="13000.00000" pt_clust_8="13000.00000" pt_clust_9="27.89683"></scales>
<clustering>
<clus scale="   27.897">  2  9  1 -1</clus>
<clus scale="   89.804">  5  6 -1 -1</clus>
<clus scale="   91.393">  7  8 -1 -1</clus>
<clus scale="  109.152">  1  5  2 -1</clus>
<clus scale="   27.897">  2  5  1 -1</clus>
</clustering>
</event>
<event>
 9    1  0.1315259E-005  0.1205969E+03  0.7546771E-02  0.1243846E+00
          1   -1    0    0  502    0 -0.00000000000E+00  0.00000000000E+00  0.35845103092E+03  0.35845103092E+03  0.00000000000E+00 0. -1.
         21   -1    0    0  501  502  0.00000000000E+00 -0.00000000000E+00 -0.14468776287E+03  0.14468776287E+03  0.00000000000E+00 0. -1.
         23    2    1    2    0    0 -0.29242981210E+02 -0.57333897145E+02  0.21571349063E+03  0.24484736074E+03  0.96309876485E+02 0.  0.
         23    2    1    2    0    0  0.77640886011E+02  0.61754190703E+02  0.84596394612E+02  0.15903311787E+03  0.91067531807E+02 0.  0.
        -11    1    4    4    0    0  0.18865704399E+02 -0.68168375142E+01  0.63079136457E+02  0.66191853973E+02  0.00000000000E+00 0.  1.
         11    1    4    4    0    0  0.58775181612E+02  0.68571028217E+02  0.21517258155E+02  0.92841263901E+02  0.00000000000E+00 0. -1.
        -13    1    3    3    0    0 -0.13465656711E+02 -0.83786405750E+02  0.16404865782E+03  0.18469826159E+03  0.00000000000E+00 0. -1.
         13    1    3    3    0    0 -0.15777324499E+02  0.26452508605E+02  0.51664832812E+02  0.60149099157E+02  0.00000000000E+00 0.  1.
          1    1    1    2  501    0 -0.48397904801E+02 -0.44202935576E+01 -0.86546617194E+02  0.99258315178E+02  0.00000000000E+00 0. -1.
<scales pt_clust_5="13000.00000" pt_clust_6="13000.00000" pt_clust_7="13000.00000" pt_clust_8="13000.00000" pt_clust_9="48.59934"></scales>
<clustering>
<clus scale="   48.599">  2  9  1 -1</clus>
<clus scale="   91.068">  5  6 -1 -1</clus>
<clus scale="   96.310">  7  8 -1 -1</clus>
<clus scale="  116.453">  2  5  1 -1</clus>
<clus scale="   48.599">  2  5  1 -1</clus>
</clustering>
</event>
<event>
 9    1  0.1315259E-005  0.1453841E+03  0.7546771E-02  0.1207846E+00
         21   -1    0    0  501  502  0.00000000000E+00  0.00000000000E+00  0.99639277858E+02  0.99639277858E+02  0.00000000000E+00 0.  1.
          1   -1    0    0  502    0 -0.00000000000E+00 -0.00000000000E+00 -0.51264220325E+03  0.51264220325E+03  0.00000000000E+00 0. -1.
         23    2    1    2    0    0  0.97134346314E+02  0.46187110449E+02 -0.37276727060E+03  0.39860826752E+03  0.91459184876E+02 0.  0.
         23    2    1    2    0    0 -0.13194090246E+03 -0.39368986082E+02 -0.61424201943E+02  0.17235811101E+03  0.83522853403E+02 0.  0.
        -13    1    4    4    0    0 -0.11430577853E+03 -0.62634168952E+02 -0.40669734601E+02  0.13653892279E+03  0.00000000000E+00 0.  1.
         13    1    4    4    0    0 -0.17635123932E+02  0.23265182870E+02 -0.20754467342E+02  0.35819188220E+02  0.00000000000E+00 0. -1.
        -13    1    3    3    0    0  0.14750191693E+02 -0.18166222077E+02 -0.20345148177E+02  0.31008141413E+02  0.00000000000E+00 0.  1.
         13    1    3    3    0    0  0.82384154622E+02  0.64353332526E+02 -0.35242212242E+03  0.36760012611E+03  0.00000000000E+00 0. -1.
          1    1    1    2  501    0  0.34806556144E+02 -0.68181243667E+01  0.21188547153E+02  0.41315102576E+02  0.00000000000E+00 0. -1.
<scales pt_clust_5="13000.00000" pt_clust_6="13000.00000" pt_clust_7="13000.00000" pt_clust_8="13000.00000" pt_clust_9="35.46806"></scales>
<clustering>
<clus scale="   35.468">  1  9  2 -1</clus>
<clus scale="   83.523">  5  6 -1 -1</clus>
<clus scale="   91.459">  7  8 -1 -1</clus>
<clus scale="  140.527">  1  5  2 -1</clus>
<clus scale="   35.468">  1  5  2 -1</clus>
</clustering>
</event>
<event>
 9    1  0.1315259E-005  0.1004334E+03  0.7546771E-02  0.1280772E+00
          1   -1    0    0  502    0 -0.00000000000E+00  0.00000000000E+00  0.88243375090E+02  0.88243375090E+02  0.00000000000E+00 0. -1.
         21   -1    0    0  501  502  0.00000000000E+00 -0.00000000000E+00 -0.21649326472E+03  0.21649326472E+03  0.00000000000E+00 0.  1.
         23    2    1    2    0    0 -0.12523546294E+02 -0.25409510258E+02 -0.32391331641E+02  0.10039376277E+03  0.90704061734E+02 0.  0.
         23    2    1    2    0    0  0.66355646699E+02  0.51939824830E+01 -0.91288155863E+02  0.14665881362E+03  0.93515939323E+02 0.  0.
        -11    1    4    4    0    0  0.11149960214E+02  0.45193510121E+02 -0.34693014041E+02  0.58054975610E+02  0.00000000000E+00 0. -1.
         11    1    4    4    0    0  0.55205686484E+02 -0.39999527638E+02 -0.56595141823E+02  0.88603838006E+02  0.00000000000E+00 0.  1.
        -13    1    3    3    0    0  0.39297388723E+02 -0.12896030831E+02 -0.18467461976E+02  0.45295027581E+02  0.00000000000E+00 0.  1.
         13    1    3    3    0    0 -0.51820935018E+02 -0.12513479427E+02 -0.13923869665E+02  0.55098735194E+02  0.00000000000E+00 0. -1.
          1    1    1    2  501    0 -0.53832100404E+02  0.20215527775E+02 -0.45704021262E+01  0.57684063421E+02  0.00000000000E+00 0. -1.
<scales pt_clust_5="13000.00000" pt_clust_6="13000.00000" pt_clust_7="13000.00000" pt_clust_8="13000.00000" pt_clust_9="57.50275"></scales>
<clustering>
<clus scale="   57.503">  2  9  1 -1</clus>
<clus scale="   90.704">  7  8 -1 -1</clus>
<clus scale="   93.516">  5  6 -1 -1</clus>
<clus scale="   97.821">  1  7  2 -1</clus>
<clus scale="   57.503">  2  5  1 -1</clus>
</clustering>
</event>
<event>
 9    1  0.1315259E-005  0.1016545E+03  0.7546771E-02  0.1277418E+00
         21   -1    0    0  501  502  0.00000000000E+00  0.00000000000E+00  0.24088133039E+03  0.24088133039E+03  0.00000000000E+00 0. -1.
         -3   -1    0    0    0  501 -0.00000000000E+00 -0.00000000000E+00 -0.80842653983E+02  0.80842653983E+02  0.00000000000E+00 0.  1.
         23    2    1    2    0    0  0.44079430015E+02 -0.31672507568E+02  0.27185817844E+01  0.10587681571E+03  0.90864544967E+02 0.  0.
         23    2    1    2    0    0 -0.22458658771E+02  0.85556255000E+00  0.15191182758E+03  0.17781571850E+03  0.89644314066E+02 0.  0.
        -11    1    3    3    0    0  0.15031957764E+02  0.31179139835E+02 -0.87296728988E+01  0.35697418730E+02  0.00000000000E+00 0.  1.
         11    1    3    3    0    0  0.29047472251E+02 -0.62851647402E+02  0.11448254683E+02  0.70179396981E+02  0.00000000000E+00 0. -1.
        -13    1    4    4    0    0  0.79615298294E+01  0.33070830909E+02  0.21887007413E+02  0.40448818372E+02  0.00000000000E+00 0.  1.
         13    1    4    4    0    0 -0.30420188600E+02 -0.32215268359E+02  0.13002482017E+03  0.13736690012E+03  0.00000000000E+00 0. -1.
         -3    1    1    2    0  502 -0.21620771244E+02  0.30816945018E+02  0.54082670419E+01  0.38031450167E+02  0.00000000000E+00 0.  1.
<scales pt_clust_5="13000.00000" pt_clust_6="13000.00000" pt_clust_7="13000.00000" pt_clust_8="13000.00000" pt_clust_9="37.64496"></scales>
<clustering>
<clus scale="   37.645">  1  9  2 -1</clus>
<clus scale="   89.644">  7  8 -1 -1</clus>
<clus scale="   90.865">  5  6 -1 -1</clus>
<clus scale="  100.565">  1  7  2 -1</clus>
<clus scale="   37.645">  1  5  2 -1</clus>
</clustering>
</event>
<event>
 9    1  0.1315259E-005  0.1288209E+03  0.7546771E-02  0.1229386E+00
         21   -1    0    0  501  502  0.00000000000E+00  0.00000000000E+00  0.54743068050E+03  0.54743068050E+03  0.00000000000E+00 0.  1.
          1   -1    0    0  502    0 -0.00000000000E+00 -0.00000000000E+00 -0.10683884396E+03  0.10683884396E+03  0.00000000000E+00 0. -1.
         23    2    1    2    0    0  0.11989999776E+02 -0.68231267515E+02  0.20972381231E+02  0.11609155053E+03  0.90764207533E+02 0.  0.
         23    2    1    2    0    0 -0.96235145136E+02  0.10879975937E+03  0.86500891244E+02  0.19218516363E+03  0.91400996356E+02 0.  0.
        -11    1    4    4    0    0 -0.71890899013E+02  0.10878103688E+03  0.34668349170E+02  0.13492038311E+03  0.00000000000E+00 0. -1.
         11    1    4    4    0    0 -0.24344246124E+02  0.18722492394E-01  0.51832542074E+02  0.57264780517E+02  0.00000000000E+00 0.  1.
        -11    1    3    3    0    0  0.50259352470E+02 -0.26657040567E+02  0.37306151744E+01  0.57013312586E+02  0.00000000000E+00 0. -1.
         11    1    3    3    0    0 -0.38269352694E+02 -0.41574226949E+02  0.17241766057E+02  0.59078237946E+02  0.00000000000E+00 0.  1.
          1    1    1    2  501    0  0.84245145360E+02 -0.40568491852E+02  0.33311856407E+03  0.34599281029E+03  0.00000000000E+00 0. -1.
<scales pt_clust_5="13000.00000" pt_clust_6="13000.00000" pt_clust_7="13000.00000" pt_clust_8="13000.00000" pt_clust_9="93.50426"></scales>
<clustering>
<clus scale="   90.764">  7  8 -1 -1</clus>
<clus scale="   91.401">  5  6 -1 -1</clus>
<clus scale="   93.504">  1  9  2 -1</clus>
<clus scale="  128.370">  2  7  1 -1</clus>
<clus scale="   93.504">  1  5  2 -1</clus>
</clustering>
</event>
<event>
 9    1  0.1315259E-005  0.4044458E+03  0.7546771E-02  0.1090785E+00
          1   -1    0    0  502    0 -0.00000000000E+00  0.00000000000E+00  0.12589331887E+04  0.12589331887E+04  0.00000000000E+00 0. -1.
         21   -1    0    0  501  502  0.00000000000E+00 -0.00000000000E+00 -0.21702182816E+03  0.21702182816E+03  0.00000000000E+00 0.  1.
         23    2    1    2    0    0 -0.54274515743E+02 -0.94504622527E+01  0.49456823821E+03  0.50573416086E+03  0.90190159789E+02 0.  0.
         23    2    1    2    0    0  0.22992193288E+03  0.34206179308E+03  0.24824532759E+03  0.48965680891E+03  0.90926796573E+02 0.  0.
        -11    1    3    3    0    0 -0.41267025716E+02  0.37457326675E+02  0.30266774823E+03  0.30775604714E+03  0.00000000000E+00 0.  1.
         11    1    3    3    0    0 -0.13007490027E+02 -0.46907788927E+02  0.19190048997E+03  0.19797811372E+03  0.00000000000E+00 0. -1.
        -13    1    4    4    0    0  0.20366416961E+03  0.32337662362E+03  0.25114025429E+03  0.45729964138E+03  0.00000000000E+00 0.  1.
         13    1    4    4    0    0  0.26257763268E+02  0.18685169458E+02 -0.28949266945E+01  0.32357167522E+02  0.00000000000E+00 0. -1.
          1    1    1    2  501    0 -0.17564741713E+03 -0.33261133083E+03  0.29909779472E+03  0.48056404708E+03  0.00000000000E+00 0. -1.
<scales pt_clust_5="13000.00000" pt_clust_6="13000.00000" pt_clust_7="13000.00000" pt_clust_8="13000.00000" pt_clust_9="394.09250"></scales>
<clustering>
<clus scale="   90.190">  5  6 -1 -1</clus>
<clus scale="   90.927">  7  8 -1 -1</clus>
<clus scale="  105.685">  1  5  2 -1</clus>
<clus scale="  394.092">  2  9  1 -1</clus>
<clus scale="  394.092">  2  5  1 -1</clus>
</clustering>
</event>
<event>
 9    1  0.1315259E-005  0.1014368E+03  0.7546771E-02  0.1277734E+00
         21   -1    0    0  501  502  0.00000000000E+00  0.00000000000E+00  0.29889105186E+03  0.29889105186E+03  0.00000000000E+00 0.  1.
         -3   -1    0    0    0  501 -0.00000000000E+00 -0.00000000000E+00 -0.93141069740E+02  0.93141069740E+02  0.00000000000E+00 0.  1.
         23    2    1    2    0    0  0.45146004010E+02  0.15857274778E+01 -0.21248515567E+02  0.10290974017E+03  0.89990216130E+02 0.  0.
         23    2    1    2    0    0 -0.42140427571E+02  0.30447179626E+02  0.63481210431E+02  0.12246991712E+03  0.90918480733E+02 0.  0.
        -11    1    4    4    0    0 -0.74811621055E+01  0.22344617954E+02  0.79877917355E+02  0.83281038772E+02  0.00000000000E+00 0. -1.
         11    1    4    4    0    0 -0.34659265465E+02  0.81025616729E+01 -0.16396706924E+02  0.39188878349E+02  0.00000000000E+00 0.  1.
        -11    1    3    3    0    0  0.30678362193E+02 -0.30829961037E+02  0.20523260327E+02  0.48092126371E+02  0.00000000000E+00 0.  1.
         11    1    3    3    0    0  0.14467641817E+02  0.32415688515E+02 -0.41771775895E+02  0.54817613803E+02  0.00000000000E+00 0. -1.
         -3    1    1    2    0  502 -0.30055764386E+01 -0.32032907104E+02  0.16351728726E+03  0.16665246431E+03  0.00000000000E+00 0.  1.
<scales pt_clust_5="13000.00000" pt_clust_6="13000.00000" pt_clust_7="13000.00000" pt_clust_8="13000.00000" pt_clust_9="32.17360"></scales>
<clustering>
<clus scale="   32.174">  1  9  2 -1</clus>
<clus scale="   89.990">  7  8 -1 -1</clus>
<clus scale="   90.918">  5  6 -1 -1</clus>
<clus scale="  100.606">  2  7  1 -1</clus>
<clus scale="   32.174">  1  5  2 -1</clus>
</clustering>
</event>
<event>
 9    1  0.1315259E-005  0.1551250E+03  0.7546771E-02  0.1194527E+00
          3   -1    0    0  502    0 -0.00000000000E+00  0.00000000000E+00  0.10087217934E+03  0.10087217934E+03  0.00000000000E+00 0. -1.
         21   -1    0    0  501  502  0.00000000000E+00 -0.00000000000E+00 -0.10990652270E+04  0.10990652270E+04  0.00000000000E+00 0. -1.
         23    2    1    2    0    0  0.72248845081E+02  0.11795439556E+02 -0.10102448670E+03  0.15618846743E+03  0.93967347695E+02 0.  0.
         23    2    1    2    0    0 -0.18387304676E+03  0.75788721842E+00 -0.83287415718E+02  0.22215289037E+03  0.92764440195E+02 0.  0.
        -11    1    3    3    0    0  0.52192388680E+02  0.33660791324E+02 -0.10901143943E+03  0.12546150101E+03  0.00000000000E+00 0. -1.
         11    1    3    3    0    0  0.20056456401E+02 -0.21865351768E+02  0.79869527259E+01  0.30726966417E+02  0.00000000000E+00 0.  1.
        -13    1    4    4    0    0 -0.17347510082E+03  0.25030607429E+02 -0.55568624139E+02  0.18386955675E+03  0.00000000000E+00 0. -1.
         13    1    4    4    0    0 -0.10397945944E+02 -0.24272720210E+02 -0.27718791579E+02  0.38283333618E+02  0.00000000000E+00 0.  1.
          3    1    1    2  501    0  0.11162420168E+03 -0.12553326774E+02 -0.81388114522E+03  0.82159604853E+03  0.00000000000E+00 0. -1.
<scales pt_clust_5="13000.00000" pt_clust_6="13000.00000" pt_clust_7="13000.00000" pt_clust_8="13000.00000" pt_clust_9="112.32786"></scales>
<clustering>
<clus scale="   92.764">  7  8 -1 -1</clus>
<clus scale="   93.967">  5  6 -1 -1</clus>
<clus scale="  112.328">  2  9  1 -1</clus>
<clus scale="  154.399">  2  7  1 -1</clus>
<clus scale="  112.328">  2  5  1 -1</clus>
</clustering>
</event>
<event>
 9    1  0.2014559E-005  0.1887828E+03  0.7546771E-02  0.1179419E+00
         21   -1    0    0  501  502  0.00000000000E+00  0.00000000000E+00  0.19095649588E+03  0.19095649588E+03  0.00000000000E+00 0. -1.
          1   -1    0    0  502    0 -0.00000000000E+00 -0.00000000000E+00 -0.77900736715E+03  0.77900736715E+03  0.00000000000E+00 0. -1.
         23    2    1    2    0    0  0.70867298458E+02  0.28038889779E+02 -0.10624093263E+03  0.16013826430E+03  0.92459583582E+02 0.  0.
         23    2    1    2    0    0 -0.14230165583E+03 -0.17290472684E+03 -0.57477074454E+03  0.62346388165E+03  0.90553835546E+02 0.  0.
        -13    1    3    3    0    0  0.50243370516E+02  0.61106494437E+02 -0.57849129470E+02  0.98004702559E+02  0.00000000000E+00 0.  1.
         13    1    3    3    0    0  0.20623927941E+02 -0.33067604658E+02 -0.48391803158E+02  0.62133561740E+02  0.00000000000E+00 0. -1.
        -13    1    4    4    0    0 -0.30466386311E+02 -0.38376325171E+01 -0.33319046132E+02  0.45311002564E+02  0.00000000000E+00 0.  1.
         13    1    4    4    0    0 -0.11183526952E+03 -0.16906709432E+03 -0.54145169841E+03  0.57815287909E+03  0.00000000000E+00 0. -1.
          1    1    1    2  501    0  0.71434357370E+02  0.14486583706E+03  0.92960805894E+02  0.18636171708E+03  0.00000000000E+00 0. -1.
<scales pt_clust_5="13000.00000" pt_clust_6="13000.00000" pt_clust_7="13000.00000" pt_clust_8="13000.00000" pt_clust_9="165.64702"></scales>
<clustering>
<clus scale="   90.554">  7  8 -1 -1</clus>
<clus scale="   92.460">  5  6 -1 -1</clus>
<clus scale="  119.821">  2  5  1 -1</clus>
<clus scale="  165.647">  1  9  2 -1</clus>
<clus scale="  165.647">  1  5  2 -1</clus>
</clustering>
</event>
<event>
 9    1  0.1315259E-005  0.9993513E+02  0.7546771E-02  0.1292267E+00
          4   -1    0    0  502    0 -0.00000000000E+00  0.00000000000E+00  0.27176382450E+03  0.27176382450E+03  0.00000000000E+00 0. -1.
         21   -1    0    0  501  502  0.00000000000E+00 -0.00000000000E+00 -0.62928386438E+02  0.62928386438E+02  0.00000000000E+00 0. -1.
         23    2    1    2    0    0 -0.55977161527E+02 -0.15185405318E+01  0.14942112434E+03  0.18526091561E+03  0.94123248336E+02 0.  0.
         23    2    1    2    0    0  0.60156535325E+01 -0.22443645828E+02  0.54742116008E+02  0.93824028827E+02  0.72569578990E+02 0.  0.
        -11    1    4    4    0    0  0.19430583595E+02  0.65828643732E+01 -0.90834293095E+01  0.22436362678E+02  0.00000000000E+00 0.  1.
         11    1    4    4    0    0 -0.13414930063E+02 -0.29026510202E+02  0.63825545318E+02  0.71387666149E+02  0.00000000000E+00 0. -1.
        -11    1    3    3    0    0 -0.59030129272E+02 -0.39553192239E+02  0.90468369952E+02  0.11503711201E+03  0.00000000000E+00 0. -1.
         11    1    3    3    0    0  0.30529677451E+01  0.38034651707E+02  0.58952754386E+02  0.70223803601E+02  0.00000000000E+00 0.  1.
          4    1    1    2  501    0  0.49961507995E+02  0.23962186360E+02  0.46721977200E+01  0.55607266502E+02  0.00000000000E+00 0. -1.
<scales pt_clust_5="13000.00000" pt_clust_6="13000.00000" pt_clust_7="13000.00000" pt_clust_8="13000.00000" pt_clust_9="55.41064"></scales>
<clustering>
<clus scale="   55.411">  2  9  1 -1</clus>
<clus scale="   72.570">  5  6 -1 -1</clus>
<clus scale="   79.964">  2  5  1 -1</clus>
<clus scale="   94.123">  7  8 -1 -1</clus>
<clus scale="   55.411">  2  5  1 -1</clus>
</clustering>
</event>
<event>
 9    1  0.1315259E-005  0.1345788E+03  0.7546771E-02  0.1224497E+00
          2   -1    0    0  502    0 -0.00000000000E+00  0.00000000000E+00  0.26318910690E+03  0.26318910690E+03  0.00000000000E+00 0. -1.
         21   -1    0    0  501  502  0.00000000000E+00 -0.00000000000E+00 -0.17479800404E+03  0.17479800404E+03  0.00000000000E+00 0. -1.
         23    2    1    2    0    0  0.21629028604E+02 -0.74847766776E+02  0.76459806246E+02  0.13735884859E+03  0.83374745852E+02 0.  0.
         23    2    1    2    0    0 -0.28138353796E+02  0.10580895327E+03  0.11905196586E+03  0.18893312296E+03  0.97647595099E+02 0.  0.
        -11    1    3    3    0    0  0.49835227072E+02 -0.22943977887E+02  0.33021000676E+02  0.64034072681E+02  0.00000000000E+00 0.  1.
         11    1    3    3    0    0 -0.28206198468E+02 -0.51903788889E+02  0.43438805570E+02  0.73324775911E+02  0.00000000000E+00 0. -1.
        -13    1    4    4    0    0  0.11661270620E+02  0.10469339976E+03  0.73583102278E+02  0.12849578252E+03  0.00000000000E+00 0. -1.
         13    1    4    4    0    0 -0.39799624417E+02  0.11155535136E+01  0.45468863577E+02  0.60437340431E+02  0.00000000000E+00 0.  1.
          2    1    1    2  501    0  0.65093251928E+01 -0.30961186498E+02 -0.10712066924E+03  0.11169513938E+03  0.00000000000E+00 0. -1.
<scales pt_clust_5="13000.00000" pt_clust_6="13000.00000" pt_clust_7="13000.00000" pt_clust_8="13000.00000" pt_clust_9="31.63805"></scales>
<clustering>
<clus scale="   31.638">  2  9  1 -1</clus>
<clus scale="   83.375">  5  6 -1 -1</clus>
<clus scale="   97.648">  7  8 -1 -1</clus>
<clus scale="  124.610">  1  5  2 -1</clus>
<clus scale="   31.638">  2  5  1 -1</clus>
</clustering>
</event>
<event>
 9    1  0.1315259E-005  0.9847674E+02  0.7546771E-02  0.1287262E+00
         -1   -1    0    0    0  501 -0.00000000000E+00  0.00000000000E+00  0.15851873941E+03  0.15851873941E+03  0.00000000000E+00 0.  1.
         21   -1    0    0  501  502  0.00000000000E+00 -0.00000000000E+00 -0.80831319834E+02  0.80831319834E+02  0.00000000000E+00 0. -1.
         23    2    1    2    0    0  0.10573015178E+02 -0.25999631690E+02  0.22615066258E+02  0.98650266784E+02  0.91829540001E+02 0.  0.
         23    2    1    2    0    0 -0.34159818617E+02  0.29647484405E+02  0.19569558789E+02  0.97920211522E+02  0.84614027525E+02 0.  0.
        -11    1    4    4    0    0 -0.44268566092E+01  0.35341036967E+02  0.45692451349E+02  0.57934325435E+02  0.00000000000E+00 0.  1.
         11    1    4    4    0    0 -0.29732962007E+02 -0.56935525624E+01 -0.26122892559E+02  0.39985886087E+02  0.00000000000E+00 0. -1.
        -11    1    3    3    0    0 -0.31405464718E+02  0.51083234989E+00  0.35456215438E+02  0.47367788390E+02  0.00000000000E+00 0. -1.
         11    1    3    3    0    0  0.41978479896E+02 -0.26510464040E+02 -0.12841149179E+02  0.51282478394E+02  0.00000000000E+00 0.  1.
         -1    1    1    2    0  502  0.23586803439E+02 -0.36478527152E+01  0.35502794533E+02  0.42779580942E+02  0.00000000000E+00 0.  1.
<scales pt_clust_5="13000.00000" pt_clust_6="13000.00000" pt_clust_7="13000.00000" pt_clust_8="13000.00000" pt_clust_9="23.86723"></scales>
<clustering>
<clus scale="   23.867">  2  9  1 -1</clus>
<clus scale="   84.614">  5  6 -1 -1</clus>
<clus scale="   91.785">  2  5  1 -1</clus>
<clus scale="   91.830">  7  8 -1 -1</clus>
<clus scale="   23.867">  2  5  1 -1</clus>
</clustering>
</event>
<event>
 9    1  0.1315259E-005  0.1839343E+03  0.7546771E-02  0.1181253E+00
         21   -1    0    0  501  502  0.00000000000E+00  0.00000000000E+00  0.11457345854E+03  0.11457345854E+03  0.00000000000E+00 0.  1.
         -3   -1    0    0    0  501 -0.00000000000E+00 -0.00000000000E+00 -0.68017712661E+03  0.68017712661E+03  0.00000000000E+00 0.  1.
         23    2    1    2    0    0  0.85868776086E+02 -0.38511052758E+01 -0.55986782431E+02  0.13634400086E+03  0.89815861882E+02 0.  0.
         23    2    1    2    0    0 -0.22399397013E+03 -0.27696593177E+02 -0.43355753767E+03  0.49759970968E+03  0.93235897972E+02 0.  0.
        -11    1    4    4    0    0 -0.21380169069E+03  0.43071979006E+00 -0.38995678409E+03  0.44472198273E+03  0.00000000000E+00 0.  1.
         11    1    4    4    0    0 -0.10192279447E+02 -0.28127312967E+02 -0.43600753582E+02  0.52877726955E+02  0.00000000000E+00 0. -1.
        -13    1    3    3    0    0  0.97849669234E+02  0.16529314769E+02 -0.36599636061E+02  0.10577007788E+03  0.00000000000E+00 0.  1.
         13    1    3    3    0    0 -0.11980893148E+02 -0.20380420045E+02 -0.19387146370E+02  0.30573922977E+02  0.00000000000E+00 0. -1.
         -3    1    1    2    0  502  0.13812519405E+03  0.31547698452E+02 -0.76059347968E+02  0.16080687461E+03  0.00000000000E+00 0.  1.
<scales pt_clust_5="13000.00000" pt_clust_6="13000.00000" pt_clust_7="13000.00000" pt_clust_8="13000.00000" pt_clust_9="158.55247"></scales>
<clustering>
<clus scale="   89.816">  7  8 -1 -1</clus>
<clus scale="   93.236">  5  6 -1 -1</clus>
<clus scale="  124.319">  2  7  1 -1</clus>
<clus scale="  158.552">  1  9  2 -1</clus>
<clus scale="  158.552">  1  5  2 -1</clus>
</clustering>
</event>
<event>
 9    1  0.1315259E-005  0.9485888E+02  0.7546771E-02  0.1291707E+00
          2   -1    0    0  502    0 -0.00000000000E+00  0.00000000000E+00  0.33966298844E+03  0.33966298844E+03  0.00000000000E+00 0. -1.
         21   -1    0    0  501  502  0.00000000000E+00 -0.00000000000E+00 -0.11805718695E+03  0.11805718695E+03  0.00000000000E+00 0. -1.
         23    2    1    2    0    0  0.16371753529E+02  0.72467373948E+01  0.20195344708E+03  0.22240627473E+03  0.91426510026E+02 0.  0.
         23    2    1    2    0    0 -0.39273394618E+02 -0.72885885057E+01  0.10638739655E+03  0.14560629533E+03  0.91035114378E+02 0.  0.
        -13    1    3    3    0    0  0.17249441347E+01  0.45469574040E+02  0.64129994781E+02  0.78632778320E+02  0.00000000000E+00 0.  1.
         13    1    3    3    0    0  0.14646809394E+02 -0.38222836645E+02  0.13782345230E+03  0.14377349641E+03  0.00000000000E+00 0. -1.
        -13    1    4    4    0    0  0.89892811600E+01 -0.39228962896E+02  0.55399515261E+02  0.68474995413E+02  0.00000000000E+00 0.  1.
         13    1    4    4    0    0 -0.48262675778E+02  0.31940374391E+02  0.50987881285E+02  0.77131299920E+02  0.00000000000E+00 0. -1.
          2    1    1    2  501    0  0.22901641089E+02  0.41851110874E-01 -0.86735042145E+02  0.89707605318E+02  0.00000000000E+00 0. -1.
<scales pt_clust_5="13000.00000" pt_clust_6="13000.00000" pt_clust_7="13000.00000" pt_clust_8="13000.00000" pt_clust_9="22.90168"></scales>
<clustering>
<clus scale="   22.902">  2  9  1 -1</clus>
<clus scale="   91.035">  7  8 -1 -1</clus>
<clus scale="   91.427">  5  6 -1 -1</clus>
<clus scale="   94.482">  2  7  1 -1</clus>
<clus scale="   22.902">  2  5  1 -1</clus>
</clustering>
</event>
<event>
 9    1  0.1315259E-005  0.9311897E+02  0.7546771E-02  0.1296744E+00
          3   -1    0    0  502    0 -0.00000000000E+00  0.00000000000E+00  0.22012131953E+03  0.22012131953E+03  0.00000000000E+00 0. -1.
         21   -1    0    0  501  502  0.00000000000E+00 -0.00000000000E+00 -0.50215959615E+02  0.50215959615E+02  0.00000000000E+00 0.  1.
         23    2    1    2    0    0  0.21399488240E+02 -0.15109096135E+02  0.97651023758E+02  0.13468933290E+03  0.88990286391E+02 0.  0.
         23    2    1    2    0    0 -0.10534787356E+02 -0.30487474049E+01  0.48676395246E+02  0.10396722175E+03  0.91211376147E+02 0.  0.
        -13    1    3    3    0    0  0.44158090952E+01 -0.36311103620E+02  0.35556430218E+01  0.36751030100E+02  0.00000000000E+00 0.  1.
         13    1    3    3    0    0  0.16983679145E+02  0.21202007485E+02  0.94095380736E+02  0.97938302796E+02  0.00000000000E+00 0. -1.
        -13    1    4    4    0    0  0.84974875910E+01  0.36592810850E+02  0.46720153017E+02  0.59950094239E+02  0.00000000000E+00 0. -1.
         13    1    4    4    0    0 -0.19032274947E+02 -0.39641558255E+02  0.19562422284E+01  0.44017127510E+02  0.00000000000E+00 0.  1.
          3    1    1    2  501    0 -0.10864700884E+02  0.18157843540E+02  0.23577940911E+02  0.31680724501E+02  0.00000000000E+00 0. -1.
<scales pt_clust_5="13000.00000" pt_clust_6="13000.00000" pt_clust_7="13000.00000" pt_clust_8="13000.00000" pt_clust_9="21.16009"></scales>
<clustering>
<clus scale="   21.160">  2  9  1 -1</clus>
<clus scale="   88.990">  5  6 -1 -1</clus>
<clus scale="   90.944">  1  5  2 -1</clus>
<clus scale="   91.211">  7  8 -1 -1</clus>
<clus scale="   21.160">  2  5  1 -1</clus>
</clustering>
</event>
<event>
 9    1  0.1315259E-005  0.2272127E+03  0.7546771E-02  0.1145760E+00
          3   -1    0    0  502    0 -0.00000000000E+00  0.00000000000E+00  0.34774998847E+03  0.34774998847E+03  0.00000000000E+00 0. -1.
         21   -1    0    0  501  502  0.00000000000E+00 -0.00000000000E+00 -0.38754818830E+03  0.38754818830E+03  0.00000000000E+00 0. -1.
         23    2    1    2    0    0 -0.91144496012E+02 -0.76025382651E+02 -0.77520624929E+02  0.16879711989E+03  0.91628829714E+02 0.  0.
         23    2    1    2    0    0  0.17032968488E+03 -0.12209409431E+03  0.19562962959E+03  0.30106498827E+03  0.91923912958E+02 0.  0.
        -11    1    4    4    0    0  0.45544283727E+02 -0.82493479558E+02  0.55797205824E+02  0.10951157075E+03  0.00000000000E+00 0. -1.
         11    1    4    4    0    0  0.12478540115E+03 -0.39600614754E+02  0.13983242376E+03  0.19155341752E+03  0.00000000000E+00 0.  1.
        -13    1    3    3    0    0 -0.75613538974E+02 -0.90413780739E+02 -0.37784782191E+02  0.12377297277E+03  0.00000000000E+00 0. -1.
         13    1    3    3    0    0 -0.15530957038E+02  0.14388398087E+02 -0.39735842737E+02  0.45024147122E+02  0.00000000000E+00 0.  1.
          3    1    1    2  501    0 -0.79185188869E+02  0.19811947696E+03 -0.15790720448E+03  0.26543606861E+03  0.00000000000E+00 0. -1.
<scales pt_clust_5="13000.00000" pt_clust_6="13000.00000" pt_clust_7="13000.00000" pt_clust_8="13000.00000" pt_clust_9="207.78742"></scales>
<clustering>
<clus scale="   91.629">  7  8 -1 -1</clus>
<clus scale="   91.924">  5  6 -1 -1</clus>
<clus scale="  149.943">  1  7  2 -1</clus>
<clus scale="  207.787">  2  9  1 -1</clus>
<clus scale="  207.787">  2  5  1 -1</clus>
</clustering>
</event>
<event>
 9    1  0.1315259E-005  0.1225772E+03  0.7546771E-02  0.1239100E+00
         -2   -1    0    0    0  501 -0.00000000000E+00  0.00000000000E+00  0.35542116525E+03  0.35542116525E+03  0.00000000000E+00 0.  1.
         21   -1    0    0  501  502  0.00000000000E+00 -0.00000000000E+00 -0.13843582821E+03  0.13843582821E+03  0.00000000000E+00 0.  1.
         23    2    1    2    0    0 -0.24106487889E+02 -0.72698114767E+02  0.26768704130E+03  0.29280611454E+03  0.90625217154E+02 0.  0.
         23    2    1    2    0    0  0.40431862392E+02  0.11148520197E+03 -0.24955337722E+02  0.15171700236E+03  0.91277566634E+02 0.  0.
        -13    1    3    3    0    0 -0.35201588103E+02 -0.13968532520E+02  0.31760942132E+02  0.49427008314E+02  0.00000000000E+00 0. -1.
         13    1    3    3    0    0  0.11095100214E+02 -0.58729582247E+02  0.23592609917E+03  0.24337910623E+03  0.00000000000E+00 0.  1.
        -13    1    4    4    0    0  0.35342329410E+02  0.32263550311E+02  0.28792585744E+02  0.55848275897E+02  0.00000000000E+00 0. -1.
         13    1    4    4    0    0  0.50895329819E+01  0.79221651654E+02 -0.53747923466E+02  0.95868726463E+02  0.00000000000E+00 0.  1.
         -2    1    1    2    0  502 -0.16325374503E+02 -0.38787087198E+02 -0.25746366547E+02  0.49333876559E+02  0.00000000000E+00 0.  1.
<scales pt_clust_5="13000.00000" pt_clust_6="13000.00000" pt_clust_7="13000.00000" pt_clust_8="13000.00000" pt_clust_9="42.08273"></scales>
<clustering>
<clus scale="   42.083">  2  9  1 -1</clus>
<clus scale="   90.625">  5  6 -1 -1</clus>
<clus scale="   91.278">  7  8 -1 -1</clus>
<clus scale="  122.092">  1  5  2 -1</clus>
<clus scale="   42.083">  2  5  1 -1</clus>
</clustering>
</event>
<event>
 9    1  0.1315259E-005  0.9616331E+02  0.7546771E-02  0.1288938E+00
          1   -1    0    0  502    0 -0.00000000000E+00  0.00000000000E+00  0.21259036750E+03  0.21259036750E+03  0.00000000000E+00 0. -1.
         21   -1    0    0  501  502  0.00000000000E+00 -0.00000000000E+00 -0.21327799824E+03  0.21327799824E+03  0.00000000000E+00 0.  1.
         23    2    1    2    0    0 -0.29094092107E+02 -0.15721925384E+02  0.18031056605E+03  0.20396530120E+03  0.89422025993E+02 0.  0.
         23    2    1    2    0    0  0.23415401242E+02  0.38188534900E+02 -0.11976799666E+03  0.15643449588E+03  0.90115111186E+02 0.  0.
        -11    1    3    3    0    0 -0.87498573427E+01  0.26992561529E+02  0.13672069035E+03  0.13963418475E+03  0.00000000000E+00 0. -1.
         11    1    3    3    0    0 -0.20344234764E+02 -0.42714486913E+02  0.43589875697E+02  0.64331116450E+02  0.00000000000E+00 0.  1.
        -13    1    4    4    0    0  0.82293604601E+01  0.64296749214E+02 -0.55156121708E+02  0.85111644884E+02  0.00000000000E+00 0.  1.
         13    1    4    4    0    0  0.15186040782E+02 -0.26108214314E+02 -0.64611874955E+02  0.71322850998E+02  0.00000000000E+00 0. -1.
          1    1    1    2  501    0  0.56786908649E+01 -0.22466609516E+02 -0.61230200133E+02  0.65468568652E+02  0.00000000000E+00 0. -1.
<scales pt_clust_5="13000.00000" pt_clust_6="13000.00000" pt_clust_7="13000.00000" pt_clust_8="13000.00000" pt_clust_9="23.17318"></scales>
<clustering>
<clus scale="   23.173">  2  9  1 -1</clus>
<clus scale="   89.422">  5  6 -1 -1</clus>
<clus scale="   90.115">  7  8 -1 -1</clus>
<clus scale="   95.514">  1  5  2 -1</clus>
<clus scale="   23.173">  2  5  1 -1</clus>
</clustering>
</event>
<event>
 9    1  0.1315259E-005  0.9417005E+02  0.7546771E-02  0.1293765E+00
         21   -1    0    0  501  502  0.00000000000E+00  0.00000000000E+00  0.19396092072E+03  0.19396092072E+03  0.00000000000E+00 0.  1.
          1   -1    0    0  502    0 -0.00000000000E+00 -0.00000000000E+00 -0.91973050552E+02  0.91973050552E+02  0.00000000000E+00 0. -1.
         23    2    1    2    0    0 -0.14773584718E+02 -0.24898442484E+01 -0.22085589776E+02  0.94894126080E+02  0.91064064037E+02 0.  0.
         23    2    1    2    0    0  0.18438342087E+02  0.38383084422E+02  0.11565626052E+03  0.15399116933E+03  0.92323756456E+02 0.  0.
        -13    1    4    4    0    0  0.45080487180E+02  0.48465697473E+02  0.10386085627E+03  0.12315945607E+03  0.00000000000E+00 0.  1.
         13    1    4    4    0    0 -0.26642145093E+02 -0.10082613050E+02  0.11795404257E+02  0.30831713262E+02  0.00000000000E+00 0. -1.
        -13    1    3    3    0    0  0.81394475396E+01 -0.43518724102E+02 -0.17757884518E+02  0.47701912082E+02  0.00000000000E+00 0. -1.
         13    1    3    3    0    0 -0.22913032258E+02  0.41028879853E+02 -0.43277052584E+01  0.47192213998E+02  0.00000000000E+00 0.  1.
          1    1    1    2  501    0 -0.36647573690E+01 -0.35893240174E+02  0.84171994218E+01  0.37048675858E+02  0.00000000000E+00 0. -1.
<scales pt_clust_5="13000.00000" pt_clust_6="13000.00000" pt_clust_7="13000.00000" pt_clust_8="13000.00000" pt_clust_9="36.07986"></scales>
<clustering>
<clus scale="   36.080">  1  9  2 -1</clus>
<clus scale="   91.064">  7  8 -1 -1</clus>
<clus scale="   92.324">  5  6 -1 -1</clus>
<clus scale="   92.935">  2  7  1 -1</clus>
<clus scale="   36.080">  1  5  2 -1</clus>
</clustering>
</event>
<event>
 9    1  0.1315259E-005  0.9747951E+02  0.7546771E-02  0.1285829E+00
         21   -1    0    0  501  502  0.00000000000E+00  0.00000000000E+00  0.48912003343E+02  0.48912003343E+02  0.00000000000E+00 0. -1.
          1   -1    0    0  502    0 -0.00000000000E+00 -0.00000000000E+00 -0.61507053446E+03  0.61507053446E+03  0.00000000000E+00 0. -1.
         23    2    1    2    0    0  0.20999564343E+02 -0.49775708831E+02 -0.41954103849E+03  0.43262646196E+03  0.90732407214E+02 0.  0.
         23    2    1    2    0    0 -0.16963631179E+02 -0.13738600937E+02 -0.13898539318E+03  0.16725767302E+03  0.90452615932E+02 0.  0.
        -11    1    4    4    0    0 -0.47861854948E+02  0.50765421660E+01 -0.42483814491E+02  0.64198153658E+02  0.00000000000E+00 0. -1.
         11    1    4    4    0    0  0.30898223769E+02 -0.18815143103E+02 -0.96501578688E+02  0.10305951936E+03  0.00000000000E+00 0.  1.
        -11    1    3    3    0    0  0.15460074686E+02  0.25656145405E+02 -0.12158288807E+03  0.12521841070E+03  0.00000000000E+00 0.  1.
         11    1    3    3    0    0  0.55394896563E+01 -0.75431854236E+02 -0.29795815042E+03  0.30740805126E+03  0.00000000000E+00 0. -1.
          1    1    1    2  501    0 -0.40359331636E+01  0.63514309767E+02 -0.76320994421E+01  0.64098402816E+02  0.00000000000E+00 0. -1.
<scales pt_clust_5="13000.00000" pt_clust_6="13000.00000" pt_clust_7="13000.00000" pt_clust_8="13000.00000" pt_clust_9="63.64241"></scales>
<clustering>
<clus scale="   63.642">  1  9  2 -1</clus>
<clus scale="   90.453">  5  6 -1 -1</clus>
<clus scale="   90.732">  7  8 -1 -1</clus>
<clus scale="   97.219">  1  5  2 -1</clus>
<clus scale="   63.642">  1  5  2 -1</clus>
</clustering>
</event>
<event>
 9    1  0.1315259E-005  0.1104047E+03  0.7546771E-02  0.1262457E+00
          1   -1    0    0  502    0 -0.00000000000E+00  0.00000000000E+00  0.26407398589E+03  0.26407398589E+03  0.00000000000E+00 0. -1.
         21   -1    0    0  501  502  0.00000000000E+00 -0.00000000000E+00 -0.72110739942E+02  0.72110739942E+02  0.00000000000E+00 0.  1.
         23    2    1    2    0    0 -0.37089884504E+02  0.23455435565E+02  0.10373360947E+03  0.14833383628E+03  0.96521750190E+02 0.  0.
         23    2    1    2    0    0  0.56767268156E+02 -0.28650991139E+02  0.11157430610E+03  0.15688047101E+03  0.90106905261E+02 0.  0.
        -11    1    3    3    0    0  0.11369842669E+02  0.25322494294E+02 -0.59669374288E+01  0.28392012641E+02  0.00000000000E+00 0.  1.
         11    1    3    3    0    0 -0.48459727172E+02 -0.18670587286E+01  0.10970054690E+03  0.11994182363E+03  0.00000000000E+00 0. -1.
        -13    1    4    4    0    0 -0.54795512635E+01 -0.41086366317E+02  0.68850811441E+02  0.80365099486E+02  0.00000000000E+00 0.  1.
         13    1    4    4    0    0  0.62246819420E+02  0.12435375179E+02  0.42723494655E+02  0.76515371522E+02  0.00000000000E+00 0. -1.
          1    1    1    2  501    0 -0.19677383653E+02  0.51955555739E+01 -0.23344669624E+02  0.30970418547E+02  0.00000000000E+00 0. -1.
<scales pt_clust_5="13000.00000" pt_clust_6="13000.00000" pt_clust_7="13000.00000" pt_clust_8="13000.00000" pt_clust_9="20.35174"></scales>
<clustering>
<clus scale="   20.352">  2  9  1 -1</clus>
<clus scale="   90.107">  7  8 -1 -1</clus>
<clus scale="   96.522">  5  6 -1 -1</clus>
<clus scale="  104.843">  2  7  1 -1</clus>
<clus scale="   20.352">  2  5  1 -1</clus>
</clustering>
</event>
<event>
 9    1  0.1315259E-005  0.1442767E+03  0.7546771E-02  0.1213851E+00
         21   -1    0    0  501  502  0.00000000000E+00  0.00000000000E+00  0.23787674549E+03  0.23787674549E+03  0.00000000000E+00 0. -1.
          1   -1    0    0  502    0 -0.00000000000E+00 -0.00000000000E+00 -0.11921382015E+03  0.11921382015E+03  0.00000000000E+00 0. -1.
         23    2    1    2    0    0 -0.10892114080E+03  0.51525648751E+02 -0.21900538619E+02  0.13555487994E+03  0.58110106619E+02 0.  0.
         23    2    1    2    0    0  0.84656095978E+02 -0.45554933363E+02  0.76073880987E+02  0.15237393215E+03  0.90491288473E+02 0.  0.
        -11    1    4    4    0    0  0.62623576009E+02 -0.63761104051E+02  0.84066269118E+02  0.12269608089E+03  0.00000000000E+00 0. -1.
         11    1    4    4    0    0  0.22032519969E+02  0.18206170687E+02 -0.79923881313E+01  0.29677851259E+02  0.00000000000E+00 0.  1.
        -13    1    3    3    0    0 -0.53848575530E+02  0.24640324472E+02 -0.40226351513E+02  0.71588923953E+02  0.00000000000E+00 0. -1.
         13    1    3    3    0    0 -0.55072565271E+02  0.26885324280E+02  0.18325812894E+02  0.63965955987E+02  0.00000000000E+00 0.  1.
          1    1    1    2  501    0  0.24265044823E+02 -0.59707153880E+01  0.64489582974E+02  0.69161753554E+02  0.00000000000E+00 0. -1.
<scales pt_clust_5="13000.00000" pt_clust_6="13000.00000" pt_clust_7="13000.00000" pt_clust_8="13000.00000" pt_clust_9="24.98883"></scales>
<clustering>
<clus scale="   24.989">  1  9  2 -1</clus>
<clus scale="   58.110">  7  8 -1 -1</clus>
<clus scale="   90.491">  5  6 -1 -1</clus>
<clus scale="  126.506">  2  7  1 -1</clus>
<clus scale="   24.989">  1  5  2 -1</clus>
</clustering>
</event>
<event>
 9    1  0.1315259E-005  0.9750582E+02  0.7546771E-02  0.1290391E+00
          3   -1    0    0  502    0 -0.00000000000E+00  0.00000000000E+00  0.26879334499E+03  0.26879334499E+03  0.00000000000E+00 0. -1.
         21   -1    0    0  501  502  0.00000000000E+00 -0.00000000000E+00 -0.50419784951E+02  0.50419784951E+02  0.00000000000E+00 0.  1.
         23    2    1    2    0    0 -0.13809653722E+02  0.12778418101E+02  0.79146516861E+02  0.11573770683E+03  0.82322847052E+02 0.  0.
         23    2    1    2    0    0  0.52970569945E+02 -0.90878140621E+01  0.11872523900E+03  0.15911866610E+03  0.91294018871E+02 0.  0.
        -11    1    3    3    0    0 -0.20847293058E+02 -0.29523762077E+02  0.16284508628E+02  0.39641485546E+02  0.00000000000E+00 0. -1.
         11    1    3    3    0    0  0.70376393357E+01  0.42302180177E+02  0.62862008233E+02  0.76096221287E+02  0.00000000000E+00 0.  1.
        -13    1    4    4    0    0  0.12043363287E+02 -0.40585123983E+02  0.91315581621E+02  0.10065152922E+03  0.00000000000E+00 0. -1.
         13    1    4    4    0    0  0.40927206658E+02  0.31497309921E+02  0.27409657374E+02  0.58467136876E+02  0.00000000000E+00 0.  1.
          3    1    1    2  501    0 -0.39160916222E+02 -0.36906040387E+01  0.20501804181E+02  0.44356757007E+02  0.00000000000E+00 0. -1.
<scales pt_clust_5="13000.00000" pt_clust_6="13000.00000" pt_clust_7="13000.00000" pt_clust_8="13000.00000" pt_clust_9="39.33444"></scales>
<clustering>
<clus scale="   39.334">  2  9  1 -1</clus>
<clus scale="   82.323">  5  6 -1 -1</clus>
<clus scale="   89.162">  1  5  2 -1</clus>
<clus scale="   91.294">  7  8 -1 -1</clus>
<clus scale="   39.334">  2  5  1 -1</clus>
</clustering>
</event>
<event>
 9    1  0.1315259E-005  0.1657812E+03  0.7546771E-02  0.1191435E+00
          1   -1    0    0  502    0 -0.00000000000E+00  0.00000000000E+00  0.62807307947E+03  0.62807307947E+03  0.00000000000E+00 0. -1.
         21   -1    0    0  501  502  0.00000000000E+00 -0.00000000000E+00 -0.38396158050E+03  0.38396158050E+03  0.00000000000E+00 0. -1.
         23    2    1    2    0    0  0.99273212267E+02 -0.73692157225E+01  0.11785944775E+03  0.17950663770E+03  0.91773130820E+02 0.  0.
         23    2    1    2    0    0 -0.23516369774E+03  0.49225674251E+01  0.43075857213E+03  0.49906673305E+03  0.90490110905E+02 0.  0.
        -13    1    4    4    0    0 -0.53970816403E+02 -0.42251674649E+01  0.19026343250E+03  0.19781525424E+03  0.00000000000E+00 0. -1.
         13    1    4    4    0    0 -0.18119288134E+03  0.91477348900E+01  0.24049513963E+03  0.30125147881E+03  0.00000000000E+00 0.  1.
        -13    1    3    3    0    0  0.73337125387E+02  0.22038089941E+02  0.11755268363E+03  0.14029484951E+03  0.00000000000E+00 0.  1.
         13    1    3    3    0    0  0.25936086880E+02 -0.29407305663E+02  0.30676411164E+00  0.39211788192E+02  0.00000000000E+00 0. -1.
          1    1    1    2  501    0  0.13589048548E+03  0.24466482974E+01 -0.30450652091E+03  0.33346128922E+03  0.00000000000E+00 0. -1.
<scales pt_clust_5="13000.00000" pt_clust_6="13000.00000" pt_clust_7="13000.00000" pt_clust_8="13000.00000" pt_clust_9="138.90630"></scales>
<clustering>
<clus scale="   90.490">  5  6 -1 -1</clus>
<clus scale="   91.773">  7  8 -1 -1</clus>
<clus scale="  135.395">  1  7  2 -1</clus>
<clus scale="  138.906">  2  9  1 -1</clus>
<clus scale="  138.906">  2  5  1 -1</clus>
</clustering>
</event>
<event>
 9    1  0.1315259E-005  0.1421267E+03  0.7546771E-02  0.1210972E+00
         21   -1    0    0  501  502  0.00000000000E+00  0.00000000000E+00  0.81574500191E+02  0.81574500191E+02  0.00000000000E+00 0. -1.
          2   -1    0    0  502    0 -0.00000000000E+00 -0.00000000000E+00 -0.60594839589E+03  0.60594839589E+03  0.00000000000E+00 0. -1.
         23    2    1    2    0    0 -0.81998116923E+02  0.87966386689E+02 -0.47850892247E+03  0.50210029568E+03  0.93124334488E+02 0.  0.
         23    2    1    2    0    0  0.58159101696E+02 -0.40201341334E+02 -0.60462766967E+02  0.13007918356E+03  0.90918748629E+02 0.  0.
        -11    1    3    3    0    0 -0.61935440348E+02  0.16708908307E+02 -0.12043610323E+03  0.13645527234E+03  0.00000000000E+00 0.  1.
         11    1    3    3    0    0 -0.20062676576E+02  0.71257478381E+02 -0.35807281924E+03  0.36564502334E+03  0.00000000000E+00 0. -1.
        -13    1    4    4    0    0  0.34586224647E+02 -0.10157930850E+02  0.19849093166E+02  0.41150662133E+02  0.00000000000E+00 0. -1.
         13    1    4    4    0    0  0.23572877049E+02 -0.30043410484E+02 -0.80311860133E+02  0.88928521431E+02  0.00000000000E+00 0.  1.
          2    1    1    2  501    0  0.23839015228E+02 -0.47765045355E+02  0.14597793740E+02  0.55343416834E+02  0.00000000000E+00 0. -1.
<scales pt_clust_5="13000.00000" pt_clust_6="13000.00000" pt_clust_7="13000.00000" pt_clust_8="13000.00000" pt_clust_9="53.38350"></scales>
<clustering>
<clus scale="   53.384">  1  9  2 -1</clus>
<clus scale="   90.919">  7  8 -1 -1</clus>
<clus scale="   93.124">  5  6 -1 -1</clus>
<clus scale="  140.691">  1  7  2 -1</clus>
<clus scale="   53.384">  1  5  2 -1</clus>
</clustering>
</event>
<event>
 9    1  0.1315259E-005  0.1485002E+03  0.7546771E-02  0.1221529E+00
         21   -1    0    0  501  502  0.00000000000E+00  0.00000000000E+00  0.72767375721E+02  0.72767375721E+02  0.00000000000E+00 0. -1.
          3   -1    0    0  502    0 -0.00000000000E+00 -0.00000000000E+00 -0.60770874168E+03  0.60770874168E+03  0.00000000000E+00 0. -1.
         23    2    1    2    0    0 -0.22502376001E+02 -0.26780373355E+02 -0.26633484367E+03  0.28402850258E+03  0.92273484821E+02 0.  0.
         23    2    1    2    0    0 -0.98548194893E+02  0.54514560422E+02 -0.22206131204E+03  0.26382453069E+03  0.87227132697E+02 0.  0.
        -11    1    3    3    0    0  0.34225064663E+02 -0.19338384562E+02 -0.13857527843E+03  0.14404317395E+03  0.00000000000E+00 0.  1.
         11    1    3    3    0    0 -0.56727440665E+02 -0.74419887933E+01 -0.12775956524E+03  0.13998532863E+03  0.00000000000E+00 0. -1.
        -11    1    4    4    0    0 -0.93596329426E+02  0.73892691411E+02 -0.16670489706E+03  0.20496566890E+03  0.00000000000E+00 0. -1.
         11    1    4    4    0    0 -0.49518654668E+01 -0.19378130988E+02 -0.55356414976E+02  0.58858861790E+02  0.00000000000E+00 0.  1.
          3    1    1    2  501    0  0.12105057089E+03 -0.27734187067E+02 -0.46545210251E+02  0.13262308413E+03  0.00000000000E+00 0. -1.
<scales pt_clust_5="13000.00000" pt_clust_6="13000.00000" pt_clust_7="13000.00000" pt_clust_8="13000.00000" pt_clust_9="120.18214"></scales>
<clustering>
<clus scale="   87.227">  7  8 -1 -1</clus>
<clus scale="   92.273">  5  6 -1 -1</clus>
<clus scale="   98.681">  2  5  1 -1</clus>
<clus scale="  120.182">  1  9  2 -1</clus>
<clus scale="  120.182">  1  5  2 -1</clus>
</clustering>
</event>
<event>
 9    1  0.1315259E-005  0.1017980E+03  0.7546771E-02  0.1276596E+00
          4   -1    0    0  502    0 -0.00000000000E+00  0.00000000000E+00  0.10729319379E+03  0.10729319379E+03  0.00000000000E+00 0. -1.
         21   -1    0    0  501  502  0.00000000000E+00 -0.00000000000E+00 -0.21114446943E+03  0.21114446943E+03  0.00000000000E+00 0. -1.
         23    2    1    2    0    0 -0.54202676100E+02 -0.22924332090E+00  0.42538116189E+02  0.11366766850E+03  0.90403898614E+02 0.  0.
         23    2    1    2    0    0  0.22083901656E+02  0.28652166990E+02 -0.81751295021E+02  0.12719704957E+03  0.90482980694E+02 0.  0.
        -11    1    3    3    0    0 -0.62795012010E+02  0.18036388623E+02 -0.13630546392E+01  0.65348165742E+02  0.00000000000E+00 0. -1.
         11    1    3    3    0    0  0.85923359107E+01 -0.18265631944E+02  0.43901170828E+02  0.48319502758E+02  0.00000000000E+00 0.  1.
        -13    1    4    4    0    0  0.52755756674E+02  0.90994292913E+01 -0.23374191214E+02  0.58415086156E+02  0.00000000000E+00 0.  1.
         13    1    4    4    0    0 -0.30671855018E+02  0.19552737699E+02 -0.58377103807E+02  0.68781963411E+02  0.00000000000E+00 0. -1.
          4    1    1    2  501    0  0.32118774444E+02 -0.28422923669E+02 -0.64638096805E+02  0.77572945156E+02  0.00000000000E+00 0. -1.
<scales pt_clust_5="13000.00000" pt_clust_6="13000.00000" pt_clust_7="13000.00000" pt_clust_8="13000.00000" pt_clust_9="42.88914"></scales>
<clustering>
<clus scale="   42.889">  2  9  1 -1</clus>
<clus scale="   90.404">  5  6 -1 -1</clus>
<clus scale="   90.483">  7  8 -1 -1</clus>
<clus scale="  101.728">  1  5  2 -1</clus>
<clus scale="   42.889">  2  5  1 -1</clus>
</clustering>
</event>
<event>
 9    1  0.1315259E-005  0.4151144E+03  0.7546771E-02  0.1087110E+00
         21   -1    0    0  501  502  0.00000000000E+00  0.00000000000E+00  0.74490872998E+03  0.74490872998E+03  0.00000000000E+00 0. -1.
          2   -1    0    0  502    0 -0.00000000000E+00 -0.00000000000E+00 -0.10134692309E+04  0.10134692309E+04  0.00000000000E+00 0. -1.
         23    2    1    2    0    0 -0.56730249889E+02 -0.13661219009E+02 -0.22470082372E+03  0.24919464253E+03  0.90567982905E+02 0.  0.
         23    2    1    2    0    0 -0.57772000720E+01  0.41357085247E+03 -0.65275568424E+03  0.77802721755E+03  0.90344573078E+02 0.  0.
        -11    1    3    3    0    0  0.18476679007E+02 -0.19358899075E+02 -0.99455289365E+02  0.10299276296E+03  0.00000000000E+00 0.  1.
         11    1    3    3    0    0 -0.75206928896E+02  0.56976800656E+01 -0.12524553435E+03  0.14620187956E+03  0.00000000000E+00 0. -1.
        -11    1    4    4    0    0 -0.13195335712E+02  0.30211920037E+03 -0.54241733302E+03  0.62102068507E+03  0.00000000000E+00 0.  1.
         11    1    4    4    0    0  0.74181356405E+01  0.11145165211E+03 -0.11033835122E+03  0.15700653248E+03  0.00000000000E+00 0. -1.
          2    1    1    2  501    0  0.62507449961E+02 -0.39990963347E+03  0.60889600708E+03  0.73115610076E+03  0.00000000000E+00 0. -1.
<scales pt_clust_5="13000.00000" pt_clust_6="13000.00000" pt_clust_7="13000.00000" pt_clust_8="13000.00000" pt_clust_9="405.16398"></scales>
<clustering>
<clus scale="   90.345">  7  8 -1 -1</clus>
<clus scale="   90.568">  5  6 -1 -1</clus>
<clus scale="  107.738">  2  5  1 -1</clus>
<clus scale="  405.164">  1  9  2 -1</clus>
<clus scale="  405.164">  1  5  2 -1</clus>
</clustering>
</event>
<event>
 9    1  0.1315259E-005  0.1407368E+03  0.7546771E-02  0.1214073E+00
         -2   -1    0    0    0  501 -0.00000000000E+00  0.00000000000E+00  0.21412651257E+03  0.21412651257E+03  0.00000000000E+00 0.  1.
         21   -1    0    0  501  502  0.00000000000E+00 -0.00000000000E+00 -0.14914679242E+03  0.14914679242E+03  0.00000000000E+00 0. -1.
         23    2    1    2    0    0  0.20200907758E+02 -0.72638038856E+02  0.32526594239E+02  0.12665420186E+03  0.96431043506E+02 0.  0.
         23    2    1    2    0    0 -0.80480279608E+02  0.97593232165E+02  0.46457028450E+02  0.16989224476E+03  0.10345822812E+03 0.  0.
        -11    1    4    4    0    0 -0.22131483700E+02 -0.14781249683E+02  0.33244210614E+02  0.42584803067E+02  0.00000000000E+00 0.  1.
         11    1    4    4    0    0 -0.58348795908E+02  0.11237448185E+03  0.13212817836E+02  0.12730744169E+03  0.00000000000E+00 0. -1.
        -13    1    3    3    0    0  0.78121216189E+01  0.23841313565E+02  0.52711916482E+01  0.25636359689E+02  0.00000000000E+00 0. -1.
         13    1    3    3    0    0  0.12388786139E+02 -0.96479352421E+02  0.27255402591E+02  0.10101784217E+03  0.00000000000E+00 0.  1.
         -2    1    1    2    0  502  0.60279371850E+02 -0.24955193309E+02 -0.14003902539E+02  0.66726858386E+02  0.00000000000E+00 0.  1.
<scales pt_clust_5="13000.00000" pt_clust_6="13000.00000" pt_clust_7="13000.00000" pt_clust_8="13000.00000" pt_clust_9="65.24082"></scales>
<clustering>
<clus scale="   65.241">  2  9  1 -1</clus>
<clus scale="   96.431">  7  8 -1 -1</clus>
<clus scale="  103.458">  5  6 -1 -1</clus>
<clus scale="  135.655">  1  7  2 -1</clus>
<clus scale="   65.241">  2  5  1 -1</clus>
</clustering>
</event>
<event>
 9    1  0.1315259E-005  0.9511947E+02  0.7546771E-02  0.1291643E+00
         21   -1    0    0  501  502  0.00000000000E+00  0.00000000000E+00  0.50636597947E+02  0.50636597947E+02  0.00000000000E+00 0. -1.
         -3   -1    0    0    0  501 -0.00000000000E+00 -0.00000000000E+00 -0.29239261687E+03  0.29239261687E+03  0.00000000000E+00 0.  1.
         23    2    1    2    0    0  0.31066011897E+01 -0.18377847975E+02 -0.17845679624E+03  0.20203882982E+03  0.92873378114E+02 0.  0.
         23    2    1    2    0    0  0.19886309922E+02  0.23891416540E+02 -0.66198179684E+02  0.11716860187E+03  0.91542433682E+02 0.  0.
        -11    1    4    4    0    0  0.52425695762E+02  0.15389798505E+02 -0.62989053316E+02  0.83384173030E+02  0.00000000000E+00 0. -1.
         11    1    4    4    0    0 -0.32539385840E+02  0.85016180350E+01 -0.32091263673E+01  0.33784428841E+02  0.00000000000E+00 0.  1.
        -13    1    3    3    0    0 -0.15215981898E+02 -0.49597586136E+02 -0.13962287617E+03  0.14894963647E+03  0.00000000000E+00 0.  1.
         13    1    3    3    0    0  0.18322583087E+02  0.31219738161E+02 -0.38833920071E+02  0.53089193344E+02  0.00000000000E+00 0. -1.
         -3    1    1    2    0  502 -0.22992911112E+02 -0.55135685646E+01  0.28989570023E+01  0.23821783128E+02  0.00000000000E+00 0.  1.
<scales pt_clust_5="13000.00000" pt_clust_6="13000.00000" pt_clust_7="13000.00000" pt_clust_8="13000.00000" pt_clust_9="23.64473"></scales>
<clustering>
<clus scale="   23.645">  1  9  2 -1</clus>
<clus scale="   91.542">  5  6 -1 -1</clus>
<clus scale="   92.873">  7  8 -1 -1</clus>
<clus scale="   93.820">  1  5  2 -1</clus>
<clus scale="   23.645">  1  5  2 -1</clus>
</clustering>
</event>
<event>
 9    1  0.1315259E-005  0.9591374E+02  0.7546771E-02  0.1289862E+00
          1   -1    0    0  502    0 -0.00000000000E+00  0.00000000000E+00  0.19469910573E+03  0.19469910573E+03  0.00000000000E+00 0. -1.
         21   -1    0    0  501  502  0.00000000000E+00 -0.00000000000E+00 -0.15582783088E+03  0.15582783088E+03  0.00000000000E+00 0. -1.
         23    2    1    2    0    0  0.78465465321E+00  0.23015879628E+02  0.11702780401E+03  0.15204861054E+03  0.94302315224E+02 0.  0.
         23    2    1    2    0    0  0.19844666683E+02 -0.22690289501E+01  0.19031556636E+02  0.96981898880E+02  0.92974885180E+02 0.  0.
        -11    1    3    3    0    0  0.21167085886E+02  0.55062359798E+02  0.74593557219E+02  0.95100514037E+02  0.00000000000E+00 0. -1.
         11    1    3    3    0    0 -0.20382431232E+02 -0.32046480170E+02  0.42434246789E+02  0.56948096498E+02  0.00000000000E+00 0.  1.
        -13    1    4    4    0    0  0.36970150893E+02 -0.19443051446E+02  0.45034199442E+02  0.61423964590E+02  0.00000000000E+00 0.  1.
         13    1    4    4    0    0 -0.17125484209E+02  0.17174022496E+02 -0.26002642806E+02  0.35557934290E+02  0.00000000000E+00 0. -1.
          1    1    1    2  501    0 -0.20629321336E+02 -0.20746850678E+02 -0.97188085802E+02  0.10149642720E+03  0.00000000000E+00 0. -1.
<scales pt_clust_5="13000.00000" pt_clust_6="13000.00000" pt_clust_7="13000.00000" pt_clust_8="13000.00000" pt_clust_9="29.25749"></scales>
<clustering>
<clus scale="   29.257">  2  9  1 -1</clus>
<clus scale="   92.975">  7  8 -1 -1</clus>
<clus scale="   94.302">  5  6 -1 -1</clus>
<clus scale="   94.609">  2  7  1 -1</clus>
<clus scale="   29.257">  2  5  1 -1</clus>
</clustering>
</event>
<event>
 9    1  0.1315259E-005  0.1560014E+03  0.7546771E-02  0.1193602E+00
         21   -1    0    0  501  502  0.00000000000E+00  0.00000000000E+00  0.59906778466E+02  0.59906778466E+02  0.00000000000E+00 0.  1.
         -1   -1    0    0    0  501 -0.00000000000E+00 -0.00000000000E+00 -0.10475396848E+04  0.10475396848E+04  0.00000000000E+00 0.  1.
         23    2    1    2    0    0 -0.11295760756E+03  0.17270226811E+02 -0.46653773329E+03  0.48890469678E+03  0.91173812622E+02 0.  0.
         23    2    1    2    0    0  0.13557851429E+03 -0.37167242060E+02 -0.55128248886E+03  0.57589354637E+03  0.89319968725E+02 0.  0.
        -11    1    3    3    0    0 -0.12840657018E+01 -0.24805266632E+02 -0.11537759203E+03  0.11802092535E+03  0.00000000000E+00 0. -1.
         11    1    3    3    0    0 -0.11167354186E+03  0.42075493443E+02 -0.35116014126E+03  0.37088377143E+03  0.00000000000E+00 0.  1.
        -13    1    4    4    0    0  0.83748371953E+02 -0.65955978399E+02 -0.37828589112E+03  0.39301933325E+03  0.00000000000E+00 0.  1.
         13    1    4    4    0    0  0.51830142342E+02  0.28788736339E+02 -0.17299659774E+03  0.18287421312E+03  0.00000000000E+00 0. -1.
         -1    1    1    2    0  502 -0.22620906731E+02  0.19897015249E+02  0.30187315852E+02  0.42648220075E+02  0.00000000000E+00 0.  1.
<scales pt_clust_5="13000.00000" pt_clust_6="13000.00000" pt_clust_7="13000.00000" pt_clust_8="13000.00000" pt_clust_9="30.12634"></scales>
<clustering>
<clus scale="   30.126">  1  9  2 -1</clus>
<clus scale="   89.320">  7  8 -1 -1</clus>
<clus scale="   91.174">  5  6 -1 -1</clus>
<clus scale="  154.925">  1  7  2 -1</clus>
<clus scale="   30.126">  1  5  2 -1</clus>
</clustering>
</event>
<event>
 9    1  0.1315259E-005  0.1006942E+03  0.7546771E-02  0.1281202E+00
         -1   -1    0    0    0  501 -0.00000000000E+00  0.00000000000E+00  0.11738084756E+03  0.11738084756E+03  0.00000000000E+00 0.  1.
         21   -1    0    0  501  502  0.00000000000E+00 -0.00000000000E+00 -0.14459335022E+03  0.14459335022E+03  0.00000000000E+00 0. -1.
         23    2    1    2    0    0  0.78111687688E+01  0.41904059212E+02  0.36847137396E+02  0.10554661412E+03  0.89249155079E+02 0.  0.
         23    2    1    2    0    0  0.22595104106E+02 -0.55713752600E+02 -0.27846245709E+02  0.10716645303E+03  0.84229889564E+02 0.  0.
        -11    1    4    4    0    0 -0.26560093206E+02 -0.57375510089E+01 -0.25134899343E+02  0.37015148354E+02  0.00000000000E+00 0.  1.
         11    1    4    4    0    0  0.49155197312E+02 -0.49976201591E+02 -0.27113463661E+01  0.70151304673E+02  0.00000000000E+00 0. -1.
        -13    1    3    3    0    0  0.41333519935E+02 -0.39225937687E+01  0.21370606957E+02  0.46696353752E+02  0.00000000000E+00 0. -1.
         13    1    3    3    0    0 -0.33522351166E+02  0.45826652981E+02  0.15476530439E+02  0.58850260369E+02  0.00000000000E+00 0.  1.
         -1    1    1    2    0  502 -0.30406272875E+02  0.13809693388E+02 -0.36213394346E+02  0.49261130637E+02  0.00000000000E+00 0.  1.
<scales pt_clust_5="13000.00000" pt_clust_6="13000.00000" pt_clust_7="13000.00000" pt_clust_8="13000.00000" pt_clust_9="33.39534"></scales>
<clustering>
<clus scale="   33.395">  2  9  1 -1</clus>
<clus scale="   84.230">  5  6 -1 -1</clus>
<clus scale="   89.249">  7  8 -1 -1</clus>
<clus scale="   96.274">  2  5  1 -1</clus>
<clus scale="   33.395">  2  5  1 -1</clus>
</clustering>
</event>
<event>
 9    1  0.1315259E-005  0.9715914E+02  0.7546771E-02  0.1287409E+00
         21   -1    0    0  501  502  0.00000000000E+00  0.00000000000E+00  0.91886016591E+02  0.91886016591E+02  0.00000000000E+00 0. -1.
         -1   -1    0    0    0  501 -0.00000000000E+00 -0.00000000000E+00 -0.15453195688E+03  0.15453195688E+03  0.00000000000E+00 0.  1.
         23    2    1    2    0    0  0.21565908953E+02 -0.98526208665E+01 -0.44853170486E+02  0.10595573880E+03  0.93019616831E+02 0.  0.
         23    2    1    2    0    0  0.67007145950E+01  0.30575988690E+02  0.24733068300E+01  0.99975522739E+02  0.94916791138E+02 0.  0.
        -13    1    3    3    0    0  0.51239924148E+02  0.13178771807E+02 -0.83220290811E+01  0.53558062148E+02  0.00000000000E+00 0. -1.
         13    1    3    3    0    0 -0.29674015195E+02 -0.23031392673E+02 -0.36531141405E+02  0.52397676653E+02  0.00000000000E+00 0.  1.
        -13    1    4    4    0    0  0.44307025141E+02  0.41098431631E+02 -0.31838556198E+01  0.60517191739E+02  0.00000000000E+00 0. -1.
         13    1    4    4    0    0 -0.37606310546E+02 -0.10522442941E+02  0.56571624498E+01  0.39458331000E+02  0.00000000000E+00 0.  1.
         -1    1    1    2    0  502 -0.28266623548E+02 -0.20723367824E+02 -0.20266076628E+02  0.40486711927E+02  0.00000000000E+00 0.  1.
<scales pt_clust_5="13000.00000" pt_clust_6="13000.00000" pt_clust_7="13000.00000" pt_clust_8="13000.00000" pt_clust_9="35.04941"></scales>
<clustering>
<clus scale="   35.049">  1  9  2 -1</clus>
<clus scale="   93.020">  5  6 -1 -1</clus>
<clus scale="   94.917">  7  8 -1 -1</clus>
<clus scale="   95.307">  2  5  1 -1</clus>
<clus scale="   35.049">  1  5  2 -1</clus>
</clustering>
</event>
<event>
 9    1  0.1315259E-005  0.1344962E+03  0.7546771E-02  0.1236721E+00
          2   -1    0    0  502    0 -0.00000000000E+00  0.00000000000E+00  0.30558297121E+03  0.30558297121E+03  0.00000000000E+00 0. -1.
         21   -1    0    0  501  502  0.00000000000E+00 -0.00000000000E+00 -0.13591715444E+03  0.13591715444E+03  0.00000000000E+00 0.  1.
         23    2    1    2    0    0 -0.19027339877E+02 -0.27571938798E+02 -0.33159653760E+02  0.10252544843E+03  0.91047534108E+02 0.  0.
         23    2    1    2    0    0  0.21817971097E+02 -0.77249359156E+02  0.20045228574E+03  0.23408938687E+03  0.90405944674E+02 0.  0.
        -11    1    4    4    0    0 -0.34373945705E+02 -0.42565612324E+02  0.96724853153E+02  0.11112648970E+03  0.00000000000E+00 0. -1.
         11    1    4    4    0    0  0.56191916802E+02 -0.34683746831E+02  0.10372743259E+03  0.12296289716E+03  0.00000000000E+00 0.  1.
        -13    1    3    3    0    0 -0.14932159691E+02  0.20422421491E+02 -0.46155504353E+02  0.52634354510E+02  0.00000000000E+00 0.  1.
         13    1    3    3    0    0 -0.40951801855E+01 -0.47994360289E+02  0.12995850593E+02  0.49891093924E+02  0.00000000000E+00 0. -1.
          2    1    1    2  501    0 -0.27906312203E+01  0.10482129795E+03  0.23731847903E+01  0.10488529036E+03  0.00000000000E+00 0. -1.
<scales pt_clust_5="13000.00000" pt_clust_6="13000.00000" pt_clust_7="13000.00000" pt_clust_8="13000.00000" pt_clust_9="99.57911"></scales>
<clustering>
<clus scale="   90.406">  5  6 -1 -1</clus>
<clus scale="   91.048">  7  8 -1 -1</clus>
<clus scale="   97.015">  1  7  2 -1</clus>
<clus scale="   99.579">  2  9  1 -1</clus>
<clus scale="   99.579">  2  5  1 -1</clus>
</clustering>
</event>
<event>
 9    1  0.1315259E-005  0.1148948E+03  0.7546771E-02  0.1254521E+00
          2   -1    0    0  502    0 -0.00000000000E+00  0.00000000000E+00  0.52365712923E+03  0.52365712923E+03  0.00000000000E+00 0. -1.
         21   -1    0    0  501  502  0.00000000000E+00 -0.00000000000E+00 -0.94553811067E+02  0.94553811067E+02  0.00000000000E+00 0.  1.
         23    2    1    2    0    0 -0.36102048243E+02 -0.60752674160E+02  0.20032740447E+03  0.23027678523E+03  0.88893664165E+02 0.  0.
         23    2    1    2    0    0  0.64930007336E+02 -0.17602650088E+02 -0.25588708010E+02  0.12021794555E+03  0.96290255543E+02 0.  0.
        -11    1    4    4    0    0  0.37056556176E+02 -0.20998457543E+02 -0.61390036738E+02  0.74718539771E+02  0.00000000000E+00 0.  1.
         11    1    4    4    0    0  0.27873451160E+02  0.33958074551E+01  0.35801328728E+02  0.45499405782E+02  0.00000000000E+00 0. -1.
        -13    1    3    3    0    0  0.21452357272E+02  0.57457718440E+01  0.66746679001E+02  0.70344414734E+02  0.00000000000E+00 0.  1.
         13    1    3    3    0    0 -0.57554405515E+02 -0.66498446004E+02  0.13358072547E+03  0.15993237049E+03  0.00000000000E+00 0. -1.
          2    1    1    2  501    0 -0.28827959093E+02  0.78355324247E+02  0.25436462171E+03  0.26771620952E+03  0.00000000000E+00 0. -1.
<scales pt_clust_5="13000.00000" pt_clust_6="13000.00000" pt_clust_7="13000.00000" pt_clust_8="13000.00000" pt_clust_9="83.49021"></scales>
<clustering>
<clus scale="   83.490">  2  9  1 -1</clus>
<clus scale="   88.894">  7  8 -1 -1</clus>
<clus scale="   96.290">  5  6 -1 -1</clus>
<clus scale="  108.771">  1  7  2 -1</clus>
<clus scale="   83.490">  2  5  1 -1</clus>
</clustering>
</event>
<event>
 9    1  0.1315259E-005  0.1252210E+03  0.7546771E-02  0.1249385E+00
         21   -1    0    0  501  502  0.00000000000E+00  0.00000000000E+00  0.84544432722E+02  0.84544432722E+02  0.00000000000E+00 0. -1.
          2   -1    0    0  502    0 -0.00000000000E+00 -0.00000000000E+00 -0.31836964599E+03  0.31836964599E+03  0.00000000000E+00 0. -1.
         23    2    1    2    0    0  0.28058331498E+02  0.19076254709E+02 -0.21069217751E+03  0.24620569059E+03  0.12277978235E+03 0.  0.
         23    2    1    2    0    0  0.11780465873E+02 -0.52662767263E+01  0.23665254376E+02  0.93716918645E+02  0.89756913543E+02 0.  0.
        -11    1    3    3    0    0 -0.36219126047E+02 -0.18489640167E+01 -0.15140023316E+02  0.39299670044E+02  0.00000000000E+00 0.  1.
         11    1    3    3    0    0  0.64277457545E+02  0.20925218726E+02 -0.19555215420E+03  0.20690602055E+03  0.00000000000E+00 0. -1.
        -13    1    4    4    0    0  0.36855447437E+02  0.14002765858E+01  0.46363196430E+02  0.59243824687E+02  0.00000000000E+00 0. -1.
         13    1    4    4    0    0 -0.25074981564E+02 -0.66665533122E+01 -0.22697942055E+02  0.34473093958E+02  0.00000000000E+00 0.  1.
          2    1    1    2  501    0 -0.39838797371E+02 -0.13809977983E+02 -0.46798290130E+02  0.62991469478E+02  0.00000000000E+00 0. -1.
<scales pt_clust_5="13000.00000" pt_clust_6="13000.00000" pt_clust_7="13000.00000" pt_clust_8="13000.00000" pt_clust_9="42.16452"></scales>
<clustering>
<clus scale="   42.165">  1  9  2 -1</clus>
<clus scale="   89.757">  7  8 -1 -1</clus>
<clus scale="   93.068">  1  7  2 -1</clus>
<clus scale="  122.780">  5  6 -1 -1</clus>
<clus scale="   42.165">  1  5  2 -1</clus>
</clustering>
</event>
<event>
 9    1  0.1315259E-005  0.1234033E+03  0.7546771E-02  0.1237887E+00
         21   -1    0    0  501  502  0.00000000000E+00  0.00000000000E+00  0.52240030223E+02  0.52240030223E+02  0.00000000000E+00 0. -1.
          1   -1    0    0  502    0 -0.00000000000E+00 -0.00000000000E+00 -0.64332698669E+03  0.64332698669E+03  0.00000000000E+00 0. -1.
         23    2    1    2    0    0 -0.10989742224E+03 -0.98590343347E+01 -0.33833119872E+03  0.36774269244E+03  0.92693278337E+02 0.  0.
         23    2    1    2    0    0  0.47728981219E+02 -0.47013014832E+02 -0.19506165654E+03  0.22570696870E+03  0.91685913077E+02 0.  0.
        -13    1    3    3    0    0 -0.92759316836E+02  0.95590819461E+01 -0.32596770151E+03  0.33904366877E+03  0.00000000000E+00 0. -1.
         13    1    3    3    0    0 -0.17138105400E+02 -0.19418116281E+02 -0.12363497210E+02  0.28699023675E+02  0.00000000000E+00 0.  1.
        -13    1    4    4    0    0  0.69776678807E+02 -0.52442214509E+02 -0.17432375868E+03  0.19495574782E+03  0.00000000000E+00 0.  1.
         13    1    4    4    0    0 -0.22047697587E+02  0.54291996770E+01 -0.20737897856E+02  0.30751220879E+02  0.00000000000E+00 0. -1.
          1    1    1    2  501    0  0.62168441017E+02  0.56872049167E+02 -0.57694101218E+02  0.10211735577E+03  0.00000000000E+00 0. -1.
<scales pt_clust_5="13000.00000" pt_clust_6="13000.00000" pt_clust_7="13000.00000" pt_clust_8="13000.00000" pt_clust_9="84.25761"></scales>
<clustering>
<clus scale="   84.258">  1  9  2 -1</clus>
<clus scale="   91.686">  7  8 -1 -1</clus>
<clus scale="   92.693">  5  6 -1 -1</clus>
<clus scale="  122.648">  1  7  2 -1</clus>
<clus scale="   84.258">  1  5  2 -1</clus>
</clustering>
</event>
<event>
 9    1  0.1315259E-005  0.9326626E+02  0.7546771E-02  0.1295536E+00
         21   -1    0    0  501  502  0.00000000000E+00  0.00000000000E+00  0.38794405174E+03  0.38794405174E+03  0.00000000000E+00 0. -1.
          1   -1    0    0  502    0 -0.00000000000E+00 -0.00000000000E+00 -0.21702377832E+03  0.21702377832E+03  0.00000000000E+00 0. -1.
         23    2    1    2    0    0 -0.80856259598E+01 -0.18129539842E+02 -0.83009397184E+02  0.12596370531E+03  0.92640366327E+02 0.  0.
         23    2    1    2    0    0  0.36997661760E+01 -0.37218363421E+02 -0.87970493546E+02  0.13262521603E+03  0.91933374497E+02 0.  0.
        -13    1    4    4    0    0 -0.88193763795E+01  0.26393055082E+02 -0.66258371593E+01  0.28605532233E+02  0.00000000000E+00 0.  1.
         13    1    4    4    0    0  0.12519142555E+02 -0.63611418503E+02 -0.81344656387E+02  0.10401968380E+03  0.00000000000E+00 0. -1.
        -13    1    3    3    0    0  0.40647122029E+02  0.49824262363E+00 -0.24033228982E+02  0.47223223844E+02  0.00000000000E+00 0.  1.
         13    1    3    3    0    0 -0.48732747989E+02 -0.18627782466E+02 -0.58976168202E+02  0.78740481469E+02  0.00000000000E+00 0. -1.
          1    1    1    2  501    0  0.43858597837E+01  0.55347903263E+02  0.34190016415E+03  0.34637890872E+03  0.00000000000E+00 0. -1.
<scales pt_clust_5="13000.00000" pt_clust_6="13000.00000" pt_clust_7="13000.00000" pt_clust_8="13000.00000" pt_clust_9="55.52140"></scales>
<clustering>
<clus scale="   55.521">  1  9  2 -1</clus>
<clus scale="   91.933">  5  6 -1 -1</clus>
<clus scale="   92.564">  1  5  2 -1</clus>
<clus scale="   92.640">  7  8 -1 -1</clus>
<clus scale="   55.521">  1  5  2 -1</clus>
</clustering>
</event>
<event>
 9    1  0.1315259E-005  0.1473409E+03  0.7546771E-02  0.1203949E+00
          1   -1    0    0  502    0 -0.00000000000E+00  0.00000000000E+00  0.14974644323E+03  0.14974644323E+03  0.00000000000E+00 0. -1.
         21   -1    0    0  501  502  0.00000000000E+00 -0.00000000000E+00 -0.34161693615E+03  0.34161693615E+03  0.00000000000E+00 0. -1.
         23    2    1    2    0    0  0.10648888213E+03 -0.12744196004E+02  0.25616562383E+02  0.14317616176E+03  0.91328574268E+02 0.  0.
         23    2    1    2    0    0 -0.13089896856E+03 -0.10401704790E+02 -0.35811530440E+02  0.16342363524E+03  0.90454869468E+02 0.  0.
        -11    1    3    3    0    0  0.31816243698E+02 -0.34131677818E+02  0.43141403947E+02  0.63548607602E+02  0.00000000000E+00 0.  1.
         11    1    3    3    0    0  0.74672638432E+02  0.21387481814E+02 -0.17524841564E+02  0.79627554154E+02  0.00000000000E+00 0. -1.
        -13    1    4    4    0    0 -0.11844049852E+03 -0.28593393071E+02 -0.55978674569E+00  0.12184435637E+03  0.00000000000E+00 0. -1.
         13    1    4    4    0    0 -0.12458470038E+02  0.18191688280E+02 -0.35251743694E+02  0.41579278874E+02  0.00000000000E+00 0.  1.
          1    1    1    2  501    0  0.24410086431E+02  0.23145900794E+02 -0.18167552486E+03  0.18476358239E+03  0.00000000000E+00 0. -1.
<scales pt_clust_5="13000.00000" pt_clust_6="13000.00000" pt_clust_7="13000.00000" pt_clust_8="13000.00000" pt_clust_9="33.63904"></scales>
<clustering>
<clus scale="   33.639">  2  9  1 -1</clus>
<clus scale="   90.455">  7  8 -1 -1</clus>
<clus scale="   91.329">  5  6 -1 -1</clus>
<clus scale="  146.801">  2  7  1 -1</clus>
<clus scale="   33.639">  2  5  1 -1</clus>
</clustering>
</event>
<event>
 9    1  0.1315259E-005  0.1242962E+03  0.7546771E-02  0.1237186E+00
         21   -1    0    0  501  502  0.00000000000E+00  0.00000000000E+00  0.46385495491E+03  0.46385495491E+03  0.00000000000E+00 0. -1.
         -1   -1    0    0    0  501 -0.00000000000E+00 -0.00000000000E+00 -0.50441038774E+02  0.50441038774E+02  0.00000000000E+00 0.  1.
         23    2    1    2    0    0  0.22247383068E+02 -0.61677590498E+02  0.14866446969E+03  0.18772307772E+03  0.94019987971E+02 0.  0.
         23    2    1    2    0    0 -0.49641409178E+02  0.93710626269E+02  0.24027393753E+03  0.27783280329E+03  0.90628640863E+02 0.  0.
        -11    1    4    4    0    0 -0.34913965630E+02  0.37910250883E+02  0.20226914520E+03  0.20873183566E+03  0.00000000000E+00 0. -1.
         11    1    4    4    0    0 -0.14727443548E+02  0.55800375386E+02  0.38004792329E+02  0.69100967625E+02  0.00000000000E+00 0.  1.
        -13    1    3    3    0    0  0.57098774039E+02 -0.49363190947E+02  0.81660908453E+02  0.11120026343E+03  0.00000000000E+00 0. -1.
         13    1    3    3    0    0 -0.34851390971E+02 -0.12314399551E+02  0.67003561233E+02  0.76522814289E+02  0.00000000000E+00 0.  1.
         -1    1    1    2    0  502  0.27394026110E+02 -0.32033035772E+02  0.24475508922E+02  0.48740112682E+02  0.00000000000E+00 0.  1.
<scales pt_clust_5="13000.00000" pt_clust_6="13000.00000" pt_clust_7="13000.00000" pt_clust_8="13000.00000" pt_clust_9="42.14914"></scales>
<clustering>
<clus scale="   42.149">  1  9  2 -1</clus>
<clus scale="   90.629">  5  6 -1 -1</clus>
<clus scale="   94.020">  7  8 -1 -1</clus>
<clus scale="  121.751">  1  5  2 -1</clus>
<clus scale="   42.149">  1  5  2 -1</clus>
</clustering>
</event>
<event>
 9    1  0.1315259E-005  0.1314558E+03  0.7546771E-02  0.1228388E+00
         21   -1    0    0  501  502  0.00000000000E+00  0.00000000000E+00  0.24084322999E+03  0.24084322999E+03  0.00000000000E+00 0.  1.
          1   -1    0    0  502    0 -0.00000000000E+00 -0.00000000000E+00 -0.14355694075E+03  0.14355694075E+03  0.00000000000E+00 0. -1.
         23    2    1    2    0    0  0.79157725435E+02  0.19916134473E+02 -0.70867600683E+02  0.15088248157E+03  0.10526494436E+03 0.  0.
         23    2    1    2    0    0 -0.63523582823E+02 -0.34511941174E+02  0.82056208678E+02  0.14480312044E+03  0.94912605321E+02 0.  0.
        -11    1    4    4    0    0 -0.26290341417E+02 -0.65281211094E+02  0.55888745679E+02  0.89868628938E+02  0.00000000000E+00 0.  1.
         11    1    4    4    0    0 -0.37233241405E+02  0.30769269920E+02  0.26167463000E+02  0.54934491504E+02  0.00000000000E+00 0. -1.
        -13    1    3    3    0    0  0.49145982807E+00 -0.35710861280E+02 -0.10663195695E+02  0.37272119454E+02  0.00000000000E+00 0.  1.
         13    1    3    3    0    0  0.78666265607E+02  0.55626995754E+02 -0.60204404988E+02  0.11361036212E+03  0.00000000000E+00 0. -1.
          1    1    1    2  501    0 -0.15634142613E+02  0.14595806701E+02  0.86097681242E+02  0.88714568723E+02  0.00000000000E+00 0. -1.
<scales pt_clust_5="13000.00000" pt_clust_6="13000.00000" pt_clust_7="13000.00000" pt_clust_8="13000.00000" pt_clust_9="21.38841"></scales>
<clustering>
<clus scale="   21.388">  1  9  2 -1</clus>
<clus scale="   94.913">  5  6 -1 -1</clus>
<clus scale="  105.265">  7  8 -1 -1</clus>
<clus scale="  123.322">  1  5  2 -1</clus>
<clus scale="   21.388">  1  5  2 -1</clus>
</clustering>
</event>
<event>
 9    1  0.1315259E-005  0.9104030E+02  0.7546771E-02  0.1302289E+00
         -3   -1    0    0    0  501 -0.00000000000E+00  0.00000000000E+00  0.61611792176E+03  0.61611792176E+03  0.00000000000E+00 0.  1.
         21   -1    0    0  501  502  0.00000000000E+00 -0.00000000000E+00 -0.45663847406E+02  0.45663847406E+02  0.00000000000E+00 0.  1.
         23    2    1    2    0    0 -0.10306350822E+02  0.94190926398E+01  0.40568538975E+03  0.41526666490E+03  0.87583259498E+02 0.  0.
         23    2    1    2    0    0 -0.22817794520E+01  0.29035608977E+02  0.17966865049E+03  0.20339626750E+03  0.90779648365E+02 0.  0.
        -11    1    3    3    0    0 -0.49020911805E+02  0.38294530621E+01  0.24537504152E+03  0.25025312287E+03  0.00000000000E+00 0.  1.
         11    1    3    3    0    0  0.38714560983E+02  0.55896395777E+01  0.16031034823E+03  0.16501354203E+03  0.00000000000E+00 0. -1.
        -13    1    4    4    0    0  0.71065064823E+01  0.58544410046E+02  0.14697470776E+03  0.15836513222E+03  0.00000000000E+00 0.  1.
         13    1    4    4    0    0 -0.93882859342E+01 -0.29508801069E+02  0.32693942736E+02  0.45031135283E+02  0.00000000000E+00 0. -1.
         -3    1    1    2    0  502  0.12588130274E+02 -0.38454701617E+02 -0.14899965894E+02  0.43118836764E+02  0.00000000000E+00 0.  1.
<scales pt_clust_5="13000.00000" pt_clust_6="13000.00000" pt_clust_7="13000.00000" pt_clust_8="13000.00000" pt_clust_9="40.46264"></scales>
<clustering>
<clus scale="   40.463">  2  9  1 -1</clus>
<clus scale="   87.583">  5  6 -1 -1</clus>
<clus scale="   87.853">  1  5  2 -1</clus>
<clus scale="   90.780">  7  8 -1 -1</clus>
<clus scale="   40.463">  2  5  1 -1</clus>
</clustering>
</event>
<event>
 9    1  0.1315259E-005  0.1386812E+03  0.7546771E-02  0.1215148E+00
          2   -1    0    0  502    0 -0.00000000000E+00  0.00000000000E+00  0.59287317346E+03  0.59287317346E+03  0.00000000000E+00 0. -1.
         21   -1    0    0  501  502  0.00000000000E+00 -0.00000000000E+00 -0.57467141285E+02  0.57467141285E+02  0.00000000000E+00 0. -1.
         23    2    1    2    0    0 -0.18959788768E+02 -0.91248891780E+02  0.30357474836E+03  0.32954884710E+03  0.88085077874E+02 0.  0.
         23    2    1    2    0    0  0.50996313252E+02  0.13384457736E+03  0.18360812545E+03  0.24891515490E+03  0.87930744061E+02 0.  0.
        -13    1    4    4    0    0  0.21598791677E+01  0.85068859641E+02  0.14927200321E+03  0.17182405798E+03  0.00000000000E+00 0. -1.
         13    1    4    4    0    0  0.48836434085E+02  0.48775717721E+02  0.34336122243E+02  0.77091096918E+02  0.00000000000E+00 0.  1.
        -13    1    3    3    0    0 -0.44496549060E+02 -0.20916195982E+02  0.16361626816E+03  0.17084412000E+03  0.00000000000E+00 0.  1.
         13    1    3    3    0    0  0.25536760292E+02 -0.70332695798E+02  0.13995848020E+03  0.15870472710E+03  0.00000000000E+00 0. -1.
          2    1    1    2  501    0 -0.32036524484E+02 -0.42595685582E+02  0.48223158366E+02  0.71876312747E+02  0.00000000000E+00 0. -1.
<scales pt_clust_5="13000.00000" pt_clust_6="13000.00000" pt_clust_7="13000.00000" pt_clust_8="13000.00000" pt_clust_9="53.29851"></scales>
<clustering>
<clus scale="   53.299">  2  9  1 -1</clus>
<clus scale="   87.931">  5  6 -1 -1</clus>
<clus scale="   88.085">  7  8 -1 -1</clus>
<clus scale="  138.583">  2  5  1 -1</clus>
<clus scale="   53.299">  2  5  1 -1</clus>
</clustering>
</event>
<event>
 9    1  0.1315259E-005  0.1050426E+03  0.7546771E-02  0.1270260E+00
          2   -1    0    0  502    0 -0.00000000000E+00  0.00000000000E+00  0.37131711281E+03  0.37131711281E+03  0.00000000000E+00 0. -1.
         21   -1    0    0  501  502  0.00000000000E+00 -0.00000000000E+00 -0.10420234671E+03  0.10420234671E+03  0.00000000000E+00 0. -1.
         23    2    1    2    0    0 -0.31207490757E+02  0.36045540566E+02  0.23495633037E+03  0.25623718324E+03  0.90442403857E+02 0.  0.
         23    2    1    2    0    0  0.66990249345E+02 -0.23842743746E+02  0.92589047629E+02  0.14799992982E+03  0.90967453238E+02 0.  0.
        -11    1    3    3    0    0  0.19764612109E+02 -0.18798126732E+02  0.67601743125E+02  0.72897223089E+02  0.00000000000E+00 0. -1.
         11    1    3    3    0    0 -0.50972102866E+02  0.54843667299E+02  0.16735458725E+03  0.18333996015E+03  0.00000000000E+00 0.  1.
        -13    1    4    4    0    0  0.25334340865E+02 -0.14211526787E+02 -0.14663634423E+02  0.32539491317E+02  0.00000000000E+00 0.  1.
         13    1    4    4    0    0  0.41655908480E+02 -0.96312169590E+01  0.10725268205E+03  0.11546043850E+03  0.00000000000E+00 0. -1.
          2    1    1    2  501    0 -0.35782758588E+02 -0.12202796820E+02 -0.60430611908E+02  0.71282346468E+02  0.00000000000E+00 0. -1.
<scales pt_clust_5="13000.00000" pt_clust_6="13000.00000" pt_clust_7="13000.00000" pt_clust_8="13000.00000" pt_clust_9="37.80627"></scales>
<clustering>
<clus scale="   37.806">  2  9  1 -1</clus>
<clus scale="   90.442">  5  6 -1 -1</clus>
<clus scale="   90.967">  7  8 -1 -1</clus>
<clus scale="  104.588">  1  5  2 -1</clus>
<clus scale="   37.806">  2  5  1 -1</clus>
</clustering>
</event>
<event>
 9    1  0.1315259E-005  0.1103914E+03  0.7546771E-02  0.1261989E+00
         -1   -1    0    0    0  501 -0.00000000000E+00  0.00000000000E+00  0.17040609977E+03  0.17040609977E+03  0.00000000000E+00 0.  1.
         21   -1    0    0  501  502  0.00000000000E+00 -0.00000000000E+00 -0.15155585429E+03  0.15155585429E+03  0.00000000000E+00 0. -1.
         23    2    1    2    0    0  0.27911645716E+02 -0.51883852695E+02  0.82114477598E+02  0.14017316908E+03  0.97132567982E+02 0.  0.
         23    2    1    2    0    0 -0.41334119059E+02  0.22512391436E+02  0.79558322072E+01  0.10358940461E+03  0.91935587855E+02 0.  0.
        -11    1    4    4    0    0 -0.69709993764E+02  0.26027826693E+02  0.23215661167E+01  0.74446763946E+02  0.00000000000E+00 0. -1.
         11    1    4    4    0    0  0.28375874705E+02 -0.35154352569E+01  0.56342660904E+01  0.29142640661E+02  0.00000000000E+00 0.  1.
        -13    1    3    3    0    0  0.47939471883E+02 -0.14382126277E+01  0.69513862757E+02  0.84453765667E+02  0.00000000000E+00 0.  1.
         13    1    3    3    0    0 -0.20027826166E+02 -0.50445640068E+02  0.12600614841E+02  0.55719403417E+02  0.00000000000E+00 0. -1.
         -1    1    1    2    0  502  0.13422473342E+02  0.29371461260E+02 -0.71220064324E+02  0.78199380365E+02  0.00000000000E+00 0.  1.
<scales pt_clust_5="13000.00000" pt_clust_6="13000.00000" pt_clust_7="13000.00000" pt_clust_8="13000.00000" pt_clust_9="32.29312"></scales>
<clustering>
<clus scale="   32.293">  2  9  1 -1</clus>
<clus scale="   91.936">  5  6 -1 -1</clus>
<clus scale="   97.133">  7  8 -1 -1</clus>
<clus scale="  105.847">  2  5  1 -1</clus>
<clus scale="   32.293">  2  5  1 -1</clus>
</clustering>
</event>
<event>
 9    1  0.1315259E-005  0.1016881E+03  0.7546771E-02  0.1286511E+00
         -1   -1    0    0    0  501 -0.00000000000E+00  0.00000000000E+00  0.52512913125E+03  0.52512913125E+03  0.00000000000E+00 0.  1.
         21   -1    0    0  501  502  0.00000000000E+00 -0.00000000000E+00 -0.10273259319E+03  0.10273259319E+03  0.00000000000E+00 0. -1.
         23    2    1    2    0    0  0.78246821666E+01 -0.34435405238E+02  0.35729206810E+03  0.37053932122E+03  0.91622834780E+02 0.  0.
         23    2    1    2    0    0 -0.12446891882E+02  0.62174271890E+02  0.14426916786E+03  0.17331133883E+03  0.72129481969E+02 0.  0.
        -11    1    4    4    0    0  0.66190734924E+01  0.70438929206E+02  0.13031188207E+03  0.14827893138E+03  0.00000000000E+00 0.  1.
         11    1    4    4    0    0 -0.19065965375E+02 -0.82646573159E+01  0.13957285788E+02  0.25032407451E+02  0.00000000000E+00 0. -1.
        -11    1    3    3    0    0 -0.56181087385E+01  0.29062685158E+02  0.16375087943E+03  0.16640478757E+03  0.00000000000E+00 0.  1.
         11    1    3    3    0    0  0.13442790905E+02 -0.63498090396E+02  0.19354118868E+03  0.20413453364E+03  0.00000000000E+00 0. -1.
         -1    1    1    2    0  502  0.46222097157E+01 -0.27738866651E+02 -0.79164697903E+02  0.84011064390E+02  0.00000000000E+00 0.  1.
<scales pt_clust_5="13000.00000" pt_clust_6="13000.00000" pt_clust_7="13000.00000" pt_clust_8="13000.00000" pt_clust_9="28.12134"></scales>
<clustering>
<clus scale="   28.121">  2  9  1 -1</clus>
<clus scale="   72.129">  5  6 -1 -1</clus>
<clus scale="   84.548">  2  5  1 -1</clus>
<clus scale="   91.623">  7  8 -1 -1</clus>
<clus scale="   28.121">  2  5  1 -1</clus>
</clustering>
</event>
<event>
 9    1  0.1315259E-005  0.1034403E+03  0.7546771E-02  0.1276582E+00
          1   -1    0    0  502    0 -0.00000000000E+00  0.00000000000E+00  0.28139802701E+03  0.28139802701E+03  0.00000000000E+00 0. -1.
         21   -1    0    0  501  502  0.00000000000E+00 -0.00000000000E+00 -0.66263836156E+02  0.66263836156E+02  0.00000000000E+00 0.  1.
         23    2    1    2    0    0  0.26407121644E+02 -0.19889521971E+01  0.12829116790E+03  0.16439734359E+03  0.99330613685E+02 0.  0.
         23    2    1    2    0    0 -0.24978928567E+02  0.24717410423E+02  0.11188347693E+03  0.14941711371E+03  0.92588682937E+02 0.  0.
        -11    1    4    4    0    0 -0.20044269156E+02  0.46289211421E+02  0.18949091201E+02  0.53884430751E+02  0.00000000000E+00 0.  1.
         11    1    4    4    0    0 -0.49346594115E+01 -0.21571800998E+02  0.92934385732E+02  0.95532682958E+02  0.00000000000E+00 0. -1.
        -13    1    3    3    0    0 -0.36421075699E+02 -0.49814240445E+01  0.28833694956E+02  0.46719281945E+02  0.00000000000E+00 0.  1.
         13    1    3    3    0    0  0.62828197343E+02  0.29924718474E+01  0.99457472939E+02  0.11767806165E+03  0.00000000000E+00 0. -1.
          1    1    1    2  501    0 -0.14281930769E+01 -0.22728458226E+02 -0.25040453974E+02  0.33847405868E+02  0.00000000000E+00 0. -1.
<scales pt_clust_5="13000.00000" pt_clust_6="13000.00000" pt_clust_7="13000.00000" pt_clust_8="13000.00000" pt_clust_9="22.77329"></scales>
<clustering>
<clus scale="   22.773">  2  9  1 -1</clus>
<clus scale="   92.589">  5  6 -1 -1</clus>
<clus scale="   96.984">  2  5  1 -1</clus>
<clus scale="   99.331">  7  8 -1 -1</clus>
<clus scale="   22.773">  2  5  1 -1</clus>
</clustering>
</event>
<event>
 9    1  0.1315259E-005  0.1771736E+03  0.7546771E-02  0.1171015E+00
         21   -1    0    0  501  502  0.00000000000E+00  0.00000000000E+00  0.81539395990E+02  0.81539395990E+02  0.00000000000E+00 0.  1.
         -3   -1    0    0    0  501 -0.00000000000E+00 -0.00000000000E+00 -0.84918100894E+03  0.84918100894E+03  0.00000000000E+00 0.  1.
         23    2    1    2    0    0 -0.18242686844E+02  0.15339732569E+03 -0.46530595258E+03  0.49903875695E+03  0.93094125921E+02 0.  0.
         23    2    1    2    0    0  0.56121355205E+02 -0.13810573554E+03 -0.33626065515E+03  0.37858238700E+03  0.89613586283E+02 0.  0.
        -11    1    4    4    0    0  0.73229248408E+02 -0.70142925811E+02 -0.22911500625E+03  0.25055186878E+03  0.00000000000E+00 0.  1.
         11    1    4    4    0    0 -0.17107893203E+02 -0.67962809727E+02 -0.10714564890E+03  0.12803051821E+03  0.00000000000E+00 0. -1.
        -11    1    3    3    0    0  0.38257593289E+02  0.57943238318E+02 -0.17738655295E+03  0.19049160474E+03  0.00000000000E+00 0.  1.
         11    1    3    3    0    0 -0.56500280132E+02  0.95454087377E+02 -0.28791939963E+03  0.30854715221E+03  0.00000000000E+00 0. -1.
         -3    1    1    2    0  502 -0.37878668362E+02 -0.15291590157E+02  0.33924994775E+02  0.53099260982E+02  0.00000000000E+00 0.  1.
<scales pt_clust_5="13000.00000" pt_clust_6="13000.00000" pt_clust_7="13000.00000" pt_clust_8="13000.00000" pt_clust_9="40.84882"></scales>
<clustering>
<clus scale="   40.849">  1  9  2 -1</clus>
<clus scale="   89.614">  5  6 -1 -1</clus>
<clus scale="   93.094">  7  8 -1 -1</clus>
<clus scale="  175.370">  1  5  2 -1</clus>
<clus scale="   40.849">  1  5  2 -1</clus>
</clustering>
</event>
<event>
 9    1  0.1315259E-005  0.1039610E+03  0.7546771E-02  0.1273824E+00
         21   -1    0    0  501  502  0.00000000000E+00  0.00000000000E+00  0.10018452881E+03  0.10018452881E+03  0.00000000000E+00 0.  1.
          4   -1    0    0  502    0 -0.00000000000E+00 -0.00000000000E+00 -0.14850377833E+03  0.14850377833E+03  0.00000000000E+00 0. -1.
         23    2    1    2    0    0  0.48169582366E+02  0.17042618958E+02 -0.61541413408E+02  0.12169506672E+03  0.91714688976E+02 0.  0.
         23    2    1    2    0    0 -0.22898738799E+02 -0.12586073944E+02  0.15175418906E+01  0.98789082856E+02  0.95258692318E+02 0.  0.
        -11    1    3    3    0    0  0.43525042536E+02 -0.62746959837E+01 -0.80204946564E+02  0.91469309556E+02  0.00000000000E+00 0. -1.
         11    1    3    3    0    0  0.46445398300E+01  0.23317314942E+02  0.18663533156E+02  0.30225757165E+02  0.00000000000E+00 0.  1.
        -13    1    4    4    0    0 -0.17413451418E+02  0.28181793290E+02  0.33174502752E+02  0.46882719590E+02  0.00000000000E+00 0.  1.
         13    1    4    4    0    0 -0.54852873810E+01 -0.40767867234E+02 -0.31656960862E+02  0.51906363265E+02  0.00000000000E+00 0. -1.
          4    1    1    2  501    0 -0.25270843567E+02 -0.44565450144E+01  0.11704621996E+02  0.28204157568E+02  0.00000000000E+00 0. -1.
<scales pt_clust_5="13000.00000" pt_clust_6="13000.00000" pt_clust_7="13000.00000" pt_clust_8="13000.00000" pt_clust_9="25.66079"></scales>
<clustering>
<clus scale="   25.661">  1  9  2 -1</clus>
<clus scale="   91.715">  5  6 -1 -1</clus>
<clus scale="   95.259">  7  8 -1 -1</clus>
<clus scale="  100.724">  2  5  1 -1</clus>
<clus scale="   25.661">  1  5  2 -1</clus>
</clustering>
</event>
<event>
 9    1  0.1315259E-005  0.1495732E+03  0.7546771E-02  0.1201272E+00
         21   -1    0    0  501  502  0.00000000000E+00  0.00000000000E+00  0.57966402278E+02  0.57966402278E+02  0.00000000000E+00 0.  1.
          1   -1    0    0  502    0 -0.00000000000E+00 -0.00000000000E+00 -0.56758593589E+03  0.56758593589E+03  0.00000000000E+00 0. -1.
         23    2    1    2    0    0 -0.61842782190E+02  0.89877831078E+02 -0.28588188374E+03  0.31930744134E+03  0.91248213237E+02 0.  0.
         23    2    1    2    0    0  0.77935908433E+02 -0.10732582011E+03 -0.23128935882E+03  0.28133607627E+03  0.89790772487E+02 0.  0.
        -13    1    4    4    0    0  0.22029441358E+02  0.12716886949E+02 -0.57243579648E+02  0.62640585176E+02  0.00000000000E+00 0. -1.
         13    1    4    4    0    0  0.55906467074E+02 -0.12004270706E+03 -0.17404577917E+03  0.21869549110E+03  0.00000000000E+00 0.  1.
        -13    1    3    3    0    0  0.16213830766E+02  0.17925947434E+02 -0.11966563465E+03  0.12208231656E+03  0.00000000000E+00 0.  1.
         13    1    3    3    0    0 -0.78056612956E+02  0.71951883644E+02 -0.16621624908E+03  0.19722512478E+03  0.00000000000E+00 0. -1.
          1    1    1    2  501    0 -0.16093126242E+02  0.17447989031E+02  0.75517089427E+01  0.24908820555E+02  0.00000000000E+00 0. -1.
<scales pt_clust_5="13000.00000" pt_clust_6="13000.00000" pt_clust_7="13000.00000" pt_clust_8="13000.00000" pt_clust_9="23.73649"></scales>
<clustering>
<clus scale="   23.736">  1  9  2 -1</clus>
<clus scale="   89.791">  5  6 -1 -1</clus>
<clus scale="   91.248">  7  8 -1 -1</clus>
<clus scale="  148.689">  1  5  2 -1</clus>
<clus scale="   23.736">  1  5  2 -1</clus>
</clustering>
</event>
<event>
 9    1  0.1315259E-005  0.1335200E+03  0.7546771E-02  0.1226782E+00
         21   -1    0    0  501  502  0.00000000000E+00  0.00000000000E+00  0.62168088437E+02  0.62168088437E+02  0.00000000000E+00 0.  1.
          2   -1    0    0  502    0 -0.00000000000E+00 -0.00000000000E+00 -0.35125985071E+03  0.35125985071E+03  0.00000000000E+00 0. -1.
         23    2    1    2    0    0 -0.86859877559E+02 -0.32220388970E+02 -0.18883822598E+03  0.23597343568E+03  0.10696165183E+03 0.  0.
         23    2    1    2    0    0  0.60902774591E+02  0.25843157652E+02 -0.99600825323E+02  0.15071751961E+03  0.91752000317E+02 0.  0.
        -13    1    3    3    0    0 -0.84333807332E+02 -0.75050056934E+01 -0.57595666812E+02  0.10240008303E+03  0.00000000000E+00 0.  1.
         13    1    3    3    0    0 -0.25260702264E+01 -0.24715383276E+02 -0.13124255917E+03  0.13357335265E+03  0.00000000000E+00 0. -1.
        -13    1    4    4    0    0  0.64097876035E+02  0.49905956776E+02 -0.49717526187E+02  0.95241664433E+02  0.00000000000E+00 0.  1.
         13    1    4    4    0    0 -0.31951014437E+01 -0.24062799124E+02 -0.49883299136E+02  0.55475855177E+02  0.00000000000E+00 0. -1.
          2    1    1    2  501    0  0.25957102968E+02  0.63772313181E+01 -0.65271096511E+00  0.26736983849E+02  0.00000000000E+00 0. -1.
<scales pt_clust_5="13000.00000" pt_clust_6="13000.00000" pt_clust_7="13000.00000" pt_clust_8="13000.00000" pt_clust_9="26.72902"></scales>
<clustering>
<clus scale="   26.729">  1  9  2 -1</clus>
<clus scale="   91.752">  7  8 -1 -1</clus>
<clus scale="  106.962">  5  6 -1 -1</clus>
<clus scale="  121.677">  1  7  2 -1</clus>
<clus scale="   26.729">  1  5  2 -1</clus>
</clustering>
</event>
<event>
 9    1  0.1315259E-005  0.9339486E+02  0.7546771E-02  0.1296767E+00
          2   -1    0    0  502    0 -0.00000000000E+00  0.00000000000E+00  0.15669338212E+03  0.15669338212E+03  0.00000000000E+00 0. -1.
         21   -1    0    0  501  502  0.00000000000E+00 -0.00000000000E+00 -0.11497219917E+03  0.11497219917E+03  0.00000000000E+00 0.  1.
         23    2    1    2    0    0 -0.25809739656E+01  0.42919210077E+01  0.69492284055E+02  0.11489889551E+03  0.91364635571E+02 0.  0.
         23    2    1    2    0    0  0.29793387826E+02 -0.44459385777E+02 -0.48485371111E+01  0.10310678797E+03  0.87995559381E+02 0.  0.
        -11    1    3    3    0    0  0.29451676678E+02  0.35291654604E+02  0.43562538551E+02  0.63329273712E+02  0.00000000000E+00 0.  1.
         11    1    3    3    0    0 -0.32032650643E+02 -0.30999733596E+02  0.25929745504E+02  0.51569621796E+02  0.00000000000E+00 0. -1.
        -13    1    4    4    0    0  0.38050203857E+02  0.16410213642E+02 -0.44710502436E+01  0.41678572619E+02  0.00000000000E+00 0.  1.
         13    1    4    4    0    0 -0.82568160311E+01 -0.60869599419E+02 -0.37748686753E+00  0.61428215347E+02  0.00000000000E+00 0. -1.
          2    1    1    2  501    0 -0.27212413860E+02  0.40167464769E+02 -0.22922563989E+02  0.53659897819E+02  0.00000000000E+00 0. -1.
<scales pt_clust_5="13000.00000" pt_clust_6="13000.00000" pt_clust_7="13000.00000" pt_clust_8="13000.00000" pt_clust_9="48.51743"></scales>
<clustering>
<clus scale="   48.517">  2  9  1 -1</clus>
<clus scale="   87.996">  7  8 -1 -1</clus>
<clus scale="   90.102">  2  7  1 -1</clus>
<clus scale="   91.365">  5  6 -1 -1</clus>
<clus scale="   48.517">  2  5  1 -1</clus>
</clustering>
</event>
<event>
 9    1  0.1315259E-005  0.1082016E+03  0.7546771E-02  0.1266176E+00
         21   -1    0    0  501  502  0.00000000000E+00  0.00000000000E+00  0.14708087943E+03  0.14708087943E+03  0.00000000000E+00 0.  1.
          2   -1    0    0  502    0 -0.00000000000E+00 -0.00000000000E+00 -0.43681113370E+03  0.43681113370E+03  0.00000000000E+00 0. -1.
         23    2    1    2    0    0 -0.37069333071E+02 -0.48825462306E+02 -0.40162932587E+03  0.41626967634E+03  0.90643625370E+02 0.  0.
         23    2    1    2    0    0  0.94814638450E+01  0.30869840166E+02  0.72955878977E+02  0.11663148323E+03  0.85073482444E+02 0.  0.
        -11    1    4    4    0    0  0.39519980489E+02 -0.24941106496E+01  0.12892913269E+02  0.41644647415E+02  0.00000000000E+00 0. -1.
         11    1    4    4    0    0 -0.30038516644E+02  0.33363950816E+02  0.60062965707E+02  0.74986835816E+02  0.00000000000E+00 0.  1.
        -13    1    3    3    0    0 -0.37527985893E+02 -0.74492727928E+02 -0.32045487494E+03  0.33113266694E+03  0.00000000000E+00 0. -1.
         13    1    3    3    0    0  0.45865282154E+00  0.25667265623E+02 -0.81174450921E+02  0.85137009399E+02  0.00000000000E+00 0.  1.
          2    1    1    2  501    0  0.27587869226E+02  0.17955622140E+02  0.38943192626E+02  0.50990853560E+02  0.00000000000E+00 0. -1.
<scales pt_clust_5="13000.00000" pt_clust_6="13000.00000" pt_clust_7="13000.00000" pt_clust_8="13000.00000" pt_clust_9="32.91648"></scales>
<clustering>
<clus scale="   32.916">  1  9  2 -1</clus>
<clus scale="   85.073">  5  6 -1 -1</clus>
<clus scale="   90.644">  7  8 -1 -1</clus>
<clus scale="  103.580">  1  5  2 -1</clus>
<clus scale="   32.916">  1  5  2 -1</clus>
</clustering>
</event>
<event>
 9    1  0.1315259E-005  0.1313090E+03  0.7546771E-02  0.1226098E+00
          2   -1    0    0  502    0 -0.00000000000E+00  0.00000000000E+00  0.39251073055E+03  0.39251073055E+03  0.00000000000E+00 0. -1.
         21   -1    0    0  501  502  0.00000000000E+00 -0.00000000000E+00 -0.78900854489E+02  0.78900854489E+02  0.00000000000E+00 0.  1.
         23    2    1    2    0    0 -0.94086633758E+02 -0.17350887914E+02  0.26927840122E+03  0.30108299097E+03  0.94798534397E+02 0.  0.
         23    2    1    2    0    0  0.76119009779E+02  0.26209500012E+02  0.67202227636E+02  0.13992494538E+03  0.92638055899E+02 0.  0.
        -11    1    3    3    0    0 -0.65356973253E+02 -0.56304488589E+02  0.17481549769E+03  0.19494149794E+03  0.00000000000E+00 0. -1.
         11    1    3    3    0    0 -0.28729660504E+02  0.38953600675E+02  0.94462903532E+02  0.10614149303E+03  0.00000000000E+00 0.  1.
        -13    1    4    4    0    0  0.73012434504E+02 -0.83934544640E+01  0.11660826040E+02  0.74412636924E+02  0.00000000000E+00 0. -1.
         13    1    4    4    0    0  0.31065752746E+01  0.34602954476E+02  0.55541401596E+02  0.65512308459E+02  0.00000000000E+00 0.  1.
          2    1    1    2  501    0  0.17967623979E+02 -0.88586120979E+01 -0.22870752798E+02  0.30403648684E+02  0.00000000000E+00 0. -1.
<scales pt_clust_5="13000.00000" pt_clust_6="13000.00000" pt_clust_7="13000.00000" pt_clust_8="13000.00000" pt_clust_9="20.03274"></scales>
<clustering>
<clus scale="   20.033">  2  9  1 -1</clus>
<clus scale="   92.638">  7  8 -1 -1</clus>
<clus scale="   94.799">  5  6 -1 -1</clus>
<clus scale="  129.758">  2  7  1 -1</clus>
<clus scale="   20.033">  2  5  1 -1</clus>
</clustering>
</event>
<event>
 9    1  0.1315259E-005  0.1575002E+03  0.7546771E-02  0.1191565E+00
         -1   -1    0    0    0  501 -0.00000000000E+00  0.00000000000E+00  0.62334971773E+03  0.62334971773E+03  0.00000000000E+00 0.  1.
         21   -1    0    0  501  502  0.00000000000E+00 -0.00000000000E+00 -0.95131519858E+02  0.95131519858E+02  0.00000000000E+00 0.  1.
         23    2    1    2    0    0 -0.54619958257E+02  0.11610072421E+03  0.42630584898E+03  0.45443649663E+03  0.91176392750E+02 0.  0.
         23    2    1    2    0    0  0.11218395419E+03 -0.86685815928E+02  0.37174076076E+02  0.17255761386E+03  0.91074408632E+02 0.  0.
        -11    1    4    4    0    0  0.95908608496E+02 -0.40547094039E+02 -0.99840335046E+01  0.10460501395E+03  0.00000000000E+00 0.  1.
         11    1    4    4    0    0  0.16275345695E+02 -0.46138721889E+02  0.47158109581E+02  0.67952599909E+02  0.00000000000E+00 0. -1.
        -13    1    3    3    0    0 -0.28791753278E+02  0.12440500932E+03  0.37861917591E+03  0.39957233609E+03  0.00000000000E+00 0.  1.
         13    1    3    3    0    0 -0.25828204980E+02 -0.83042851096E+01  0.47686673069E+02  0.54864160542E+02  0.00000000000E+00 0. -1.
         -1    1    1    2    0  502 -0.57563995934E+02 -0.29414908284E+02  0.64738272823E+02  0.91487127102E+02  0.00000000000E+00 0.  1.
<scales pt_clust_5="13000.00000" pt_clust_6="13000.00000" pt_clust_7="13000.00000" pt_clust_8="13000.00000" pt_clust_9="64.64403"></scales>
<clustering>
<clus scale="   64.644">  2  9  1 -1</clus>
<clus scale="   91.074">  5  6 -1 -1</clus>
<clus scale="   91.176">  7  8 -1 -1</clus>
<clus scale="  157.441">  2  5  1 -1</clus>
<clus scale="   64.644">  2  5  1 -1</clus>
</clustering>
</event>
<event>
 9    1  0.1315259E-005  0.1075047E+03  0.7546771E-02  0.1265959E+00
         21   -1    0    0  501  502  0.00000000000E+00  0.00000000000E+00  0.22173912298E+03  0.22173912298E+03  0.00000000000E+00 0.  1.
          1   -1    0    0  502    0 -0.00000000000E+00 -0.00000000000E+00 -0.16340055916E+03  0.16340055916E+03  0.00000000000E+00 0. -1.
         23    2    1    2    0    0  0.56321703469E+02  0.14977096620E+02 -0.12283386219E+03  0.16319678847E+03  0.90269520673E+02 0.  0.
         23    2    1    2    0    0 -0.32780659502E+02 -0.22240837078E+02  0.12191135455E+03  0.15776488133E+03  0.91968217026E+02 0.  0.
        -11    1    4    4    0    0 -0.31882087846E+02  0.31264185406E+02  0.40156488240E+02  0.60053812221E+02  0.00000000000E+00 0.  1.
         11    1    4    4    0    0 -0.89857165641E+00 -0.53505022484E+02  0.81754866308E+02  0.97711069112E+02  0.00000000000E+00 0. -1.
        -11    1    3    3    0    0  0.36037212208E+02 -0.22497537445E+02 -0.11537821262E+02  0.44022053272E+02  0.00000000000E+00 0.  1.
         11    1    3    3    0    0  0.20284491260E+02  0.37474634065E+02 -0.11129604092E+03  0.11917473520E+03  0.00000000000E+00 0. -1.
          1    1    1    2  501    0 -0.23541043966E+02  0.72637404581E+01  0.59261071462E+02  0.64178012335E+02  0.00000000000E+00 0. -1.
<scales pt_clust_5="13000.00000" pt_clust_6="13000.00000" pt_clust_7="13000.00000" pt_clust_8="13000.00000" pt_clust_9="24.63621"></scales>
<clustering>
<clus scale="   24.636">  1  9  2 -1</clus>
<clus scale="   90.270">  7  8 -1 -1</clus>
<clus scale="   91.968">  5  6 -1 -1</clus>
<clus scale="  106.055">  2  7  1 -1</clus>
<clus scale="   24.636">  1  5  2 -1</clus>
</clustering>
</event>
<event>
 9    1  0.1315259E-005  0.1151189E+03  0.7546771E-02  0.1252745E+00
         -4   -1    0    0    0  501 -0.00000000000E+00  0.00000000000E+00  0.33162514578E+03  0.33162514578E+03  0.00000000000E+00 0.  1.
         21   -1    0    0  501  502  0.00000000000E+00 -0.00000000000E+00 -0.64429120191E+02  0.64429120191E+02  0.00000000000E+00 0.  1.
         23    2    1    2    0    0  0.36429777466E+02  0.42030782473E+02  0.14744888747E+03  0.18228359362E+03  0.91610145316E+02 0.  0.
         23    2    1    2    0    0 -0.72700863690E+02 -0.58209434666E+02  0.11798043590E+03  0.17401565104E+03  0.87683006832E+02 0.  0.
        -11    1    4    4    0    0 -0.43281239876E+02 -0.77774937597E+02  0.10159509785E+03  0.13506950267E+03  0.00000000000E+00 0. -1.
         11    1    4    4    0    0 -0.29419623813E+02  0.19565502931E+02  0.16385338051E+02  0.38946148376E+02  0.00000000000E+00 0.  1.
        -13    1    3    3    0    0  0.62303014184E+02  0.10279409952E+02  0.10973846358E+03  0.12660909223E+03  0.00000000000E+00 0. -1.
         13    1    3    3    0    0 -0.25873236719E+02  0.31751372521E+02  0.37710423886E+02  0.55674501389E+02  0.00000000000E+00 0.  1.
         -4    1    1    2    0  502  0.36271086224E+02  0.16178652193E+02  0.17667022193E+01  0.39755021311E+02  0.00000000000E+00 0.  1.
<scales pt_clust_5="13000.00000" pt_clust_6="13000.00000" pt_clust_7="13000.00000" pt_clust_8="13000.00000" pt_clust_9="39.71575"></scales>
<clustering>
<clus scale="   39.716">  2  9  1 -1</clus>
<clus scale="   87.683">  5  6 -1 -1</clus>
<clus scale="   91.610">  7  8 -1 -1</clus>
<clus scale="  112.019">  2  5  1 -1</clus>
<clus scale="   39.716">  2  5  1 -1</clus>
</clustering>
</event>
<event>
 9    1  0.1315259E-005  0.1003322E+03  0.7546771E-02  0.1280201E+00
         -3   -1    0    0    0  501 -0.00000000000E+00  0.00000000000E+00  0.47540454430E+03  0.47540454430E+03  0.00000000000E+00 0.  1.
         21   -1    0    0  501  502  0.00000000000E+00 -0.00000000000E+00 -0.50603893600E+02  0.50603893600E+02  0.00000000000E+00 0.  1.
         23    2    1    2    0    0  0.14163292661E+02 -0.57326548966E+02  0.33749214164E+03  0.35394418112E+03  0.88817822580E+02 0.  0.
         23    2    1    2    0    0  0.16639788673E+02  0.82008929445E+01  0.44064690248E+02  0.99730393580E+02  0.87523238428E+02 0.  0.
        -11    1    4    4    0    0 -0.19346199469E+02  0.14812131124E+02  0.56141262086E+02  0.61200620674E+02  0.00000000000E+00 0. -1.
         11    1    4    4    0    0  0.35985988142E+02 -0.66112381791E+01 -0.12076571838E+02  0.38529772906E+02  0.00000000000E+00 0.  1.
        -11    1    3    3    0    0 -0.47694566864E+00 -0.75651666737E+02  0.30251093013E+03  0.31182729997E+03  0.00000000000E+00 0.  1.
         11    1    3    3    0    0  0.14640238329E+02  0.18325117771E+02  0.34981211510E+02  0.42116881156E+02  0.00000000000E+00 0. -1.
         -3    1    1    2    0  502 -0.30803081333E+02  0.49125656021E+02  0.43243818812E+02  0.72333863194E+02  0.00000000000E+00 0.  1.
<scales pt_clust_5="13000.00000" pt_clust_6="13000.00000" pt_clust_7="13000.00000" pt_clust_8="13000.00000" pt_clust_9="57.98413"></scales>
<clustering>
<clus scale="   57.984">  2  9  1 -1</clus>
<clus scale="   87.523">  5  6 -1 -1</clus>
<clus scale="   88.818">  7  8 -1 -1</clus>
<clus scale="   99.188">  2  5  1 -1</clus>
<clus scale="   57.984">  2  5  1 -1</clus>
</clustering>
</event>
<event>
 9    1  0.1315259E-005  0.1521939E+03  0.7546771E-02  0.1198269E+00
         -1   -1    0    0    0  501 -0.00000000000E+00  0.00000000000E+00  0.59191380976E+02  0.59191380976E+02  0.00000000000E+00 0.  1.
         21   -1    0    0  501  502  0.00000000000E+00 -0.00000000000E+00 -0.57073870343E+03  0.57073870343E+03  0.00000000000E+00 0. -1.
         23    2    1    2    0    0  0.89430990654E+02 -0.65679856976E+02 -0.17055013047E+03  0.22368710357E+03  0.92934533943E+02 0.  0.
         23    2    1    2    0    0 -0.11194745280E+03  0.66810207571E+02 -0.16531251170E+03  0.22911767026E+03  0.90392722480E+02 0.  0.
        -11    1    4    4    0    0 -0.23410495224E+02  0.38525867257E+02 -0.71181699346E+01  0.45639479376E+02  0.00000000000E+00 0.  1.
         11    1    4    4    0    0 -0.88536957573E+02  0.28284340314E+02 -0.15819434177E+03  0.18347819088E+03  0.00000000000E+00 0. -1.
        -11    1    3    3    0    0 -0.86321938265E+01 -0.27013655228E+02 -0.71674053260E+01  0.29251051915E+02  0.00000000000E+00 0. -1.
         11    1    3    3    0    0  0.98063184480E+02 -0.38666201748E+02 -0.16338272515E+03  0.19443605166E+03  0.00000000000E+00 0.  1.
         -1    1    1    2    0  502  0.22516462143E+02 -0.11303505954E+01 -0.17568468028E+03  0.17712531057E+03  0.00000000000E+00 0.  1.
<scales pt_clust_5="13000.00000" pt_clust_6="13000.00000" pt_clust_7="13000.00000" pt_clust_8="13000.00000" pt_clust_9="22.54482"></scales>
<clustering>
<clus scale="   22.545">  2  9  1 -1</clus>
<clus scale="   90.393">  5  6 -1 -1</clus>
<clus scale="   92.935">  7  8 -1 -1</clus>
<clus scale="  150.655">  2  5  1 -1</clus>
<clus scale="   22.545">  2  5  1 -1</clus>
</clustering>
</event>
<event>
 9    1  0.1315259E-005  0.1043539E+03  0.7546771E-02  0.1271999E+00
         21   -1    0    0  501  502  0.00000000000E+00  0.00000000000E+00  0.14996117207E+03  0.14996117207E+03  0.00000000000E+00 0. -1.
         -3   -1    0    0    0  501 -0.00000000000E+00 -0.00000000000E+00 -0.96519549746E+02  0.96519549746E+02  0.00000000000E+00 0.  1.
         23    2    1    2    0    0 -0.32144971466E+02 -0.37289959260E+02  0.75325408788E+01  0.10413559659E+03  0.91452955403E+02 0.  0.
         23    2    1    2    0    0  0.48561227262E+02  0.13800170323E+02  0.31362404435E+02  0.11020683886E+03  0.92807916828E+02 0.  0.
        -11    1    3    3    0    0 -0.62526474483E+02 -0.10616478825E+02  0.53834608761E+01  0.63649440570E+02  0.00000000000E+00 0.  1.
         11    1    3    3    0    0  0.30381503017E+02 -0.26673480435E+02  0.21490800028E+01  0.40486156016E+02  0.00000000000E+00 0. -1.
        -13    1    4    4    0    0  0.37277205218E+02  0.34562354369E+02  0.56298346673E+02  0.75852819371E+02  0.00000000000E+00 0. -1.
         13    1    4    4    0    0  0.11284022044E+02 -0.20762184047E+02 -0.24935942239E+02  0.34354019491E+02  0.00000000000E+00 0.  1.
         -3    1    1    2    0  502 -0.16416255796E+02  0.23489788937E+02  0.14546677012E+02  0.32138286370E+02  0.00000000000E+00 0.  1.
<scales pt_clust_5="13000.00000" pt_clust_6="13000.00000" pt_clust_7="13000.00000" pt_clust_8="13000.00000" pt_clust_9="28.65770"></scales>
<clustering>
<clus scale="   28.658">  1  9  2 -1</clus>
<clus scale="   91.453">  5  6 -1 -1</clus>
<clus scale="   92.808">  7  8 -1 -1</clus>
<clus scale="  103.151">  2  5  1 -1</clus>
<clus scale="   28.658">  1  5  2 -1</clus>
</clustering>
</event>
<event>
 9    1  0.1315259E-005  0.1143702E+03  0.7546771E-02  0.1253508E+00
         21   -1    0    0  501  502  0.00000000000E+00  0.00000000000E+00  0.31736115014E+03  0.31736115014E+03  0.00000000000E+00 0. -1.
          1   -1    0    0  502    0 -0.00000000000E+00 -0.00000000000E+00 -0.15384871437E+03  0.15384871437E+03  0.00000000000E+00 0. -1.
         23    2    1    2    0    0  0.26498426878E+02  0.95635665115E+02 -0.58607045596E+02  0.14700399159E+03  0.91252620133E+02 0.  0.
         23    2    1    2    0    0 -0.23370117707E+02 -0.17965859497E+02  0.10340777173E+02  0.98611979888E+02  0.93533183394E+02 0.  0.
        -11    1    3    3    0    0  0.22913102794E+01  0.10064227987E+03 -0.22345880451E+02  0.10311865483E+03  0.00000000000E+00 0. -1.
         11    1    3    3    0    0  0.24207116598E+02 -0.50066147540E+01 -0.36261165144E+02  0.43885336765E+02  0.00000000000E+00 0.  1.
        -13    1    4    4    0    0  0.13519923761E+01  0.25134442280E+02 -0.26657255195E+02  0.36663023970E+02  0.00000000000E+00 0. -1.
         13    1    4    4    0    0 -0.24722110083E+02 -0.43100301777E+02  0.36998032368E+02  0.61948955918E+02  0.00000000000E+00 0.  1.
          1    1    1    2  501    0 -0.31283091713E+01 -0.77669805617E+02  0.21177870419E+03  0.22559389303E+03  0.00000000000E+00 0. -1.
<scales pt_clust_5="13000.00000" pt_clust_6="13000.00000" pt_clust_7="13000.00000" pt_clust_8="13000.00000" pt_clust_9="77.73278"></scales>
<clustering>
<clus scale="   77.733">  1  9  2 -1</clus>
<clus scale="   91.253">  5  6 -1 -1</clus>
<clus scale="   93.533">  7  8 -1 -1</clus>
<clus scale="  112.513">  2  5  1 -1</clus>
<clus scale="   77.733">  1  5  2 -1</clus>
</clustering>
</event>
<event>
 9    1  0.1315259E-005  0.1034349E+03  0.7546771E-02  0.1273597E+00
         21   -1    0    0  501  502  0.00000000000E+00  0.00000000000E+00  0.10730768646E+03  0.10730768646E+03  0.00000000000E+00 0. -1.
         -1   -1    0    0    0  501 -0.00000000000E+00 -0.00000000000E+00 -0.22772749382E+03  0.22772749382E+03  0.00000000000E+00 0.  1.
         23    2    1    2    0    0  0.10664292601E+02 -0.51822443080E+02 -0.13807504198E+03  0.17444456131E+03  0.92557522704E+02 0.  0.
         23    2    1    2    0    0 -0.36958548768E+02  0.94827894105E+01  0.38498958000E+02  0.10656752220E+03  0.91752980326E+02 0.  0.
        -11    1    3    3    0    0 -0.40989918930E+02 -0.20854943167E+02 -0.52407054058E+02  0.69725185001E+02  0.00000000000E+00 0. -1.
         11    1    3    3    0    0  0.51654211531E+02 -0.30967499913E+02 -0.85667987922E+02  0.10471937631E+03  0.00000000000E+00 0.  1.
        -13    1    4    4    0    0 -0.90337525459E+01  0.37625374524E+02 -0.13674544017E+02  0.41039866560E+02  0.00000000000E+00 0.  1.
         13    1    4    4    0    0 -0.27924796222E+02 -0.28142585114E+02  0.52173502017E+02  0.65527655640E+02  0.00000000000E+00 0. -1.
         -1    1    1    2    0  502  0.26294256167E+02  0.42339653670E+02 -0.20843723382E+02  0.54023096771E+02  0.00000000000E+00 0.  1.
<scales pt_clust_5="13000.00000" pt_clust_6="13000.00000" pt_clust_7="13000.00000" pt_clust_8="13000.00000" pt_clust_9="49.84011"></scales>
<clustering>
<clus scale="   49.840">  1  9  2 -1</clus>
<clus scale="   91.753">  7  8 -1 -1</clus>
<clus scale="   92.558">  5  6 -1 -1</clus>
<clus scale="  102.716">  1  7  2 -1</clus>
<clus scale="   49.840">  1  5  2 -1</clus>
</clustering>
</event>
<event>
 9    1  0.1315259E-005  0.1065826E+03  0.7546771E-02  0.1267162E+00
          1   -1    0    0  502    0 -0.00000000000E+00  0.00000000000E+00  0.10047533332E+03  0.10047533332E+03  0.00000000000E+00 0. -1.
         21   -1    0    0  501  502  0.00000000000E+00 -0.00000000000E+00 -0.38967691090E+03  0.38967691090E+03  0.00000000000E+00 0. -1.
         23    2    1    2    0    0 -0.34321136625E+02  0.43418262122E+02 -0.44328956721E+01  0.11046062441E+03  0.95492476541E+02 0.  0.
         23    2    1    2    0    0 -0.14250278311E+00 -0.43324482424E+02 -0.13214905744E+02  0.10595962573E+03  0.95790278556E+02 0.  0.
        -11    1    3    3    0    0 -0.45207662105E+02  0.67308182479E+01  0.33429928963E+02  0.56626820304E+02  0.00000000000E+00 0. -1.
         11    1    3    3    0    0  0.10886525480E+02  0.36687443874E+02 -0.37862824635E+02  0.53833804105E+02  0.00000000000E+00 0.  1.
        -13    1    4    4    0    0 -0.45617404335E+02 -0.23116511845E+02  0.81841276053E+01  0.51790932052E+02  0.00000000000E+00 0. -1.
         13    1    4    4    0    0  0.45474901552E+02 -0.20207970580E+02 -0.21399033349E+02  0.54168693675E+02  0.00000000000E+00 0.  1.
          1    1    1    2  501    0  0.34463639408E+02 -0.93779698131E-01 -0.27155377617E+03  0.27373199409E+03  0.00000000000E+00 0. -1.
<scales pt_clust_5="13000.00000" pt_clust_6="13000.00000" pt_clust_7="13000.00000" pt_clust_8="13000.00000" pt_clust_9="34.46377"></scales>
<clustering>
<clus scale="   34.464">  2  9  1 -1</clus>
<clus scale="   95.492">  5  6 -1 -1</clus>
<clus scale="   95.790">  7  8 -1 -1</clus>
<clus scale="  106.315">  1  5  2 -1</clus>
<clus scale="   34.464">  2  5  1 -1</clus>
</clustering>
</event>
<event>
 9    1  0.1315259E-005  0.1022336E+03  0.7546771E-02  0.1276554E+00
         21   -1    0    0  501  502  0.00000000000E+00  0.00000000000E+00  0.15579458453E+03  0.15579458453E+03  0.00000000000E+00 0.  1.
          2   -1    0    0  502    0 -0.00000000000E+00 -0.00000000000E+00 -0.16069038683E+03  0.16069038683E+03  0.00000000000E+00 0. -1.
         23    2    1    2    0    0 -0.19399941817E+02 -0.36846485120E+02 -0.93444029378E+02  0.13733796979E+03  0.91629199006E+02 0.  0.
         23    2    1    2    0    0  0.45260302768E+02  0.50326129154E+02  0.97356355327E+02  0.14868321660E+03  0.89706324712E+02 0.  0.
        -11    1    4    4    0    0  0.37274638139E+02  0.71650504914E+02  0.47069566768E+02  0.93481215324E+02  0.00000000000E+00 0. -1.
         11    1    4    4    0    0  0.79856646296E+01 -0.21324375760E+02  0.50286788559E+02  0.55202001275E+02  0.00000000000E+00 0.  1.
        -13    1    3    3    0    0  0.19420928699E+02 -0.17673953470E+02  0.76596279875E+01  0.27353445920E+02  0.00000000000E+00 0.  1.
         13    1    3    3    0    0 -0.38820870515E+02 -0.19172531650E+02 -0.10110365737E+03  0.10998452387E+03  0.00000000000E+00 0. -1.
          2    1    1    2  501    0 -0.25860360951E+02 -0.13479644034E+02 -0.88081282428E+01  0.30463784974E+02  0.00000000000E+00 0. -1.
<scales pt_clust_5="13000.00000" pt_clust_6="13000.00000" pt_clust_7="13000.00000" pt_clust_8="13000.00000" pt_clust_9="29.16265"></scales>
<clustering>
<clus scale="   29.163">  1  9  2 -1</clus>
<clus scale="   89.706">  5  6 -1 -1</clus>
<clus scale="   91.629">  7  8 -1 -1</clus>
<clus scale="  100.514">  1  5  2 -1</clus>
<clus scale="   29.163">  1  5  2 -1</clus>
</clustering>
</event>
<event>
 9    1  0.1315259E-005  0.1158107E+03  0.7546771E-02  0.1250434E+00
         21   -1    0    0  501  502  0.00000000000E+00  0.00000000000E+00  0.63789001536E+02  0.63789001536E+02  0.00000000000E+00 0.  1.
          2   -1    0    0  502    0 -0.00000000000E+00 -0.00000000000E+00 -0.38226472003E+03  0.38226472003E+03  0.00000000000E+00 0. -1.
         23    2    1    2    0    0 -0.63715554060E+02  0.31587180055E+02 -0.26479301159E+03  0.28952546040E+03  0.93017371806E+02 0.  0.
         23    2    1    2    0    0  0.66292164910E+02 -0.60006265827E+01 -0.61915117273E+02  0.12952672005E+03  0.92266087015E+02 0.  0.
        -11    1    3    3    0    0 -0.37639178287E+01  0.48722928414E+02 -0.72962425685E+02  0.87815752531E+02  0.00000000000E+00 0.  1.
         11    1    3    3    0    0 -0.59951636231E+02 -0.17135748359E+02 -0.19183058590E+03  0.20170970786E+03  0.00000000000E+00 0. -1.
        -13    1    4    4    0    0  0.58767885191E+02  0.23250291807E+02 -0.73716559027E+02  0.97099801615E+02  0.00000000000E+00 0.  1.
         13    1    4    4    0    0  0.75242797195E+01 -0.29250918390E+02  0.11801441754E+02  0.32426918438E+02  0.00000000000E+00 0. -1.
          2    1    1    2  501    0 -0.25766108506E+01 -0.25586553472E+02  0.82324103694E+01  0.27001541115E+02  0.00000000000E+00 0. -1.
<scales pt_clust_5="13000.00000" pt_clust_6="13000.00000" pt_clust_7="13000.00000" pt_clust_8="13000.00000" pt_clust_9="25.71596"></scales>
<clustering>
<clus scale="   25.716">  1  9  2 -1</clus>
<clus scale="   92.266">  7  8 -1 -1</clus>
<clus scale="   93.017">  5  6 -1 -1</clus>
<clus scale="  115.208">  1  7  2 -1</clus>
<clus scale="   25.716">  1  5  2 -1</clus>
</clustering>
</event>
<event>
 9    1  0.1315259E-005  0.1635374E+03  0.7546771E-02  0.1186729E+00
         -3   -1    0    0    0  501 -0.00000000000E+00  0.00000000000E+00  0.40767876557E+03  0.40767876557E+03  0.00000000000E+00 0.  1.
         21   -1    0    0  501  502  0.00000000000E+00 -0.00000000000E+00 -0.74401425559E+02  0.74401425559E+02  0.00000000000E+00 0. -1.
         23    2    1    2    0    0 -0.11762803104E+03 -0.80992625272E+02  0.17779904985E+03  0.24407561008E+03  0.86972652459E+02 0.  0.
         23    2    1    2    0    0  0.92221149567E+02  0.71656280552E+02  0.13148449534E+03  0.20183305704E+03  0.99040635247E+02 0.  0.
        -11    1    4    4    0    0  0.55239521692E+01  0.65752225519E+02  0.62452290050E+02  0.90852395350E+02  0.00000000000E+00 0.  1.
         11    1    4    4    0    0  0.86697197398E+02  0.59040550329E+01  0.69032205287E+02  0.11098066169E+03  0.00000000000E+00 0. -1.
        -11    1    3    3    0    0 -0.48760386814E+02 -0.21185743088E+02  0.13138495825E+03  0.14173361735E+03  0.00000000000E+00 0.  1.
         11    1    3    3    0    0 -0.68867644224E+02 -0.59806882184E+02  0.46414091597E+02  0.10234199273E+03  0.00000000000E+00 0. -1.
         -3    1    1    2    0  502  0.25406881471E+02  0.93363447196E+01  0.23993794825E+02  0.36171524006E+02  0.00000000000E+00 0.  1.
<scales pt_clust_5="13000.00000" pt_clust_6="13000.00000" pt_clust_7="13000.00000" pt_clust_8="13000.00000" pt_clust_9="27.06801"></scales>
<clustering>
<clus scale="   27.068">  2  9  1 -1</clus>
<clus scale="   86.973">  7  8 -1 -1</clus>
<clus scale="   99.041">  5  6 -1 -1</clus>
<clus scale="  156.524">  1  7  2 -1</clus>
<clus scale="   27.068">  2  5  1 -1</clus>
</clustering>
</event>
<event>
 9    1  0.1315259E-005  0.9541908E+02  0.7546771E-02  0.1290757E+00
          1   -1    0    0  502    0 -0.00000000000E+00  0.00000000000E+00  0.38109672559E+03  0.38109672559E+03  0.00000000000E+00 0. -1.
         21   -1    0    0  501  502  0.00000000000E+00 -0.00000000000E+00 -0.68167741553E+02  0.68167741553E+02  0.00000000000E+00 0. -1.
         23    2    1    2    0    0 -0.15620309891E+02 -0.20428979146E+02  0.23626979654E+03  0.25487137550E+03  0.92057938409E+02 0.  0.
         23    2    1    2    0    0 -0.27421678012E+02  0.35327334511E+02  0.10063623940E+03  0.14292006245E+03  0.91096227049E+02 0.  0.
        -11    1    4    4    0    0 -0.17699279777E+02  0.53795613705E+02  0.10703181709E+03  0.12109105016E+03  0.00000000000E+00 0. -1.
         11    1    4    4    0    0 -0.97223982348E+01 -0.18468279195E+02 -0.63955776902E+01  0.21829012296E+02  0.00000000000E+00 0.  1.
        -13    1    3    3    0    0 -0.45841900239E+01 -0.55914589099E+02  0.11363375105E+03  0.12672839243E+03  0.00000000000E+00 0.  1.
         13    1    3    3    0    0 -0.11036119867E+02  0.35485609953E+02  0.12263604549E+03  0.12814298307E+03  0.00000000000E+00 0. -1.
          1    1    1    2  501    0  0.43041987903E+02 -0.14898355364E+02 -0.23977051905E+02  0.51473029183E+02  0.00000000000E+00 0. -1.
<scales pt_clust_5="13000.00000" pt_clust_6="13000.00000" pt_clust_7="13000.00000" pt_clust_8="13000.00000" pt_clust_9="45.54749"></scales>
<clustering>
<clus scale="   45.547">  2  9  1 -1</clus>
<clus scale="   91.096">  5  6 -1 -1</clus>
<clus scale="   92.058">  7  8 -1 -1</clus>
<clus scale="   94.492">  2  5  1 -1</clus>
<clus scale="   45.547">  2  5  1 -1</clus>
</clustering>
</event>
<event>
 9    1  0.1315259E-005  0.9787444E+02  0.7546771E-02  0.1285092E+00
         21   -1    0    0  501  502  0.00000000000E+00  0.00000000000E+00  0.17637915679E+03  0.17637915679E+03  0.00000000000E+00 0.  1.
          1   -1    0    0  502    0 -0.00000000000E+00 -0.00000000000E+00 -0.11666135568E+03  0.11666135568E+03  0.00000000000E+00 0. -1.
         23    2    1    2    0    0  0.15856471149E+02  0.36206136032E+02 -0.58621500520E+02  0.11540722612E+03  0.91214228900E+02 0.  0.
         23    2    1    2    0    0 -0.10051104759E+01 -0.20232980339E+02  0.51085062659E+02  0.10693083041E+03  0.91728594918E+02 0.  0.
        -11    1    4    4    0    0  0.11210571519E+02 -0.45665966832E+02  0.61004478726E+02  0.77023398166E+02  0.00000000000E+00 0.  1.
         11    1    4    4    0    0 -0.12215681995E+02  0.25432986493E+02 -0.99194160669E+01  0.29907432248E+02  0.00000000000E+00 0. -1.
        -11    1    3    3    0    0  0.32675692286E+02  0.29819280663E+01  0.12511750833E+02  0.35116045766E+02  0.00000000000E+00 0.  1.
         11    1    3    3    0    0 -0.16819221136E+02  0.33224207966E+02 -0.71133251353E+02  0.80291180354E+02  0.00000000000E+00 0. -1.
          1    1    1    2  501    0 -0.14851360673E+02 -0.15973155693E+02  0.67254238968E+02  0.70702455939E+02  0.00000000000E+00 0. -1.
<scales pt_clust_5="13000.00000" pt_clust_6="13000.00000" pt_clust_7="13000.00000" pt_clust_8="13000.00000" pt_clust_9="21.81065"></scales>
<clustering>
<clus scale="   21.811">  1  9  2 -1</clus>
<clus scale="   91.214">  7  8 -1 -1</clus>
<clus scale="   91.729">  5  6 -1 -1</clus>
<clus scale="   97.393">  2  7  1 -1</clus>
<clus scale="   21.811">  1  5  2 -1</clus>
</clustering>
</event>
<event>
 9    1  0.1315259E-005  0.1197054E+03  0.7546771E-02  0.1244354E+00
          2   -1    0    0  502    0 -0.00000000000E+00  0.00000000000E+00  0.87898247167E+03  0.87898247167E+03  0.00000000000E+00 0. -1.
         21   -1    0    0  501  502  0.00000000000E+00 -0.00000000000E+00 -0.27901016805E+02  0.27901016805E+02  0.00000000000E+00 0.  1.
         23    2    1    2    0    0 -0.45760784240E+02 -0.55771360373E+02  0.58885922317E+03  0.60020185147E+03  0.91008701682E+02 0.  0.
         23    2    1    2    0    0  0.51743755283E+02  0.82224511108E+02  0.20813719316E+03  0.24617745103E+03  0.88566132270E+02 0.  0.
        -11    1    3    3    0    0 -0.72193577212E+02 -0.49290814666E+02  0.48622689065E+03  0.49402235394E+03  0.00000000000E+00 0. -1.
         11    1    3    3    0    0  0.26432792972E+02 -0.64805457069E+01  0.10263233252E+03  0.10617949753E+03  0.00000000000E+00 0.  1.
        -13    1    4    4    0    0  0.31054217496E+02  0.96705125372E+02  0.13595856544E+03  0.16970850660E+03  0.00000000000E+00 0.  1.
         13    1    4    4    0    0  0.20689537788E+02 -0.14480614264E+02  0.72178627715E+02  0.76468944430E+02  0.00000000000E+00 0. -1.
          2    1    1    2  501    0 -0.59829710437E+01 -0.26453150735E+02  0.54085038535E+02  0.60504185967E+02  0.00000000000E+00 0. -1.
<scales pt_clust_5="13000.00000" pt_clust_6="13000.00000" pt_clust_7="13000.00000" pt_clust_8="13000.00000" pt_clust_9="27.12130"></scales>
<clustering>
<clus scale="   27.121">  2  9  1 -1</clus>
<clus scale="   88.566">  7  8 -1 -1</clus>
<clus scale="   91.009">  5  6 -1 -1</clus>
<clus scale="  117.859">  2  7  1 -1</clus>
<clus scale="   27.121">  2  5  1 -1</clus>
</clustering>
</event>
<event>
 9    1  0.1315259E-005  0.9518836E+02  0.7546771E-02  0.1291888E+00
         -3   -1    0    0    0  501 -0.00000000000E+00  0.00000000000E+00  0.21423596159E+03  0.21423596159E+03  0.00000000000E+00 0.  1.
         21   -1    0    0  501  502  0.00000000000E+00 -0.00000000000E+00 -0.12208610970E+03  0.12208610970E+03  0.00000000000E+00 0.  1.
         23    2    1    2    0    0  0.17605049841E+01 -0.38620871481E+02  0.14812623689E+03  0.17703105376E+03  0.88904110416E+02 0.  0.
         23    2    1    2    0    0 -0.37218083457E+01 -0.16076682028E+02 -0.22666408187E+02  0.95218998468E+02  0.90997692535E+02 0.  0.
        -13    1    3    3    0    0 -0.21544871405E+02 -0.48837679368E+02  0.14075778061E+03  0.15053920823E+03  0.00000000000E+00 0.  1.
         13    1    3    3    0    0  0.23305376389E+02  0.10216807887E+02  0.73684562778E+01  0.26491845537E+02  0.00000000000E+00 0. -1.
        -13    1    4    4    0    0  0.30369564711E+02 -0.25771723428E+02 -0.39398925451E+02  0.56024704514E+02  0.00000000000E+00 0.  1.
         13    1    4    4    0    0 -0.34091373057E+02  0.96950413994E+01  0.16732517264E+02  0.39194293955E+02  0.00000000000E+00 0. -1.
         -3    1    1    2    0  502  0.19613033616E+01  0.54697553509E+02 -0.33309976819E+02  0.64072019060E+02  0.00000000000E+00 0.  1.
<scales pt_clust_5="13000.00000" pt_clust_6="13000.00000" pt_clust_7="13000.00000" pt_clust_8="13000.00000" pt_clust_9="54.73271"></scales>
<clustering>
<clus scale="   54.733">  2  9  1 -1</clus>
<clus scale="   88.904">  5  6 -1 -1</clus>
<clus scale="   90.998">  7  8 -1 -1</clus>
<clus scale="   93.189">  1  5  2 -1</clus>
<clus scale="   54.733">  2  5  1 -1</clus>
</clustering>
</event>
<event>
 9    1  0.1315259E-005  0.1019080E+03  0.7546771E-02  0.1276568E+00
         21   -1    0    0  501  502  0.00000000000E+00  0.00000000000E+00  0.94566668660E+02  0.94566668660E+02  0.00000000000E+00 0. -1.
         -1   -1    0    0    0  501 -0.00000000000E+00 -0.00000000000E+00 -0.29383264774E+03  0.29383264774E+03  0.00000000000E+00 0.  1.
         23    2    1    2    0    0  0.32419989193E+02  0.30028410076E+02 -0.20954184282E+03  0.23340661219E+03  0.92833731016E+02 0.  0.
         23    2    1    2    0    0  0.80782436495E+01 -0.51108374565E+02 -0.72416145254E+01  0.10609143826E+03  0.92334329047E+02 0.  0.
        -13    1    4    4    0    0  0.48174653850E+02 -0.27650591224E+02 -0.18033874532E+02  0.58400112151E+02  0.00000000000E+00 0.  1.
         13    1    4    4    0    0 -0.40096410201E+02 -0.23457783341E+02  0.10792260007E+02  0.47691326112E+02  0.00000000000E+00 0. -1.
        -13    1    3    3    0    0  0.40580657669E+02  0.10373118903E+02 -0.20788222077E+03  0.21205991862E+03  0.00000000000E+00 0.  1.
         13    1    3    3    0    0 -0.81606684760E+01  0.19655291173E+02 -0.16596220415E+01  0.21346693570E+02  0.00000000000E+00 0. -1.
         -1    1    1    2    0  502 -0.40498232843E+02  0.21079964489E+02  0.17517478261E+02  0.48901265943E+02  0.00000000000E+00 0.  1.
<scales pt_clust_5="13000.00000" pt_clust_6="13000.00000" pt_clust_7="13000.00000" pt_clust_8="13000.00000" pt_clust_9="45.65602"></scales>
<clustering>
<clus scale="   45.656">  1  9  2 -1</clus>
<clus scale="   92.334">  5  6 -1 -1</clus>
<clus scale="   92.834">  7  8 -1 -1</clus>
<clus scale="  101.453">  1  5  2 -1</clus>
<clus scale="   45.656">  1  5  2 -1</clus>
</clustering>
</event>
<event>
 9    1  0.1315259E-005  0.1669251E+03  0.7546771E-02  0.1186104E+00
         21   -1    0    0  501  502  0.00000000000E+00  0.00000000000E+00  0.10970606895E+03  0.10970606895E+03  0.00000000000E+00 0. -1.
          2   -1    0    0  502    0 -0.00000000000E+00 -0.00000000000E+00 -0.92314569123E+03  0.92314569123E+03  0.00000000000E+00 0. -1.
         23    2    1    2    0    0  0.83558327916E+02 -0.69871589288E+02 -0.56215087139E+03  0.58538065982E+03  0.12162599036E+03 0.  0.
         23    2    1    2    0    0 -0.13192435866E+03  0.24231613246E+02 -0.31488659701E+03  0.35545498017E+03  0.95934698980E+02 0.  0.
        -11    1    3    3    0    0 -0.60508163914E+01  0.19249683260E+02 -0.18984823879E+02  0.27705346457E+02  0.00000000000E+00 0.  1.
         11    1    3    3    0    0  0.89609144307E+02 -0.89121272548E+02 -0.54316604751E+03  0.55767531336E+03  0.00000000000E+00 0. -1.
        -13    1    4    4    0    0 -0.19064083851E+02 -0.30639207207E+02 -0.10366822039E+03  0.10976930459E+03  0.00000000000E+00 0. -1.
         13    1    4    4    0    0 -0.11286027481E+03  0.54870820453E+02 -0.21121837662E+03  0.24568567559E+03  0.00000000000E+00 0.  1.
          2    1    1    2  501    0  0.48366030745E+02  0.45639976042E+02  0.63597846114E+02  0.92016120183E+02  0.00000000000E+00 0. -1.
<scales pt_clust_5="13000.00000" pt_clust_6="13000.00000" pt_clust_7="13000.00000" pt_clust_8="13000.00000" pt_clust_9="66.50023"></scales>
<clustering>
<clus scale="   66.500">  1  9  2 -1</clus>
<clus scale="   95.935">  7  8 -1 -1</clus>
<clus scale="  121.626">  5  6 -1 -1</clus>
<clus scale="  149.247">  1  7  2 -1</clus>
<clus scale="   66.500">  1  5  2 -1</clus>
</clustering>
</event>
<event>
 9    1  0.1315259E-005  0.1434870E+03  0.7546771E-02  0.1213861E+00
         21   -1    0    0  501  502  0.00000000000E+00  0.00000000000E+00  0.10552893297E+03  0.10552893297E+03  0.00000000000E+00 0.  1.
          3   -1    0    0  502    0 -0.00000000000E+00 -0.00000000000E+00 -0.24702367739E+03  0.24702367739E+03  0.00000000000E+00 0. -1.
         23    2    1    2    0    0 -0.81641732527E+02 -0.76197463573E+00 -0.59167105847E+02  0.13523578056E+03  0.90122232735E+02 0.  0.
         23    2    1    2    0    0  0.10870952026E+03  0.85326240142E+00 -0.29120823102E+02  0.15762060983E+03  0.11035282713E+03 0.  0.
        -11    1    4    4    0    0  0.84373691060E+02 -0.33958355221E+02 -0.56513836820E+02  0.10707895865E+03  0.00000000000E+00 0.  1.
         11    1    4    4    0    0  0.24335829200E+02  0.34811617623E+02  0.27393013718E+02  0.50541651189E+02  0.00000000000E+00 0. -1.
        -13    1    3    3    0    0 -0.89895557930E+02  0.18618018871E+02 -0.25083644677E+02  0.95168435905E+02  0.00000000000E+00 0.  1.
         13    1    3    3    0    0  0.82538254035E+01 -0.19379993507E+02 -0.34083461170E+02  0.40067344652E+02  0.00000000000E+00 0. -1.
          3    1    1    2  501    0 -0.27067787733E+02 -0.91287765689E-01 -0.53206815470E+02  0.59696219970E+02  0.00000000000E+00 0. -1.
<scales pt_clust_5="13000.00000" pt_clust_6="13000.00000" pt_clust_7="13000.00000" pt_clust_8="13000.00000" pt_clust_9="27.06796"></scales>
<clustering>
<clus scale="   27.068">  1  9  2 -1</clus>
<clus scale="   90.122">  7  8 -1 -1</clus>
<clus scale="  110.353">  5  6 -1 -1</clus>
<clus scale="  128.580">  2  7  1 -1</clus>
<clus scale="   27.068">  1  5  2 -1</clus>
</clustering>
</event>
<event>
 9    1  0.1315259E-005  0.9703664E+02  0.7546771E-02  0.1288852E+00
         21   -1    0    0  501  502  0.00000000000E+00  0.00000000000E+00  0.34507005358E+03  0.34507005358E+03  0.00000000000E+00 0. -1.
         -3   -1    0    0    0  501 -0.00000000000E+00 -0.00000000000E+00 -0.41028782373E+02  0.41028782373E+02  0.00000000000E+00 0.  1.
         23    2    1    2    0    0  0.38680520866E+01 -0.54624452816E+01  0.12657396128E+03  0.15818918695E+03  0.94646981242E+02 0.  0.
         23    2    1    2    0    0 -0.34680353619E+02 -0.24420534238E+02  0.12601013183E+03  0.16090045882E+03  0.90616305963E+02 0.  0.
        -11    1    3    3    0    0 -0.30960308129E+02 -0.15248920930E+02  0.11521160070E+03  0.12026962710E+03  0.00000000000E+00 0. -1.
         11    1    3    3    0    0  0.34828360215E+02  0.97864756483E+01  0.11362360586E+02  0.37919559847E+02  0.00000000000E+00 0.  1.
        -13    1    4    4    0    0 -0.38600749617E+01  0.27038056773E+02  0.78995771029E+01  0.28431672677E+02  0.00000000000E+00 0.  1.
         13    1    4    4    0    0 -0.30820278658E+02 -0.51458591011E+02  0.11811055473E+03  0.13246878615E+03  0.00000000000E+00 0. -1.
         -3    1    1    2    0  502  0.30812301533E+02  0.29882979520E+02  0.51457178092E+02  0.67009190175E+02  0.00000000000E+00 0.  1.
<scales pt_clust_5="13000.00000" pt_clust_6="13000.00000" pt_clust_7="13000.00000" pt_clust_8="13000.00000" pt_clust_9="42.92310"></scales>
<clustering>
<clus scale="   42.923">  1  9  2 -1</clus>
<clus scale="   90.616">  7  8 -1 -1</clus>
<clus scale="   93.109">  1  7  2 -1</clus>
<clus scale="   94.647">  5  6 -1 -1</clus>
<clus scale="   42.923">  1  5  2 -1</clus>
</clustering>
</event>
<event>
 9    1  0.1315259E-005  0.9515608E+02  0.7546771E-02  0.1291079E+00
         21   -1    0    0  501  502  0.00000000000E+00  0.00000000000E+00  0.25960186781E+03  0.25960186781E+03  0.00000000000E+00 0. -1.
         -1   -1    0    0    0  501 -0.00000000000E+00 -0.00000000000E+00 -0.20100421735E+03  0.20100421735E+03  0.00000000000E+00 0.  1.
         23    2    1    2    0    0  0.17065518397E+02 -0.18157329765E+02 -0.17271740198E+03  0.19699658049E+03  0.91408047972E+02 0.  0.
         23    2    1    2    0    0  0.55635802673E+01  0.34709282911E+02  0.18183815865E+03  0.20674118064E+03  0.91875524952E+02 0.  0.
        -13    1    3    3    0    0  0.31693688325E+02  0.29374396525E+02 -0.99588021462E+02  0.10855928827E+03  0.00000000000E+00 0.  1.
         13    1    3    3    0    0 -0.14628169928E+02 -0.47531726290E+02 -0.73129380519E+02  0.88437292217E+02  0.00000000000E+00 0. -1.
        -13    1    4    4    0    0 -0.66248423372E+01  0.63001430597E+02  0.14796036747E+03  0.16095135642E+03  0.00000000000E+00 0. -1.
         13    1    4    4    0    0  0.12188422605E+02 -0.28292147687E+02  0.33877791181E+02  0.45789824215E+02  0.00000000000E+00 0.  1.
         -1    1    1    2    0  502 -0.22629098665E+02 -0.16551953146E+02  0.49476893793E+02  0.56868324036E+02  0.00000000000E+00 0.  1.
<scales pt_clust_5="13000.00000" pt_clust_6="13000.00000" pt_clust_7="13000.00000" pt_clust_8="13000.00000" pt_clust_9="28.03646"></scales>
<clustering>
<clus scale="   28.036">  1  9  2 -1</clus>
<clus scale="   91.408">  5  6 -1 -1</clus>
<clus scale="   91.876">  7  8 -1 -1</clus>
<clus scale="   94.705">  2  5  1 -1</clus>
<clus scale="   28.036">  1  5  2 -1</clus>
</clustering>
</event>
<event>
 9    1  0.1315259E-005  0.9990618E+02  0.7546771E-02  0.1281464E+00
         21   -1    0    0  501  502  0.00000000000E+00  0.00000000000E+00  0.10888506151E+03  0.10888506151E+03  0.00000000000E+00 0. -1.
          2   -1    0    0  502    0 -0.00000000000E+00 -0.00000000000E+00 -0.17982810396E+03  0.17982810396E+03  0.00000000000E+00 0. -1.
         23    2    1    2    0    0 -0.34688965185E+02 -0.31273436273E+02 -0.10011984651E+03  0.14225429320E+03  0.89615557506E+02 0.  0.
         23    2    1    2    0    0 -0.96301461194E+01  0.34078148302E+02  0.27609547656E+02  0.10202345475E+03  0.91610252112E+02 0.  0.
        -11    1    3    3    0    0 -0.24163823027E+02  0.29288381447E+02 -0.26280946780E+02  0.46177784645E+02  0.00000000000E+00 0.  1.
         11    1    3    3    0    0 -0.10525142157E+02 -0.60561817720E+02 -0.73838899735E+02  0.96076508560E+02  0.00000000000E+00 0. -1.
        -13    1    4    4    0    0 -0.41210389056E+02  0.47042012680E+02  0.91234056570E+01  0.63201927612E+02  0.00000000000E+00 0. -1.
         13    1    4    4    0    0  0.31580242936E+02 -0.12963864378E+02  0.18486141999E+02  0.38821527141E+02  0.00000000000E+00 0.  1.
          2    1    1    2  501    0  0.44319111304E+02 -0.28047120290E+01  0.15672564114E+01  0.44435417507E+02  0.00000000000E+00 0. -1.
<scales pt_clust_5="13000.00000" pt_clust_6="13000.00000" pt_clust_7="13000.00000" pt_clust_8="13000.00000" pt_clust_9="44.40777"></scales>
<clustering>
<clus scale="   44.408">  1  9  2 -1</clus>
<clus scale="   89.616">  5  6 -1 -1</clus>
<clus scale="   91.610">  7  8 -1 -1</clus>
<clus scale="   98.080">  2  5  1 -1</clus>
<clus scale="   44.408">  1  5  2 -1</clus>
</clustering>
</event>
<event>
 9    1  0.1315259E-005  0.1439804E+03  0.7546771E-02  0.1208539E+00
         -3   -1    0    0    0  501 -0.00000000000E+00  0.00000000000E+00  0.11116732586E+04  0.11116732586E+04  0.00000000000E+00 0.  1.
         21   -1    0    0  501  502  0.00000000000E+00 -0.00000000000E+00 -0.17534693382E+03  0.17534693382E+03  0.00000000000E+00 0.  1.
         23    2    1    2    0    0 -0.41608035615E+00 -0.77393552938E+02  0.35173844059E+03  0.37156269661E+03  0.91372708007E+02 0.  0.
         23    2    1    2    0    0 -0.91138408344E+02  0.13342826533E+03  0.71965376935E+03  0.74293240565E+03  0.89093771756E+02 0.  0.
        -11    1    3    3    0    0  0.32922547868E+02 -0.88036248499E+01  0.51241105676E+02  0.61539002913E+02  0.00000000000E+00 0. -1.
         11    1    3    3    0    0 -0.33338628224E+02 -0.68589928088E+02  0.30049733491E+03  0.31002369370E+03  0.00000000000E+00 0.  1.
        -13    1    4    4    0    0 -0.76409477630E+02  0.34133097054E+02  0.30153138484E+03  0.31292914954E+03  0.00000000000E+00 0. -1.
         13    1    4    4    0    0 -0.14728930714E+02  0.99295168271E+02  0.41812238451E+03  0.43000325611E+03  0.00000000000E+00 0.  1.
         -3    1    1    2    0  502  0.91554488700E+02 -0.56034712387E+02 -0.13506588516E+03  0.17252509014E+03  0.00000000000E+00 0.  1.
<scales pt_clust_5="13000.00000" pt_clust_6="13000.00000" pt_clust_7="13000.00000" pt_clust_8="13000.00000" pt_clust_9="107.34111"></scales>
<clustering>
<clus scale="   89.094">  7  8 -1 -1</clus>
<clus scale="   91.373">  5  6 -1 -1</clus>
<clus scale="  107.341">  2  9  1 -1</clus>
<clus scale="  142.545">  2  7  1 -1</clus>
<clus scale="  107.341">  2  5  1 -1</clus>
</clustering>
</event>
<event>
 9    1  0.1315259E-005  0.2205921E+03  0.7546771E-02  0.1133496E+00
          3   -1    0    0  502    0 -0.00000000000E+00  0.00000000000E+00  0.35622444753E+03  0.35622444753E+03  0.00000000000E+00 0. -1.
         21   -1    0    0  501  502  0.00000000000E+00 -0.00000000000E+00 -0.35713469495E+03  0.35713469495E+03  0.00000000000E+00 0. -1.
         23    2    1    2    0    0  0.18553128415E+03 -0.11548626983E+03  0.16019450114E+03  0.28593644381E+03  0.91315035913E+02 0.  0.
         23    2    1    2    0    0 -0.14095524288E+03  0.11015225733E+03  0.53509684090E+02  0.20816296719E+03  0.92014315890E+02 0.  0.
        -11    1    3    3    0    0  0.16260363655E+03 -0.12882966068E+03  0.12622854714E+03  0.24283877409E+03  0.00000000000E+00 0. -1.
         11    1    3    3    0    0  0.22927647598E+02  0.13343390847E+02  0.33965953998E+02  0.43097669713E+02  0.00000000000E+00 0.  1.
        -13    1    4    4    0    0 -0.14742436389E+03  0.79274729419E+02  0.33214053496E+02  0.17065051755E+03  0.00000000000E+00 0. -1.
         13    1    4    4    0    0  0.64691210094E+01  0.30877527911E+02  0.20295630594E+02  0.37512449637E+02  0.00000000000E+00 0.  1.
          3    1    1    2  501    0 -0.44576041274E+02  0.53340124999E+01 -0.21461443265E+03  0.21925973148E+03  0.00000000000E+00 0. -1.
<scales pt_clust_5="13000.00000" pt_clust_6="13000.00000" pt_clust_7="13000.00000" pt_clust_8="13000.00000" pt_clust_9="44.89404"></scales>
<clustering>
<clus scale="   44.894">  2  9  1 -1</clus>
<clus scale="   91.315">  5  6 -1 -1</clus>
<clus scale="   92.014">  7  8 -1 -1</clus>
<clus scale="  220.301">  1  5  2 -1</clus>
<clus scale="   44.894">  2  5  1 -1</clus>
</clustering>
</event>
<event>
 9    1  0.1315259E-005  0.1037713E+03  0.7546771E-02  0.1273445E+00
         21   -1    0    0  501  502  0.00000000000E+00  0.00000000000E+00  0.67626520618E+02  0.67626520618E+02  0.00000000000E+00 0. -1.
          2   -1    0    0  502    0 -0.00000000000E+00 -0.00000000000E+00 -0.24382977604E+03  0.24382977604E+03  0.00000000000E+00 0. -1.
         23    2    1    2    0    0  0.16778040001E+02  0.53184597722E+02 -0.15499776836E+03  0.18849646827E+03  0.91632452174E+02 0.  0.
         23    2    1    2    0    0 -0.17842848093E+02 -0.27563637432E+02 -0.17286253625E+02  0.97018976179E+02  0.89642321689E+02 0.  0.
        -13    1    3    3    0    0 -0.94221694280E+01 -0.21919292538E+02 -0.60154745722E+02  0.64713415108E+02  0.00000000000E+00 0.  1.
         13    1    3    3    0    0  0.26200209429E+02  0.75103890259E+02 -0.94843022641E+02  0.12378305316E+03  0.00000000000E+00 0. -1.
        -13    1    4    4    0    0  0.23565294777E+02 -0.16425743002E+02  0.24046576114E+02  0.37461526582E+02  0.00000000000E+00 0.  1.
         13    1    4    4    0    0 -0.41408142870E+02 -0.11137894430E+02 -0.41332829738E+02  0.59557449597E+02  0.00000000000E+00 0. -1.
          2    1    1    2  501    0  0.10648080919E+01 -0.25620960289E+02 -0.39192334298E+01  0.25940852205E+02  0.00000000000E+00 0. -1.
<scales pt_clust_5="13000.00000" pt_clust_6="13000.00000" pt_clust_7="13000.00000" pt_clust_8="13000.00000" pt_clust_9="25.64308"></scales>
<clustering>
<clus scale="   25.643">  1  9  2 -1</clus>
<clus scale="   89.642">  7  8 -1 -1</clus>
<clus scale="   91.632">  5  6 -1 -1</clus>
<clus scale="  102.018">  1  7  2 -1</clus>
<clus scale="   25.643">  1  5  2 -1</clus>
</clustering>
</event>
<event>
 9    1  0.1315259E-005  0.1244472E+03  0.7546771E-02  0.1246076E+00
         21   -1    0    0  501  502  0.00000000000E+00  0.00000000000E+00  0.62223498278E+03  0.62223498278E+03  0.00000000000E+00 0. -1.
         -1   -1    0    0    0  501 -0.00000000000E+00 -0.00000000000E+00 -0.12191949453E+03  0.12191949453E+03  0.00000000000E+00 0.  1.
         23    2    1    2    0    0  0.43504625747E+02 -0.19153989096E+02 -0.89417742106E+02  0.13565430373E+03  0.90260898278E+02 0.  0.
         23    2    1    2    0    0 -0.19396990878E+02  0.16333937414E+01  0.41506790536E+03  0.43131065618E+03  0.11562268309E+03 0.  0.
        -13    1    3    3    0    0  0.48453563323E+02 -0.39685795362E+02 -0.24271341031E+02  0.67169994400E+02  0.00000000000E+00 0. -1.
         13    1    3    3    0    0 -0.49489375760E+01  0.20531806266E+02 -0.65146401075E+02  0.68484309332E+02  0.00000000000E+00 0.  1.
        -13    1    4    4    0    0  0.30427055847E+02  0.33056294911E+02  0.86167301314E+02  0.97176788260E+02  0.00000000000E+00 0.  1.
         13    1    4    4    0    0 -0.49824046724E+02 -0.31422901170E+02  0.32890060405E+03  0.33413386792E+03  0.00000000000E+00 0. -1.
         -1    1    1    2    0  502 -0.24107634869E+02  0.17520595354E+02  0.17466532500E+03  0.17718951740E+03  0.00000000000E+00 0.  1.
<scales pt_clust_5="13000.00000" pt_clust_6="13000.00000" pt_clust_7="13000.00000" pt_clust_8="13000.00000" pt_clust_9="29.80183"></scales>
<clustering>
<clus scale="   29.802">  1  9  2 -1</clus>
<clus scale="   90.261">  5  6 -1 -1</clus>
<clus scale="  101.319">  2  5  1 -1</clus>
<clus scale="  115.623">  7  8 -1 -1</clus>
<clus scale="   29.802">  1  5  2 -1</clus>
</clustering>
</event>
<event>
 9    1  0.1315259E-005  0.1548829E+03  0.7546771E-02  0.1207676E+00
          1   -1    0    0  502    0 -0.00000000000E+00  0.00000000000E+00  0.50223928675E+02  0.50223928675E+02  0.00000000000E+00 0. -1.
         21   -1    0    0  501  502  0.00000000000E+00 -0.00000000000E+00 -0.14201695696E+04  0.14201695696E+04  0.00000000000E+00 0. -1.
         23    2    1    2    0    0  0.37621834997E+02 -0.62463774923E+02 -0.68195709373E+03  0.69186169973E+03  0.91049482263E+02 0.  0.
         23    2    1    2    0    0  0.68501482559E+02  0.13059225453E+03 -0.15750287992E+03  0.23326242342E+03  0.88642038237E+02 0.  0.
        -13    1    4    4    0    0  0.44022361309E+02  0.86022224860E+02 -0.15461792204E+03  0.18233072501E+03  0.00000000000E+00 0. -1.
         13    1    4    4    0    0  0.24479121251E+02  0.44570029666E+02 -0.28849578796E+01  0.50931698417E+02  0.00000000000E+00 0.  1.
        -13    1    3    3    0    0  0.58753319880E+02 -0.72437200233E+02 -0.54954791349E+03  0.55740650319E+03  0.00000000000E+00 0. -1.
         13    1    3    3    0    0 -0.21131484883E+02  0.99734253109E+01 -0.13240918024E+03  0.13445519655E+03  0.00000000000E+00 0.  1.
          1    1    1    2  501    0 -0.10612331756E+03 -0.68128479603E+02 -0.53048566731E+03  0.54526937515E+03  0.00000000000E+00 0. -1.
<scales pt_clust_5="13000.00000" pt_clust_6="13000.00000" pt_clust_7="13000.00000" pt_clust_8="13000.00000" pt_clust_9="127.00901"></scales>
<clustering>
<clus scale="   88.642">  5  6 -1 -1</clus>
<clus scale="   91.049">  7  8 -1 -1</clus>
<clus scale="  116.650">  1  7  2 -1</clus>
<clus scale="  127.009">  2  9  1 -1</clus>
<clus scale="  127.009">  2  5  1 -1</clus>
</clustering>
</event>
<event>
 9    1  0.1315259E-005  0.1311386E+03  0.7546771E-02  0.1226712E+00
         21   -1    0    0  501  502  0.00000000000E+00  0.00000000000E+00  0.33048415911E+03  0.33048415911E+03  0.00000000000E+00 0. -1.
          1   -1    0    0  502    0 -0.00000000000E+00 -0.00000000000E+00 -0.14059518262E+03  0.14059518262E+03  0.00000000000E+00 0. -1.
         23    2    1    2    0    0  0.74622881716E+02  0.60000314952E+02 -0.11448416854E+02  0.13107112020E+03  0.88769138969E+02 0.  0.
         23    2    1    2    0    0  0.80423964087E+00 -0.11793922072E+03  0.19329283869E+03  0.24455727969E+03  0.92389582592E+02 0.  0.
        -11    1    4    4    0    0  0.45261707201E+02 -0.53047447324E+02  0.10775236910E+03  0.12834806914E+03  0.00000000000E+00 0.  1.
         11    1    4    4    0    0 -0.44457467560E+02 -0.64891773398E+02  0.85540469595E+02  0.11620921054E+03  0.00000000000E+00 0. -1.
        -13    1    3    3    0    0 -0.13797700102E+02  0.36223264342E+02  0.26637732330E+00  0.38763028321E+02  0.00000000000E+00 0. -1.
         13    1    3    3    0    0  0.88420581817E+02  0.23777050610E+02 -0.11714794177E+02  0.92308091884E+02  0.00000000000E+00 0.  1.
          1    1    1    2  501    0 -0.75427121357E+02  0.57938905769E+02  0.80445546495E+01  0.95450941836E+02  0.00000000000E+00 0. -1.
<scales pt_clust_5="13000.00000" pt_clust_6="13000.00000" pt_clust_7="13000.00000" pt_clust_8="13000.00000" pt_clust_9="95.11139"></scales>
<clustering>
<clus scale="   88.769">  7  8 -1 -1</clus>
<clus scale="   92.390">  5  6 -1 -1</clus>
<clus scale="   95.111">  1  9  2 -1</clus>
<clus scale="  128.614">  2  7  1 -1</clus>
<clus scale="   95.111">  1  5  2 -1</clus>
</clustering>
</event>
<event>
 9    1  0.1315259E-005  0.9944916E+02  0.7546771E-02  0.1281614E+00
          2   -1    0    0  502    0 -0.00000000000E+00  0.00000000000E+00  0.27872235330E+03  0.27872235330E+03  0.00000000000E+00 0. -1.
         21   -1    0    0  501  502  0.00000000000E+00 -0.00000000000E+00 -0.80600252303E+02  0.80600252303E+02  0.00000000000E+00 0. -1.
         23    2    1    2    0    0  0.33147004012E+02  0.12153463534E+02  0.18962840890E+03  0.21438120553E+03  0.93562477914E+02 0.  0.
         23    2    1    2    0    0 -0.33961219441E+02  0.16304294134E+02  0.34555601242E+02  0.10634437912E+03  0.93251503801E+02 0.  0.
        -13    1    3    3    0    0 -0.30206309306E+02  0.12747289672E+02  0.38867267675E+02  0.50848589089E+02  0.00000000000E+00 0.  1.
         13    1    3    3    0    0  0.63353313318E+02 -0.59382613796E+00  0.15076114122E+03  0.16353261644E+03  0.00000000000E+00 0. -1.
        -13    1    4    4    0    0  0.15182912214E+02 -0.26802405589E+02 -0.30065403667E+01  0.30950428974E+02  0.00000000000E+00 0.  1.
         13    1    4    4    0    0 -0.49144131655E+02  0.43106699723E+02  0.37562141608E+02  0.75393950151E+02  0.00000000000E+00 0. -1.
          2    1    1    2  501    0  0.81421542875E+00 -0.28457757668E+02 -0.26061909139E+02  0.38597020950E+02  0.00000000000E+00 0. -1.
<scales pt_clust_5="13000.00000" pt_clust_6="13000.00000" pt_clust_7="13000.00000" pt_clust_8="13000.00000" pt_clust_9="28.46940"></scales>
<clustering>
<clus scale="   28.469">  2  9  1 -1</clus>
<clus scale="   93.252">  7  8 -1 -1</clus>
<clus scale="   93.562">  5  6 -1 -1</clus>
<clus scale="   99.157">  2  7  1 -1</clus>
<clus scale="   28.469">  2  5  1 -1</clus>
</clustering>
</event>
<event>
 9    1  0.1315259E-005  0.2414297E+03  0.7546771E-02  0.1118963E+00
         21   -1    0    0  501  502  0.00000000000E+00  0.00000000000E+00  0.26966512521E+03  0.26966512521E+03  0.00000000000E+00 0.  1.
          2   -1    0    0  502    0 -0.00000000000E+00 -0.00000000000E+00 -0.29879520571E+03  0.29879520571E+03  0.00000000000E+00 0. -1.
         23    2    1    2    0    0 -0.10207950468E+03  0.19133009684E+03 -0.91236006015E+02  0.25183714120E+03  0.89835993125E+02 0.  0.
         23    2    1    2    0    0  0.84971556854E+02 -0.21879884445E+03  0.62721992936E+01  0.25208933071E+03  0.91741977116E+02 0.  0.
        -13    1    4    4    0    0 -0.14485594089E+02 -0.26678162836E+02  0.18249140479E+02  0.35420162854E+02  0.00000000000E+00 0.  1.
         13    1    4    4    0    0  0.99457150943E+02 -0.19212068162E+03 -0.11976941185E+02  0.21666916785E+03  0.00000000000E+00 0. -1.
        -13    1    3    3    0    0  0.44971585423E+00  0.21192490044E+02 -0.42210131195E+02  0.47233664415E+02  0.00000000000E+00 0. -1.
         13    1    3    3    0    0 -0.10252922054E+03  0.17013760680E+03 -0.49025874820E+02  0.20460347678E+03  0.00000000000E+00 0.  1.
          2    1    1    2  501    0  0.17107947828E+02  0.27468747613E+02  0.55833726222E+02  0.64533859006E+02  0.00000000000E+00 0. -1.
<scales pt_clust_5="13000.00000" pt_clust_6="13000.00000" pt_clust_7="13000.00000" pt_clust_8="13000.00000" pt_clust_9="32.36069"></scales>
<clustering>
<clus scale="   32.361">  1  9  2 -1</clus>
<clus scale="   89.836">  7  8 -1 -1</clus>
<clus scale="   91.742">  5  6 -1 -1</clus>
<clus scale="  240.712">  2  7  1 -1</clus>
<clus scale="   32.361">  1  5  2 -1</clus>
</clustering>
</event>
<event>
 9    1  0.1315259E-005  0.9526054E+02  0.7546771E-02  0.1291066E+00
         21   -1    0    0  501  502  0.00000000000E+00  0.00000000000E+00  0.68965290516E+02  0.68965290516E+02  0.00000000000E+00 0. -1.
          1   -1    0    0  502    0 -0.00000000000E+00 -0.00000000000E+00 -0.18559125073E+03  0.18559125073E+03  0.00000000000E+00 0. -1.
         23    2    1    2    0    0 -0.76474389320E+01  0.27056452645E+02 -0.62387467021E+02  0.11462714922E+03  0.91960058423E+02 0.  0.
         23    2    1    2    0    0 -0.13211733771E+02 -0.21471595984E+02 -0.15772803587E+02  0.95816978959E+02  0.91085304964E+02 0.  0.
        -13    1    4    4    0    0  0.17672331458E+02 -0.24707991263E+02 -0.44256416544E+02  0.53678920786E+02  0.00000000000E+00 0.  1.
         13    1    4    4    0    0 -0.30884065229E+02  0.32363952794E+01  0.28483612957E+02  0.42138058173E+02  0.00000000000E+00 0. -1.
        -13    1    3    3    0    0 -0.49546562800E+02  0.18005939601E+02 -0.40621808409E+02  0.66552288200E+02  0.00000000000E+00 0.  1.
         13    1    3    3    0    0  0.41899123868E+02  0.90505130436E+01 -0.21765658612E+02  0.48074861020E+02  0.00000000000E+00 0. -1.
          1    1    1    2  501    0  0.20859172703E+02 -0.55848566612E+01 -0.38465689602E+02  0.44112413064E+02  0.00000000000E+00 0. -1.
<scales pt_clust_5="13000.00000" pt_clust_6="13000.00000" pt_clust_7="13000.00000" pt_clust_8="13000.00000" pt_clust_9="21.59389"></scales>
<clustering>
<clus scale="   21.594">  1  9  2 -1</clus>
<clus scale="   91.085">  5  6 -1 -1</clus>
<clus scale="   91.960">  7  8 -1 -1</clus>
<clus scale="   94.416">  1  5  2 -1</clus>
<clus scale="   21.594">  1  5  2 -1</clus>
</clustering>
</event>
<event>
 9    1  0.1315259E-005  0.2767159E+03  0.7546771E-02  0.1097550E+00
          2   -1    0    0  502    0 -0.00000000000E+00  0.00000000000E+00  0.14550555576E+04  0.14550555576E+04  0.00000000000E+00 0. -1.
         21   -1    0    0  501  502  0.00000000000E+00 -0.00000000000E+00 -0.13144273827E+03  0.13144273827E+03  0.00000000000E+00 0. -1.
         23    2    1    2    0    0  0.58969904155E+02 -0.25991491742E+03  0.10836093463E+04  0.11196620265E+04  0.91654920254E+02 0.  0.
         23    2    1    2    0    0  0.81225282534E+01  0.25111955907E+03  0.28105310547E+03  0.38769193839E+03  0.90483051362E+02 0.  0.
        -11    1    4    4    0    0  0.65848032828E+01  0.18753260932E+03  0.14378047405E+03  0.23639937376E+03  0.00000000000E+00 0.  1.
         11    1    4    4    0    0  0.15377249707E+01  0.63586949745E+02  0.13727263142E+03  0.15129256463E+03  0.00000000000E+00 0. -1.
        -13    1    3    3    0    0 -0.14307272558E+02 -0.12916029074E+03  0.57019328650E+03  0.58481404115E+03  0.00000000000E+00 0. -1.
         13    1    3    3    0    0  0.73277176714E+02 -0.13075462668E+03  0.51341605976E+03  0.53484798537E+03  0.00000000000E+00 0.  1.
          2    1    1    2  501    0 -0.67092432409E+02  0.87953583575E+01 -0.41049632366E+02  0.79144331020E+02  0.00000000000E+00 0. -1.
<scales pt_clust_5="13000.00000" pt_clust_6="13000.00000" pt_clust_7="13000.00000" pt_clust_8="13000.00000" pt_clust_9="67.66648"></scales>
<clustering>
<clus scale="   67.666">  2  9  1 -1</clus>
<clus scale="   90.483">  5  6 -1 -1</clus>
<clus scale="   91.655">  7  8 -1 -1</clus>
<clus scale="  276.330">  2  5  1 -1</clus>
<clus scale="   67.666">  2  5  1 -1</clus>
</clustering>
</event>
<event>
 9    1  0.1315259E-005  0.1518052E+03  0.7546771E-02  0.1200969E+00
          1   -1    0    0  502    0 -0.00000000000E+00  0.00000000000E+00  0.18606403270E+03  0.18606403270E+03  0.00000000000E+00 0. -1.
         21   -1    0    0  501  502  0.00000000000E+00 -0.00000000000E+00 -0.41677457509E+03  0.41677457509E+03  0.00000000000E+00 0. -1.
         23    2    1    2    0    0  0.94180077215E+02 -0.56106953256E+02  0.10585151741E+03  0.17732640255E+03  0.90676524827E+02 0.  0.
         23    2    1    2    0    0 -0.58595760086E+02  0.12321001848E+03 -0.16518860492E+03  0.23806107553E+03  0.10378645737E+03 0.  0.
        -11    1    3    3    0    0  0.65467830134E+02  0.12831578561E+02  0.59786765436E+02  0.89583165339E+02  0.00000000000E+00 0.  1.
         11    1    3    3    0    0  0.28712247080E+02 -0.68938531817E+02  0.46064751974E+02  0.87743237209E+02  0.00000000000E+00 0. -1.
        -13    1    4    4    0    0 -0.16123466255E+02 -0.17313841062E+02 -0.32355463403E+02  0.40082555663E+02  0.00000000000E+00 0.  1.
         13    1    4    4    0    0 -0.42472293831E+02  0.14052385955E+03 -0.13283314152E+03  0.19797851987E+03  0.00000000000E+00 0. -1.
          1    1    1    2  501    0 -0.35584317129E+02 -0.67103065229E+02 -0.17137345489E+03  0.18745112971E+03  0.00000000000E+00 0. -1.
<scales pt_clust_5="13000.00000" pt_clust_6="13000.00000" pt_clust_7="13000.00000" pt_clust_8="13000.00000" pt_clust_9="75.95436"></scales>
<clustering>
<clus scale="   75.954">  2  9  1 -1</clus>
<clus scale="   90.677">  5  6 -1 -1</clus>
<clus scale="  103.786">  7  8 -1 -1</clus>
<clus scale="  143.162">  1  5  2 -1</clus>
<clus scale="   75.954">  2  5  1 -1</clus>
</clustering>
</event>
<event>
 9    1  0.1315259E-005  0.9983828E+02  0.7546771E-02  0.1280812E+00
         21   -1    0    0  501  502  0.00000000000E+00  0.00000000000E+00  0.21011268953E+03  0.21011268953E+03  0.00000000000E+00 0. -1.
          1   -1    0    0  502    0 -0.00000000000E+00 -0.00000000000E+00 -0.13299589892E+03  0.13299589892E+03  0.00000000000E+00 0. -1.
         23    2    1    2    0    0 -0.26347032192E+02 -0.21316965088E+02 -0.54715348927E+02  0.11288627967E+03  0.92741380317E+02 0.  0.
         23    2    1    2    0    0  0.23383419129E+01  0.51005269469E+02  0.14907108396E+02  0.10722118873E+03  0.93097562140E+02 0.  0.
        -13    1    4    4    0    0 -0.18359642862E+02 -0.20206040953E+02  0.18494971880E+02  0.32976121085E+02  0.00000000000E+00 0.  1.
         13    1    4    4    0    0  0.20697984775E+02  0.71211310423E+02 -0.35878634837E+01  0.74245067649E+02  0.00000000000E+00 0. -1.
        -13    1    3    3    0    0 -0.26606499298E+02 -0.55231501855E+02 -0.20329584876E+02  0.64588827388E+02  0.00000000000E+00 0.  1.
         13    1    3    3    0    0  0.25946710592E+00  0.33914536768E+02 -0.34385764051E+02  0.48297452280E+02  0.00000000000E+00 0. -1.
          1    1    1    2  501    0  0.24008690279E+02 -0.29688304382E+02  0.11692503114E+03  0.12300112004E+03  0.00000000000E+00 0. -1.
<scales pt_clust_5="13000.00000" pt_clust_6="13000.00000" pt_clust_7="13000.00000" pt_clust_8="13000.00000" pt_clust_9="38.18131"></scales>
<clustering>
<clus scale="   38.181">  1  9  2 -1</clus>
<clus scale="   92.741">  7  8 -1 -1</clus>
<clus scale="   93.098">  5  6 -1 -1</clus>
<clus scale="   99.506">  2  7  1 -1</clus>
<clus scale="   38.181">  1  5  2 -1</clus>
</clustering>
</event>
<event>
 9    1  0.1315259E-005  0.1569623E+03  0.7546771E-02  0.1192275E+00
         21   -1    0    0  501  502  0.00000000000E+00  0.00000000000E+00  0.95152283883E+02  0.95152283883E+02  0.00000000000E+00 0.  1.
          3   -1    0    0  502    0 -0.00000000000E+00 -0.00000000000E+00 -0.33035022299E+03  0.33035022299E+03  0.00000000000E+00 0. -1.
         23    2    1    2    0    0  0.78889132481E+02 -0.99487336944E+02 -0.16869087944E+03  0.22998623724E+03  0.91191178717E+02 0.  0.
         23    2    1    2    0    0 -0.61826187346E+02  0.11477085711E+03 -0.67723534245E+02  0.17257700427E+03  0.90562234007E+02 0.  0.
        -11    1    3    3    0    0  0.23297574693E+02 -0.23375371359E+02 -0.11889100486E+03  0.12338661195E+03  0.00000000000E+00 0. -1.
         11    1    3    3    0    0  0.55591557788E+02 -0.76111965585E+02 -0.49799874584E+02  0.10659962529E+03  0.00000000000E+00 0.  1.
        -13    1    4    4    0    0  0.37454398792E+01  0.70688805122E+02 -0.60707782909E+02  0.93254331777E+02  0.00000000000E+00 0.  1.
         13    1    4    4    0    0 -0.65571627225E+02  0.44082051989E+02 -0.70157513357E+01  0.79322672492E+02  0.00000000000E+00 0. -1.
          3    1    1    2  501    0 -0.17062945135E+02 -0.15283520167E+02  0.12164745743E+01  0.22939265371E+02  0.00000000000E+00 0. -1.
<scales pt_clust_5="13000.00000" pt_clust_6="13000.00000" pt_clust_7="13000.00000" pt_clust_8="13000.00000" pt_clust_9="22.90699"></scales>
<clustering>
<clus scale="   22.907">  1  9  2 -1</clus>
<clus scale="   90.562">  7  8 -1 -1</clus>
<clus scale="   91.191">  5  6 -1 -1</clus>
<clus scale="  156.598">  1  7  2 -1</clus>
<clus scale="   22.907">  1  5  2 -1</clus>
</clustering>
</event>
<event>
 9    1  0.1315259E-005  0.1701362E+03  0.7546771E-02  0.1177768E+00
          1   -1    0    0  502    0 -0.00000000000E+00  0.00000000000E+00  0.60532927522E+02  0.60532927522E+02  0.00000000000E+00 0. -1.
         21   -1    0    0  501  502  0.00000000000E+00 -0.00000000000E+00 -0.64617813201E+03  0.64617813201E+03  0.00000000000E+00 0.  1.
         23    2    1    2    0    0 -0.12041240653E+03 -0.86835506080E+02 -0.16006942273E+03  0.23665362402E+03  0.91340926793E+02 0.  0.
         23    2    1    2    0    0  0.12569049349E+03  0.54699623611E+02 -0.32347603368E+03  0.36288966189E+03  0.90895617975E+02 0.  0.
        -13    1    4    4    0    0  0.10121376007E+03  0.12908418605E+01 -0.24309582990E+03  0.26332769321E+03  0.00000000000E+00 0. -1.
         13    1    4    4    0    0  0.24476733414E+02  0.53408781750E+02 -0.80380203780E+02  0.99561968675E+02  0.00000000000E+00 0.  1.
        -13    1    3    3    0    0 -0.34360281385E+02 -0.27077633148E+02 -0.11418752743E+03  0.12228090028E+03  0.00000000000E+00 0.  1.
         13    1    3    3    0    0 -0.86052125148E+02 -0.59757872931E+02 -0.45881895303E+02  0.11437272374E+03  0.00000000000E+00 0. -1.
          1    1    1    2  501    0 -0.52780869542E+01  0.32135882469E+02 -0.10209974808E+03  0.10716777362E+03  0.00000000000E+00 0. -1.
<scales pt_clust_5="13000.00000" pt_clust_6="13000.00000" pt_clust_7="13000.00000" pt_clust_8="13000.00000" pt_clust_9="32.56644"></scales>
<clustering>
<clus scale="   32.566">  2  9  1 -1</clus>
<clus scale="   90.896">  5  6 -1 -1</clus>
<clus scale="   91.341">  7  8 -1 -1</clus>
<clus scale="  169.898">  2  5  1 -1</clus>
<clus scale="   32.566">  2  5  1 -1</clus>
</clustering>
</event>
<event>
 9    1  0.1315259E-005  0.1304484E+03  0.7546771E-02  0.1226896E+00
         21   -1    0    0  501  502  0.00000000000E+00  0.00000000000E+00  0.57959771170E+03  0.57959771170E+03  0.00000000000E+00 0. -1.
          1   -1    0    0  502    0 -0.00000000000E+00 -0.00000000000E+00 -0.26117103399E+03  0.26117103399E+03  0.00000000000E+00 0. -1.
         23    2    1    2    0    0  0.64062302573E+02 -0.78737509499E+02 -0.22350384193E+03  0.26199023663E+03  0.91549673487E+02 0.  0.
         23    2    1    2    0    0 -0.26185034161E+02  0.82687999640E+01  0.14221563991E+03  0.17113588179E+03  0.91149178469E+02 0.  0.
        -11    1    4    4    0    0  0.31880798194E+02  0.65641477067E+01  0.78135852297E+02  0.84644460792E+02  0.00000000000E+00 0.  1.
         11    1    4    4    0    0 -0.58065832354E+02  0.17046522574E+01  0.64079787609E+02  0.86491420998E+02  0.00000000000E+00 0. -1.
        -11    1    3    3    0    0  0.20777975443E+02 -0.85874896391E+02 -0.17835057210E+03  0.19903554622E+03  0.00000000000E+00 0. -1.
         11    1    3    3    0    0  0.43284327130E+02  0.71373868918E+01 -0.45153269840E+02  0.62954690405E+02  0.00000000000E+00 0.  1.
          1    1    1    2  501    0 -0.37877268412E+02  0.70468709535E+02  0.39971487974E+03  0.40764262728E+03  0.00000000000E+00 0. -1.
<scales pt_clust_5="13000.00000" pt_clust_6="13000.00000" pt_clust_7="13000.00000" pt_clust_8="13000.00000" pt_clust_9="80.00329"></scales>
<clustering>
<clus scale="   80.003">  1  9  2 -1</clus>
<clus scale="   91.149">  5  6 -1 -1</clus>
<clus scale="   91.550">  7  8 -1 -1</clus>
<clus scale="  130.168">  1  5  2 -1</clus>
<clus scale="   80.003">  1  5  2 -1</clus>
</clustering>
</event>
<event>
 9    1  0.1315259E-005  0.1430598E+03  0.7546771E-02  0.1230072E+00
          1   -1    0    0  502    0 -0.00000000000E+00  0.00000000000E+00  0.88572671704E+02  0.88572671704E+02  0.00000000000E+00 0. -1.
         21   -1    0    0  501  502  0.00000000000E+00 -0.00000000000E+00 -0.42244065389E+03  0.42244065389E+03  0.00000000000E+00 0. -1.
         23    2    1    2    0    0  0.14727701932E+02 -0.17923485017E+02 -0.79412334651E+00  0.92410767282E+02  0.89448100921E+02 0.  0.
         23    2    1    2    0    0 -0.66316509045E+02  0.10297694778E+03 -0.19945089200E+03  0.25201746350E+03  0.93434535597E+02 0.  0.
        -11    1    4    4    0    0 -0.77083359376E+02  0.77078380409E+02 -0.97404200236E+02  0.14618652210E+03  0.00000000000E+00 0.  1.
         11    1    4    4    0    0  0.10766850331E+02  0.25898567370E+02 -0.10204669176E+03  0.10583094140E+03  0.00000000000E+00 0. -1.
        -13    1    3    3    0    0  0.22993904528E+02  0.28574408213E+02 -0.19589882830E+02  0.41581004792E+02  0.00000000000E+00 0.  1.
         13    1    3    3    0    0 -0.82662025962E+01 -0.46497893230E+02  0.18795759484E+02  0.50829762490E+02  0.00000000000E+00 0. -1.
          1    1    1    2  501    0  0.51588807113E+02 -0.85053462762E+02 -0.13362296684E+03  0.16658509481E+03  0.00000000000E+00 0. -1.
<scales pt_clust_5="13000.00000" pt_clust_6="13000.00000" pt_clust_7="13000.00000" pt_clust_8="13000.00000" pt_clust_9="108.33321"></scales>
<clustering>
<clus scale="   89.448">  7  8 -1 -1</clus>
<clus scale="   92.407">  1  7  2 -1</clus>
<clus scale="   93.435">  5  6 -1 -1</clus>
<clus scale="  108.333">  2  9  1 -1</clus>
<clus scale="  108.333">  2  5  1 -1</clus>
</clustering>
</event>
<event>
 9    1  0.1315259E-005  0.9227286E+02  0.7546771E-02  0.1298282E+00
         21   -1    0    0  501  502  0.00000000000E+00  0.00000000000E+00  0.22876517187E+03  0.22876517187E+03  0.00000000000E+00 0. -1.
         -3   -1    0    0    0  501 -0.00000000000E+00 -0.00000000000E+00 -0.66408806341E+02  0.66408806341E+02  0.00000000000E+00 0.  1.
         23    2    1    2    0    0  0.19162177825E+01 -0.16841085893E+02  0.71460850989E+00  0.93234154748E+02  0.91677712022E+02 0.  0.
         23    2    1    2    0    0  0.36735136801E+01 -0.46259811851E+01  0.92647325079E+02  0.12946698921E+03  0.90240124362E+02 0.  0.
        -11    1    3    3    0    0 -0.35126193177E+02 -0.29688366475E+02  0.19260557340E+02  0.49861985721E+02  0.00000000000E+00 0.  1.
         11    1    3    3    0    0  0.37042410960E+02  0.12847280582E+02 -0.18545948830E+02  0.43372169026E+02  0.00000000000E+00 0. -1.
        -13    1    4    4    0    0  0.42312006804E+02 -0.13322001789E+02  0.24575924928E+02  0.50712500801E+02  0.00000000000E+00 0.  1.
         13    1    4    4    0    0 -0.38638493124E+02  0.86960206039E+01  0.68071400152E+02  0.78754488404E+02  0.00000000000E+00 0. -1.
         -3    1    1    2    0  502 -0.55897314627E+01  0.21467067078E+02  0.68994431935E+02  0.72472834253E+02  0.00000000000E+00 0.  1.
<scales pt_clust_5="13000.00000" pt_clust_6="13000.00000" pt_clust_7="13000.00000" pt_clust_8="13000.00000" pt_clust_9="22.18288"></scales>
<clustering>
<clus scale="   22.183">  1  9  2 -1</clus>
<clus scale="   90.240">  7  8 -1 -1</clus>
<clus scale="   90.845">  1  7  2 -1</clus>
<clus scale="   91.678">  5  6 -1 -1</clus>
<clus scale="   22.183">  1  5  2 -1</clus>
</clustering>
</event>
<event>
 9    1  0.1315259E-005  0.1013289E+03  0.7546771E-02  0.1278395E+00
         -3   -1    0    0    0  501 -0.00000000000E+00  0.00000000000E+00  0.36440160373E+03  0.36440160373E+03  0.00000000000E+00 0.  1.
         21   -1    0    0  501  502  0.00000000000E+00 -0.00000000000E+00 -0.83308645410E+02  0.83308645410E+02  0.00000000000E+00 0.  1.
         23    2    1    2    0    0 -0.33889634237E+02 -0.25033034140E+02  0.18983790657E+03  0.21468129026E+03  0.90964089111E+02 0.  0.
         23    2    1    2    0    0  0.42830483217E+02  0.23896169386E+01  0.14303635970E+03  0.17581036945E+03  0.92788605166E+02 0.  0.
        -11    1    4    4    0    0  0.36938047611E+02 -0.40831347821E+02  0.10204475524E+03  0.11595150020E+03  0.00000000000E+00 0. -1.
         11    1    4    4    0    0  0.58924356057E+01  0.43220964760E+02  0.40991604464E+02  0.59858869256E+02  0.00000000000E+00 0.  1.
        -13    1    3    3    0    0  0.15780360036E+02 -0.25322620965E+02  0.14411068255E+03  0.14716706059E+03  0.00000000000E+00 0.  1.
         13    1    3    3    0    0 -0.49669994273E+02  0.28958682566E+00  0.45727224016E+02  0.67514229669E+02  0.00000000000E+00 0. -1.
         -3    1    1    2    0  502 -0.89408489795E+01  0.22643417201E+02 -0.51781307954E+02  0.57218589430E+02  0.00000000000E+00 0.  1.
<scales pt_clust_5="13000.00000" pt_clust_6="13000.00000" pt_clust_7="13000.00000" pt_clust_8="13000.00000" pt_clust_9="24.34467"></scales>
<clustering>
<clus scale="   24.345">  2  9  1 -1</clus>
<clus scale="   90.964">  7  8 -1 -1</clus>
<clus scale="   92.789">  5  6 -1 -1</clus>
<clus scale="   99.661">  1  7  2 -1</clus>
<clus scale="   24.345">  2  5  1 -1</clus>
</clustering>
</event>
<event>
 9    1  0.2434273E-005  0.1310815E+03  0.7546771E-02  0.1236719E+00
         21   -1    0    0  501  502  0.00000000000E+00  0.00000000000E+00  0.17735799070E+03  0.17735799070E+03  0.00000000000E+00 0. -1.
          2   -1    0    0  502    0 -0.00000000000E+00 -0.00000000000E+00 -0.66344019381E+03  0.66344019381E+03  0.00000000000E+00 0. -1.
         23    2    1    2    0    0  0.36354042774E+02  0.26823050152E+02 -0.49673055810E+03  0.50738832675E+03  0.93062206778E+02 0.  0.
         23    2    1    2    0    0 -0.40914376755E+02 -0.53674158115E+02 -0.12975025560E+03  0.19039395479E+03  0.12190089302E+03 0.  0.
        -11    1    4    4    0    0  0.17490851838E+01 -0.65331321285E+02 -0.14493081918E+02  0.66942439926E+02  0.00000000000E+00 0.  1.
         11    1    4    4    0    0 -0.42663461939E+02  0.11657163170E+02 -0.11525717368E+03  0.12345151487E+03  0.00000000000E+00 0. -1.
        -11    1    3    3    0    0  0.35041025019E+02  0.60177424788E+02 -0.35675028405E+03  0.36348309597E+03  0.00000000000E+00 0. -1.
         11    1    3    3    0    0  0.13130177551E+01 -0.33354374636E+02 -0.13998027405E+03  0.14390523078E+03  0.00000000000E+00 0.  1.
          2    1    1    2  501    0  0.45603339808E+01  0.26851107963E+02  0.14039861059E+03  0.14301590296E+03  0.00000000000E+00 0. -1.
<scales pt_clust_5="13000.00000" pt_clust_6="13000.00000" pt_clust_7="13000.00000" pt_clust_8="13000.00000" pt_clust_9="27.23561"></scales>
<clustering>
<clus scale="   27.236">  1  9  2 -1</clus>
<clus scale="   93.062">  7  8 -1 -1</clus>
<clus scale="  104.800">  2  7  1 -1</clus>
<clus scale="  121.901">  5  6 -1 -1</clus>
<clus scale="   27.236">  1  5  2 -1</clus>
</clustering>
</event>
<event>
 9    1  0.1315259E-005  0.9210099E+02  0.7546771E-02  0.1300258E+00
         21   -1    0    0  501  502  0.00000000000E+00  0.00000000000E+00  0.10345594206E+03  0.10345594206E+03  0.00000000000E+00 0. -1.
          3   -1    0    0  502    0 -0.00000000000E+00 -0.00000000000E+00 -0.12944533096E+03  0.12944533096E+03  0.00000000000E+00 0. -1.
         23    2    1    2    0    0 -0.26901547936E+02 -0.24259421650E+02 -0.27945171057E+02  0.10149930887E+03  0.90603334904E+02 0.  0.
         23    2    1    2    0    0  0.11727265639E+01 -0.69245984745E+01 -0.14032229753E+02  0.87927467202E+02  0.86515956130E+02 0.  0.
        -11    1    4    4    0    0  0.39863976833E+02 -0.10311681554E+02  0.98437796961E+01  0.42336360544E+02  0.00000000000E+00 0. -1.
         11    1    4    4    0    0 -0.38691250269E+02  0.33870830793E+01 -0.23876009449E+02  0.45591106659E+02  0.00000000000E+00 0.  1.
        -13    1    3    3    0    0 -0.52967205339E+02 -0.35464274619E+02 -0.34355376847E+02  0.72412233318E+02  0.00000000000E+00 0. -1.
         13    1    3    3    0    0  0.26065657404E+02  0.11204852970E+02  0.64102057903E+01  0.29087075553E+02  0.00000000000E+00 0.  1.
          3    1    1    2  501    0  0.25728821372E+02  0.31184020124E+02  0.15988011904E+02  0.43474496949E+02  0.00000000000E+00 0. -1.
<scales pt_clust_5="13000.00000" pt_clust_6="13000.00000" pt_clust_7="13000.00000" pt_clust_8="13000.00000" pt_clust_9="40.42790"></scales>
<clustering>
<clus scale="   40.428">  1  9  2 -1</clus>
<clus scale="   86.516">  5  6 -1 -1</clus>
<clus scale="   88.083">  1  5  2 -1</clus>
<clus scale="   90.603">  7  8 -1 -1</clus>
<clus scale="   40.428">  1  5  2 -1</clus>
</clustering>
</event>
<event>
 9    1  0.1315259E-005  0.1060650E+03  0.7546771E-02  0.1268081E+00
          2   -1    0    0  502    0 -0.00000000000E+00  0.00000000000E+00  0.41708979384E+03  0.41708979384E+03  0.00000000000E+00 0. -1.
         21   -1    0    0  501  502  0.00000000000E+00 -0.00000000000E+00 -0.64930714465E+02  0.64930714465E+02  0.00000000000E+00 0. -1.
         23    2    1    2    0    0 -0.51121336492E+02  0.97279300193E+01  0.21594159861E+03  0.23980486996E+03  0.90374653413E+02 0.  0.
         23    2    1    2    0    0  0.35904933499E+02 -0.73232178884E+02  0.12749042092E+03  0.17633324223E+03  0.90484742454E+02 0.  0.
        -11    1    3    3    0    0  0.15016591023E+02 -0.18325105613E+02  0.19652708088E+02  0.30782079801E+02  0.00000000000E+00 0.  1.
         11    1    3    3    0    0 -0.66137927514E+02  0.28053035632E+02  0.19628889052E+03  0.20902279016E+03  0.00000000000E+00 0. -1.
        -11    1    4    4    0    0  0.50191654169E+02 -0.32234635252E+01  0.55650315932E+02  0.75010336146E+02  0.00000000000E+00 0.  1.
         11    1    4    4    0    0 -0.14286720670E+02 -0.70008715358E+02  0.71840104984E+02  0.10132290609E+03  0.00000000000E+00 0. -1.
          2    1    1    2  501    0  0.15216402992E+02  0.63504248864E+02  0.87270598492E+01  0.65882396112E+02  0.00000000000E+00 0. -1.
<scales pt_clust_5="13000.00000" pt_clust_6="13000.00000" pt_clust_7="13000.00000" pt_clust_8="13000.00000" pt_clust_9="65.30183"></scales>
<clustering>
<clus scale="   65.302">  2  9  1 -1</clus>
<clus scale="   90.375">  5  6 -1 -1</clus>
<clus scale="   90.485">  7  8 -1 -1</clus>
<clus scale="  105.971">  1  5  2 -1</clus>
<clus scale="   65.302">  2  5  1 -1</clus>
</clustering>
</event>
<event>
 9    1  0.1315259E-005  0.1113971E+03  0.7546771E-02  0.1258655E+00
         -3   -1    0    0    0  501 -0.00000000000E+00  0.00000000000E+00  0.24247121155E+03  0.24247121155E+03  0.00000000000E+00 0.  1.
         21   -1    0    0  501  502  0.00000000000E+00 -0.00000000000E+00 -0.10502353918E+03  0.10502353918E+03  0.00000000000E+00 0. -1.
         23    2    1    2    0    0 -0.66141459887E+01 -0.73587549485E+02  0.10352689511E+03  0.15722368404E+03  0.92426156715E+02 0.  0.
         23    2    1    2    0    0 -0.42915301821E+02  0.44039665432E+02  0.62230431885E+02  0.12602404189E+03  0.90709521110E+02 0.  0.
        -11    1    4    4    0    0 -0.34889715577E+02  0.88335986205E+01  0.78546608265E+02  0.86399620298E+02  0.00000000000E+00 0.  1.
         11    1    4    4    0    0 -0.80255862444E+01  0.35206066812E+02 -0.16316176380E+02  0.39624421593E+02  0.00000000000E+00 0. -1.
        -13    1    3    3    0    0 -0.69042917942E+01  0.21295636951E+02  0.28619412072E+02  0.36335164038E+02  0.00000000000E+00 0. -1.
         13    1    3    3    0    0  0.29014580543E+00 -0.94883186436E+02  0.74907483034E+02  0.12088852000E+03  0.00000000000E+00 0.  1.
         -3    1    1    2    0  502  0.49529447810E+02  0.29547884053E+02 -0.28309654620E+02  0.64247024811E+02  0.00000000000E+00 0.  1.
<scales pt_clust_5="13000.00000" pt_clust_6="13000.00000" pt_clust_7="13000.00000" pt_clust_8="13000.00000" pt_clust_9="57.67360"></scales>
<clustering>
<clus scale="   57.674">  2  9  1 -1</clus>
<clus scale="   90.710">  5  6 -1 -1</clus>
<clus scale="   92.426">  7  8 -1 -1</clus>
<clus scale="  109.977">  2  5  1 -1</clus>
<clus scale="   57.674">  2  5  1 -1</clus>
</clustering>
</event>
<event>
 9    1  0.1315259E-005  0.1744154E+03  0.7546771E-02  0.1187031E+00
         21   -1    0    0  501  502  0.00000000000E+00  0.00000000000E+00  0.25595274379E+03  0.25595274379E+03  0.00000000000E+00 0. -1.
          1   -1    0    0  502    0 -0.00000000000E+00 -0.00000000000E+00 -0.48488946551E+03  0.48488946551E+03  0.00000000000E+00 0. -1.
         23    2    1    2    0    0 -0.79811882780E+02 -0.41991273511E+02 -0.28243041700E+03  0.31015017058E+03  0.91065823328E+02 0.  0.
         23    2    1    2    0    0  0.14050403627E+03  0.16532916610E+03 -0.70900821871E+02  0.24530118366E+03  0.89836667295E+02 0.  0.
        -11    1    4    4    0    0  0.94977302479E+02  0.73375798471E+02  0.97673419131E+00  0.12002353851E+03  0.00000000000E+00 0.  1.
         11    1    4    4    0    0  0.45526733795E+02  0.91953367624E+02 -0.71877556062E+02  0.12527764514E+03  0.00000000000E+00 0. -1.
        -11    1    3    3    0    0 -0.35527310813E+02 -0.68011824373E+02 -0.16415152077E+03  0.18120022030E+03  0.00000000000E+00 0. -1.
         11    1    3    3    0    0 -0.44284571967E+02  0.26020550862E+02 -0.11827889623E+03  0.12894995027E+03  0.00000000000E+00 0.  1.
          1    1    1    2  501    0 -0.60692153494E+02 -0.12333789258E+03  0.12439451715E+03  0.18539085506E+03  0.00000000000E+00 0. -1.
<scales pt_clust_5="13000.00000" pt_clust_6="13000.00000" pt_clust_7="13000.00000" pt_clust_8="13000.00000" pt_clust_9="149.49948"></scales>
<clustering>
<clus scale="   89.837">  5  6 -1 -1</clus>
<clus scale="   91.066">  7  8 -1 -1</clus>
<clus scale="  128.165">  2  7  1 -1</clus>
<clus scale="  149.499">  1  9  2 -1</clus>
<clus scale="  149.499">  1  5  2 -1</clus>
</clustering>
</event>
<event>
 9    1  0.1315259E-005  0.1662137E+03  0.7546771E-02  0.1197497E+00
          2   -1    0    0  502    0 -0.00000000000E+00  0.00000000000E+00  0.29015965418E+03  0.29015965418E+03  0.00000000000E+00 0. -1.
         21   -1    0    0  501  502  0.00000000000E+00 -0.00000000000E+00 -0.26461525375E+03  0.26461525375E+03  0.00000000000E+00 0. -1.
         23    2    1    2    0    0 -0.70836485014E+02 -0.19381032078E+02  0.46979675601E+02  0.12665498503E+03  0.91874715231E+02 0.  0.
         23    2    1    2    0    0  0.13579484658E+03  0.13382937988E+03  0.11311013586E+03  0.23991662675E+03  0.91736261531E+02 0.  0.
        -11    1    4    4    0    0  0.78877322616E+02  0.23860501563E+02  0.19483833375E+02  0.84679249648E+02  0.00000000000E+00 0.  1.
         11    1    4    4    0    0  0.56917523966E+02  0.10996887831E+03  0.93626302486E+02  0.15523737710E+03  0.00000000000E+00 0. -1.
        -11    1    3    3    0    0 -0.51833845933E+01 -0.42642662261E+02  0.57545277380E+00  0.42960391833E+02  0.00000000000E+00 0. -1.
         11    1    3    3    0    0 -0.65653100421E+02  0.23261630183E+02  0.46404222827E+02  0.83694593193E+02  0.00000000000E+00 0.  1.
          2    1    1    2  501    0 -0.64958361568E+02 -0.11444834780E+03 -0.13454541103E+03  0.18820329615E+03  0.00000000000E+00 0. -1.
<scales pt_clust_5="13000.00000" pt_clust_6="13000.00000" pt_clust_7="13000.00000" pt_clust_8="13000.00000" pt_clust_9="138.60535"></scales>
<clustering>
<clus scale="   91.736">  5  6 -1 -1</clus>
<clus scale="   91.875">  7  8 -1 -1</clus>
<clus scale="  117.620">  1  7  2 -1</clus>
<clus scale="  138.605">  2  9  1 -1</clus>
<clus scale="  138.605">  2  5  1 -1</clus>
</clustering>
</event>
<event>
 9    1  0.1315259E-005  0.1028020E+03  0.7546771E-02  0.1279327E+00
         21   -1    0    0  501  502  0.00000000000E+00  0.00000000000E+00  0.15188610811E+03  0.15188610811E+03  0.00000000000E+00 0. -1.
          2   -1    0    0  502    0 -0.00000000000E+00 -0.00000000000E+00 -0.36826589251E+03  0.36826589251E+03  0.00000000000E+00 0. -1.
         23    2    1    2    0    0  0.51727168259E+01  0.38014522518E+02 -0.19085730615E+03  0.21334218965E+03  0.87272662681E+02 0.  0.
         23    2    1    2    0    0  0.33391280918E+02 -0.24700957922E+02 -0.14572330778E+03  0.17987410937E+03  0.96924185974E+02 0.  0.
        -11    1    4    4    0    0  0.37190005698E+02 -0.31184445899E+01 -0.15244922537E+03  0.15695090804E+03  0.00000000000E+00 0. -1.
         11    1    4    4    0    0 -0.37987247801E+01 -0.21582513332E+02  0.67259175849E+01  0.22923201327E+02  0.00000000000E+00 0.  1.
        -13    1    3    3    0    0  0.29092246752E+02  0.30943888540E+02 -0.18197417866E+03  0.18686488369E+03  0.00000000000E+00 0. -1.
         13    1    3    3    0    0 -0.23919529926E+02  0.70706339784E+01 -0.88831274951E+01  0.26477305959E+02  0.00000000000E+00 0.  1.
          2    1    1    2  501    0 -0.38563997743E+02 -0.13313564596E+02  0.12020082952E+03  0.12693570161E+03  0.00000000000E+00 0. -1.
<scales pt_clust_5="13000.00000" pt_clust_6="13000.00000" pt_clust_7="13000.00000" pt_clust_8="13000.00000" pt_clust_9="40.79746"></scales>
<clustering>
<clus scale="   40.797">  1  9  2 -1</clus>
<clus scale="   87.273">  7  8 -1 -1</clus>
<clus scale="   93.758">  2  7  1 -1</clus>
<clus scale="   96.924">  5  6 -1 -1</clus>
<clus scale="   40.797">  1  5  2 -1</clus>
</clustering>
</event>
<event>
 9    1  0.1315259E-005  0.9526018E+02  0.7546771E-02  0.1292131E+00
         -1   -1    0    0    0  501 -0.00000000000E+00  0.00000000000E+00  0.48299796894E+02  0.48299796894E+02  0.00000000000E+00 0.  1.
         21   -1    0    0  501  502  0.00000000000E+00 -0.00000000000E+00 -0.27373587285E+03  0.27373587285E+03  0.00000000000E+00 0.  1.
         23    2    1    2    0    0 -0.11282866264E+02  0.25071464563E+01 -0.65525446491E+02  0.11249621294E+03  0.90709563633E+02 0.  0.
         23    2    1    2    0    0  0.20664662895E+02  0.30995060001E+02 -0.11851010254E+03  0.15546155396E+03  0.93466188106E+02 0.  0.
        -11    1    3    3    0    0 -0.40876887630E+02  0.21590723432E+02 -0.10886495395E+02  0.47493105421E+02  0.00000000000E+00 0.  1.
         11    1    3    3    0    0  0.29594021366E+02 -0.19083576975E+02 -0.54638951097E+02  0.65003107524E+02  0.00000000000E+00 0. -1.
        -13    1    4    4    0    0  0.36145462666E+02  0.58262988668E+02 -0.89496560318E+02  0.11274176080E+03  0.00000000000E+00 0.  1.
         13    1    4    4    0    0 -0.15480799771E+02 -0.27267928667E+02 -0.29013542219E+02  0.42719793157E+02  0.00000000000E+00 0. -1.
         -1    1    1    2    0  502 -0.93817966315E+01 -0.33502206458E+02 -0.41400526923E+02  0.54077902836E+02  0.00000000000E+00 0.  1.
<scales pt_clust_5="13000.00000" pt_clust_6="13000.00000" pt_clust_7="13000.00000" pt_clust_8="13000.00000" pt_clust_9="34.79103"></scales>
<clustering>
<clus scale="   34.791">  2  9  1 -1</clus>
<clus scale="   90.710">  5  6 -1 -1</clus>
<clus scale="   92.557">  1  5  2 -1</clus>
<clus scale="   93.466">  7  8 -1 -1</clus>
<clus scale="   34.791">  2  5  1 -1</clus>
</clustering>
</event>
<event>
 9    1  0.1315259E-005  0.1278356E+03  0.7546771E-02  0.1241145E+00
         -4   -1    0    0    0  501 -0.00000000000E+00  0.00000000000E+00  0.14488821521E+03  0.14488821521E+03  0.00000000000E+00 0.  1.
         21   -1    0    0  501  502  0.00000000000E+00 -0.00000000000E+00 -0.16605166647E+03  0.16605166647E+03  0.00000000000E+00 0. -1.
         23    2    1    2    0    0  0.12422813323E+02 -0.32264514772E+02  0.20393511689E+02  0.10621546823E+03  0.98338726697E+02 0.  0.
         23    2    1    2    0    0 -0.30539617880E+02  0.10017615226E+02 -0.84286744532E+02  0.15325619626E+03  0.12389586560E+03 0.  0.
        -13    1    3    3    0    0  0.25526274631E+02 -0.63967643514E+02  0.64094011677E+01  0.69170300972E+02  0.00000000000E+00 0.  1.
         13    1    3    3    0    0 -0.13103461308E+02  0.31703128741E+02  0.13984110522E+02  0.37045167260E+02  0.00000000000E+00 0. -1.
        -13    1    4    4    0    0 -0.25302419883E+02 -0.27832653651E+02  0.19707086740E+02  0.42464553794E+02  0.00000000000E+00 0.  1.
         13    1    4    4    0    0 -0.52371979971E+01  0.37850268876E+02 -0.10399383127E+03  0.11079164246E+03  0.00000000000E+00 0. -1.
         -4    1    1    2    0  502  0.18116804557E+02  0.22246899547E+02  0.42729781588E+02  0.51468217196E+02  0.00000000000E+00 0.  1.
<scales pt_clust_5="13000.00000" pt_clust_6="13000.00000" pt_clust_7="13000.00000" pt_clust_8="13000.00000" pt_clust_9="28.69049"></scales>
<clustering>
<clus scale="   28.690">  2  9  1 -1</clus>
<clus scale="   98.339">  5  6 -1 -1</clus>
<clus scale="  103.258">  1  5  2 -1</clus>
<clus scale="  123.896">  7  8 -1 -1</clus>
<clus scale="   28.690">  2  5  1 -1</clus>
</clustering>
</event>
<event>
 9    1  0.1315259E-005  0.1035452E+03  0.7546771E-02  0.1273795E+00
         -3   -1    0    0    0  501 -0.00000000000E+00  0.00000000000E+00  0.65142899738E+02  0.65142899738E+02  0.00000000000E+00 0.  1.
         21   -1    0    0  501  502  0.00000000000E+00 -0.00000000000E+00 -0.60086313732E+03  0.60086313732E+03  0.00000000000E+00 0.  1.
         23    2    1    2    0    0 -0.15639339594E+01  0.23917184408E+01 -0.47568568675E+02  0.11001339571E+03  0.99156504089E+02 0.  0.
         23    2    1    2    0    0  0.73074816396E+02  0.21462660591E+02 -0.95896225553E+02  0.15655907923E+03  0.97540169279E+02 0.  0.
        -13    1    4    4    0    0 -0.18639119460E+02 -0.76192772648E+01  0.79744530870E+00  0.20152073822E+02  0.00000000000E+00 0. -1.
         13    1    4    4    0    0  0.91713935856E+02  0.29081937856E+02 -0.96693670862E+02  0.13640700541E+03  0.00000000000E+00 0.  1.
        -13    1    3    3    0    0 -0.29837776768E+02 -0.38746331683E+02 -0.28330205908E+02  0.56517003708E+02  0.00000000000E+00 0.  1.
         13    1    3    3    0    0  0.28273842808E+02  0.41138050124E+02 -0.19238362766E+02  0.53496392000E+02  0.00000000000E+00 0. -1.
         -3    1    1    2    0  502 -0.71510882436E+02 -0.23854379032E+02 -0.39225544335E+03  0.39943356212E+03  0.00000000000E+00 0.  1.
<scales pt_clust_5="13000.00000" pt_clust_6="13000.00000" pt_clust_7="13000.00000" pt_clust_8="13000.00000" pt_clust_9="75.38460"></scales>
<clustering>
<clus scale="   75.385">  2  9  1 -1</clus>
<clus scale="   97.540">  5  6 -1 -1</clus>
<clus scale="   99.157">  7  8 -1 -1</clus>
<clus scale="  101.998">  2  5  1 -1</clus>
<clus scale="   75.385">  2  5  1 -1</clus>
</clustering>
</event>
<event>
 9    1  0.1315259E-005  0.9952689E+02  0.7546771E-02  0.1284787E+00
          1   -1    0    0  502    0 -0.00000000000E+00  0.00000000000E+00  0.59805428670E+02  0.59805428670E+02  0.00000000000E+00 0. -1.
         21   -1    0    0  501  502  0.00000000000E+00 -0.00000000000E+00 -0.35812824211E+03  0.35812824211E+03  0.00000000000E+00 0. -1.
         23    2    1    2    0    0  0.26190109110E+01 -0.66480062235E+00 -0.47745373107E+01  0.93148522377E+02  0.92986826145E+02 0.  0.
         23    2    1    2    0    0 -0.42480059869E+01 -0.25325562091E+02 -0.17046109441E+03  0.19897335689E+03  0.99367914319E+02 0.  0.
        -11    1    4    4    0    0 -0.25379644265E+02  0.21800187938E+02 -0.17978331415E+02  0.37981507837E+02  0.00000000000E+00 0.  1.
         11    1    4    4    0    0  0.21131638278E+02 -0.47125750029E+02 -0.15248276299E+03  0.16099184905E+03  0.00000000000E+00 0. -1.
        -13    1    3    3    0    0  0.38250745280E+02  0.19205459408E+02 -0.22858001716E+02  0.48522751653E+02  0.00000000000E+00 0.  1.
         13    1    3    3    0    0 -0.35631734369E+02 -0.19870260030E+02  0.18083464405E+02  0.44625770724E+02  0.00000000000E+00 0. -1.
          1    1    1    2  501    0  0.16289950758E+01  0.25990362714E+02 -0.12308718172E+03  0.12581179151E+03  0.00000000000E+00 0. -1.
<scales pt_clust_5="13000.00000" pt_clust_6="13000.00000" pt_clust_7="13000.00000" pt_clust_8="13000.00000" pt_clust_9="26.04136"></scales>
<clustering>
<clus scale="   26.041">  2  9  1 -1</clus>
<clus scale="   92.987">  7  8 -1 -1</clus>
<clus scale="   93.157">  1  7  2 -1</clus>
<clus scale="   99.368">  5  6 -1 -1</clus>
<clus scale="   26.041">  2  5  1 -1</clus>
</clustering>
</event>
<event>
 9    1  0.1315259E-005  0.1219485E+03  0.7546771E-02  0.1240399E+00
         -2   -1    0    0    0  501 -0.00000000000E+00  0.00000000000E+00  0.51231708778E+02  0.51231708778E+02  0.00000000000E+00 0.  1.
         21   -1    0    0  501  502  0.00000000000E+00 -0.00000000000E+00 -0.52452571335E+03  0.52452571335E+03  0.00000000000E+00 0.  1.
         23    2    1    2    0    0  0.48390572695E+02 -0.60160032857E+02 -0.73672888430E+02  0.14024841245E+03  0.91000250699E+02 0.  0.
         23    2    1    2    0    0 -0.81648252084E+02  0.40021395996E+02 -0.26009144525E+03  0.29066368875E+03  0.92572516777E+02 0.  0.
        -11    1    3    3    0    0  0.71339266450E+02 -0.41090694486E+02 -0.30556891607E+02  0.87814917501E+02  0.00000000000E+00 0.  1.
         11    1    3    3    0    0 -0.22948693756E+02 -0.19069338370E+02 -0.43115996822E+02  0.52433494953E+02  0.00000000000E+00 0. -1.
        -11    1    4    4    0    0 -0.72627015113E+02  0.63869107211E+02 -0.23809866227E+03  0.25699206049E+03  0.00000000000E+00 0.  1.
         11    1    4    4    0    0 -0.90212369705E+01 -0.23847711215E+02 -0.21992782973E+02  0.33671628258E+02  0.00000000000E+00 0. -1.
         -2    1    1    2    0  502  0.33257679389E+02  0.20138636860E+02 -0.13952967090E+03  0.14484532092E+03  0.00000000000E+00 0.  1.
<scales pt_clust_5="13000.00000" pt_clust_6="13000.00000" pt_clust_7="13000.00000" pt_clust_8="13000.00000" pt_clust_9="38.87979"></scales>
<clustering>
<clus scale="   38.880">  2  9  1 -1</clus>
<clus scale="   91.000">  5  6 -1 -1</clus>
<clus scale="   92.573">  7  8 -1 -1</clus>
<clus scale="  120.759">  1  5  2 -1</clus>
<clus scale="   38.880">  2  5  1 -1</clus>
</clustering>
</event>
<event>
 9    1  0.1315259E-005  0.9469487E+02  0.7546771E-02  0.1293832E+00
          2   -1    0    0  502    0 -0.00000000000E+00  0.00000000000E+00  0.25170523098E+03  0.25170523098E+03  0.00000000000E+00 0. -1.
         21   -1    0    0  501  502  0.00000000000E+00 -0.00000000000E+00 -0.61279961282E+02  0.61279961282E+02  0.00000000000E+00 0.  1.
         23    2    1    2    0    0  0.13335410916E+02  0.43483333595E+01  0.13764640614E+03  0.16573801021E+03  0.91245896996E+02 0.  0.
         23    2    1    2    0    0  0.21596906701E+02  0.12393797210E+02  0.45044593853E+02  0.10774547730E+03  0.94657487053E+02 0.  0.
        -13    1    4    4    0    0  0.13768551692E+01 -0.40692813769E+02  0.14313104904E+02  0.43158612056E+02  0.00000000000E+00 0.  1.
         13    1    4    4    0    0  0.20220051532E+02  0.53086610979E+02  0.30731488949E+02  0.64586865245E+02  0.00000000000E+00 0. -1.
        -13    1    3    3    0    0  0.31397486853E+02 -0.31812001769E+02  0.10381356734E+03  0.11302682160E+03  0.00000000000E+00 0.  1.
         13    1    3    3    0    0 -0.18062075936E+02  0.36160335128E+02  0.33832838801E+02  0.52711188614E+02  0.00000000000E+00 0. -1.
          2    1    1    2  501    0 -0.34932317618E+02 -0.16742130569E+02  0.77342697055E+01  0.39501704748E+02  0.00000000000E+00 0. -1.
<scales pt_clust_5="13000.00000" pt_clust_6="13000.00000" pt_clust_7="13000.00000" pt_clust_8="13000.00000" pt_clust_9="38.73714"></scales>
<clustering>
<clus scale="   38.737">  2  9  1 -1</clus>
<clus scale="   91.246">  7  8 -1 -1</clus>
<clus scale="   91.285">  1  7  2 -1</clus>
<clus scale="   94.657">  5  6 -1 -1</clus>
<clus scale="   38.737">  2  5  1 -1</clus>
</clustering>
</event>
<event>
 9    1  0.1315259E-005  0.9270462E+02  0.7546771E-02  0.1303522E+00
         21   -1    0    0  501  502  0.00000000000E+00  0.00000000000E+00  0.28774700249E+03  0.28774700249E+03  0.00000000000E+00 0. -1.
          1   -1    0    0  502    0 -0.00000000000E+00 -0.00000000000E+00 -0.42276012218E+02  0.42276012218E+02  0.00000000000E+00 0. -1.
         23    2    1    2    0    0 -0.23234234871E+02  0.35842264656E+01  0.61296182138E+02  0.11048000184E+03  0.88859059825E+02 0.  0.
         23    2    1    2    0    0  0.18475129149E+02 -0.33106459511E+02  0.10941095092E+03  0.13902068257E+03  0.76932606492E+02 0.  0.
        -11    1    3    3    0    0 -0.22073402226E+02 -0.38074975860E+02  0.11389226046E+02  0.45460459110E+02  0.00000000000E+00 0. -1.
         11    1    3    3    0    0 -0.11608326454E+01  0.41659202325E+02  0.49906956091E+02  0.65019542732E+02  0.00000000000E+00 0.  1.
        -13    1    4    4    0    0 -0.28508410567E+02 -0.22265174390E+02  0.34866428407E+02  0.50240773218E+02  0.00000000000E+00 0.  1.
         13    1    4    4    0    0  0.46983539715E+02 -0.10841285120E+02  0.74544522517E+02  0.88779909352E+02  0.00000000000E+00 0. -1.
          1    1    1    2  501    0  0.47591057227E+01  0.29522233045E+02  0.74763857208E+02  0.80522330293E+02  0.00000000000E+00 0. -1.
<scales pt_clust_5="13000.00000" pt_clust_6="13000.00000" pt_clust_7="13000.00000" pt_clust_8="13000.00000" pt_clust_9="29.90337"></scales>
<clustering>
<clus scale="   29.903">  1  9  2 -1</clus>
<clus scale="   76.933">  7  8 -1 -1</clus>
<clus scale="   81.344">  1  7  2 -1</clus>
<clus scale="   88.859">  5  6 -1 -1</clus>
<clus scale="   29.903">  1  5  2 -1</clus>
</clustering>
</event>
<event>
 9    1  0.1315259E-005  0.1189385E+03  0.7546771E-02  0.1248957E+00
         21   -1    0    0  501  502  0.00000000000E+00  0.00000000000E+00  0.64897175245E+02  0.64897175245E+02  0.00000000000E+00 0. -1.
          2   -1    0    0  502    0 -0.00000000000E+00 -0.00000000000E+00 -0.60052876883E+03  0.60052876883E+03  0.00000000000E+00 0. -1.
         23    2    1    2    0    0  0.51519057011E+02 -0.17153749106E+02 -0.35969670630E+03  0.37511278114E+03  0.91539137551E+02 0.  0.
         23    2    1    2    0    0 -0.65255954393E+02  0.35123967979E+02 -0.21248955928E+03  0.24732624445E+03  0.10259837075E+03 0.  0.
        -13    1    4    4    0    0  0.19909330519E+02 -0.17054052902E+02 -0.35971838588E+02  0.44510620458E+02  0.00000000000E+00 0. -1.
         13    1    4    4    0    0 -0.85165284912E+02  0.52178020881E+02 -0.17651772069E+03  0.20281562399E+03  0.00000000000E+00 0.  1.
        -13    1    3    3    0    0 -0.22744453216E+02  0.20230222820E+00 -0.36237820441E+02  0.42784701805E+02  0.00000000000E+00 0.  1.
         13    1    3    3    0    0  0.74263510227E+02 -0.17356051335E+02 -0.32345888586E+03  0.33232807933E+03  0.00000000000E+00 0. -1.
          2    1    1    2  501    0  0.13736897382E+02 -0.17970218873E+02  0.36554671999E+02  0.42986918486E+02  0.00000000000E+00 0. -1.
<scales pt_clust_5="13000.00000" pt_clust_6="13000.00000" pt_clust_7="13000.00000" pt_clust_8="13000.00000" pt_clust_9="22.61926"></scales>
<clustering>
<clus scale="   22.619">  1  9  2 -1</clus>
<clus scale="   91.539">  7  8 -1 -1</clus>
<clus scale="  102.598">  5  6 -1 -1</clus>
<clus scale="  109.542">  2  7  1 -1</clus>
<clus scale="   22.619">  1  5  2 -1</clus>
</clustering>
</event>
<event>
 9    1  0.1315259E-005  0.1026625E+03  0.7546771E-02  0.1278544E+00
         21   -1    0    0  501  502  0.00000000000E+00  0.00000000000E+00  0.32743921394E+03  0.32743921394E+03  0.00000000000E+00 0.  1.
          2   -1    0    0  502    0 -0.00000000000E+00 -0.00000000000E+00 -0.42051372303E+02  0.42051372303E+02  0.00000000000E+00 0. -1.
         23    2    1    2    0    0  0.34714024824E+02 -0.13543822127E+02  0.71693729783E+02  0.12174467802E+03  0.91067431601E+02 0.  0.
         23    2    1    2    0    0 -0.91002035032E+01  0.11304845140E+02  0.17328578876E+03  0.19985109184E+03  0.98498127383E+02 0.  0.
        -13    1    4    4    0    0 -0.53760898849E+02  0.16720128208E+01  0.97844804113E+02  0.11165408888E+03  0.00000000000E+00 0. -1.
         13    1    4    4    0    0  0.44660695346E+02  0.96328323190E+01  0.75440984645E+02  0.88197002962E+02  0.00000000000E+00 0.  1.
        -13    1    3    3    0    0  0.57571804111E+02 -0.28659301575E+02  0.68818756757E+02  0.94190708018E+02  0.00000000000E+00 0.  1.
         13    1    3    3    0    0 -0.22857779287E+02  0.15115479448E+02  0.28749730261E+01  0.27553970000E+02  0.00000000000E+00 0. -1.
          2    1    1    2  501    0 -0.25613821321E+02  0.22389769874E+01  0.40408323092E+02  0.47894816377E+02  0.00000000000E+00 0. -1.
<scales pt_clust_5="13000.00000" pt_clust_6="13000.00000" pt_clust_7="13000.00000" pt_clust_8="13000.00000" pt_clust_9="25.71149"></scales>
<clustering>
<clus scale="   25.711">  1  9  2 -1</clus>
<clus scale="   91.067">  7  8 -1 -1</clus>
<clus scale="   95.556">  2  7  1 -1</clus>
<clus scale="   98.498">  5  6 -1 -1</clus>
<clus scale="   25.711">  1  5  2 -1</clus>
</clustering>
</event>
<event>
 9    1  0.1315259E-005  0.2318012E+03  0.7546771E-02  0.1126156E+00
          1   -1    0    0  502    0 -0.00000000000E+00  0.00000000000E+00  0.14426895156E+04  0.14426895156E+04  0.00000000000E+00 0. -1.
         21   -1    0    0  501  502  0.00000000000E+00 -0.00000000000E+00 -0.72928804909E+02  0.72928804909E+02  0.00000000000E+00 0.  1.
         23    2    1    2    0    0  0.12647902637E+03  0.17045736982E+03  0.11918104711E+04  0.12140457228E+04  0.91881222844E+02 0.  0.
         23    2    1    2    0    0 -0.11133146570E+03 -0.15217386132E+03  0.17646434884E+03  0.27778303806E+03  0.10233362351E+03 0.  0.
        -11    1    3    3    0    0  0.12937622622E+03  0.11124832705E+03  0.93911639172E+03  0.95449148524E+03  0.00000000000E+00 0.  1.
         11    1    3    3    0    0 -0.28971998460E+01  0.59209042766E+02  0.25269407935E+03  0.25955423759E+03  0.00000000000E+00 0. -1.
        -13    1    4    4    0    0 -0.59960187040E+02 -0.14350099451E+03  0.98765962936E+02  0.18423483625E+03  0.00000000000E+00 0.  1.
         13    1    4    4    0    0 -0.51371278661E+02 -0.86728668108E+01  0.77698385902E+02  0.93548201809E+02  0.00000000000E+00 0. -1.
          1    1    1    2  501    0 -0.15147560672E+02 -0.18283508499E+02  0.14858908193E+01  0.23789559661E+02  0.00000000000E+00 0. -1.
<scales pt_clust_5="13000.00000" pt_clust_6="13000.00000" pt_clust_7="13000.00000" pt_clust_8="13000.00000" pt_clust_9="23.74311"></scales>
<clustering>
<clus scale="   23.743">  2  9  1 -1</clus>
<clus scale="   91.881">  5  6 -1 -1</clus>
<clus scale="  102.334">  7  8 -1 -1</clus>
<clus scale="  227.380">  1  5  2 -1</clus>
<clus scale="   23.743">  2  5  1 -1</clus>
</clustering>
</event>
<event>
 9    1  0.1315259E-005  0.1107760E+03  0.7546771E-02  0.1260225E+00
         21   -1    0    0  501  502  0.00000000000E+00  0.00000000000E+00  0.21073744862E+03  0.21073744862E+03  0.00000000000E+00 0. -1.
          2   -1    0    0  502    0 -0.00000000000E+00 -0.00000000000E+00 -0.25131282740E+03  0.25131282740E+03  0.00000000000E+00 0. -1.
         23    2    1    2    0    0 -0.58036954017E+01 -0.62274270708E+02 -0.17767968105E+03  0.20964207768E+03  0.92021540969E+02 0.  0.
         23    2    1    2    0    0  0.39382207220E+02  0.53075354848E+02  0.58400403544E-01  0.11100906212E+03  0.89191125811E+02 0.  0.
        -11    1    4    4    0    0 -0.21304339774E+02  0.18566349280E+02  0.24133903033E+02  0.37162205187E+02  0.00000000000E+00 0.  1.
         11    1    4    4    0    0  0.60686546994E+02  0.34509005568E+02 -0.24075502629E+02  0.73846856928E+02  0.00000000000E+00 0. -1.
        -13    1    3    3    0    0  0.24847253432E+01 -0.85065171405E+02 -0.15278839502E+03  0.17489011092E+03  0.00000000000E+00 0.  1.
         13    1    3    3    0    0 -0.82884207448E+01  0.22790900697E+02 -0.24891286035E+02  0.34751966758E+02  0.00000000000E+00 0. -1.
          2    1    1    2  501    0 -0.33578511818E+02  0.91989158601E+01  0.13704590186E+03  0.14139913623E+03  0.00000000000E+00 0. -1.
<scales pt_clust_5="13000.00000" pt_clust_6="13000.00000" pt_clust_7="13000.00000" pt_clust_8="13000.00000" pt_clust_9="34.81575"></scales>
<clustering>
<clus scale="   34.816">  1  9  2 -1</clus>
<clus scale="   89.191">  5  6 -1 -1</clus>
<clus scale="   92.022">  7  8 -1 -1</clus>
<clus scale="  108.436">  1  5  2 -1</clus>
<clus scale="   34.816">  1  5  2 -1</clus>
</clustering>
</event>
<event>
 9    1  0.1315259E-005  0.1606564E+03  0.7546771E-02  0.1202127E+00
         -3   -1    0    0    0  501 -0.00000000000E+00  0.00000000000E+00  0.33900637262E+03  0.33900637262E+03  0.00000000000E+00 0.  1.
         21   -1    0    0  501  502  0.00000000000E+00 -0.00000000000E+00 -0.15893230443E+03  0.15893230443E+03  0.00000000000E+00 0.  1.
         23    2    1    2    0    0 -0.53151151357E+02  0.47504414604E+02  0.59555998100E+02  0.13198994780E+03  0.93769478581E+02 0.  0.
         23    2    1    2    0    0  0.12455719475E+02  0.90585336749E+02  0.16972024148E+03  0.21381145152E+03  0.92463659078E+02 0.  0.
        -13    1    4    4    0    0  0.32387197146E+02  0.10203630975E+03  0.13987107192E+03  0.17613703701E+03  0.00000000000E+00 0.  1.
         13    1    4    4    0    0 -0.19931477670E+02 -0.11450973005E+02  0.29849169563E+02  0.37674414508E+02  0.00000000000E+00 0. -1.
        -13    1    3    3    0    0 -0.40237993433E+02  0.76271823280E+02  0.44733122164E+02  0.97146998721E+02  0.00000000000E+00 0.  1.
         13    1    3    3    0    0 -0.12913157924E+02 -0.28767408676E+02  0.14822875936E+02  0.34842949079E+02  0.00000000000E+00 0. -1.
         -3    1    1    2    0  502  0.40695431882E+02 -0.13808975135E+03 -0.49202171392E+02  0.15213727773E+03  0.00000000000E+00 0.  1.
<scales pt_clust_5="13000.00000" pt_clust_6="13000.00000" pt_clust_7="13000.00000" pt_clust_8="13000.00000" pt_clust_9="131.38092"></scales>
<clustering>
<clus scale="   92.464">  5  6 -1 -1</clus>
<clus scale="   93.769">  7  8 -1 -1</clus>
<clus scale="  117.790">  1  7  2 -1</clus>
<clus scale="  131.381">  2  9  1 -1</clus>
<clus scale="  131.381">  2  5  1 -1</clus>
</clustering>
</event>
<event>
 9    1  0.1315259E-005  0.1128146E+03  0.7546771E-02  0.1257401E+00
         21   -1    0    0  501  502  0.00000000000E+00  0.00000000000E+00  0.70525657905E+02  0.70525657905E+02  0.00000000000E+00 0. -1.
          3   -1    0    0  502    0 -0.00000000000E+00 -0.00000000000E+00 -0.57260944645E+03  0.57260944645E+03  0.00000000000E+00 0. -1.
         23    2    1    2    0    0  0.30517030082E+02 -0.50205150085E+02 -0.33655103298E+03  0.35433358970E+03  0.93988556576E+02 0.  0.
         23    2    1    2    0    0 -0.18617450301E+02  0.67189935988E+02 -0.21073153626E+03  0.23907211966E+03  0.88806537315E+02 0.  0.
        -11    1    3    3    0    0 -0.16122678180E+02  0.20387781397E+02 -0.89365048977E+02  0.93068331674E+02  0.00000000000E+00 0.  1.
         11    1    3    3    0    0  0.46639708262E+02 -0.70592931482E+02 -0.24718598401E+03  0.26126525802E+03  0.00000000000E+00 0. -1.
        -13    1    4    4    0    0  0.27109290313E+02  0.34664834432E+02 -0.15027951126E+03  0.15659021640E+03  0.00000000000E+00 0. -1.
         13    1    4    4    0    0 -0.45726740615E+02  0.32525101555E+02 -0.60452024994E+02  0.82481903253E+02  0.00000000000E+00 0.  1.
          3    1    1    2  501    0 -0.11899579780E+02 -0.16984785903E+02  0.45198780693E+02  0.49729395002E+02  0.00000000000E+00 0. -1.
<scales pt_clust_5="13000.00000" pt_clust_6="13000.00000" pt_clust_7="13000.00000" pt_clust_8="13000.00000" pt_clust_9="20.73844"></scales>
<clustering>
<clus scale="   20.738">  1  9  2 -1</clus>
<clus scale="   88.807">  7  8 -1 -1</clus>
<clus scale="   93.989">  5  6 -1 -1</clus>
<clus scale="  108.535">  1  7  2 -1</clus>
<clus scale="   20.738">  1  5  2 -1</clus>
</clustering>
</event>
<event>
 9    1  0.1315259E-005  0.2558592E+03  0.7546771E-02  0.1109989E+00
          1   -1    0    0  502    0 -0.00000000000E+00  0.00000000000E+00  0.72062935902E+03  0.72062935902E+03  0.00000000000E+00 0. -1.
         21   -1    0    0  501  502  0.00000000000E+00 -0.00000000000E+00 -0.16174967409E+03  0.16174967409E+03  0.00000000000E+00 0. -1.
         23    2    1    2    0    0  0.23275045233E+03 -0.37334916239E+02  0.37936115874E+03  0.45551633544E+03  0.89518568239E+02 0.  0.
         23    2    1    2    0    0 -0.24518866796E+03 -0.47823902496E+02  0.20516380096E+03  0.33706061677E+03  0.95462377954E+02 0.  0.
        -11    1    4    4    0    0 -0.11405935699E+03 -0.70488849703E+02  0.95378339549E+02  0.16454556361E+03  0.00000000000E+00 0. -1.
         11    1    4    4    0    0 -0.13112931097E+03  0.22664947207E+02  0.10978546141E+03  0.17251505316E+03  0.00000000000E+00 0.  1.
        -13    1    3    3    0    0  0.48928014627E+02  0.24011179502E+02  0.11960117312E+03  0.13143412026E+03  0.00000000000E+00 0.  1.
         13    1    3    3    0    0  0.18382243771E+03 -0.61346095741E+02  0.25975998562E+03  0.32408221518E+03  0.00000000000E+00 0. -1.
          1    1    1    2  501    0  0.12438215630E+02  0.85158818736E+02 -0.25645274771E+02  0.89802080903E+02  0.00000000000E+00 0. -1.
<scales pt_clust_5="13000.00000" pt_clust_6="13000.00000" pt_clust_7="13000.00000" pt_clust_8="13000.00000" pt_clust_9="86.06238"></scales>
<clustering>
<clus scale="   86.062">  2  9  1 -1</clus>
<clus scale="   89.519">  7  8 -1 -1</clus>
<clus scale="   95.462">  5  6 -1 -1</clus>
<clus scale="  253.701">  1  7  2 -1</clus>
<clus scale="   86.062">  2  5  1 -1</clus>
</clustering>
</event>
<event>
 9    1  0.1315259E-005  0.1086791E+03  0.7546771E-02  0.1263458E+00
         21   -1    0    0  501  502  0.00000000000E+00  0.00000000000E+00  0.15517940578E+03  0.15517940578E+03  0.00000000000E+00 0.  1.
          3   -1    0    0  502    0 -0.00000000000E+00 -0.00000000000E+00 -0.11511788286E+03  0.11511788286E+03  0.00000000000E+00 0. -1.
         23    2    1    2    0    0  0.15110073161E+02 -0.61006119857E+02 -0.12431464120E+02  0.11017137046E+03  0.89627722264E+02 0.  0.
         23    2    1    2    0    0  0.60975386537E+01  0.58058734647E+02  0.49423407328E+01  0.10797695997E+03  0.90700609187E+02 0.  0.
        -11    1    4    4    0    0 -0.31929719382E+02  0.11977025432E+01  0.20318175630E+02  0.37865151949E+02  0.00000000000E+00 0.  1.
         11    1    4    4    0    0  0.38027258036E+02  0.56861032104E+02 -0.15375834898E+02  0.70111808025E+02  0.00000000000E+00 0. -1.
        -11    1    3    3    0    0 -0.25816444534E+02 -0.63153631492E+02 -0.40958725711E+01  0.68349441484E+02  0.00000000000E+00 0.  1.
         11    1    3    3    0    0  0.40926517695E+02  0.21475116358E+01 -0.83355915492E+01  0.41821928977E+02  0.00000000000E+00 0. -1.
          3    1    1    2  501    0 -0.21207611814E+02  0.29473852092E+01  0.47550646300E+02  0.52148958206E+02  0.00000000000E+00 0. -1.
<scales pt_clust_5="13000.00000" pt_clust_6="13000.00000" pt_clust_7="13000.00000" pt_clust_8="13000.00000" pt_clust_9="21.41144"></scales>
<clustering>
<clus scale="   21.411">  1  9  2 -1</clus>
<clus scale="   89.628">  7  8 -1 -1</clus>
<clus scale="   90.701">  5  6 -1 -1</clus>
<clus scale="  107.785">  2  7  1 -1</clus>
<clus scale="   21.411">  1  5  2 -1</clus>
</clustering>
</event>
<event>
 9    1  0.1315259E-005  0.9778771E+02  0.7546771E-02  0.1285650E+00
          1   -1    0    0  502    0 -0.00000000000E+00  0.00000000000E+00  0.19020988499E+03  0.19020988499E+03  0.00000000000E+00 0. -1.
         21   -1    0    0  501  502  0.00000000000E+00 -0.00000000000E+00 -0.16241315114E+03  0.16241315114E+03  0.00000000000E+00 0. -1.
         23    2    1    2    0    0  0.99619370128E+01 -0.70884000458E+01  0.11537517391E+03  0.14999029166E+03  0.95058777775E+02 0.  0.
         23    2    1    2    0    0 -0.95419549263E+00  0.40031665188E+02  0.45945228415E+01  0.10433598352E+03  0.96236391815E+02 0.  0.
        -11    1    3    3    0    0 -0.14243688084E+01  0.40595044813E+02  0.79384874809E+02  0.89173677945E+02  0.00000000000E+00 0.  1.
         11    1    3    3    0    0  0.11386305821E+02 -0.47683444859E+02  0.35990299100E+02  0.60816613710E+02  0.00000000000E+00 0. -1.
        -13    1    4    4    0    0  0.83324205233E+01  0.18972701505E+02  0.49617813691E+02  0.53770996547E+02  0.00000000000E+00 0. -1.
         13    1    4    4    0    0 -0.92866160160E+01  0.21058963683E+02 -0.45023290849E+02  0.50564986970E+02  0.00000000000E+00 0.  1.
          1    1    1    2  501    0 -0.90077415201E+01 -0.32943265142E+02 -0.92172962902E+02  0.98296760962E+02  0.00000000000E+00 0. -1.
<scales pt_clust_5="13000.00000" pt_clust_6="13000.00000" pt_clust_7="13000.00000" pt_clust_8="13000.00000" pt_clust_9="34.15257"></scales>
<clustering>
<clus scale="   34.153">  2  9  1 -1</clus>
<clus scale="   95.059">  5  6 -1 -1</clus>
<clus scale="   96.236">  7  8 -1 -1</clus>
<clus scale="   96.629">  1  5  2 -1</clus>
<clus scale="   34.153">  2  5  1 -1</clus>
</clustering>
</event>
<event>
 9    1  0.1315259E-005  0.1522708E+03  0.7546771E-02  0.1197733E+00
         21   -1    0    0  501  502  0.00000000000E+00  0.00000000000E+00  0.21911323773E+03  0.21911323773E+03  0.00000000000E+00 0. -1.
          3   -1    0    0  502    0 -0.00000000000E+00 -0.00000000000E+00 -0.18436017645E+03  0.18436017645E+03  0.00000000000E+00 0. -1.
         23    2    1    2    0    0 -0.19940621267E+02 -0.13922372218E+03 -0.38093902937E+02  0.17302413289E+03  0.93302368285E+02 0.  0.
         23    2    1    2    0    0  0.45912065147E+02  0.91909565093E+02 -0.13418216306E+01  0.13870441057E+03  0.93176322879E+02 0.  0.
        -13    1    4    4    0    0  0.25474072969E+02  0.90366548392E+02 -0.34245669749E+02  0.99939018199E+02  0.00000000000E+00 0. -1.
         13    1    4    4    0    0  0.20437992178E+02  0.15430167006E+01  0.32903848119E+02  0.38765392373E+02  0.00000000000E+00 0.  1.
        -13    1    3    3    0    0  0.32190101891E+00 -0.13772223416E+03 -0.53268008129E+02  0.14766515531E+03  0.00000000000E+00 0. -1.
         13    1    3    3    0    0 -0.20262522286E+02 -0.15014880207E+01  0.15174105193E+02  0.25358977583E+02  0.00000000000E+00 0.  1.
          3    1    1    2  501    0 -0.25971443880E+02  0.47314157086E+02  0.74188785850E+02  0.91744870722E+02  0.00000000000E+00 0. -1.
<scales pt_clust_5="13000.00000" pt_clust_6="13000.00000" pt_clust_7="13000.00000" pt_clust_8="13000.00000" pt_clust_9="53.97356"></scales>
<clustering>
<clus scale="   53.974">  1  9  2 -1</clus>
<clus scale="   93.176">  5  6 -1 -1</clus>
<clus scale="   93.302">  7  8 -1 -1</clus>
<clus scale="  152.194">  1  5  2 -1</clus>
<clus scale="   53.974">  1  5  2 -1</clus>
</clustering>
</event>
<event>
 9    1  0.2577820E-005  0.9123586E+02  0.7546771E-02  0.1301719E+00
         -3   -1    0    0    0  501 -0.00000000000E+00  0.00000000000E+00  0.30565727796E+03  0.30565727796E+03  0.00000000000E+00 0.  1.
         21   -1    0    0  501  502  0.00000000000E+00 -0.00000000000E+00 -0.11731033768E+03  0.11731033768E+03  0.00000000000E+00 0. -1.
         23    2    1    2    0    0  0.75589353988E+01 -0.37348250505E+01  0.25847656569E+03  0.27303492826E+03  0.87560553992E+02 0.  0.
         23    2    1    2    0    0 -0.21528918725E+02  0.22351221927E+02 -0.24734421523E+02  0.98918422684E+02  0.90609002175E+02 0.  0.
        -11    1    4    4    0    0 -0.48464965740E+02  0.24722406147E+02  0.95663901664E+01  0.55240981986E+02  0.00000000000E+00 0.  1.
         11    1    4    4    0    0  0.26936047016E+02 -0.23711842205E+01 -0.34300811689E+02  0.43677440699E+02  0.00000000000E+00 0. -1.
        -13    1    3    3    0    0  0.46844986362E+02 -0.70338844036E+01  0.11864547381E+03  0.12775240402E+03  0.00000000000E+00 0.  1.
         13    1    3    3    0    0 -0.39286050963E+02  0.32990593531E+01  0.13983109188E+03  0.14528252424E+03  0.00000000000E+00 0. -1.
         -3    1    1    2    0  502  0.13969983326E+02 -0.18616396876E+02 -0.45395203885E+02  0.51014264696E+02  0.00000000000E+00 0.  1.
<scales pt_clust_5="13000.00000" pt_clust_6="13000.00000" pt_clust_7="13000.00000" pt_clust_8="13000.00000" pt_clust_9="23.27511"></scales>
<clustering>
<clus scale="   23.275">  2  9  1 -1</clus>
<clus scale="   87.561">  7  8 -1 -1</clus>
<clus scale="   88.209">  1  7  2 -1</clus>
<clus scale="   90.609">  5  6 -1 -1</clus>
<clus scale="   23.275">  2  5  1 -1</clus>
</clustering>
</event>
<event>
 9    1  0.1315259E-005  0.1183048E+03  0.7546771E-02  0.1248227E+00
          2   -1    0    0  502    0 -0.00000000000E+00  0.00000000000E+00  0.45379674947E+03  0.45379674947E+03  0.00000000000E+00 0. -1.
         21   -1    0    0  501  502  0.00000000000E+00 -0.00000000000E+00 -0.74726602889E+02  0.74726602889E+02  0.00000000000E+00 0. -1.
         23    2    1    2    0    0  0.56304893172E+02  0.50808704444E+02  0.33254073732E+03  0.35285958468E+03  0.90414484918E+02 0.  0.
         23    2    1    2    0    0 -0.44625620210E+02 -0.16441497911E+02  0.73296166895E+02  0.13056421539E+03  0.97020190823E+02 0.  0.
        -11    1    3    3    0    0 -0.20987274731E+02  0.31171725746E+02  0.89477137142E+02  0.97047927632E+02  0.00000000000E+00 0.  1.
         11    1    3    3    0    0  0.77292167902E+02  0.19636978697E+02  0.24306360018E+03  0.25581165705E+03  0.00000000000E+00 0. -1.
        -13    1    4    4    0    0 -0.72807659770E+02 -0.26805419203E+02  0.47447902236E+02  0.90943879653E+02  0.00000000000E+00 0.  1.
         13    1    4    4    0    0  0.28182039560E+02  0.10363921292E+02  0.25848264660E+02  0.39620335741E+02  0.00000000000E+00 0. -1.
          2    1    1    2  501    0 -0.11679272962E+02 -0.34367206533E+02 -0.26766757634E+02  0.45099552282E+02  0.00000000000E+00 0. -1.
<scales pt_clust_5="13000.00000" pt_clust_6="13000.00000" pt_clust_7="13000.00000" pt_clust_8="13000.00000" pt_clust_9="36.29752"></scales>
<clustering>
<clus scale="   36.298">  2  9  1 -1</clus>
<clus scale="   90.414">  5  6 -1 -1</clus>
<clus scale="   97.020">  7  8 -1 -1</clus>
<clus scale="  112.951">  1  5  2 -1</clus>
<clus scale="   36.298">  2  5  1 -1</clus>
</clustering>
</event>
<event>
 9    1  0.1315259E-005  0.2427538E+03  0.7546771E-02  0.1118129E+00
         -2   -1    0    0    0  501 -0.00000000000E+00  0.00000000000E+00  0.23018041380E+03  0.23018041380E+03  0.00000000000E+00 0.  1.
         21   -1    0    0  501  502  0.00000000000E+00 -0.00000000000E+00 -0.47022869857E+03  0.47022869857E+03  0.00000000000E+00 0.  1.
         23    2    1    2    0    0 -0.17294795351E+03 -0.15160482252E+03  0.10153986605E+03  0.26712315190E+03  0.90274121719E+02 0.  0.
         23    2    1    2    0    0  0.14838825472E+03  0.14076971281E+03 -0.34005752872E+03  0.40639876628E+03  0.87667828818E+02 0.  0.
        -11    1    4    4    0    0  0.49738131599E+02  0.26121215964E+02 -0.35788478606E+02  0.66610921472E+02  0.00000000000E+00 0. -1.
         11    1    4    4    0    0  0.98650123121E+02  0.11464849685E+03 -0.30426905011E+03  0.33978784481E+03  0.00000000000E+00 0.  1.
        -11    1    3    3    0    0 -0.52288825614E+02 -0.23312176734E+02 -0.10753542251E+02  0.58251330793E+02  0.00000000000E+00 0. -1.
         11    1    3    3    0    0 -0.12065912790E+03 -0.12829264578E+03  0.11229340830E+03  0.20887182111E+03  0.00000000000E+00 0.  1.
         -2    1    1    2    0  502  0.24559698791E+02  0.10835109700E+02 -0.15306220993E+01  0.26887194181E+02  0.00000000000E+00 0.  1.
<scales pt_clust_5="13000.00000" pt_clust_6="13000.00000" pt_clust_7="13000.00000" pt_clust_8="13000.00000" pt_clust_9="26.84360"></scales>
<clustering>
<clus scale="   26.844">  2  9  1 -1</clus>
<clus scale="   87.668">  5  6 -1 -1</clus>
<clus scale="   90.274">  7  8 -1 -1</clus>
<clus scale="  241.797">  2  5  1 -1</clus>
<clus scale="   26.844">  2  5  1 -1</clus>
</clustering>
</event>
<event>
 9    1  0.1315259E-005  0.3486934E+03  0.7546771E-02  0.1063184E+00
         21   -1    0    0  501  502  0.00000000000E+00  0.00000000000E+00  0.13024956523E+03  0.13024956523E+03  0.00000000000E+00 0. -1.
          2   -1    0    0  502    0 -0.00000000000E+00 -0.00000000000E+00 -0.14319227004E+04  0.14319227004E+04  0.00000000000E+00 0. -1.
         23    2    1    2    0    0 -0.10247172017E+03  0.28050250755E+03 -0.53886783718E+03  0.62290227559E+03  0.91905325275E+02 0.  0.
         23    2    1    2    0    0  0.57084052255E+02 -0.40129712015E+03 -0.53327140002E+03  0.67595043294E+03  0.90733863820E+02 0.  0.
        -11    1    3    3    0    0 -0.42905985208E+02  0.40072413712E+02 -0.61056760843E+02  0.84703305437E+02  0.00000000000E+00 0.  1.
         11    1    3    3    0    0 -0.59565734960E+02  0.24043009383E+03 -0.47781107634E+03  0.53819897015E+03  0.00000000000E+00 0. -1.
        -13    1    4    4    0    0  0.54756145548E+02 -0.10769860814E+03 -0.13528969622E+03  0.18138502577E+03  0.00000000000E+00 0.  1.
         13    1    4    4    0    0  0.23279067071E+01 -0.29359851201E+03 -0.39798170381E+03  0.49456540717E+03  0.00000000000E+00 0. -1.
          2    1    1    2  501    0  0.45387667913E+02  0.12079461261E+03 -0.22953389792E+03  0.26331955705E+03  0.00000000000E+00 0. -1.
<scales pt_clust_5="13000.00000" pt_clust_6="13000.00000" pt_clust_7="13000.00000" pt_clust_8="13000.00000" pt_clust_9="129.04029"></scales>
<clustering>
<clus scale="   90.734">  7  8 -1 -1</clus>
<clus scale="   91.905">  5  6 -1 -1</clus>
<clus scale="  129.040">  1  9  2 -1</clus>
<clus scale="  348.387">  1  7  2 -1</clus>
<clus scale="  129.040">  1  5  2 -1</clus>
</clustering>
</event>
<event>
 9    1  0.1315259E-005  0.1000991E+03  0.7546771E-02  0.1280115E+00
         21   -1    0    0  501  502  0.00000000000E+00  0.00000000000E+00  0.67011656449E+02  0.67011656449E+02  0.00000000000E+00 0. -1.
          2   -1    0    0  502    0 -0.00000000000E+00 -0.00000000000E+00 -0.29456800963E+03  0.29456800963E+03  0.00000000000E+00 0. -1.
         23    2    1    2    0    0 -0.81058468355E+01  0.25984965402E+02 -0.12285522255E+03  0.15616535918E+03  0.92484001439E+02 0.  0.
         23    2    1    2    0    0  0.28711865618E+02 -0.42814735810E+02 -0.13072736610E+03  0.16819584220E+03  0.92426858957E+02 0.  0.
        -13    1    3    3    0    0  0.24249759681E+02  0.31429576785E+02 -0.11605635324E+03  0.12265784227E+03  0.00000000000E+00 0. -1.
         13    1    3    3    0    0 -0.32355606516E+02 -0.54446113822E+01 -0.67988693033E+01  0.33507516917E+02  0.00000000000E+00 0.  1.
        -13    1    4    4    0    0 -0.94405091598E+01 -0.21509711165E+02  0.63405375647E+01  0.24330912523E+02  0.00000000000E+00 0.  1.
         13    1    4    4    0    0  0.38152374778E+02 -0.21305024645E+02 -0.13706790366E+03  0.14386492968E+03  0.00000000000E+00 0. -1.
          2    1    1    2  501    0 -0.20606018783E+02  0.16829770408E+02  0.26026235462E+02  0.37218464697E+02  0.00000000000E+00 0. -1.
<scales pt_clust_5="13000.00000" pt_clust_6="13000.00000" pt_clust_7="13000.00000" pt_clust_8="13000.00000" pt_clust_9="26.60544"></scales>
<clustering>
<clus scale="   26.605">  1  9  2 -1</clus>
<clus scale="   92.427">  7  8 -1 -1</clus>
<clus scale="   92.484">  5  6 -1 -1</clus>
<clus scale="  100.046">  1  7  2 -1</clus>
<clus scale="   26.605">  1  5  2 -1</clus>
</clustering>
</event>
<event>
 9    1  0.1315259E-005  0.9134304E+02  0.7546771E-02  0.1300491E+00
         -1   -1    0    0    0  501 -0.00000000000E+00  0.00000000000E+00  0.25363662231E+03  0.25363662231E+03  0.00000000000E+00 0.  1.
         21   -1    0    0  501  502  0.00000000000E+00 -0.00000000000E+00 -0.62749570968E+02  0.62749570968E+02  0.00000000000E+00 0.  1.
         23    2    1    2    0    0  0.10090694393E+02 -0.10465531366E+01  0.14012781536E+03  0.16749704494E+03  0.91195054906E+02 0.  0.
         23    2    1    2    0    0  0.12182867750E+02 -0.14783749717E+02  0.70035231405E+02  0.11544854339E+03  0.89757735103E+02 0.  0.
        -11    1    3    3    0    0 -0.10512002308E+02  0.41392695765E+02  0.49896769626E+02  0.65677584261E+02  0.00000000000E+00 0.  1.
         11    1    3    3    0    0  0.20602696701E+02 -0.42439248902E+02  0.90231045738E+02  0.10181946068E+03  0.00000000000E+00 0. -1.
        -13    1    4    4    0    0  0.23656367665E+02 -0.42987067681E+02  0.12943179601E+02  0.50744828476E+02  0.00000000000E+00 0. -1.
         13    1    4    4    0    0 -0.11473499914E+02  0.28203317965E+02  0.57092051805E+02  0.64703714915E+02  0.00000000000E+00 0.  1.
         -1    1    1    2    0  502 -0.22273562143E+02  0.15830302853E+02 -0.19275995431E+02  0.33440604941E+02  0.00000000000E+00 0.  1.
<scales pt_clust_5="13000.00000" pt_clust_6="13000.00000" pt_clust_7="13000.00000" pt_clust_8="13000.00000" pt_clust_9="27.32600"></scales>
<clustering>
<clus scale="   27.326">  2  9  1 -1</clus>
<clus scale="   89.758">  7  8 -1 -1</clus>
<clus scale="   89.908">  2  7  1 -1</clus>
<clus scale="   91.195">  5  6 -1 -1</clus>
<clus scale="   27.326">  2  5  1 -1</clus>
</clustering>
</event>
<event>
 9    1  0.1315259E-005  0.1248077E+03  0.7546771E-02  0.1240554E+00
         -1   -1    0    0    0  501 -0.00000000000E+00  0.00000000000E+00  0.10630940778E+03  0.10630940778E+03  0.00000000000E+00 0.  1.
         21   -1    0    0  501  502  0.00000000000E+00 -0.00000000000E+00 -0.24767714883E+03  0.24767714883E+03  0.00000000000E+00 0.  1.
         23    2    1    2    0    0 -0.79457984788E+02 -0.21554513556E+02  0.18287420579E+02  0.13472445122E+03  0.10506226536E+03 0.  0.
         23    2    1    2    0    0  0.41919961628E+02  0.73282649711E+01 -0.71674429433E+02  0.12255585653E+03  0.89842793174E+02 0.  0.
        -11    1    4    4    0    0  0.22060063458E+02 -0.34829517865E+02 -0.62789480745E+02  0.75114982571E+02  0.00000000000E+00 0.  1.
         11    1    4    4    0    0  0.19859898171E+02  0.42157782836E+02 -0.88849486883E+01  0.47440873961E+02  0.00000000000E+00 0. -1.
        -13    1    3    3    0    0 -0.10036275393E+03 -0.19757569577E+02 -0.62007980621E+01  0.10247679653E+03  0.00000000000E+00 0.  1.
         13    1    3    3    0    0  0.20904769137E+02 -0.17969439798E+01  0.24488218641E+02  0.32247654683E+02  0.00000000000E+00 0. -1.
         -1    1    1    2    0  502  0.37538023160E+02  0.14226248585E+02 -0.87980732200E+02  0.96706248867E+02  0.00000000000E+00 0.  1.
<scales pt_clust_5="13000.00000" pt_clust_6="13000.00000" pt_clust_7="13000.00000" pt_clust_8="13000.00000" pt_clust_9="40.14336"></scales>
<clustering>
<clus scale="   40.143">  2  9  1 -1</clus>
<clus scale="   89.843">  5  6 -1 -1</clus>
<clus scale="  105.062">  7  8 -1 -1</clus>
<clus scale="  112.297">  2  5  1 -1</clus>
<clus scale="   40.143">  2  5  1 -1</clus>
</clustering>
</event>
<event>
 9    1  0.1315259E-005  0.1038939E+03  0.7546771E-02  0.1277902E+00
         21   -1    0    0  501  502  0.00000000000E+00  0.00000000000E+00  0.46682267667E+03  0.46682267667E+03  0.00000000000E+00 0. -1.
          2   -1    0    0  502    0 -0.00000000000E+00 -0.00000000000E+00 -0.71897820572E+02  0.71897820572E+02  0.00000000000E+00 0. -1.
         23    2    1    2    0    0  0.39719812129E+02 -0.54480583635E+01  0.18093385594E+02  0.90980060900E+02  0.79640793966E+02 0.  0.
         23    2    1    2    0    0 -0.65824318621E+02 -0.73848166567E+02  0.13082275213E+03  0.18795278063E+03  0.91789229450E+02 0.  0.
        -11    1    3    3    0    0 -0.34229803603E+01  0.21488513380E+02  0.31589596772E+02  0.38358514388E+02  0.00000000000E+00 0.  1.
         11    1    3    3    0    0  0.43142792490E+02 -0.26936571744E+02 -0.13496211178E+02  0.52621546512E+02  0.00000000000E+00 0. -1.
        -11    1    4    4    0    0  0.20190761295E+02 -0.31452044833E+02  0.24080558975E+02  0.44460896149E+02  0.00000000000E+00 0.  1.
         11    1    4    4    0    0 -0.86015079916E+02 -0.42396121734E+02  0.10674219316E+03  0.14349188448E+03  0.00000000000E+00 0. -1.
          2    1    1    2  501    0  0.26104506492E+02  0.79296224930E+02  0.24600871837E+03  0.25978765572E+03  0.00000000000E+00 0. -1.
<scales pt_clust_5="13000.00000" pt_clust_6="13000.00000" pt_clust_7="13000.00000" pt_clust_8="13000.00000" pt_clust_9="83.48255"></scales>
<clustering>
<clus scale="   79.641">  5  6 -1 -1</clus>
<clus scale="   83.483">  1  9  2 -1</clus>
<clus scale="   91.789">  7  8 -1 -1</clus>
<clus scale="   93.335">  2  5  1 -1</clus>
<clus scale="   83.483">  1  5  2 -1</clus>
</clustering>
</event>
<event>
 9    1  0.1315259E-005  0.1062833E+03  0.7546771E-02  0.1268149E+00
         21   -1    0    0  501  502  0.00000000000E+00  0.00000000000E+00  0.43773793473E+02  0.43773793473E+02  0.00000000000E+00 0. -1.
          2   -1    0    0  502    0 -0.00000000000E+00 -0.00000000000E+00 -0.50855275272E+03  0.50855275272E+03  0.00000000000E+00 0. -1.
         23    2    1    2    0    0 -0.16050317163E+02  0.37141803660E+02 -0.17562928582E+03  0.20175569464E+03  0.90678487088E+02 0.  0.
         23    2    1    2    0    0 -0.39169537006E+02 -0.68777184470E+02 -0.24413063240E+03  0.27261738038E+03  0.91956058403E+02 0.  0.
        -11    1    3    3    0    0  0.35226172503E+02  0.66051913854E+00 -0.78197777804E+02  0.85768362280E+02  0.00000000000E+00 0. -1.
         11    1    3    3    0    0 -0.51276489667E+02  0.36481284522E+02 -0.97431508020E+02  0.11598733236E+03  0.00000000000E+00 0.  1.
        -13    1    4    4    0    0 -0.42785227753E+02 -0.39016259029E+02 -0.23386814954E+03  0.24092977307E+03  0.00000000000E+00 0. -1.
         13    1    4    4    0    0  0.36156907479E+01 -0.29760925441E+02 -0.10262482861E+02  0.31687607312E+02  0.00000000000E+00 0.  1.
          2    1    1    2  501    0  0.55219854169E+02  0.31635380810E+02 -0.45019041031E+02  0.77953471178E+02  0.00000000000E+00 0. -1.
<scales pt_clust_5="13000.00000" pt_clust_6="13000.00000" pt_clust_7="13000.00000" pt_clust_8="13000.00000" pt_clust_9="63.63984"></scales>
<clustering>
<clus scale="   63.640">  1  9  2 -1</clus>
<clus scale="   90.678">  5  6 -1 -1</clus>
<clus scale="   91.956">  7  8 -1 -1</clus>
<clus scale="  105.180">  2  5  1 -1</clus>
<clus scale="   63.640">  1  5  2 -1</clus>
</clustering>
</event>
<event>
 9    1  0.1315259E-005  0.1504132E+03  0.7546771E-02  0.1200671E+00
         21   -1    0    0  501  502  0.00000000000E+00  0.00000000000E+00  0.24712200535E+02  0.24712200535E+02  0.00000000000E+00 0.  1.
          2   -1    0    0  502    0 -0.00000000000E+00 -0.00000000000E+00 -0.11466955591E+04  0.11466955591E+04  0.00000000000E+00 0. -1.
         23    2    1    2    0    0  0.12301293592E+03 -0.99259813269E+01 -0.61080772093E+03  0.63024821093E+03  0.94318757010E+02 0.  0.
         23    2    1    2    0    0 -0.10507971193E+03  0.32787094075E+02 -0.35986014489E+03  0.38707966896E+03  0.90634468282E+02 0.  0.
        -11    1    4    4    0    0 -0.42837322508E+02 -0.29190388964E+02 -0.97766193892E+02  0.11065868098E+03  0.00000000000E+00 0.  1.
         11    1    4    4    0    0 -0.62242389423E+02  0.61977483038E+02 -0.26209395100E+03  0.27642098798E+03  0.00000000000E+00 0. -1.
        -13    1    3    3    0    0  0.94111486512E+02  0.29749068172E+02 -0.49013385397E+03  0.49997317304E+03  0.00000000000E+00 0.  1.
         13    1    3    3    0    0  0.28901449412E+02 -0.39675049499E+02 -0.12067386696E+03  0.13027503789E+03  0.00000000000E+00 0. -1.
          2    1    1    2  501    0 -0.17933223993E+02 -0.22861112748E+02 -0.15131549273E+03  0.15407987973E+03  0.00000000000E+00 0. -1.
<scales pt_clust_5="13000.00000" pt_clust_6="13000.00000" pt_clust_7="13000.00000" pt_clust_8="13000.00000" pt_clust_9="29.05567"></scales>
<clustering>
<clus scale="   29.056">  1  9  2 -1</clus>
<clus scale="   90.634">  5  6 -1 -1</clus>
<clus scale="   94.319">  7  8 -1 -1</clus>
<clus scale="  148.131">  1  5  2 -1</clus>
<clus scale="   29.056">  1  5  2 -1</clus>
</clustering>
</event>
<event>
 9    1  0.1315259E-005  0.1892133E+03  0.7546771E-02  0.1159256E+00
         21   -1    0    0  501  502  0.00000000000E+00  0.00000000000E+00  0.11701003353E+03  0.11701003353E+03  0.00000000000E+00 0. -1.
          2   -1    0    0  502    0 -0.00000000000E+00 -0.00000000000E+00 -0.54729259342E+03  0.54729259342E+03  0.00000000000E+00 0. -1.
         23    2    1    2    0    0  0.10038386482E+03 -0.13916136335E+03 -0.39635404455E+03  0.44076179089E+03  0.87929644107E+02 0.  0.
         23    2    1    2    0    0 -0.71963119704E+02  0.13931569545E+03 -0.55588614955E+02  0.18780678386E+03  0.87142069942E+02 0.  0.
        -11    1    3    3    0    0  0.54686117171E+02 -0.96251259831E+02 -0.14920901831E+03  0.18579076289E+03  0.00000000000E+00 0.  1.
         11    1    3    3    0    0  0.45697747645E+02 -0.42910103515E+02 -0.24714502624E+03  0.25497102800E+03  0.00000000000E+00 0. -1.
        -11    1    4    4    0    0 -0.57630294997E+02  0.35692811973E+02  0.30999716273E+01  0.67858953366E+02  0.00000000000E+00 0.  1.
         11    1    4    4    0    0 -0.14332824707E+02  0.10362288348E+03 -0.58688586583E+02  0.11994783049E+03  0.00000000000E+00 0. -1.
          2    1    1    2  501    0 -0.28420745112E+02 -0.15433210454E+00  0.21660099615E+02  0.35734052197E+02  0.00000000000E+00 0. -1.
<scales pt_clust_5="13000.00000" pt_clust_6="13000.00000" pt_clust_7="13000.00000" pt_clust_8="13000.00000" pt_clust_9="28.42116"></scales>
<clustering>
<clus scale="   28.421">  1  9  2 -1</clus>
<clus scale="   87.142">  7  8 -1 -1</clus>
<clus scale="   87.930">  5  6 -1 -1</clus>
<clus scale="  188.849">  1  7  2 -1</clus>
<clus scale="   28.421">  1  5  2 -1</clus>
</clustering>
</event>
<event>
 9    1  0.1315259E-005  0.1736877E+03  0.7546771E-02  0.1174465E+00
         -1   -1    0    0    0  501 -0.00000000000E+00  0.00000000000E+00  0.72515009729E+03  0.72515009729E+03  0.00000000000E+00 0.  1.
         21   -1    0    0  501  502  0.00000000000E+00 -0.00000000000E+00 -0.64638676530E+02  0.64638676530E+02  0.00000000000E+00 0. -1.
         23    2    1    2    0    0  0.70982872667E+02  0.13633682171E+03  0.50004620502E+03  0.53153393434E+03  0.94105361316E+02 0.  0.
         23    2    1    2    0    0 -0.47348670906E+02 -0.12192671440E+03  0.16587477499E+03  0.23005040691E+03  0.91108333428E+02 0.  0.
        -11    1    3    3    0    0  0.38321696173E+02  0.13259083090E+03  0.31975964332E+03  0.34827447557E+03  0.00000000000E+00 0. -1.
         11    1    3    3    0    0  0.32661176493E+02  0.37459908053E+01  0.18028656170E+03  0.18325945876E+03  0.00000000000E+00 0.  1.
        -13    1    4    4    0    0 -0.61184824147E+02 -0.78320003362E+02  0.63557739194E+02  0.11797114835E+03  0.00000000000E+00 0.  1.
         13    1    4    4    0    0  0.13836153242E+02 -0.43606711038E+02  0.10231703580E+03  0.11207925856E+03  0.00000000000E+00 0. -1.
         -1    1    1    2    0  502 -0.23634201761E+02 -0.14410107310E+02 -0.54095592523E+01  0.28204432575E+02  0.00000000000E+00 0.  1.
<scales pt_clust_5="13000.00000" pt_clust_6="13000.00000" pt_clust_7="13000.00000" pt_clust_8="13000.00000" pt_clust_9="27.68080"></scales>
<clustering>
<clus scale="   27.681">  2  9  1 -1</clus>
<clus scale="   91.108">  7  8 -1 -1</clus>
<clus scale="   94.105">  5  6 -1 -1</clus>
<clus scale="  172.082">  2  7  1 -1</clus>
<clus scale="   27.681">  2  5  1 -1</clus>
</clustering>
</event>
<event>
 9    1  0.1315259E-005  0.9794132E+02  0.7546771E-02  0.1287405E+00
         21   -1    0    0  501  502  0.00000000000E+00  0.00000000000E+00  0.33616144516E+03  0.33616144516E+03  0.00000000000E+00 0.  1.
          3   -1    0    0  502    0 -0.00000000000E+00 -0.00000000000E+00 -0.76301210363E+02  0.76301210363E+02  0.00000000000E+00 0. -1.
         23    2    1    2    0    0 -0.37859973918E+02 -0.42078361988E+01  0.25982079684E+01  0.99834600048E+02  0.92244854445E+02 0.  0.
         23    2    1    2    0    0  0.98581600038E+01 -0.58832987120E+02  0.12599765469E+03  0.16434257952E+03  0.87032009989E+02 0.  0.
        -11    1    4    4    0    0 -0.35283723298E+02 -0.31458067435E+02  0.33843182192E+02  0.58137011597E+02  0.00000000000E+00 0.  1.
         11    1    4    4    0    0  0.45141883302E+02 -0.27374919686E+02  0.92154472501E+02  0.10620556792E+03  0.00000000000E+00 0. -1.
        -13    1    3    3    0    0 -0.65283983626E+02  0.11964925424E+02 -0.65898003858E+01  0.66697701816E+02  0.00000000000E+00 0.  1.
         13    1    3    3    0    0  0.27424009708E+02 -0.16172761623E+02  0.91880083543E+01  0.33136898232E+02  0.00000000000E+00 0. -1.
          3    1    1    2  501    0  0.28001813914E+02  0.63040823319E+02  0.13126437214E+03  0.14828547596E+03  0.00000000000E+00 0. -1.
<scales pt_clust_5="13000.00000" pt_clust_6="13000.00000" pt_clust_7="13000.00000" pt_clust_8="13000.00000" pt_clust_9="68.98005"></scales>
<clustering>
<clus scale="   68.980">  1  9  2 -1</clus>
<clus scale="   87.032">  5  6 -1 -1</clus>
<clus scale="   92.245">  7  8 -1 -1</clus>
<clus scale="   93.048">  1  5  2 -1</clus>
<clus scale="   68.980">  1  5  2 -1</clus>
</clustering>
</event>
<event>
 9    1  0.1315259E-005  0.9971446E+02  0.7546771E-02  0.1287091E+00
         21   -1    0    0  501  502  0.00000000000E+00  0.00000000000E+00  0.28341128918E+03  0.28341128918E+03  0.00000000000E+00 0.  1.
         -2   -1    0    0    0  501 -0.00000000000E+00 -0.00000000000E+00 -0.54531506374E+02  0.54531506374E+02  0.00000000000E+00 0.  1.
         23    2    1    2    0    0 -0.14691650146E+02 -0.20030840807E+02  0.25148928060E+02  0.10394748687E+03  0.97752402916E+02 0.  0.
         23    2    1    2    0    0  0.15764763379E+02 -0.67008207940E+01  0.16168803939E+03  0.18416227119E+03  0.86482895889E+02 0.  0.
        -11    1    4    4    0    0 -0.30169996799E+02  0.11603076449E+01  0.11217489291E+03  0.11616704188E+03  0.00000000000E+00 0. -1.
         11    1    4    4    0    0  0.45934760178E+02 -0.78611284390E+01  0.49513146484E+02  0.67995229301E+02  0.00000000000E+00 0.  1.
        -11    1    3    3    0    0  0.58664683657E+01 -0.57671817985E+02  0.14657808382E+02  0.59793857438E+02  0.00000000000E+00 0.  1.
         11    1    3    3    0    0 -0.20558118512E+02  0.37640977178E+02  0.10491119678E+02  0.44153629429E+02  0.00000000000E+00 0. -1.
         -2    1    1    2    0  502 -0.10731132326E+01  0.26731661601E+02  0.42042815353E+02  0.49833037503E+02  0.00000000000E+00 0.  1.
<scales pt_clust_5="13000.00000" pt_clust_6="13000.00000" pt_clust_7="13000.00000" pt_clust_8="13000.00000" pt_clust_9="26.75319"></scales>
<clustering>
<clus scale="   26.753">  1  9  2 -1</clus>
<clus scale="   86.483">  5  6 -1 -1</clus>
<clus scale="   88.695">  1  5  2 -1</clus>
<clus scale="   97.752">  7  8 -1 -1</clus>
<clus scale="   26.753">  1  5  2 -1</clus>
</clustering>
</event>
<event>
 9    1  0.1315259E-005  0.9978712E+02  0.7546771E-02  0.1281533E+00
         21   -1    0    0  501  502  0.00000000000E+00  0.00000000000E+00  0.66796333385E+02  0.66796333385E+02  0.00000000000E+00 0. -1.
         -2   -1    0    0    0  501 -0.00000000000E+00 -0.00000000000E+00 -0.28508817322E+03  0.28508817322E+03  0.00000000000E+00 0.  1.
         23    2    1    2    0    0 -0.42946460674E+02  0.20589221476E+01 -0.17769619059E+03  0.20404673933E+03  0.90611798540E+02 0.  0.
         23    2    1    2    0    0  0.22640742847E+02 -0.28668342728E+02 -0.52604114502E+02  0.11227673977E+03  0.92219283876E+02 0.  0.
        -11    1    3    3    0    0  0.25155553898E+02 -0.75007112869E+01 -0.82735907882E+02  0.86800305384E+02  0.00000000000E+00 0. -1.
         11    1    3    3    0    0 -0.68102014572E+02  0.95596334345E+01 -0.94960282707E+02  0.11724643394E+03  0.00000000000E+00 0.  1.
        -11    1    4    4    0    0  0.13966343058E+01  0.31823256937E+02 -0.31449856059E+02  0.44763419391E+02  0.00000000000E+00 0.  1.
         11    1    4    4    0    0  0.21244108541E+02 -0.60491599666E+02 -0.21154258443E+02  0.67513320375E+02  0.00000000000E+00 0. -1.
         -2    1    1    2    0  502  0.20305717827E+02  0.26609420581E+02  0.12008465255E+02  0.35561027515E+02  0.00000000000E+00 0.  1.
<scales pt_clust_5="13000.00000" pt_clust_6="13000.00000" pt_clust_7="13000.00000" pt_clust_8="13000.00000" pt_clust_9="33.47213"></scales>
<clustering>
<clus scale="   33.472">  1  9  2 -1</clus>
<clus scale="   90.612">  5  6 -1 -1</clus>
<clus scale="   92.219">  7  8 -1 -1</clus>
<clus scale="   98.303">  2  5  1 -1</clus>
<clus scale="   33.472">  1  5  2 -1</clus>
</clustering>
</event>
<event>
 9    1  0.1315259E-005  0.1656078E+03  0.7546771E-02  0.1182564E+00
         21   -1    0    0  501  502  0.00000000000E+00  0.00000000000E+00  0.24121909275E+03  0.24121909275E+03  0.00000000000E+00 0. -1.
          1   -1    0    0  502    0 -0.00000000000E+00 -0.00000000000E+00 -0.53133158314E+03  0.53133158314E+03  0.00000000000E+00 0. -1.
         23    2    1    2    0    0  0.10169879864E+03 -0.88073196219E+02 -0.43327620072E+03  0.46275902943E+03  0.91203726211E+02 0.  0.
         23    2    1    2    0    0 -0.12903505044E+03  0.10437934122E+03  0.29156411302E+02  0.19142431456E+03  0.90818944979E+02 0.  0.
        -11    1    4    4    0    0 -0.57541010352E+01  0.27723940306E+02 -0.23707098867E+02  0.36929027627E+02  0.00000000000E+00 0. -1.
         11    1    4    4    0    0 -0.12328094941E+03  0.76655400915E+02  0.52863510168E+02  0.15449528693E+03  0.00000000000E+00 0.  1.
        -13    1    3    3    0    0  0.44640158782E+02 -0.93766549395E+02 -0.30655406620E+03  0.32366696629E+03  0.00000000000E+00 0.  1.
         13    1    3    3    0    0  0.57058639862E+02  0.56933531760E+01 -0.12672213452E+03  0.13909206315E+03  0.00000000000E+00 0. -1.
          1    1    1    2  501    0  0.27336251797E+02 -0.16306145002E+02  0.11400729903E+03  0.11836733189E+03  0.00000000000E+00 0. -1.
<scales pt_clust_5="13000.00000" pt_clust_6="13000.00000" pt_clust_7="13000.00000" pt_clust_8="13000.00000" pt_clust_9="31.83019"></scales>
<clustering>
<clus scale="   31.830">  1  9  2 -1</clus>
<clus scale="   90.819">  5  6 -1 -1</clus>
<clus scale="   91.204">  7  8 -1 -1</clus>
<clus scale="  165.396">  1  5  2 -1</clus>
<clus scale="   31.830">  1  5  2 -1</clus>
</clustering>
</event>
<event>
 9    1  0.1315259E-005  0.1159213E+03  0.7546771E-02  0.1251685E+00
         21   -1    0    0  501  502  0.00000000000E+00  0.00000000000E+00  0.64427474502E+02  0.64427474502E+02  0.00000000000E+00 0. -1.
          2   -1    0    0  502    0 -0.00000000000E+00 -0.00000000000E+00 -0.76177714116E+03  0.76177714116E+03  0.00000000000E+00 0. -1.
         23    2    1    2    0    0  0.91938569261E+02  0.31832591666E+02 -0.51613403459E+03  0.53388489361E+03  0.95774336646E+02 0.  0.
         23    2    1    2    0    0 -0.25245071563E+02 -0.80845493816E+01 -0.19802193409E+03  0.21955679237E+03  0.91048476754E+02 0.  0.
        -11    1    4    4    0    0 -0.11812381697E+02 -0.47702305801E+02 -0.75452302755E+02  0.90044946172E+02  0.00000000000E+00 0.  1.
         11    1    4    4    0    0 -0.13432689866E+02  0.39617756419E+02 -0.12256963134E+03  0.12951184620E+03  0.00000000000E+00 0. -1.
        -13    1    3    3    0    0  0.85444435124E+02  0.55835142402E+02 -0.47480526731E+03  0.48565250590E+03  0.00000000000E+00 0. -1.
         13    1    3    3    0    0  0.64941341361E+01 -0.24002550736E+02 -0.41328767277E+02  0.48232387714E+02  0.00000000000E+00 0.  1.
          2    1    1    2  501    0 -0.66693497697E+02 -0.23748042285E+02  0.16806302019E+02  0.72762929676E+02  0.00000000000E+00 0. -1.
<scales pt_clust_5="13000.00000" pt_clust_6="13000.00000" pt_clust_7="13000.00000" pt_clust_8="13000.00000" pt_clust_9="70.79542"></scales>
<clustering>
<clus scale="   70.795">  1  9  2 -1</clus>
<clus scale="   91.048">  5  6 -1 -1</clus>
<clus scale="   95.774">  7  8 -1 -1</clus>
<clus scale="  112.048">  1  5  2 -1</clus>
<clus scale="   70.795">  1  5  2 -1</clus>
</clustering>
</event>
<event>
 9    1  0.1315259E-005  0.9320844E+02  0.7546771E-02  0.1295348E+00
         21   -1    0    0  501  502  0.00000000000E+00  0.00000000000E+00  0.76429002682E+02  0.76429002682E+02  0.00000000000E+00 0.  1.
          1   -1    0    0  502    0 -0.00000000000E+00 -0.00000000000E+00 -0.23698229848E+03  0.23698229848E+03  0.00000000000E+00 0. -1.
         23    2    1    2    0    0  0.20510959030E+02  0.33374084530E+01 -0.15993297439E+03  0.18506003709E+03  0.90756946263E+02 0.  0.
         23    2    1    2    0    0 -0.22663834354E+02  0.25768904899E+02 -0.10694249130E+02  0.97475766199E+02  0.90606137675E+02 0.  0.
        -13    1    3    3    0    0  0.33415044043E+02 -0.37198973629E+02 -0.96452544480E+02  0.10864355547E+03  0.00000000000E+00 0. -1.
         13    1    3    3    0    0 -0.12904085013E+02  0.40536382082E+02 -0.63480429908E+02  0.76416481623E+02  0.00000000000E+00 0.  1.
        -13    1    4    4    0    0  0.13955193886E+02  0.30518925335E+02  0.28208132240E+02  0.43838920658E+02  0.00000000000E+00 0.  1.
         13    1    4    4    0    0 -0.36619028240E+02 -0.47500204353E+01 -0.38902381370E+02  0.53636845542E+02  0.00000000000E+00 0. -1.
          1    1    1    2  501    0  0.21528753244E+01 -0.29106313352E+02  0.10073927721E+02  0.30875497872E+02  0.00000000000E+00 0. -1.
<scales pt_clust_5="13000.00000" pt_clust_6="13000.00000" pt_clust_7="13000.00000" pt_clust_8="13000.00000" pt_clust_9="29.18582"></scales>
<clustering>
<clus scale="   29.186">  1  9  2 -1</clus>
<clus scale="   90.606">  7  8 -1 -1</clus>
<clus scale="   90.757">  5  6 -1 -1</clus>
<clus scale="   93.062">  1  7  2 -1</clus>
<clus scale="   29.186">  1  5  2 -1</clus>
</clustering>
</event>
<event>
 9    1  0.1315259E-005  0.1577676E+03  0.7546771E-02  0.1191297E+00
          1   -1    0    0  502    0 -0.00000000000E+00  0.00000000000E+00  0.23853141602E+03  0.23853141602E+03  0.00000000000E+00 0. -1.
         21   -1    0    0  501  502  0.00000000000E+00 -0.00000000000E+00 -0.62269822809E+03  0.62269822809E+03  0.00000000000E+00 0. -1.
         23    2    1    2    0    0  0.32130883210E+02  0.11942771463E+03  0.16660038148E+03  0.22667448064E+03  0.91270260134E+02 0.  0.
         23    2    1    2    0    0 -0.81121541828E+02 -0.14910844724E+03 -0.19527891652E+03  0.27448163538E+03  0.91609384548E+02 0.  0.
        -11    1    4    4    0    0 -0.22987952133E+02 -0.10020760040E+03 -0.16126248662E+03  0.19124748028E+03  0.00000000000E+00 0.  1.
         11    1    4    4    0    0 -0.58133589695E+02 -0.48900846843E+02 -0.34016429895E+02  0.83234155102E+02  0.00000000000E+00 0. -1.
        -13    1    3    3    0    0  0.22586734992E+01  0.10984890498E+03  0.16083083335E+03  0.19477792607E+03  0.00000000000E+00 0. -1.
         13    1    3    3    0    0  0.29872209711E+02  0.95788096551E+01  0.57695481340E+01  0.31896554565E+02  0.00000000000E+00 0.  1.
          1    1    1    2  501    0  0.48990658618E+02  0.29680732612E+02 -0.35548827704E+03  0.36007352809E+03  0.00000000000E+00 0. -1.
<scales pt_clust_5="13000.00000" pt_clust_6="13000.00000" pt_clust_7="13000.00000" pt_clust_8="13000.00000" pt_clust_9="57.28028"></scales>
<clustering>
<clus scale="   57.280">  2  9  1 -1</clus>
<clus scale="   91.270">  7  8 -1 -1</clus>
<clus scale="   91.609">  5  6 -1 -1</clus>
<clus scale="  157.571">  1  7  2 -1</clus>
<clus scale="   57.280">  2  5  1 -1</clus>
</clustering>
</event>
<event>
 9    1  0.1315259E-005  0.1238447E+03  0.7546771E-02  0.1244155E+00
         -1   -1    0    0    0  501 -0.00000000000E+00  0.00000000000E+00  0.16590205146E+03  0.16590205146E+03  0.00000000000E+00 0.  1.
         21   -1    0    0  501  502  0.00000000000E+00 -0.00000000000E+00 -0.23645358449E+03  0.23645358449E+03  0.00000000000E+00 0. -1.
         23    2    1    2    0    0  0.32538566385E+02 -0.54972678207E+02  0.76781223059E+02  0.13514788607E+03  0.91043073565E+02 0.  0.
         23    2    1    2    0    0 -0.22616033502E+01  0.43196148032E+02 -0.23968894777E+01  0.11867564364E+03  0.11048593240E+03 0.  0.
        -13    1    3    3    0    0  0.60299618641E+02 -0.52292489133E+02  0.70648284350E+02  0.10659140917E+03  0.00000000000E+00 0. -1.
         13    1    3    3    0    0 -0.27761052255E+02 -0.26801890739E+01  0.61329387094E+01  0.28556476901E+02  0.00000000000E+00 0.  1.
        -13    1    4    4    0    0  0.30278835751E+02  0.69042367867E+02 -0.11143262833E+02  0.76209112065E+02  0.00000000000E+00 0.  1.
         13    1    4    4    0    0 -0.32540439102E+02 -0.25846219836E+02  0.87463733553E+01  0.42466531570E+02  0.00000000000E+00 0. -1.
         -1    1    1    2    0  502 -0.30276963035E+02  0.11776530175E+02 -0.14493586661E+03  0.14853210624E+03  0.00000000000E+00 0.  1.
<scales pt_clust_5="13000.00000" pt_clust_6="13000.00000" pt_clust_7="13000.00000" pt_clust_8="13000.00000" pt_clust_9="32.48663"></scales>
<clustering>
<clus scale="   32.487">  2  9  1 -1</clus>
<clus scale="   91.043">  5  6 -1 -1</clus>
<clus scale="  106.861">  1  5  2 -1</clus>
<clus scale="  110.486">  7  8 -1 -1</clus>
<clus scale="   32.487">  2  5  1 -1</clus>
</clustering>
</event>
<event>
 9    1  0.1315259E-005  0.1049890E+03  0.7546771E-02  0.1270723E+00
         21   -1    0    0  501  502  0.00000000000E+00  0.00000000000E+00  0.17317299832E+03  0.17317299832E+03  0.00000000000E+00 0. -1.
         -1   -1    0    0    0  501 -0.00000000000E+00 -0.00000000000E+00 -0.12810639425E+03  0.12810639425E+03  0.00000000000E+00 0.  1.
         23    2    1    2    0    0  0.32585402745E+02  0.35226292521E+02 -0.57393187871E+02  0.11785129546E+03  0.91061790405E+02 0.  0.
         23    2    1    2    0    0 -0.23852680842E+02 -0.63498063503E+02  0.49741001466E+02  0.12297295393E+03  0.89706330436E+02 0.  0.
        -11    1    4    4    0    0 -0.15012546761E+02 -0.86479941140E+02  0.40587660628E+02  0.96703231461E+02  0.00000000000E+00 0.  1.
         11    1    4    4    0    0 -0.88401340805E+01  0.22981877637E+02  0.91533408379E+01  0.26269722472E+02  0.00000000000E+00 0. -1.
        -13    1    3    3    0    0  0.29582480022E+02  0.57986866545E+01  0.19202710357E+02  0.35742019756E+02  0.00000000000E+00 0. -1.
         13    1    3    3    0    0  0.30029227231E+01  0.29427605867E+02 -0.76595898228E+02  0.82109275708E+02  0.00000000000E+00 0.  1.
         -1    1    1    2    0  502 -0.87327219035E+01  0.28271770982E+02  0.52718790478E+02  0.60455143171E+02  0.00000000000E+00 0.  1.
<scales pt_clust_5="13000.00000" pt_clust_6="13000.00000" pt_clust_7="13000.00000" pt_clust_8="13000.00000" pt_clust_9="29.58975"></scales>
<clustering>
<clus scale="   29.590">  1  9  2 -1</clus>
<clus scale="   89.706">  5  6 -1 -1</clus>
<clus scale="   91.062">  7  8 -1 -1</clus>
<clus scale="  103.816">  1  5  2 -1</clus>
<clus scale="   29.590">  1  5  2 -1</clus>
</clustering>
</event>
<event>
 9    1  0.1315259E-005  0.1174250E+03  0.7546771E-02  0.1247751E+00
         -2   -1    0    0    0  501 -0.00000000000E+00  0.00000000000E+00  0.62004178566E+03  0.62004178566E+03  0.00000000000E+00 0.  1.
         21   -1    0    0  501  502  0.00000000000E+00 -0.00000000000E+00 -0.59668064498E+02  0.59668064498E+02  0.00000000000E+00 0.  1.
         23    2    1    2    0    0 -0.73934910220E+02 -0.16915457022E+02  0.50659171001E+03  0.52057809841E+03  0.92811056797E+02 0.  0.
         23    2    1    2    0    0  0.43447998129E+02  0.40479000206E+02  0.50619360060E+02  0.12047046959E+03  0.91785273494E+02 0.  0.
        -11    1    4    4    0    0 -0.10678842770E+02  0.52715539511E+02  0.23271216668E+02  0.58604737983E+02  0.00000000000E+00 0.  1.
         11    1    4    4    0    0  0.54126840899E+02 -0.12236539305E+02  0.27348143391E+02  0.61865731604E+02  0.00000000000E+00 0. -1.
        -13    1    3    3    0    0 -0.57433957238E+02 -0.53685567254E+02  0.30282131435E+03  0.31286026913E+03  0.00000000000E+00 0.  1.
         13    1    3    3    0    0 -0.16500952982E+02  0.36770110232E+02  0.20377039565E+03  0.20771782928E+03  0.00000000000E+00 0. -1.
         -2    1    1    2    0  502  0.30486912091E+02 -0.23563543183E+02  0.31626510944E+01  0.38661282158E+02  0.00000000000E+00 0.  1.
<scales pt_clust_5="13000.00000" pt_clust_6="13000.00000" pt_clust_7="13000.00000" pt_clust_8="13000.00000" pt_clust_9="38.53171"></scales>
<clustering>
<clus scale="   38.532">  2  9  1 -1</clus>
<clus scale="   91.785">  5  6 -1 -1</clus>
<clus scale="   92.811">  7  8 -1 -1</clus>
<clus scale="  116.616">  2  5  1 -1</clus>
<clus scale="   38.532">  2  5  1 -1</clus>
</clustering>
</event>
<event>
 9    1  0.1315259E-005  0.1436596E+03  0.7546771E-02  0.1229552E+00
         21   -1    0    0  501  502  0.00000000000E+00  0.00000000000E+00  0.85362160214E+02  0.85362160214E+02  0.00000000000E+00 0.  1.
          2   -1    0    0  502    0 -0.00000000000E+00 -0.00000000000E+00 -0.44788827285E+03  0.44788827285E+03  0.00000000000E+00 0. -1.
         23    2    1    2    0    0 -0.11664851040E+02  0.43805855695E+01 -0.20591683239E+03  0.22563303991E+03  0.91396217427E+02 0.  0.
         23    2    1    2    0    0 -0.53614742422E+02  0.92212431690E+02 -0.12563317749E+03  0.18698922377E+03  0.88337994970E+02 0.  0.
        -11    1    4    4    0    0 -0.28002231643E+02  0.90294723594E+02 -0.49648896543E+02  0.10678143572E+03  0.00000000000E+00 0.  1.
         11    1    4    4    0    0 -0.25612510779E+02  0.19177080968E+01 -0.75984280948E+02  0.80207788050E+02  0.00000000000E+00 0. -1.
        -13    1    3    3    0    0  0.33044189127E+02  0.22581024147E+02 -0.12666368820E+03  0.13283640689E+03  0.00000000000E+00 0.  1.
         13    1    3    3    0    0 -0.44709040166E+02 -0.18200438578E+02 -0.79253144187E+02  0.92796633024E+02  0.00000000000E+00 0. -1.
          2    1    1    2  501    0  0.65279593462E+02 -0.96593017260E+02 -0.30976102752E+02  0.12062816938E+03  0.00000000000E+00 0. -1.
<scales pt_clust_5="13000.00000" pt_clust_6="13000.00000" pt_clust_7="13000.00000" pt_clust_8="13000.00000" pt_clust_9="113.28932"></scales>
<clustering>
<clus scale="   88.338">  5  6 -1 -1</clus>
<clus scale="   91.396">  7  8 -1 -1</clus>
<clus scale="   92.242">  2  7  1 -1</clus>
<clus scale="  113.289">  1  9  2 -1</clus>
<clus scale="  113.289">  1  5  2 -1</clus>
</clustering>
</event>
<event>
 9    1  0.1315259E-005  0.1032978E+03  0.7546771E-02  0.1273559E+00
         -3   -1    0    0    0  501 -0.00000000000E+00  0.00000000000E+00  0.33695787939E+03  0.33695787939E+03  0.00000000000E+00 0.  1.
         21   -1    0    0  501  502  0.00000000000E+00 -0.00000000000E+00 -0.20036586191E+03  0.20036586191E+03  0.00000000000E+00 0.  1.
         23    2    1    2    0    0  0.35611497747E+02 -0.43970454509E+02  0.21976114621E+03  0.24513129411E+03  0.92697412733E+02 0.  0.
         23    2    1    2    0    0 -0.17276694238E+02  0.18785590507E+02  0.80566901774E+02  0.12551932374E+03  0.92804592536E+02 0.  0.
        -11    1    4    4    0    0 -0.17750914541E+02 -0.32635327082E+02  0.10497304670E+02  0.38605089640E+02  0.00000000000E+00 0.  1.
         11    1    4    4    0    0  0.47422030259E+00  0.51420917589E+02  0.70069597104E+02  0.86914234099E+02  0.00000000000E+00 0. -1.
        -13    1    3    3    0    0  0.59675487283E+02 -0.54711962922E+02  0.14819956998E+03  0.16887177150E+03  0.00000000000E+00 0.  1.
         13    1    3    3    0    0 -0.24063989536E+02  0.10741508413E+02  0.71561576236E+02  0.76259522611E+02  0.00000000000E+00 0. -1.
         -3    1    1    2    0  502 -0.18334803509E+02  0.25184864002E+02 -0.16373603050E+03  0.16667312345E+03  0.00000000000E+00 0.  1.
<scales pt_clust_5="13000.00000" pt_clust_6="13000.00000" pt_clust_7="13000.00000" pt_clust_8="13000.00000" pt_clust_9="31.15192"></scales>
<clustering>
<clus scale="   31.152">  2  9  1 -1</clus>
<clus scale="   92.697">  7  8 -1 -1</clus>
<clus scale="   92.805">  5  6 -1 -1</clus>
<clus scale="  103.202">  1  7  2 -1</clus>
<clus scale="   31.152">  2  5  1 -1</clus>
</clustering>
</event>
<event>
 9    1  0.1315259E-005  0.1330396E+03  0.7546771E-02  0.1223192E+00
         -1   -1    0    0    0  501 -0.00000000000E+00  0.00000000000E+00  0.10718634538E+04  0.10718634538E+04  0.00000000000E+00 0.  1.
         21   -1    0    0  501  502  0.00000000000E+00 -0.00000000000E+00 -0.41287986628E+02  0.41287986628E+02  0.00000000000E+00 0. -1.
         23    2    1    2    0    0  0.33583163101E+02 -0.93503673305E+02  0.62539869704E+03  0.64000534830E+03  0.92803824405E+02 0.  0.
         23    2    1    2    0    0 -0.85394640976E+02  0.53234319424E+02  0.37788245762E+03  0.40207549626E+03  0.93506232127E+02 0.  0.
        -11    1    3    3    0    0 -0.27527649448E+02 -0.52980494638E+02  0.34770684118E+03  0.35279562313E+03  0.00000000000E+00 0.  1.
         11    1    3    3    0    0  0.61110812549E+02 -0.40523178667E+02  0.27769185586E+03  0.28720972517E+03  0.00000000000E+00 0. -1.
        -13    1    4    4    0    0 -0.28035353455E+02 -0.26108598234E+02  0.13106433674E+03  0.13654852731E+03  0.00000000000E+00 0. -1.
         13    1    4    4    0    0 -0.57359287521E+02  0.79342917658E+02  0.24681812087E+03  0.26552696895E+03  0.00000000000E+00 0.  1.
         -1    1    1    2    0  502  0.51811477875E+02  0.40269353881E+02  0.27294312512E+02  0.71070595869E+02  0.00000000000E+00 0.  1.
<scales pt_clust_5="13000.00000" pt_clust_6="13000.00000" pt_clust_7="13000.00000" pt_clust_8="13000.00000" pt_clust_9="65.62050"></scales>
<clustering>
<clus scale="   65.621">  2  9  1 -1</clus>
<clus scale="   92.804">  5  6 -1 -1</clus>
<clus scale="   93.506">  7  8 -1 -1</clus>
<clus scale="  132.547">  1  5  2 -1</clus>
<clus scale="   65.621">  2  5  1 -1</clus>
</clustering>
</event>
<event>
 9    1  0.1315259E-005  0.1005522E+03  0.7546771E-02  0.1281881E+00
         21   -1    0    0  501  502  0.00000000000E+00  0.00000000000E+00  0.27111494762E+03  0.27111494762E+03  0.00000000000E+00 0.  1.
          4   -1    0    0  502    0 -0.00000000000E+00 -0.00000000000E+00 -0.17133215200E+03  0.17133215200E+03  0.00000000000E+00 0. -1.
         23    2    1    2    0    0  0.20563940670E+02 -0.18975858427E+02 -0.12956486567E+03  0.16341796299E+03  0.95579377235E+02 0.  0.
         23    2    1    2    0    0 -0.59006185710E+02  0.19666799857E+02  0.11700587922E+03  0.16029009670E+03  0.90188837222E+02 0.  0.
        -11    1    4    4    0    0 -0.51464969338E+02  0.43737463898E+02  0.38305365872E+02  0.77646055095E+02  0.00000000000E+00 0. -1.
         11    1    4    4    0    0 -0.75412163718E+01 -0.24070664041E+02  0.78700513344E+02  0.82644041602E+02  0.00000000000E+00 0.  1.
        -13    1    3    3    0    0  0.41642844229E+02  0.18653120377E+02 -0.10327573924E+03  0.11290679205E+03  0.00000000000E+00 0.  1.
         13    1    3    3    0    0 -0.21078903559E+02 -0.37628978804E+02 -0.26289126424E+02  0.50511170935E+02  0.00000000000E+00 0. -1.
          4    1    1    2  501    0  0.38442245040E+02 -0.69094143016E+00  0.11234178207E+03  0.11873903993E+03  0.00000000000E+00 0. -1.
<scales pt_clust_5="13000.00000" pt_clust_6="13000.00000" pt_clust_7="13000.00000" pt_clust_8="13000.00000" pt_clust_9="38.44845"></scales>
<clustering>
<clus scale="   38.448">  1  9  2 -1</clus>
<clus scale="   90.189">  5  6 -1 -1</clus>
<clus scale="   95.443">  1  5  2 -1</clus>
<clus scale="   95.579">  7  8 -1 -1</clus>
<clus scale="   38.448">  1  5  2 -1</clus>
</clustering>
</event>
<event>
 9    1  0.1315259E-005  0.1313244E+03  0.7546771E-02  0.1225840E+00
         -3   -1    0    0    0  501 -0.00000000000E+00  0.00000000000E+00  0.13395972888E+03  0.13395972888E+03  0.00000000000E+00 0.  1.
         21   -1    0    0  501  502  0.00000000000E+00 -0.00000000000E+00 -0.61101930516E+03  0.61101930516E+03  0.00000000000E+00 0.  1.
         23    2    1    2    0    0  0.96346769623E+02 -0.26477018235E+02  0.21899719904E+02  0.13903695480E+03  0.94169764551E+02 0.  0.
         23    2    1    2    0    0 -0.34955685959E+02  0.10160332985E+03 -0.56314993093E+02  0.15279000002E+03  0.92888476368E+02 0.  0.
        -11    1    4    4    0    0 -0.31580760315E+02  0.89327039149E+01 -0.50044232401E+02  0.59846159592E+02  0.00000000000E+00 0. -1.
         11    1    4    4    0    0 -0.33749256434E+01  0.92670625932E+02 -0.62707606920E+01  0.92943840427E+02  0.00000000000E+00 0.  1.
        -13    1    3    3    0    0  0.91966248655E+02 -0.47560034998E+02 -0.60986747933E+01  0.10371567700E+03  0.00000000000E+00 0.  1.
         13    1    3    3    0    0  0.43805209684E+01  0.21083016763E+02  0.27998394697E+02  0.35321277799E+02  0.00000000000E+00 0. -1.
         -3    1    1    2    0  502 -0.61391083665E+02 -0.75126311612E+02 -0.44264430309E+03  0.45315207923E+03  0.00000000000E+00 0.  1.
<scales pt_clust_5="13000.00000" pt_clust_6="13000.00000" pt_clust_7="13000.00000" pt_clust_8="13000.00000" pt_clust_9="97.01973"></scales>
<clustering>
<clus scale="   92.888">  5  6 -1 -1</clus>
<clus scale="   94.170">  7  8 -1 -1</clus>
<clus scale="   97.020">  2  9  1 -1</clus>
<clus scale="  130.409">  2  5  1 -1</clus>
<clus scale="   97.020">  2  5  1 -1</clus>
</clustering>
</event>
<event>
 9    1  0.1315259E-005  0.1437705E+03  0.7546771E-02  0.1208402E+00
         -3   -1    0    0    0  501 -0.00000000000E+00  0.00000000000E+00  0.19265608440E+03  0.19265608440E+03  0.00000000000E+00 0.  1.
         21   -1    0    0  501  502  0.00000000000E+00 -0.00000000000E+00 -0.37534525573E+03  0.37534525573E+03  0.00000000000E+00 0.  1.
         23    2    1    2    0    0 -0.12347432381E+03  0.15742106589E+02  0.10651171075E+03  0.18711598255E+03  0.90409755222E+02 0.  0.
         23    2    1    2    0    0  0.85225897977E+02  0.84226816090E+01 -0.44520317649E+02  0.13205718861E+03  0.90125729554E+02 0.  0.
        -11    1    3    3    0    0 -0.15107217472E+01  0.25893292089E+02  0.17161256942E+01  0.25994036677E+02  0.00000000000E+00 0. -1.
         11    1    3    3    0    0 -0.12196360206E+03 -0.10151185500E+02  0.10479558506E+03  0.16112194587E+03  0.00000000000E+00 0.  1.
        -13    1    4    4    0    0  0.39445274270E+02  0.35405136853E+02 -0.56618233262E+02  0.77556932092E+02  0.00000000000E+00 0.  1.
         13    1    4    4    0    0  0.45780623707E+02 -0.26982455244E+02  0.12097915613E+02  0.54500256515E+02  0.00000000000E+00 0. -1.
         -3    1    1    2    0  502  0.38248425833E+02 -0.24164788198E+02 -0.24468056443E+03  0.24882816898E+03  0.00000000000E+00 0.  1.
<scales pt_clust_5="13000.00000" pt_clust_6="13000.00000" pt_clust_7="13000.00000" pt_clust_8="13000.00000" pt_clust_9="45.24245"></scales>
<clustering>
<clus scale="   45.242">  2  9  1 -1</clus>
<clus scale="   90.126">  7  8 -1 -1</clus>
<clus scale="   90.410">  5  6 -1 -1</clus>
<clus scale="  143.592">  2  7  1 -1</clus>
<clus scale="   45.242">  2  5  1 -1</clus>
</clustering>
</event>
<event>
 9    1  0.1315259E-005  0.1071941E+03  0.7546771E-02  0.1266054E+00
         -1   -1    0    0    0  501 -0.00000000000E+00  0.00000000000E+00  0.49449931548E+03  0.49449931548E+03  0.00000000000E+00 0.  1.
         21   -1    0    0  501  502  0.00000000000E+00 -0.00000000000E+00 -0.70434071992E+02  0.70434071992E+02  0.00000000000E+00 0.  1.
         23    2    1    2    0    0  0.52600941694E+02 -0.14452003897E+02  0.37172367312E+03  0.38629050836E+03  0.89811737575E+02 0.  0.
         23    2    1    2    0    0 -0.66596959865E+02  0.54096262091E+02  0.57008706127E+02  0.13634231306E+03  0.89317820848E+02 0.  0.
        -11    1    3    3    0    0  0.15992234551E+02  0.37900601326E+02  0.13921806266E+03  0.14516844050E+03  0.00000000000E+00 0.  1.
         11    1    3    3    0    0  0.36608707144E+02 -0.52352605223E+02  0.23250561046E+03  0.24112206786E+03  0.00000000000E+00 0. -1.
        -13    1    4    4    0    0 -0.58048156575E+02 -0.27068633399E+01  0.41156959610E+01  0.58256798266E+02  0.00000000000E+00 0. -1.
         13    1    4    4    0    0 -0.85488032897E+01  0.56803125431E+02  0.52893010166E+02  0.78085514795E+02  0.00000000000E+00 0.  1.
         -1    1    1    2    0  502  0.13996018170E+02 -0.39644258194E+02 -0.46671357572E+01  0.42300566055E+02  0.00000000000E+00 0.  1.
<scales pt_clust_5="13000.00000" pt_clust_6="13000.00000" pt_clust_7="13000.00000" pt_clust_8="13000.00000" pt_clust_9="42.04231"></scales>
<clustering>
<clus scale="   42.042">  2  9  1 -1</clus>
<clus scale="   89.318">  7  8 -1 -1</clus>
<clus scale="   89.812">  5  6 -1 -1</clus>
<clus scale="  106.781">  2  7  1 -1</clus>
<clus scale="   42.042">  2  5  1 -1</clus>
</clustering>
</event>
<event>
 9    1  0.1315259E-005  0.1033807E+03  0.7546771E-02  0.1275446E+00
         21   -1    0    0  501  502  0.00000000000E+00  0.00000000000E+00  0.39157405287E+02  0.39157405287E+02  0.00000000000E+00 0. -1.
         -2   -1    0    0    0  501 -0.00000000000E+00 -0.00000000000E+00 -0.49813438935E+03  0.49813438935E+03  0.00000000000E+00 0. -1.
         23    2    1    2    0    0  0.31455337808E+02  0.60692258693E+00 -0.21006932344E+03  0.23087695818E+03  0.90472330211E+02 0.  0.
         23    2    1    2    0    0 -0.72050435718E+02 -0.83268092560E+01 -0.23876392418E+03  0.26386540622E+03  0.85767943165E+02 0.  0.
        -11    1    4    4    0    0  0.12771932780E+02 -0.22936385263E+02 -0.56070439368E+02  0.61911987585E+02  0.00000000000E+00 0.  1.
         11    1    4    4    0    0 -0.84822368498E+02  0.14609576007E+02 -0.18269348481E+03  0.20195341864E+03  0.00000000000E+00 0. -1.
        -11    1    3    3    0    0  0.57735257155E+02  0.93638995449E-01 -0.18764501496E+03  0.19632631083E+03  0.00000000000E+00 0. -1.
         11    1    3    3    0    0 -0.26279919347E+02  0.51328359148E+00 -0.22424308488E+02  0.34550647347E+02  0.00000000000E+00 0.  1.
         -2    1    1    2    0  502  0.40595097910E+02  0.77198866691E+01 -0.10143736447E+02  0.42549430238E+02  0.00000000000E+00 0. -1.
<scales pt_clust_5="13000.00000" pt_clust_6="13000.00000" pt_clust_7="13000.00000" pt_clust_8="13000.00000" pt_clust_9="41.32262"></scales>
<clustering>
<clus scale="   41.323">  1  9  2 -1</clus>
<clus scale="   85.768">  5  6 -1 -1</clus>
<clus scale="   90.472">  7  8 -1 -1</clus>
<clus scale="   99.290">  1  5  2 -1</clus>
<clus scale="   41.323">  1  5  2 -1</clus>
</clustering>
</event>
<event>
 9    1  0.1315259E-005  0.1090893E+03  0.7546771E-02  0.1268162E+00
          1   -1    0    0  502    0 -0.00000000000E+00  0.00000000000E+00  0.10918947153E+03  0.10918947153E+03  0.00000000000E+00 0. -1.
         21   -1    0    0  501  502  0.00000000000E+00 -0.00000000000E+00 -0.19236153422E+03  0.19236153422E+03  0.00000000000E+00 0.  1.
         23    2    1    2    0    0 -0.29329193074E+01  0.38980780694E+02  0.40560645043E+02  0.10756388237E+03  0.91633616016E+02 0.  0.
         23    2    1    2    0    0 -0.16439357054E+02 -0.15125646446E+02 -0.57607734765E+02  0.12107029014E+03  0.10411688820E+03 0.  0.
        -11    1    3    3    0    0  0.32190189993E+02  0.37501594897E+02 -0.53818967571E+01  0.49714613187E+02  0.00000000000E+00 0. -1.
         11    1    3    3    0    0 -0.35123109300E+02  0.14791857965E+01  0.45942541800E+02  0.57849269180E+02  0.00000000000E+00 0.  1.
        -13    1    4    4    0    0 -0.45363375799E+02 -0.45202612327E+02 -0.27933618638E+02  0.69867009921E+02  0.00000000000E+00 0.  1.
         13    1    4    4    0    0  0.28924018745E+02  0.30076965881E+02 -0.29674116127E+02  0.51203280216E+02  0.00000000000E+00 0. -1.
          1    1    1    2  501    0  0.19372276362E+02 -0.23855134248E+02 -0.66124972969E+02  0.72916833252E+02  0.00000000000E+00 0. -1.
<scales pt_clust_5="13000.00000" pt_clust_6="13000.00000" pt_clust_7="13000.00000" pt_clust_8="13000.00000" pt_clust_9="30.73032"></scales>
<clustering>
<clus scale="   30.730">  2  9  1 -1</clus>
<clus scale="   91.634">  5  6 -1 -1</clus>
<clus scale="   97.246">  1  5  2 -1</clus>
<clus scale="  104.117">  7  8 -1 -1</clus>
<clus scale="   30.730">  2  5  1 -1</clus>
</clustering>
</event>
<event>
 9    1  0.1315259E-005  0.1138994E+03  0.7546771E-02  0.1253676E+00
          1   -1    0    0  502    0 -0.00000000000E+00  0.00000000000E+00  0.87671981085E+03  0.87671981085E+03  0.00000000000E+00 0. -1.
         21   -1    0    0  501  502  0.00000000000E+00 -0.00000000000E+00 -0.26750348146E+02  0.26750348146E+02  0.00000000000E+00 0. -1.
         23    2    1    2    0    0  0.38262594147E+02 -0.40881916808E+02  0.30271632644E+03  0.32101475007E+03  0.90983175571E+02 0.  0.
         23    2    1    2    0    0 -0.88322901212E+02  0.30348339096E+02  0.26357802268E+03  0.29420454480E+03  0.91438414119E+02 0.  0.
        -11    1    3    3    0    0  0.54661669197E+02  0.69998837152E+01  0.13457582626E+03  0.14542197036E+03  0.00000000000E+00 0. -1.
         11    1    3    3    0    0 -0.16399075050E+02 -0.47881800523E+02  0.16814050019E+03  0.17559277971E+03  0.00000000000E+00 0.  1.
        -13    1    4    4    0    0 -0.38327637278E+02 -0.16914544155E+02  0.18535685354E+03  0.19003229393E+03  0.00000000000E+00 0.  1.
         13    1    4    4    0    0 -0.49995263934E+02  0.47262883251E+02  0.78221169143E+02  0.10417225087E+03  0.00000000000E+00 0. -1.
          1    1    1    2  501    0  0.50060307065E+02  0.10533577711E+02  0.28367511357E+03  0.28825086411E+03  0.00000000000E+00 0. -1.
<scales pt_clust_5="13000.00000" pt_clust_6="13000.00000" pt_clust_7="13000.00000" pt_clust_8="13000.00000" pt_clust_9="51.15656"></scales>
<clustering>
<clus scale="   51.157">  2  9  1 -1</clus>
<clus scale="   90.983">  5  6 -1 -1</clus>
<clus scale="   91.438">  7  8 -1 -1</clus>
<clus scale="  113.534">  1  5  2 -1</clus>
<clus scale="   51.157">  2  5  1 -1</clus>
</clustering>
</event>
<event>
 9    1  0.1315259E-005  0.1215842E+03  0.7546771E-02  0.1240684E+00
         21   -1    0    0  501  502  0.00000000000E+00  0.00000000000E+00  0.44119312944E+02  0.44119312944E+02  0.00000000000E+00 0.  1.
         -3   -1    0    0    0  501 -0.00000000000E+00 -0.00000000000E+00 -0.64760952398E+03  0.64760952398E+03  0.00000000000E+00 0.  1.
         23    2    1    2    0    0  0.28095829366E+01 -0.85543140458E+02 -0.48830764609E+03  0.50403224966E+03  0.90986970647E+02 0.  0.
         23    2    1    2    0    0 -0.31793664049E+00  0.64449539033E+02 -0.12179830736E+03  0.16544987133E+03  0.91569580552E+02 0.  0.
        -11    1    4    4    0    0 -0.27165268284E+02  0.34852354671E+02 -0.11716696109E+03  0.12522274234E+03  0.00000000000E+00 0.  1.
         11    1    4    4    0    0  0.26847331644E+02  0.29597184362E+02 -0.46313462638E+01  0.40227128990E+02  0.00000000000E+00 0. -1.
        -13    1    3    3    0    0  0.42951712784E+02 -0.63406416300E+02 -0.35157774043E+03  0.35982236010E+03  0.00000000000E+00 0.  1.
         13    1    3    3    0    0 -0.40142129848E+02 -0.22136724158E+02 -0.13672990566E+03  0.14420988956E+03  0.00000000000E+00 0. -1.
         -3    1    1    2    0  502 -0.24916462961E+01  0.21093601425E+02  0.66157424130E+01  0.22246715938E+02  0.00000000000E+00 0.  1.
<scales pt_clust_5="13000.00000" pt_clust_6="13000.00000" pt_clust_7="13000.00000" pt_clust_8="13000.00000" pt_clust_9="21.24025"></scales>
<clustering>
<clus scale="   21.240">  1  9  2 -1</clus>
<clus scale="   90.987">  7  8 -1 -1</clus>
<clus scale="   91.570">  5  6 -1 -1</clus>
<clus scale="  121.146">  2  7  1 -1</clus>
<clus scale="   21.240">  1  5  2 -1</clus>
</clustering>
</event>
<event>
 9    1  0.1315259E-005  0.9219285E+02  0.7546771E-02  0.1299152E+00
         21   -1    0    0  501  502  0.00000000000E+00  0.00000000000E+00  0.10752707786E+03  0.10752707786E+03  0.00000000000E+00 0. -1.
          2   -1    0    0  502    0 -0.00000000000E+00 -0.00000000000E+00 -0.13981088989E+03  0.13981088989E+03  0.00000000000E+00 0. -1.
         23    2    1    2    0    0  0.25177768300E+02 -0.95144889602E+01 -0.33284243750E+02  0.98620190648E+02  0.88846246992E+02 0.  0.
         23    2    1    2    0    0  0.22134579877E+02  0.13398770667E+02 -0.19512653631E+02  0.97003827293E+02  0.91430477282E+02 0.  0.
        -11    1    3    3    0    0  0.40259081411E+02  0.53510337908E+01 -0.54946601010E+02  0.68326833391E+02  0.00000000000E+00 0.  1.
         11    1    3    3    0    0 -0.15081313111E+02 -0.14865522751E+02  0.21662357260E+02  0.30293357257E+02  0.00000000000E+00 0. -1.
        -13    1    4    4    0    0 -0.32017610920E+02  0.23089989315E+02 -0.13233342940E+02  0.41634077160E+02  0.00000000000E+00 0.  1.
         13    1    4    4    0    0  0.54152190797E+02 -0.96912186483E+01 -0.62793106914E+01  0.55369750133E+02  0.00000000000E+00 0. -1.
          2    1    1    2  501    0 -0.47312348177E+02 -0.38842817067E+01  0.20513085351E+02  0.51713949811E+02  0.00000000000E+00 0. -1.
<scales pt_clust_5="13000.00000" pt_clust_6="13000.00000" pt_clust_7="13000.00000" pt_clust_8="13000.00000" pt_clust_9="47.47153"></scales>
<clustering>
<clus scale="   47.472">  1  9  2 -1</clus>
<clus scale="   88.846">  5  6 -1 -1</clus>
<clus scale="   89.631">  2  5  1 -1</clus>
<clus scale="   91.430">  7  8 -1 -1</clus>
<clus scale="   47.472">  1  5  2 -1</clus>
</clustering>
</event>
<event>
 9    1  0.1315259E-005  0.9933013E+02  0.7546771E-02  0.1283019E+00
         -1   -1    0    0    0  501 -0.00000000000E+00  0.00000000000E+00  0.62134373763E+02  0.62134373763E+02  0.00000000000E+00 0.  1.
         21   -1    0    0  501  502  0.00000000000E+00 -0.00000000000E+00 -0.30432643563E+03  0.30432643563E+03  0.00000000000E+00 0. -1.
         23    2    1    2    0    0 -0.40517801041E+01  0.29544122098E+02 -0.26399638607E+02  0.99535419817E+02  0.91219991269E+02 0.  0.
         23    2    1    2    0    0  0.33763819771E+02 -0.51842119757E+02 -0.10736507133E+03  0.15231083270E+03  0.88564836761E+02 0.  0.
        -11    1    4    4    0    0  0.60982611887E+02 -0.19130847734E+02 -0.51475424311E+02  0.82064533117E+02  0.00000000000E+00 0. -1.
         11    1    4    4    0    0 -0.27218792117E+02 -0.32711272022E+02 -0.55889647017E+02  0.70246299584E+02  0.00000000000E+00 0.  1.
        -13    1    3    3    0    0  0.24730319263E+02 -0.48791042522E+01 -0.44506640275E+02  0.51149148358E+02  0.00000000000E+00 0. -1.
         13    1    3    3    0    0 -0.28782099367E+02  0.34423226350E+02  0.18107001668E+02  0.48386271459E+02  0.00000000000E+00 0.  1.
         -1    1    1    2    0  502 -0.29712039667E+02  0.22297997659E+02 -0.10842735193E+03  0.11461455687E+03  0.00000000000E+00 0.  1.
<scales pt_clust_5="13000.00000" pt_clust_6="13000.00000" pt_clust_7="13000.00000" pt_clust_8="13000.00000" pt_clust_9="37.14843"></scales>
<clustering>
<clus scale="   37.148">  2  9  1 -1</clus>
<clus scale="   88.565">  5  6 -1 -1</clus>
<clus scale="   91.220">  7  8 -1 -1</clus>
<clus scale="   96.897">  2  5  1 -1</clus>
<clus scale="   37.148">  2  5  1 -1</clus>
</clustering>
</event>
<event>
 9    1  0.1315259E-005  0.1227190E+03  0.7546771E-02  0.1240261E+00
         21   -1    0    0  501  502  0.00000000000E+00  0.00000000000E+00  0.85780296879E+02  0.85780296879E+02  0.00000000000E+00 0. -1.
          1   -1    0    0  502    0 -0.00000000000E+00 -0.00000000000E+00 -0.32131621533E+03  0.32131621533E+03  0.00000000000E+00 0. -1.
         23    2    1    2    0    0 -0.24627122076E+02  0.34870481321E+02 -0.43170214562E+02  0.10998133175E+03  0.91704854287E+02 0.  0.
         23    2    1    2    0    0  0.76734859169E+02 -0.85297790663E+02 -0.10282078982E+03  0.18189182593E+03  0.96688002446E+02 0.  0.
        -13    1    3    3    0    0  0.65366066447E+01 -0.29102205080E+02 -0.98914980713E+01  0.31424628893E+02  0.00000000000E+00 0. -1.
         13    1    3    3    0    0 -0.31163728721E+02  0.63972686402E+02 -0.33278716491E+02  0.78556702862E+02  0.00000000000E+00 0.  1.
        -13    1    4    4    0    0 -0.19596727609E+02 -0.33980255400E+02 -0.15754697642E+02  0.42271739825E+02  0.00000000000E+00 0.  1.
         13    1    4    4    0    0  0.96331586778E+02 -0.51317535263E+02 -0.87066092179E+02  0.13962008610E+03  0.00000000000E+00 0. -1.
          1    1    1    2  501    0 -0.52107737092E+02  0.50427309342E+02 -0.89544914063E+02  0.11522335452E+03  0.00000000000E+00 0. -1.
<scales pt_clust_5="13000.00000" pt_clust_6="13000.00000" pt_clust_7="13000.00000" pt_clust_8="13000.00000" pt_clust_9="72.51300"></scales>
<clustering>
<clus scale="   72.513">  1  9  2 -1</clus>
<clus scale="   91.705">  5  6 -1 -1</clus>
<clus scale="   96.688">  7  8 -1 -1</clus>
<clus scale="  118.832">  2  5  1 -1</clus>
<clus scale="   72.513">  1  5  2 -1</clus>
</clustering>
</event>
<event>
 9    1  0.1315259E-005  0.2102927E+03  0.7546771E-02  0.1169987E+00
          1   -1    0    0  502    0 -0.00000000000E+00  0.00000000000E+00  0.89962818882E+03  0.89962818882E+03  0.00000000000E+00 0. -1.
         21   -1    0    0  501  502  0.00000000000E+00 -0.00000000000E+00 -0.72466053776E+02  0.72466053776E+02  0.00000000000E+00 0. -1.
         23    2    1    2    0    0 -0.53198840202E+02  0.15046110905E+02  0.16869548623E+03  0.19996564818E+03  0.92041247962E+02 0.  0.
         23    2    1    2    0    0  0.17164667378E+03  0.11547400120E+03  0.36601951074E+03  0.43067476516E+03  0.93346909578E+02 0.  0.
        -13    1    4    4    0    0  0.13745571039E+03  0.54471833257E+02  0.18638755248E+03  0.23791085023E+03  0.00000000000E+00 0. -1.
         13    1    4    4    0    0  0.34190963398E+02  0.61002167946E+02  0.17963195825E+03  0.19276391493E+03  0.00000000000E+00 0.  1.
        -13    1    3    3    0    0 -0.61393387203E+02  0.42478031602E+02  0.94456503771E+02  0.12039751769E+03  0.00000000000E+00 0. -1.
         13    1    3    3    0    0  0.81945470015E+01 -0.27431920696E+02  0.74238982458E+02  0.79568130493E+02  0.00000000000E+00 0.  1.
          1    1    1    2  501    0 -0.11844783358E+03 -0.13052011211E+03  0.29244713808E+03  0.34145382926E+03  0.00000000000E+00 0. -1.
<scales pt_clust_5="13000.00000" pt_clust_6="13000.00000" pt_clust_7="13000.00000" pt_clust_8="13000.00000" pt_clust_9="188.43936"></scales>
<clustering>
<clus scale="   92.041">  7  8 -1 -1</clus>
<clus scale="   93.347">  5  6 -1 -1</clus>
<clus scale="  107.369">  1  7  2 -1</clus>
<clus scale="  188.439">  2  9  1 -1</clus>
<clus scale="  188.439">  2  5  1 -1</clus>
</clustering>
</event>
<event>
 9    1  0.1315259E-005  0.1365375E+03  0.7546771E-02  0.1218556E+00
         21   -1    0    0  501  502  0.00000000000E+00  0.00000000000E+00  0.15147839498E+03  0.15147839498E+03  0.00000000000E+00 0.  1.
          1   -1    0    0  502    0 -0.00000000000E+00 -0.00000000000E+00 -0.17081194409E+03  0.17081194409E+03  0.00000000000E+00 0. -1.
         23    2    1    2    0    0  0.15281755716E+02 -0.99737588793E+02 -0.27707611549E+02  0.13952249515E+03  0.92291366001E+02 0.  0.
         23    2    1    2    0    0  0.27719599553E+02  0.10173394409E+03  0.13498573243E+02  0.13941622804E+03  0.90202558614E+02 0.  0.
        -11    1    4    4    0    0 -0.17280683798E+02  0.36311320801E+02 -0.28785711312E+02  0.49454536966E+02  0.00000000000E+00 0. -1.
         11    1    4    4    0    0  0.45000283351E+02  0.65422623292E+02  0.42284284555E+02  0.89961691071E+02  0.00000000000E+00 0.  1.
        -13    1    3    3    0    0  0.38852618710E+02 -0.91814882942E+02 -0.44848823430E+02  0.10932024366E+03  0.00000000000E+00 0.  1.
         13    1    3    3    0    0 -0.23570862994E+02 -0.79227058510E+01  0.17141211881E+02  0.30202251490E+02  0.00000000000E+00 0. -1.
          1    1    1    2  501    0 -0.43001355268E+02 -0.19963552996E+01 -0.51245108081E+01  0.43351615891E+02  0.00000000000E+00 0. -1.
<scales pt_clust_5="13000.00000" pt_clust_6="13000.00000" pt_clust_7="13000.00000" pt_clust_8="13000.00000" pt_clust_9="43.04769"></scales>
<clustering>
<clus scale="   43.048">  1  9  2 -1</clus>
<clus scale="   90.203">  5  6 -1 -1</clus>
<clus scale="   92.291">  7  8 -1 -1</clus>
<clus scale="  135.134">  1  5  2 -1</clus>
<clus scale="   43.048">  1  5  2 -1</clus>
</clustering>
</event>
<event>
 9    1  0.1315259E-005  0.9261715E+02  0.7546771E-02  0.1298649E+00
         -2   -1    0    0    0  501 -0.00000000000E+00  0.00000000000E+00  0.43581139356E+02  0.43581139356E+02  0.00000000000E+00 0.  1.
         21   -1    0    0  501  502  0.00000000000E+00 -0.00000000000E+00 -0.36208275025E+03  0.36208275025E+03  0.00000000000E+00 0.  1.
         23    2    1    2    0    0  0.10416014007E+02 -0.71180095628E+01 -0.63366098708E+02  0.10973197572E+03  0.88694332521E+02 0.  0.
         23    2    1    2    0    0  0.14599591387E+02  0.13225041313E+02 -0.95130510808E+02  0.13386810912E+03  0.92102153972E+02 0.  0.
        -11    1    3    3    0    0  0.33941088942E+02  0.53270273438E+01  0.65021704048E+01  0.34966454765E+02  0.00000000000E+00 0.  1.
         11    1    3    3    0    0 -0.23525074935E+02 -0.12445036907E+02 -0.69868269113E+02  0.74765520952E+02  0.00000000000E+00 0. -1.
        -13    1    4    4    0    0 -0.15147838966E+02  0.43624069331E+02 -0.71768564016E+02  0.85341919543E+02  0.00000000000E+00 0. -1.
         13    1    4    4    0    0  0.29747430352E+02 -0.30399028017E+02 -0.23361946791E+02  0.48526189577E+02  0.00000000000E+00 0.  1.
         -2    1    1    2    0  502 -0.25015605393E+02 -0.61070317506E+01 -0.16000500138E+03  0.16206380477E+03  0.00000000000E+00 0.  1.
<scales pt_clust_5="13000.00000" pt_clust_6="13000.00000" pt_clust_7="13000.00000" pt_clust_8="13000.00000" pt_clust_9="25.75027"></scales>
<clustering>
<clus scale="   25.750">  2  9  1 -1</clus>
<clus scale="   88.694">  5  6 -1 -1</clus>
<clus scale="   89.229">  1  5  2 -1</clus>
<clus scale="   92.102">  7  8 -1 -1</clus>
<clus scale="   25.750">  2  5  1 -1</clus>
</clustering>
</event>
<event>
 9    1  0.1360008E-005  0.9622530E+02  0.7546771E-02  0.1291584E+00
         21   -1    0    0  501  502  0.00000000000E+00  0.00000000000E+00  0.10950303057E+03  0.10950303057E+03  0.00000000000E+00 0. -1.
          2   -1    0    0  502    0 -0.00000000000E+00 -0.00000000000E+00 -0.37044440512E+03  0.37044440512E+03  0.00000000000E+00 0. -1.
         23    2    1    2    0    0 -0.30148797739E+02 -0.18629948797E+02 -0.29356691146E+03  0.30935929663E+03  0.90915443756E+02 0.  0.
         23    2    1    2    0    0 -0.26074570921E+02  0.20669679658E+02  0.58699315432E+02  0.10857951376E+03  0.85069279244E+02 0.  0.
        -13    1    3    3    0    0  0.27174916627E+02  0.93278480957E+01 -0.14272800775E+03  0.14559110220E+03  0.00000000000E+00 0.  1.
         13    1    3    3    0    0 -0.57323714366E+02 -0.27957796892E+02 -0.15083890370E+03  0.16376819443E+03  0.00000000000E+00 0. -1.
        -13    1    4    4    0    0 -0.57364505127E+02  0.10152664434E+02  0.39621462937E+02  0.70452986940E+02  0.00000000000E+00 0. -1.
         13    1    4    4    0    0  0.31289934205E+02  0.10517015224E+02  0.19077852495E+02  0.38126526823E+02  0.00000000000E+00 0.  1.
          2    1    1    2  501    0  0.56223368660E+02 -0.20397308614E+01 -0.26073778525E+02  0.62008625303E+02  0.00000000000E+00 0. -1.
<scales pt_clust_5="13000.00000" pt_clust_6="13000.00000" pt_clust_7="13000.00000" pt_clust_8="13000.00000" pt_clust_9="56.26036"></scales>
<clustering>
<clus scale="   56.260">  1  9  2 -1</clus>
<clus scale="   85.069">  7  8 -1 -1</clus>
<clus scale="   90.722">  1  7  2 -1</clus>
<clus scale="   90.915">  5  6 -1 -1</clus>
<clus scale="   56.260">  1  5  2 -1</clus>
</clustering>
</event>
<event>
 9    1  0.1315259E-005  0.1081502E+03  0.7546771E-02  0.1264638E+00
          1   -1    0    0  502    0 -0.00000000000E+00  0.00000000000E+00  0.32500553167E+03  0.32500553167E+03  0.00000000000E+00 0. -1.
         21   -1    0    0  501  502  0.00000000000E+00 -0.00000000000E+00 -0.66353561095E+02  0.66353561095E+02  0.00000000000E+00 0.  1.
         23    2    1    2    0    0 -0.11026256926E+02 -0.49548896874E+02  0.21505539091E+03  0.23913434240E+03  0.91431619427E+02 0.  0.
         23    2    1    2    0    0  0.28295185282E+02  0.68540006968E+02  0.27782035791E+02  0.12207548923E+03  0.92909813760E+02 0.  0.
        -11    1    4    4    0    0  0.46980396901E+02  0.41839072335E+02 -0.18406211391E+02  0.65547343841E+02  0.00000000000E+00 0.  1.
         11    1    4    4    0    0 -0.18685211618E+02  0.26700934632E+02  0.46188247182E+02  0.56528145390E+02  0.00000000000E+00 0. -1.
        -11    1    3    3    0    0  0.10574793455E+02 -0.72120187930E+02  0.14007603699E+03  0.15790644034E+03  0.00000000000E+00 0.  1.
         11    1    3    3    0    0 -0.21601050382E+02  0.22571291056E+02  0.74979353929E+02  0.81227902060E+02  0.00000000000E+00 0. -1.
          1    1    1    2  501    0 -0.17268928356E+02 -0.18991110094E+02  0.15814543870E+02  0.30149261135E+02  0.00000000000E+00 0. -1.
<scales pt_clust_5="13000.00000" pt_clust_6="13000.00000" pt_clust_7="13000.00000" pt_clust_8="13000.00000" pt_clust_9="25.66862"></scales>
<clustering>
<clus scale="   25.669">  2  9  1 -1</clus>
<clus scale="   91.432">  7  8 -1 -1</clus>
<clus scale="   92.910">  5  6 -1 -1</clus>
<clus scale="  106.883">  1  7  2 -1</clus>
<clus scale="   25.669">  2  5  1 -1</clus>
</clustering>
</event>
<event>
 9    1  0.1315259E-005  0.1007072E+03  0.7546771E-02  0.1279448E+00
         21   -1    0    0  501  502  0.00000000000E+00  0.00000000000E+00  0.15951894293E+03  0.15951894293E+03  0.00000000000E+00 0. -1.
          2   -1    0    0  502    0 -0.00000000000E+00 -0.00000000000E+00 -0.13107712734E+03  0.13107712734E+03  0.00000000000E+00 0.  1.
         23    2    1    2    0    0  0.32672341104E+01 -0.29836136781E+02 -0.47801014156E+02  0.10681666098E+03  0.90686229557E+02 0.  0.
         23    2    1    2    0    0 -0.59486311348E+01  0.76699370418E+02  0.60046516568E+02  0.13412386461E+03  0.92007865268E+02 0.  0.
        -11    1    3    3    0    0 -0.25760745882E+02  0.66703974077E+01  0.13460498138E+02  0.29821053638E+02  0.00000000000E+00 0. -1.
         11    1    3    3    0    0  0.29027979993E+02 -0.36506534188E+02 -0.61261512294E+02  0.76995607338E+02  0.00000000000E+00 0.  1.
        -13    1    4    4    0    0  0.10665435354E+02  0.62922863745E+02  0.81619027630E+02  0.10360841647E+03  0.00000000000E+00 0. -1.
         13    1    4    4    0    0 -0.16614066488E+02  0.13776506674E+02 -0.21572511062E+02  0.30515448136E+02  0.00000000000E+00 0.  1.
          2    1    1    2  501    0  0.26813970244E+01 -0.46863233638E+02  0.16196313182E+02  0.49655544682E+02  0.00000000000E+00 0.  1.
<scales pt_clust_5="13000.00000" pt_clust_6="13000.00000" pt_clust_7="13000.00000" pt_clust_8="13000.00000" pt_clust_9="46.93988"></scales>
<clustering>
<clus scale="   46.940">  1  9  2 -1</clus>
<clus scale="   90.686">  5  6 -1 -1</clus>
<clus scale="   92.008">  7  8 -1 -1</clus>
<clus scale="   99.501">  2  5  1 -1</clus>
<clus scale="   46.940">  1  5  2 -1</clus>
</clustering>
</event>
<event>
 9    1  0.1315259E-005  0.1337152E+03  0.7546771E-02  0.1231280E+00
         21   -1    0    0  501  502  0.00000000000E+00  0.00000000000E+00  0.29770564015E+03  0.29770564015E+03  0.00000000000E+00 0. -1.
          3   -1    0    0  502    0 -0.00000000000E+00 -0.00000000000E+00 -0.13178045708E+03  0.13178045708E+03  0.00000000000E+00 0. -1.
         23    2    1    2    0    0  0.21515252163E+02 -0.44941909345E+02 -0.62801997633E+02  0.14610525050E+03  0.12214733737E+03 0.  0.
         23    2    1    2    0    0 -0.10607344095E+02  0.71401458031E+02  0.11574153906E+03  0.16682680179E+03  0.96043708663E+02 0.  0.
        -13    1    3    3    0    0  0.33350320974E+02  0.30901349431E+02  0.22005001149E+01  0.45519001598E+02  0.00000000000E+00 0. -1.
         13    1    3    3    0    0 -0.11835068812E+02 -0.75843258775E+02 -0.65002497748E+02  0.10058624891E+03  0.00000000000E+00 0.  1.
        -13    1    4    4    0    0  0.19860059923E+02 -0.10752787209E+02  0.12027958495E+01  0.22616169675E+02  0.00000000000E+00 0. -1.
         13    1    4    4    0    0 -0.30467404018E+02  0.82154245240E+02  0.11453874321E+03  0.14421063212E+03  0.00000000000E+00 0.  1.
          3    1    1    2  501    0 -0.10907908068E+02 -0.26459548687E+02  0.11298564164E+03  0.11655404494E+03  0.00000000000E+00 0. -1.
<scales pt_clust_5="13000.00000" pt_clust_6="13000.00000" pt_clust_7="13000.00000" pt_clust_8="13000.00000" pt_clust_9="28.61975"></scales>
<clustering>
<clus scale="   28.620">  1  9  2 -1</clus>
<clus scale="   96.044">  7  8 -1 -1</clus>
<clus scale="  110.382">  1  7  2 -1</clus>
<clus scale="  122.147">  5  6 -1 -1</clus>
<clus scale="   28.620">  1  5  2 -1</clus>
</clustering>
</event>
<event>
 9    1  0.1315259E-005  0.2234365E+03  0.7546771E-02  0.1131707E+00
         21   -1    0    0  501  502  0.00000000000E+00  0.00000000000E+00  0.22987363256E+03  0.22987363256E+03  0.00000000000E+00 0. -1.
         -3   -1    0    0    0  501 -0.00000000000E+00 -0.00000000000E+00 -0.26592966561E+03  0.26592966561E+03  0.00000000000E+00 0.  1.
         23    2    1    2    0    0 -0.19146502378E+03 -0.20730230006E+02 -0.51528706015E+02  0.22188230268E+03  0.97406113413E+02 0.  0.
         23    2    1    2    0    0  0.20887622899E+03  0.35823368905E+02 -0.19347348924E+02  0.23216711144E+03  0.92815165390E+02 0.  0.
        -13    1    3    3    0    0 -0.11342928820E+03 -0.35507117421E+02 -0.73157913254E+02  0.13956732813E+03  0.00000000000E+00 0.  1.
         13    1    3    3    0    0 -0.78035735576E+02  0.14776887415E+02  0.21629207239E+02  0.82314974545E+02  0.00000000000E+00 0. -1.
        -13    1    4    4    0    0  0.63544191196E+02 -0.25796894726E+02 -0.27994740392E+02  0.74074621172E+02  0.00000000000E+00 0. -1.
         13    1    4    4    0    0  0.14533203780E+03  0.61620263631E+02  0.86473914677E+01  0.15809249027E+03  0.00000000000E+00 0.  1.
         -3    1    1    2    0  502 -0.17411205212E+02 -0.15093138899E+02  0.34820021888E+02  0.41753884048E+02  0.00000000000E+00 0.  1.
<scales pt_clust_5="13000.00000" pt_clust_6="13000.00000" pt_clust_7="13000.00000" pt_clust_8="13000.00000" pt_clust_9="23.04242"></scales>
<clustering>
<clus scale="   23.042">  1  9  2 -1</clus>
<clus scale="   92.815">  7  8 -1 -1</clus>
<clus scale="   97.406">  5  6 -1 -1</clus>
<clus scale="  221.474">  1  7  2 -1</clus>
<clus scale="   23.042">  1  5  2 -1</clus>
</clustering>
</event>
<event>
 9    1  0.1315259E-005  0.1033834E+03  0.7546771E-02  0.1273358E+00
          1   -1    0    0  502    0 -0.00000000000E+00  0.00000000000E+00  0.55880290296E+03  0.55880290296E+03  0.00000000000E+00 0. -1.
         21   -1    0    0  501  502  0.00000000000E+00 -0.00000000000E+00 -0.31626809682E+02  0.31626809682E+02  0.00000000000E+00 0.  1.
         23    2    1    2    0    0  0.82998536136E+01 -0.58823350331E+02  0.27648605979E+03  0.29674076237E+03  0.89896967037E+02 0.  0.
         23    2    1    2    0    0  0.26679633710E+02  0.41066498184E+02  0.22392720675E+03  0.24620085464E+03  0.89851025437E+02 0.  0.
        -11    1    3    3    0    0  0.39294091471E+02 -0.35412313920E+02  0.76433885130E+02  0.92952656755E+02  0.00000000000E+00 0.  1.
         11    1    3    3    0    0 -0.30994237857E+02 -0.23411036411E+02  0.20005217466E+03  0.20378810562E+03  0.00000000000E+00 0. -1.
        -13    1    4    4    0    0 -0.31619451481E+02  0.18473703071E+02  0.55019395175E+02  0.66092369170E+02  0.00000000000E+00 0. -1.
         13    1    4    4    0    0  0.58299085191E+02  0.22592795113E+02  0.16890781158E+03  0.18010848547E+03  0.00000000000E+00 0.  1.
          1    1    1    2  501    0 -0.34979487324E+02  0.17756852147E+02  0.26762826733E+02  0.47488095628E+02  0.00000000000E+00 0. -1.
<scales pt_clust_5="13000.00000" pt_clust_6="13000.00000" pt_clust_7="13000.00000" pt_clust_8="13000.00000" pt_clust_9="39.22844"></scales>
<clustering>
<clus scale="   39.228">  2  9  1 -1</clus>
<clus scale="   89.851">  7  8 -1 -1</clus>
<clus scale="   89.897">  5  6 -1 -1</clus>
<clus scale="  103.343">  2  7  1 -1</clus>
<clus scale="   39.228">  2  5  1 -1</clus>
</clustering>
</event>
<event>
 9    1  0.1315259E-005  0.1050020E+03  0.7546771E-02  0.1277238E+00
          1   -1    0    0  502    0 -0.00000000000E+00  0.00000000000E+00  0.33995271271E+03  0.33995271271E+03  0.00000000000E+00 0. -1.
         21   -1    0    0  501  502  0.00000000000E+00 -0.00000000000E+00 -0.93563785698E+02  0.93563785698E+02  0.00000000000E+00 0. -1.
         23    2    1    2    0    0 -0.13366883687E+02 -0.14380019742E+02  0.16646826733E+03  0.18919131721E+03  0.87728056712E+02 0.  0.
         23    2    1    2    0    0  0.35796418215E+02  0.61938121060E+02 -0.25145565458E+02  0.12683574045E+03  0.10167247020E+03 0.  0.
        -11    1    4    4    0    0  0.58504755169E+02  0.76992494561E+02 -0.23653514282E+02  0.99549682742E+02  0.00000000000E+00 0. -1.
         11    1    4    4    0    0 -0.22708336953E+02 -0.15054373501E+02 -0.14920511752E+01  0.27286057711E+02  0.00000000000E+00 0.  1.
        -11    1    3    3    0    0  0.22890736850E+02 -0.32817669161E+02  0.12438840629E+03  0.13066545397E+03  0.00000000000E+00 0.  1.
         11    1    3    3    0    0 -0.36257620537E+02  0.18437649419E+02  0.42079861041E+02  0.58525863243E+02  0.00000000000E+00 0. -1.
          1    1    1    2  501    0 -0.22429534528E+02 -0.47558101318E+02  0.10506622514E+03  0.11748944074E+03  0.00000000000E+00 0. -1.
<scales pt_clust_5="13000.00000" pt_clust_6="13000.00000" pt_clust_7="13000.00000" pt_clust_8="13000.00000" pt_clust_9="52.58193"></scales>
<clustering>
<clus scale="   52.582">  2  9  1 -1</clus>
<clus scale="   87.728">  7  8 -1 -1</clus>
<clus scale="   91.566">  1  7  2 -1</clus>
<clus scale="  101.672">  5  6 -1 -1</clus>
<clus scale="   52.582">  2  5  1 -1</clus>
</clustering>
</event>
<event>
 9    1  0.1315259E-005  0.1226729E+03  0.7546771E-02  0.1244105E+00
          1   -1    0    0  502    0 -0.00000000000E+00  0.00000000000E+00  0.16137313472E+03  0.16137313472E+03  0.00000000000E+00 0. -1.
         21   -1    0    0  501  502  0.00000000000E+00 -0.00000000000E+00 -0.17729199776E+03  0.17729199776E+03  0.00000000000E+00 0. -1.
         23    2    1    2    0    0  0.31733431943E+02 -0.52273535215E+02 -0.31658563827E+02  0.11452615344E+03  0.91511977208E+02 0.  0.
         23    2    1    2    0    0  0.64801133563E+02 -0.95866607717E+00 -0.59389792247E+01  0.11178883547E+03  0.90892058566E+02 0.  0.
        -13    1    4    4    0    0  0.24903079599E+02  0.39365816189E+02 -0.23809697093E+02  0.52313789132E+02  0.00000000000E+00 0.  1.
         13    1    4    4    0    0  0.39898053964E+02 -0.40324482266E+02  0.17870717868E+02  0.59475046341E+02  0.00000000000E+00 0. -1.
        -13    1    3    3    0    0  0.48932689295E+02 -0.68199293508E+02 -0.13814971098E+02  0.85067062622E+02  0.00000000000E+00 0. -1.
         13    1    3    3    0    0 -0.17199257352E+02  0.15925758293E+02 -0.17843592729E+02  0.29459090823E+02  0.00000000000E+00 0.  1.
          1    1    1    2  501    0 -0.96534565506E+02  0.53232201292E+02  0.21678680013E+02  0.11235014356E+03  0.00000000000E+00 0. -1.
<scales pt_clust_5="13000.00000" pt_clust_6="13000.00000" pt_clust_7="13000.00000" pt_clust_8="13000.00000" pt_clust_9="82.38493"></scales>
<clustering>
<clus scale="   90.892">  5  6 -1 -1</clus>
<clus scale="   91.512">  7  8 -1 -1</clus>
<clus scale="  110.064">  1  7  2 -1</clus>
<clus scale="   82.385">  2  9  1 -1</clus>
<clus scale="   82.385">  2  5  1 -1</clus>
</clustering>
</event>
<event>
 9    1  0.1315259E-005  0.1048129E+03  0.7546771E-02  0.1270789E+00
         21   -1    0    0  501  502  0.00000000000E+00  0.00000000000E+00  0.68972250379E+03  0.68972250379E+03  0.00000000000E+00 0. -1.
          1   -1    0    0  502    0 -0.00000000000E+00 -0.00000000000E+00 -0.22592207316E+03  0.22592207316E+03  0.00000000000E+00 0. -1.
         23    2    1    2    0    0 -0.26283114828E+01  0.35137781220E+02 -0.74843924610E+02  0.12300007866E+03  0.91026559915E+02 0.  0.
         23    2    1    2    0    0  0.89267172171E+02 -0.31592164550E+02 -0.88985783058E+02  0.15905278900E+03  0.91720375131E+02 0.  0.
        -11    1    4    4    0    0  0.17714189216E+02 -0.53841229946E+02 -0.42869785610E+02  0.71066792948E+02  0.00000000000E+00 0.  1.
         11    1    4    4    0    0  0.71552982955E+02  0.22249065396E+02 -0.46115997449E+02  0.87985996053E+02  0.00000000000E+00 0. -1.
        -13    1    3    3    0    0 -0.21220516171E+02 -0.24057478894E+02 -0.10847115074E+02  0.33863439027E+02  0.00000000000E+00 0.  1.
         13    1    3    3    0    0  0.18592204688E+02  0.59195260113E+02 -0.63996809535E+02  0.89136639637E+02  0.00000000000E+00 0. -1.
          1    1    1    2  501    0 -0.86638860688E+02 -0.35456166691E+01  0.62763013830E+03  0.63359170929E+03  0.00000000000E+00 0. -1.
<scales pt_clust_5="13000.00000" pt_clust_6="13000.00000" pt_clust_7="13000.00000" pt_clust_8="13000.00000" pt_clust_9="86.71138"></scales>
<clustering>
<clus scale="   86.711">  1  9  2 -1</clus>
<clus scale="   91.027">  7  8 -1 -1</clus>
<clus scale="   91.720">  5  6 -1 -1</clus>
<clus scale="  104.206">  2  7  1 -1</clus>
<clus scale="   86.711">  1  5  2 -1</clus>
</clustering>
</event>
<event>
 9    1  0.1315259E-005  0.9936341E+02  0.7546771E-02  0.1293388E+00
         -2   -1    0    0    0  501 -0.00000000000E+00  0.00000000000E+00  0.17914277435E+03  0.17914277435E+03  0.00000000000E+00 0.  1.
         21   -1    0    0  501  502  0.00000000000E+00 -0.00000000000E+00 -0.15259969601E+03  0.15259969601E+03  0.00000000000E+00 0.  1.
         23    2    1    2    0    0 -0.34180375028E+02  0.30115231887E+02  0.96985906306E+02  0.14166365543E+03  0.92666606813E+02 0.  0.
         23    2    1    2    0    0  0.50882687784E+01 -0.28483699887E+02  0.32276482369E+02  0.83306771494E+02  0.71140953214E+02 0.  0.
        -11    1    4    4    0    0 -0.12854532466E+02 -0.48260465676E+02  0.23522306905E+02  0.55205167098E+02  0.00000000000E+00 0.  1.
         11    1    4    4    0    0  0.17942801245E+02  0.19776765789E+02  0.87541754644E+01  0.28101604396E+02  0.00000000000E+00 0. -1.
        -13    1    3    3    0    0 -0.27948476644E+02  0.32198214958E+01  0.10825009899E+03  0.11184618245E+03  0.00000000000E+00 0.  1.
         13    1    3    3    0    0 -0.62318983841E+01  0.26895410391E+02 -0.11264192689E+02  0.29817472973E+02  0.00000000000E+00 0. -1.
         -2    1    1    2    0  502  0.29092106249E+02 -0.16315319996E+01 -0.10271931034E+03  0.10677204343E+03  0.00000000000E+00 0.  1.
<scales pt_clust_5="13000.00000" pt_clust_6="13000.00000" pt_clust_7="13000.00000" pt_clust_8="13000.00000" pt_clust_9="29.13782"></scales>
<clustering>
<clus scale="   29.138">  2  9  1 -1</clus>
<clus scale="   71.141">  5  6 -1 -1</clus>
<clus scale="   79.668">  2  5  1 -1</clus>
<clus scale="   92.667">  7  8 -1 -1</clus>
<clus scale="   29.138">  2  5  1 -1</clus>
</clustering>
</event>
<event>
 9    1  0.1617622E-005  0.9419083E+02  0.7546771E-02  0.1295608E+00
         21   -1    0    0  501  502  0.00000000000E+00  0.00000000000E+00  0.50464820896E+03  0.50464820896E+03  0.00000000000E+00 0. -1.
         -3   -1    0    0    0  501 -0.00000000000E+00 -0.00000000000E+00 -0.18415226355E+03  0.18415226355E+03  0.00000000000E+00 0.  1.
         23    2    1    2    0    0  0.86585198642E+01 -0.17591301818E+02 -0.14862406845E+03  0.17317136577E+03  0.86687855748E+02 0.  0.
         23    2    1    2    0    0 -0.13412448545E+02  0.73514291174E+02  0.14615706852E+03  0.18782574398E+03  0.91281852733E+02 0.  0.
        -11    1    3    3    0    0 -0.52588631922E+01  0.34530955235E+02 -0.58494230822E+02  0.68129417662E+02  0.00000000000E+00 0. -1.
         11    1    3    3    0    0  0.13917383056E+02 -0.52122257053E+02 -0.90129837630E+02  0.10504194811E+03  0.00000000000E+00 0.  1.
        -13    1    4    4    0    0  0.26739774867E+02  0.68530284471E+02  0.69779524238E+02  0.10139328110E+03  0.00000000000E+00 0. -1.
         13    1    4    4    0    0 -0.40152223413E+02  0.49840067037E+01  0.76377544283E+02  0.86432462874E+02  0.00000000000E+00 0.  1.
         -3    1    1    2    0  502  0.47539286811E+01 -0.55922989357E+02  0.32296294534E+03  0.32780336277E+03  0.00000000000E+00 0.  1.
<scales pt_clust_5="13000.00000" pt_clust_6="13000.00000" pt_clust_7="13000.00000" pt_clust_8="13000.00000" pt_clust_9="56.12469"></scales>
<clustering>
<clus scale="   56.125">  1  9  2 -1</clus>
<clus scale="   86.688">  5  6 -1 -1</clus>
<clus scale="   89.746">  2  5  1 -1</clus>
<clus scale="   91.282">  7  8 -1 -1</clus>
<clus scale="   56.125">  1  5  2 -1</clus>
</clustering>
</event>
<event>
 9    1  0.1315259E-005  0.9527295E+02  0.7546771E-02  0.1290843E+00
          3   -1    0    0  502    0 -0.00000000000E+00  0.00000000000E+00  0.20151397920E+03  0.20151397920E+03  0.00000000000E+00 0. -1.
         21   -1    0    0  501  502  0.00000000000E+00 -0.00000000000E+00 -0.80791045219E+02  0.80791045219E+02  0.00000000000E+00 0.  1.
         23    2    1    2    0    0 -0.17154376641E+02 -0.38915253871E+02  0.99912780122E+02  0.14175974955E+03  0.91129541527E+02 0.  0.
         23    2    1    2    0    0 -0.11331043406E+01  0.79864030467E+01  0.40498566691E+02  0.99573829037E+02  0.90607654014E+02 0.  0.
        -11    1    4    4    0    0  0.28967785910E+01  0.30895272486E+02  0.61082948268E+02  0.68513033485E+02  0.00000000000E+00 0. -1.
         11    1    4    4    0    0 -0.40298829316E+01 -0.22908869439E+02 -0.20584381577E+02  0.31060795552E+02  0.00000000000E+00 0.  1.
        -11    1    3    3    0    0 -0.29029307372E+02 -0.64838977416E+02  0.79949337687E+02  0.10695181287E+03  0.00000000000E+00 0.  1.
         11    1    3    3    0    0  0.11874930731E+02  0.25923723545E+02  0.19963442434E+02  0.34807936683E+02  0.00000000000E+00 0. -1.
          3    1    1    2  501    0  0.18287480982E+02  0.30928850824E+02 -0.19688412830E+02  0.40971445834E+02  0.00000000000E+00 0. -1.
<scales pt_clust_5="13000.00000" pt_clust_6="13000.00000" pt_clust_7="13000.00000" pt_clust_8="13000.00000" pt_clust_9="35.93085"></scales>
<clustering>
<clus scale="   35.931">  2  9  1 -1</clus>
<clus scale="   90.608">  5  6 -1 -1</clus>
<clus scale="   91.130">  7  8 -1 -1</clus>
<clus scale="   94.774">  2  5  1 -1</clus>
<clus scale="   35.931">  2  5  1 -1</clus>
</clustering>
</event>
<event>
 9    1  0.1315259E-005  0.1256245E+03  0.7546771E-02  0.1234528E+00
         21   -1    0    0  501  502  0.00000000000E+00  0.00000000000E+00  0.50678528674E+02  0.50678528674E+02  0.00000000000E+00 0.  1.
          1   -1    0    0  502    0 -0.00000000000E+00 -0.00000000000E+00 -0.56068922209E+03  0.56068922209E+03  0.00000000000E+00 0. -1.
         23    2    1    2    0    0  0.49586943710E+02 -0.65896359924E+02 -0.38512320979E+03  0.40397363943E+03  0.89853321573E+02 0.  0.
         23    2    1    2    0    0 -0.78154469232E+02  0.65440107971E+02 -0.10044510050E+03  0.16979435371E+03  0.91380389286E+02 0.  0.
        -11    1    3    3    0    0  0.56706083770E+02 -0.39431671904E+02 -0.36073582729E+03  0.36728840681E+03  0.00000000000E+00 0. -1.
         11    1    3    3    0    0 -0.71191400606E+01 -0.26464688020E+02 -0.24387382498E+02  0.36685232619E+02  0.00000000000E+00 0.  1.
        -13    1    4    4    0    0  0.14811331067E+02  0.31237654633E+02 -0.10863227305E+02  0.36237774524E+02  0.00000000000E+00 0. -1.
         13    1    4    4    0    0 -0.92965800299E+02  0.34202453338E+02 -0.89581873194E+02  0.13355657919E+03  0.00000000000E+00 0.  1.
          1    1    1    2  501    0  0.28567525522E+02  0.45625195284E+00 -0.24442383127E+02  0.37599757622E+02  0.00000000000E+00 0. -1.
<scales pt_clust_5="13000.00000" pt_clust_6="13000.00000" pt_clust_7="13000.00000" pt_clust_8="13000.00000" pt_clust_9="28.57117"></scales>
<clustering>
<clus scale="   28.571">  1  9  2 -1</clus>
<clus scale="   89.853">  5  6 -1 -1</clus>
<clus scale="   91.380">  7  8 -1 -1</clus>
<clus scale="  124.518">  2  5  1 -1</clus>
<clus scale="   28.571">  1  5  2 -1</clus>
</clustering>
</event>
<event>
 9    1  0.1315259E-005  0.1014140E+03  0.7546771E-02  0.1278966E+00
          3   -1    0    0  502    0 -0.00000000000E+00  0.00000000000E+00  0.30279055230E+03  0.30279055230E+03  0.00000000000E+00 0. -1.
         21   -1    0    0  501  502  0.00000000000E+00 -0.00000000000E+00 -0.76009647441E+02  0.76009647441E+02  0.00000000000E+00 0. -1.
         23    2    1    2    0    0 -0.20110422466E+02 -0.27556487643E+02  0.13480546489E+03  0.16501681335E+03  0.88849570748E+02 0.  0.
         23    2    1    2    0    0 -0.17968074261E+02  0.80503857785E+02  0.38958332192E+02  0.12973453372E+03  0.92247356498E+02 0.  0.
        -11    1    4    4    0    0 -0.16627394904E+02  0.10108090243E+03  0.27166410088E+02  0.10598034221E+03  0.00000000000E+00 0. -1.
         11    1    4    4    0    0 -0.13406793564E+01 -0.20577044644E+02  0.11791922104E+02  0.23754191511E+02  0.00000000000E+00 0.  1.
        -11    1    3    3    0    0  0.29529849856E+02 -0.57583523484E+01  0.15222416053E+02  0.33717838080E+02  0.00000000000E+00 0.  1.
         11    1    3    3    0    0 -0.49640272323E+02 -0.21798135295E+02  0.11958304884E+03  0.13129897527E+03  0.00000000000E+00 0. -1.
          3    1    1    2  501    0  0.38078496727E+02 -0.52947370142E+02  0.53017107777E+02  0.84048852670E+02  0.00000000000E+00 0. -1.
<scales pt_clust_5="13000.00000" pt_clust_6="13000.00000" pt_clust_7="13000.00000" pt_clust_8="13000.00000" pt_clust_9="65.21810"></scales>
<clustering>
<clus scale="   65.218">  2  9  1 -1</clus>
<clus scale="   88.850">  7  8 -1 -1</clus>
<clus scale="   92.247">  5  6 -1 -1</clus>
<clus scale="   98.333">  1  7  2 -1</clus>
<clus scale="   65.218">  2  5  1 -1</clus>
</clustering>
</event>
<event>
 9    1  0.1315259E-005  0.9745429E+02  0.7546771E-02  0.1286362E+00
          1   -1    0    0  502    0 -0.00000000000E+00  0.00000000000E+00  0.26803374242E+03  0.26803374242E+03  0.00000000000E+00 0. -1.
         21   -1    0    0  501  502  0.00000000000E+00 -0.00000000000E+00 -0.24503430205E+03  0.24503430205E+03  0.00000000000E+00 0. -1.
         23    2    1    2    0    0  0.83433301440E+01 -0.16423160029E+02  0.15687797583E+03  0.18304595210E+03  0.92497513149E+02 0.  0.
         23    2    1    2    0    0 -0.92267469861E+02  0.13703199724E+02  0.40343872020E+02  0.13662067903E+03  0.91304535772E+02 0.  0.
        -13    1    3    3    0    0  0.47360402688E+02 -0.10945832771E+02  0.52840472571E+02  0.71797872806E+02  0.00000000000E+00 0.  1.
         13    1    3    3    0    0 -0.39017072544E+02 -0.54773272579E+01  0.10403750326E+03  0.11124807930E+03  0.00000000000E+00 0. -1.
        -13    1    4    4    0    0 -0.96147889170E+02 -0.13357333059E+02  0.12969884913E+02  0.97933920850E+02  0.00000000000E+00 0. -1.
         13    1    4    4    0    0  0.38804193095E+01  0.27060532783E+02  0.27373987108E+02  0.38686758183E+02  0.00000000000E+00 0.  1.
          1    1    1    2  501    0  0.83924139717E+02  0.27199603057E+01 -0.17422240748E+03  0.19340141333E+03  0.00000000000E+00 0. -1.
<scales pt_clust_5="13000.00000" pt_clust_6="13000.00000" pt_clust_7="13000.00000" pt_clust_8="13000.00000" pt_clust_9="83.96820"></scales>
<clustering>
<clus scale="   83.968">  2  9  1 -1</clus>
<clus scale="   91.305">  7  8 -1 -1</clus>
<clus scale="   92.498">  5  6 -1 -1</clus>
<clus scale="   96.323">  2  7  1 -1</clus>
<clus scale="   83.968">  2  5  1 -1</clus>
</clustering>
</event>
<event>
 9    1  0.1315259E-005  0.1203974E+03  0.7546771E-02  0.1243284E+00
          1   -1    0    0  502    0 -0.00000000000E+00  0.00000000000E+00  0.30582902725E+03  0.30582902725E+03  0.00000000000E+00 0. -1.
         21   -1    0    0  501  502  0.00000000000E+00 -0.00000000000E+00 -0.84805223141E+02  0.84805223141E+02  0.00000000000E+00 0.  1.
         23    2    1    2    0    0 -0.87180897405E+02 -0.42676304340E+02  0.17585310245E+03  0.22007945469E+03  0.89938183841E+02 0.  0.
         23    2    1    2    0    0  0.41499107408E+02  0.97548443181E+00  0.18266213787E+02  0.10310380767E+03  0.92593807056E+02 0.  0.
        -11    1    4    4    0    0  0.70571025807E+02  0.93637455550E+01  0.11759957219E+02  0.72154320786E+02  0.00000000000E+00 0. -1.
         11    1    4    4    0    0 -0.29071918399E+02 -0.83882611232E+01  0.65062565681E+01  0.30949486887E+02  0.00000000000E+00 0.  1.
        -13    1    3    3    0    0 -0.32813536658E+02  0.10711381520E+02  0.75537421587E+01  0.35334415273E+02  0.00000000000E+00 0.  1.
         13    1    3    3    0    0 -0.54367360746E+02 -0.53387685860E+02  0.16829936029E+03  0.18474503942E+03  0.00000000000E+00 0. -1.
          1    1    1    2  501    0  0.45681789996E+02  0.41700819908E+02  0.26904487877E+02  0.67450988030E+02  0.00000000000E+00 0. -1.
<scales pt_clust_5="13000.00000" pt_clust_6="13000.00000" pt_clust_7="13000.00000" pt_clust_8="13000.00000" pt_clust_9="61.85292"></scales>
<clustering>
<clus scale="   61.853">  2  9  1 -1</clus>
<clus scale="   89.938">  7  8 -1 -1</clus>
<clus scale="   92.594">  5  6 -1 -1</clus>
<clus scale="  118.367">  1  7  2 -1</clus>
<clus scale="   61.853">  2  5  1 -1</clus>
</clustering>
</event>
<event>
 9    1  0.1315259E-005  0.1003227E+03  0.7546771E-02  0.1280702E+00
         21   -1    0    0  501  502  0.00000000000E+00  0.00000000000E+00  0.51978254322E+02  0.51978254322E+02  0.00000000000E+00 0. -1.
          2   -1    0    0  502    0 -0.00000000000E+00 -0.00000000000E+00 -0.31207244056E+03  0.31207244056E+03  0.00000000000E+00 0. -1.
         23    2    1    2    0    0 -0.49552390413E+02 -0.16317333282E+02 -0.20274238933E+03  0.22799417210E+03  0.90305987183E+02 0.  0.
         23    2    1    2    0    0  0.22224661196E+02  0.16399795576E+02 -0.57532583206E+02  0.10872807116E+03  0.88027873248E+02 0.  0.
        -13    1    3    3    0    0  0.24642812531E+02  0.77406935680E+01 -0.60191439488E+02  0.65499587281E+02  0.00000000000E+00 0.  1.
         13    1    3    3    0    0 -0.74195202944E+02 -0.24058026850E+02 -0.14255094984E+03  0.16249458482E+03  0.00000000000E+00 0. -1.
        -13    1    4    4    0    0 -0.16573124328E+02  0.24129055375E+02  0.95998885488E+01  0.30806454250E+02  0.00000000000E+00 0. -1.
         13    1    4    4    0    0  0.38797785525E+02 -0.77292597989E+01 -0.67132471755E+02  0.77921616914E+02  0.00000000000E+00 0.  1.
          2    1    1    2  501    0  0.27327729217E+02 -0.82462294423E-01  0.18078629383E+00  0.27328451618E+02  0.00000000000E+00 0. -1.
<scales pt_clust_5="13000.00000" pt_clust_6="13000.00000" pt_clust_7="13000.00000" pt_clust_8="13000.00000" pt_clust_9="27.32785"></scales>
<clustering>
<clus scale="   27.328">  1  9  2 -1</clus>
<clus scale="   88.028">  7  8 -1 -1</clus>
<clus scale="   90.306">  5  6 -1 -1</clus>
<clus scale="   98.277">  1  7  2 -1</clus>
<clus scale="   27.328">  1  5  2 -1</clus>
</clustering>
</event>
<event>
 9    1  0.1315259E-005  0.1001652E+03  0.7546771E-02  0.1281808E+00
          2   -1    0    0  502    0 -0.00000000000E+00  0.00000000000E+00  0.35748652299E+03  0.35748652299E+03  0.00000000000E+00 0. -1.
         21   -1    0    0  501  502  0.00000000000E+00 -0.00000000000E+00 -0.84587245938E+02  0.84587245938E+02  0.00000000000E+00 0.  1.
         23    2    1    2    0    0 -0.23614392298E+02 -0.17356161692E+00  0.26168019656E+03  0.27856519910E+03  0.92543909754E+02 0.  0.
         23    2    1    2    0    0  0.45390386927E+02 -0.69078660052E+01  0.50587186069E+02  0.11796531242E+03  0.96170399296E+02 0.  0.
        -11    1    3    3    0    0  0.68383204273E+01 -0.34702243156E+02  0.19076365936E+03  0.19401490159E+03  0.00000000000E+00 0. -1.
         11    1    3    3    0    0 -0.30452712726E+02  0.34528681539E+02  0.70916537197E+02  0.84550297511E+02  0.00000000000E+00 0.  1.
        -11    1    4    4    0    0  0.76411318100E+01  0.41037555687E+02  0.55232349002E+01  0.42106697756E+02  0.00000000000E+00 0.  1.
         11    1    4    4    0    0  0.37749255117E+02 -0.47945421692E+02  0.45063951168E+02  0.75858614659E+02  0.00000000000E+00 0. -1.
          2    1    1    2  501    0 -0.21775994628E+02  0.70814276221E+01 -0.39368105574E+02  0.45543257412E+02  0.00000000000E+00 0. -1.
<scales pt_clust_5="13000.00000" pt_clust_6="13000.00000" pt_clust_7="13000.00000" pt_clust_8="13000.00000" pt_clust_9="22.89848"></scales>
<clustering>
<clus scale="   22.898">  2  9  1 -1</clus>
<clus scale="   92.544">  5  6 -1 -1</clus>
<clus scale="   96.170">  7  8 -1 -1</clus>
<clus scale="   96.689">  1  5  2 -1</clus>
<clus scale="   22.898">  2  5  1 -1</clus>
</clustering>
</event>
<event>
 9    1  0.1315259E-005  0.1128338E+03  0.7546771E-02  0.1255514E+00
         21   -1    0    0  501  502  0.00000000000E+00  0.00000000000E+00  0.79066339466E+02  0.79066339466E+02  0.00000000000E+00 0. -1.
         -3   -1    0    0    0  501 -0.00000000000E+00 -0.00000000000E+00 -0.23862447464E+03  0.23862447464E+03  0.00000000000E+00 0.  1.
         23    2    1    2    0    0 -0.26420540492E+02 -0.60093296150E+02 -0.14972606849E+03  0.18878533159E+03  0.94407397160E+02 0.  0.
         23    2    1    2    0    0  0.78862862962E+01  0.51043268055E+02 -0.69415789546E+01  0.10807818056E+03  0.94684206025E+02 0.  0.
        -11    1    4    4    0    0 -0.38807866129E+02  0.47860607794E+01  0.96790719968E+01  0.40282021871E+02  0.00000000000E+00 0.  1.
         11    1    4    4    0    0  0.46694152425E+02  0.46257207276E+02 -0.16620650951E+02  0.67796158694E+02  0.00000000000E+00 0. -1.
        -13    1    3    3    0    0  0.17478941569E+02 -0.43910215321E+02 -0.20806827015E+02  0.51638594659E+02  0.00000000000E+00 0. -1.
         13    1    3    3    0    0 -0.43899482061E+02 -0.16183080829E+02 -0.12891924147E+03  0.13714673693E+03  0.00000000000E+00 0.  1.
         -3    1    1    2    0  502  0.18534254196E+02  0.90500280954E+01 -0.28904877347E+01  0.20827301949E+02  0.00000000000E+00 0.  1.
<scales pt_clust_5="13000.00000" pt_clust_6="13000.00000" pt_clust_7="13000.00000" pt_clust_8="13000.00000" pt_clust_9="20.62575"></scales>
<clustering>
<clus scale="   20.626">  1  9  2 -1</clus>
<clus scale="   94.407">  7  8 -1 -1</clus>
<clus scale="   94.684">  5  6 -1 -1</clus>
<clus scale="  112.602">  2  7  1 -1</clus>
<clus scale="   20.626">  1  5  2 -1</clus>
</clustering>
</event>
<event>
 9    1  0.1315259E-005  0.1845795E+03  0.7546771E-02  0.1163631E+00
         21   -1    0    0  501  502  0.00000000000E+00  0.00000000000E+00  0.10023223755E+03  0.10023223755E+03  0.00000000000E+00 0. -1.
          1   -1    0    0  502    0 -0.00000000000E+00 -0.00000000000E+00 -0.71611093565E+03  0.71611093565E+03  0.00000000000E+00 0. -1.
         23    2    1    2    0    0  0.84361690477E+02 -0.13451842381E+03 -0.56842602193E+03  0.59704426021E+03  0.90230843289E+02 0.  0.
         23    2    1    2    0    0 -0.72927646633E+02  0.15179206268E+03 -0.34588089599E+02  0.19491421396E+03  0.91847389319E+02 0.  0.
        -13    1    3    3    0    0 -0.18950386016E+02 -0.12650915218E+02 -0.76944890646E+02  0.80247610448E+02  0.00000000000E+00 0.  1.
         13    1    3    3    0    0  0.10331207649E+03 -0.12186750859E+03 -0.49148113129E+03  0.51679664977E+03  0.00000000000E+00 0. -1.
        -13    1    4    4    0    0  0.12569547502E+02  0.73628510903E+02 -0.26081958420E+01  0.74739238876E+02  0.00000000000E+00 0.  1.
         13    1    4    4    0    0 -0.85497194135E+02  0.78163551781E+02 -0.31979893757E+02  0.12017497509E+03  0.00000000000E+00 0. -1.
          1    1    1    2  501    0 -0.11434043844E+02 -0.17273638877E+02 -0.12864586568E+02  0.24384699019E+02  0.00000000000E+00 0. -1.
<scales pt_clust_5="13000.00000" pt_clust_6="13000.00000" pt_clust_7="13000.00000" pt_clust_8="13000.00000" pt_clust_9="20.71511"></scales>
<clustering>
<clus scale="   20.715">  1  9  2 -1</clus>
<clus scale="   90.231">  5  6 -1 -1</clus>
<clus scale="   91.847">  7  8 -1 -1</clus>
<clus scale="  183.780">  2  5  1 -1</clus>
<clus scale="   20.715">  1  5  2 -1</clus>
</clustering>
</event>
<event>
 9    1  0.1315259E-005  0.1579649E+03  0.7546771E-02  0.1191239E+00
         -1   -1    0    0    0  501 -0.00000000000E+00  0.00000000000E+00  0.49349252381E+03  0.49349252381E+03  0.00000000000E+00 0.  1.
         21   -1    0    0  501  502  0.00000000000E+00 -0.00000000000E+00 -0.13417190210E+03  0.13417190210E+03  0.00000000000E+00 0. -1.
         23    2    1    2    0    0  0.11418838230E+03 -0.72748393237E+02  0.36510035242E+03  0.40000034395E+03  0.91491488402E+02 0.  0.
         23    2    1    2    0    0 -0.46019491164E+02  0.96997351396E+02 -0.42561010512E+02  0.14649837348E+03  0.90133534661E+02 0.  0.
        -11    1    3    3    0    0  0.21452840705E+02  0.20924604197E+00  0.63953208737E+01  0.22386788231E+02  0.00000000000E+00 0. -1.
         11    1    3    3    0    0  0.92735541596E+02 -0.72957639279E+02  0.35870503155E+03  0.37761355572E+03  0.00000000000E+00 0.  1.
        -11    1    4    4    0    0  0.83487423533E+01  0.56237175431E+02  0.13468189626E+02  0.58426993172E+02  0.00000000000E+00 0.  1.
         11    1    4    4    0    0 -0.54368233518E+02  0.40760175965E+02 -0.56029200138E+02  0.88071380304E+02  0.00000000000E+00 0. -1.
         -1    1    1    2    0  502 -0.68168891137E+02 -0.24248958159E+02  0.36781279802E+02  0.81165708489E+02  0.00000000000E+00 0.  1.
<scales pt_clust_5="13000.00000" pt_clust_6="13000.00000" pt_clust_7="13000.00000" pt_clust_8="13000.00000" pt_clust_9="72.35337"></scales>
<clustering>
<clus scale="   72.353">  2  9  1 -1</clus>
<clus scale="   90.134">  7  8 -1 -1</clus>
<clus scale="   91.491">  5  6 -1 -1</clus>
<clus scale="  157.182">  2  7  1 -1</clus>
<clus scale="   72.353">  2  5  1 -1</clus>
</clustering>
</event>
<event>
 9    1  0.1315259E-005  0.2040453E+03  0.7546771E-02  0.1175327E+00
         21   -1    0    0  501  502  0.00000000000E+00  0.00000000000E+00  0.77025525469E+02  0.77025525469E+02  0.00000000000E+00 0. -1.
          1   -1    0    0  502    0 -0.00000000000E+00 -0.00000000000E+00 -0.85277222817E+03  0.85277222817E+03  0.00000000000E+00 0. -1.
         23    2    1    2    0    0 -0.49309877486E+02 -0.11715079562E+02 -0.21598800309E+03  0.23975722071E+03  0.90906547061E+02 0.  0.
         23    2    1    2    0    0  0.14954640495E+03 -0.13239537355E+03 -0.37980549141E+03  0.43864773017E+03  0.90922811822E+02 0.  0.
        -11    1    3    3    0    0 -0.34327502869E+02  0.38268655933E+02 -0.95571465909E+02  0.10852083936E+03  0.00000000000E+00 0. -1.
         11    1    3    3    0    0 -0.14982374618E+02 -0.49983735495E+02 -0.12041653718E+03  0.13123638135E+03  0.00000000000E+00 0.  1.
        -13    1    4    4    0    0  0.11370124465E+02 -0.29731421944E+02 -0.14835650566E+02  0.35118851190E+02  0.00000000000E+00 0.  1.
         13    1    4    4    0    0  0.13817628048E+03 -0.10266395161E+03 -0.36496984084E+03  0.40352887898E+03  0.00000000000E+00 0. -1.
          1    1    1    2  501    0 -0.10023652746E+03  0.14411045311E+03 -0.17995320821E+03  0.25139280276E+03  0.00000000000E+00 0. -1.
<scales pt_clust_5="13000.00000" pt_clust_6="13000.00000" pt_clust_7="13000.00000" pt_clust_8="13000.00000" pt_clust_9="182.66786"></scales>
<clustering>
<clus scale="   90.907">  5  6 -1 -1</clus>
<clus scale="   90.923">  7  8 -1 -1</clus>
<clus scale="  104.080">  2  5  1 -1</clus>
<clus scale="  182.668">  1  9  2 -1</clus>
<clus scale="  182.668">  1  5  2 -1</clus>
</clustering>
</event>
<event>
 9    1  0.1315259E-005  0.1370620E+03  0.7546771E-02  0.1227775E+00
         21   -1    0    0  501  502  0.00000000000E+00  0.00000000000E+00  0.55708094263E+03  0.55708094263E+03  0.00000000000E+00 0.  1.
          2   -1    0    0  502    0 -0.00000000000E+00 -0.00000000000E+00 -0.19812859028E+03  0.19812859028E+03  0.00000000000E+00 0. -1.
         23    2    1    2    0    0 -0.15567170949E+02  0.58902877565E+02 -0.15664796259E+03  0.19147092326E+03  0.91709565871E+02 0.  0.
         23    2    1    2    0    0  0.84957187505E+02 -0.42737937270E+02  0.38176052634E+03  0.41211615516E+03  0.12269625453E+03 0.  0.
        -11    1    3    3    0    0  0.33110013930E+02  0.27827241376E+02 -0.31081472406E+02  0.53260551180E+02  0.00000000000E+00 0.  1.
         11    1    3    3    0    0 -0.48677184879E+02  0.31075636190E+02 -0.12556649019E+03  0.13821037208E+03  0.00000000000E+00 0. -1.
        -13    1    4    4    0    0  0.25742100762E+02 -0.78992014139E+02  0.24565733729E+03  0.25932589808E+03  0.00000000000E+00 0.  1.
         13    1    4    4    0    0  0.59215086742E+02  0.36254076869E+02  0.13610318906E+03  0.15279025708E+03  0.00000000000E+00 0. -1.
          2    1    1    2  501    0 -0.69390016556E+02 -0.16164940295E+02  0.13383978860E+03  0.15162245449E+03  0.00000000000E+00 0. -1.
<scales pt_clust_5="13000.00000" pt_clust_6="13000.00000" pt_clust_7="13000.00000" pt_clust_8="13000.00000" pt_clust_9="71.24802"></scales>
<clustering>
<clus scale="   71.248">  1  9  2 -1</clus>
<clus scale="   91.710">  5  6 -1 -1</clus>
<clus scale="  110.192">  2  5  1 -1</clus>
<clus scale="  122.696">  7  8 -1 -1</clus>
<clus scale="   71.248">  1  5  2 -1</clus>
</clustering>
</event>
<event>
 9    1  0.1315259E-005  0.1090779E+03  0.7546771E-02  0.1263797E+00
         21   -1    0    0  501  502  0.00000000000E+00  0.00000000000E+00  0.28452688353E+03  0.28452688353E+03  0.00000000000E+00 0. -1.
          2   -1    0    0  502    0 -0.00000000000E+00 -0.00000000000E+00 -0.10996406300E+03  0.10996406300E+03  0.00000000000E+00 0. -1.
         23    2    1    2    0    0  0.36687729125E+02 -0.38653094162E+02 -0.15362535287E+01  0.10468662589E+03  0.90093720142E+02 0.  0.
         23    2    1    2    0    0 -0.22604926530E+02  0.55866909009E+02 -0.81323742781E+00  0.11149950661E+03  0.93805033941E+02 0.  0.
        -11    1    4    4    0    0 -0.32614097723E+02  0.73448349671E+02 -0.20851205007E+02  0.83024768533E+02  0.00000000000E+00 0. -1.
         11    1    4    4    0    0  0.10009171193E+02 -0.17581440661E+02  0.20037967579E+02  0.28474738074E+02  0.00000000000E+00 0.  1.
        -11    1    3    3    0    0 -0.20626706490E+02 -0.40444437875E+02 -0.10627860313E+02  0.46627942164E+02  0.00000000000E+00 0. -1.
         11    1    3    3    0    0  0.57314435615E+02  0.17913437133E+01  0.90916067841E+01  0.58058683727E+02  0.00000000000E+00 0.  1.
          2    1    1    2  501    0 -0.14082802595E+02 -0.17213814848E+02  0.17691231149E+03  0.17830481403E+03  0.00000000000E+00 0. -1.
<scales pt_clust_5="13000.00000" pt_clust_6="13000.00000" pt_clust_7="13000.00000" pt_clust_8="13000.00000" pt_clust_9="22.24052"></scales>
<clustering>
<clus scale="   22.241">  1  9  2 -1</clus>
<clus scale="   90.094">  7  8 -1 -1</clus>
<clus scale="   93.805">  5  6 -1 -1</clus>
<clus scale="  105.903">  2  7  1 -1</clus>
<clus scale="   22.241">  1  5  2 -1</clus>
</clustering>
</event>
<event>
 9    1  0.1315259E-005  0.2921046E+03  0.7546771E-02  0.1089284E+00
          1   -1    0    0  502    0 -0.00000000000E+00  0.00000000000E+00  0.23133283155E+04  0.23133283155E+04  0.00000000000E+00 0. -1.
         21   -1    0    0  501  502  0.00000000000E+00 -0.00000000000E+00 -0.92855650680E+02  0.92855650680E+02  0.00000000000E+00 0. -1.
         23    2    1    2    0    0  0.24364583772E+03 -0.52713834307E+02  0.12337762281E+04  0.12619366999E+04  0.90213143053E+02 0.  0.
         23    2    1    2    0    0 -0.32489160958E+03  0.95063037788E+02  0.99236734445E+03  0.10524513530E+04  0.90936049313E+02 0.  0.
        -13    1    3    3    0    0  0.40887052925E+02  0.22418630681E+02  0.16261665799E+03  0.16917010243E+03  0.00000000000E+00 0.  1.
         13    1    3    3    0    0  0.20275878480E+03 -0.75132464988E+02  0.10711595701E+04  0.10927665975E+04  0.00000000000E+00 0. -1.
        -13    1    4    4    0    0 -0.26630360637E+03  0.10937511181E+03  0.86213218695E+03  0.90892927867E+03  0.00000000000E+00 0. -1.
         13    1    4    4    0    0 -0.58588003217E+02 -0.14312074026E+02  0.13023515750E+03  0.14352207437E+03  0.00000000000E+00 0.  1.
          1    1    1    2  501    0  0.81245771860E+02 -0.42349203481E+02 -0.56709077066E+01  0.91795913171E+02  0.00000000000E+00 0. -1.
<scales pt_clust_5="13000.00000" pt_clust_6="13000.00000" pt_clust_7="13000.00000" pt_clust_8="13000.00000" pt_clust_9="91.62058"></scales>
<clustering>
<clus scale="   90.213">  5  6 -1 -1</clus>
<clus scale="   90.936">  7  8 -1 -1</clus>
<clus scale="   91.621">  2  9  1 -1</clus>
<clus scale="  291.880">  1  5  2 -1</clus>
<clus scale="   91.621">  2  5  1 -1</clus>
</clustering>
</event>
<event>
 9    1  0.1315259E-005  0.1080089E+03  0.7546771E-02  0.1264566E+00
         -2   -1    0    0    0  501 -0.00000000000E+00  0.00000000000E+00  0.16763671452E+03  0.16763671452E+03  0.00000000000E+00 0.  1.
         21   -1    0    0  501  502  0.00000000000E+00 -0.00000000000E+00 -0.11479944411E+03  0.11479944411E+03  0.00000000000E+00 0. -1.
         23    2    1    2    0    0 -0.47837134618E+02  0.96448091249E+01  0.78636021522E+02  0.13003995588E+03  0.91352900630E+02 0.  0.
         23    2    1    2    0    0  0.74300126800E+02 -0.13738058073E+02 -0.62078750516E+01  0.11921718729E+03  0.92005200672E+02 0.  0.
        -13    1    3    3    0    0 -0.54158311933E+01 -0.19642078910E+02  0.75714775590E+02  0.78408352451E+02  0.00000000000E+00 0.  1.
         13    1    3    3    0    0 -0.42421303425E+02  0.29286888035E+02  0.29212459314E+01  0.51631603431E+02  0.00000000000E+00 0. -1.
        -13    1    4    4    0    0  0.18419809568E+02  0.38295812412E+02 -0.55727335472E+01  0.42859234618E+02  0.00000000000E+00 0.  1.
         13    1    4    4    0    0  0.55880317232E+02 -0.52033870485E+02 -0.63514150444E+00  0.76357952673E+02  0.00000000000E+00 0. -1.
         -2    1    1    2    0  502 -0.26462992182E+02  0.40932489476E+01 -0.19590876059E+02  0.33179015460E+02  0.00000000000E+00 0.  1.
<scales pt_clust_5="13000.00000" pt_clust_6="13000.00000" pt_clust_7="13000.00000" pt_clust_8="13000.00000" pt_clust_9="26.77769"></scales>
<clustering>
<clus scale="   26.778">  2  9  1 -1</clus>
<clus scale="   91.353">  5  6 -1 -1</clus>
<clus scale="   92.005">  7  8 -1 -1</clus>
<clus scale="  107.454">  1  5  2 -1</clus>
<clus scale="   26.778">  2  5  1 -1</clus>
</clustering>
</event>
<event>
 9    1  0.1315259E-005  0.1034872E+03  0.7546771E-02  0.1273564E+00
          1   -1    0    0  502    0 -0.00000000000E+00  0.00000000000E+00  0.27186678429E+03  0.27186678429E+03  0.00000000000E+00 0. -1.
         21   -1    0    0  501  502  0.00000000000E+00 -0.00000000000E+00 -0.11987959005E+03  0.11987959005E+03  0.00000000000E+00 0. -1.
         23    2    1    2    0    0  0.48712365631E+02 -0.10558950971E+02  0.12686964206E+03  0.16406136270E+03  0.91300814023E+02 0.  0.
         23    2    1    2    0    0 -0.48716219797E+02 -0.10286366623E+02  0.10377701865E+03  0.14631032917E+03  0.90321444916E+02 0.  0.
        -11    1    3    3    0    0  0.73615622400E+02 -0.19145211831E+02  0.10592992219E+03  0.13041068749E+03  0.00000000000E+00 0.  1.
         11    1    3    3    0    0 -0.24903256769E+02  0.85862608596E+01  0.20939719877E+02  0.33650675205E+02  0.00000000000E+00 0. -1.
        -11    1    4    4    0    0 -0.42857038932E+02  0.11631225114E+02  0.11331036476E+03  0.12170147881E+03  0.00000000000E+00 0. -1.
         11    1    4    4    0    0 -0.58591808648E+01 -0.21917591737E+02 -0.95333461048E+01  0.24608850358E+02  0.00000000000E+00 0.  1.
          1    1    1    2  501    0  0.38541655570E-02  0.20845317594E+02 -0.78659466476E+02  0.81374682468E+02  0.00000000000E+00 0. -1.
<scales pt_clust_5="13000.00000" pt_clust_6="13000.00000" pt_clust_7="13000.00000" pt_clust_8="13000.00000" pt_clust_9="20.84532"></scales>
<clustering>
<clus scale="   20.845">  2  9  1 -1</clus>
<clus scale="   90.321">  7  8 -1 -1</clus>
<clus scale="   91.301">  5  6 -1 -1</clus>
<clus scale="  102.624">  2  7  1 -1</clus>
<clus scale="   20.845">  2  5  1 -1</clus>
</clustering>
</event>
<event>
 9    1  0.1315259E-005  0.1076627E+03  0.7546771E-02  0.1268033E+00
         21   -1    0    0  501  502  0.00000000000E+00  0.00000000000E+00  0.49272423364E+02  0.49272423364E+02  0.00000000000E+00 0.  1.
          2   -1    0    0  502    0 -0.00000000000E+00 -0.00000000000E+00 -0.34882444592E+03  0.34882444592E+03  0.00000000000E+00 0. -1.
         23    2    1    2    0    0 -0.18403373190E+02 -0.67544924140E+02 -0.18826577551E+03  0.22093588909E+03  0.92019910551E+02 0.  0.
         23    2    1    2    0    0  0.18699890002E+02  0.37155075885E+02 -0.11243955713E+03  0.14674780997E+03  0.84629074041E+02 0.  0.
        -11    1    3    3    0    0 -0.14374730438E+02  0.21768305683E+02 -0.47069108492E+02  0.53814430980E+02  0.00000000000E+00 0.  1.
         11    1    3    3    0    0 -0.40286427526E+01 -0.89313229823E+02 -0.14119666701E+03  0.16712145811E+03  0.00000000000E+00 0. -1.
        -13    1    4    4    0    0 -0.26856177793E+02 -0.10025872565E+02 -0.32084519343E+02  0.43025443494E+02  0.00000000000E+00 0. -1.
         13    1    4    4    0    0  0.45556067795E+02  0.47180948450E+02 -0.80355037788E+02  0.10372236648E+03  0.00000000000E+00 0.  1.
          2    1    1    2  501    0 -0.29651681124E+00  0.30389848255E+02  0.11533100814E+01  0.30413170228E+02  0.00000000000E+00 0. -1.
<scales pt_clust_5="13000.00000" pt_clust_6="13000.00000" pt_clust_7="13000.00000" pt_clust_8="13000.00000" pt_clust_9="30.39129"></scales>
<clustering>
<clus scale="   30.391">  1  9  2 -1</clus>
<clus scale="   84.629">  7  8 -1 -1</clus>
<clus scale="   92.020">  5  6 -1 -1</clus>
<clus scale="  101.418">  1  7  2 -1</clus>
<clus scale="   30.391">  1  5  2 -1</clus>
</clustering>
</event>
<event>
 9    1  0.1315259E-005  0.9610993E+02  0.7546771E-02  0.1290229E+00
         21   -1    0    0  501  502  0.00000000000E+00  0.00000000000E+00  0.45225884432E+03  0.45225884432E+03  0.00000000000E+00 0.  1.
          1   -1    0    0  502    0 -0.00000000000E+00 -0.00000000000E+00 -0.43787426704E+02  0.43787426704E+02  0.00000000000E+00 0. -1.
         23    2    1    2    0    0  0.16470285196E+02 -0.35104967884E+01  0.41707441845E+02  0.10368132132E+03  0.93416871083E+02 0.  0.
         23    2    1    2    0    0 -0.40505829635E+02 -0.94856583557E+01  0.20107568148E+03  0.22443872093E+03  0.90612415385E+02 0.  0.
        -13    1    3    3    0    0 -0.24564471185E+02 -0.13218092160E+02  0.53118208638E+02  0.59997294055E+02  0.00000000000E+00 0.  1.
         13    1    3    3    0    0  0.41034756381E+02  0.97075953720E+01 -0.11410766793E+02  0.43684027264E+02  0.00000000000E+00 0. -1.
        -13    1    4    4    0    0 -0.61784039899E+01 -0.40874269664E+02  0.42943322671E+02  0.59607109965E+02  0.00000000000E+00 0.  1.
         13    1    4    4    0    0 -0.34327425646E+02  0.31388611308E+02  0.15813235881E+03  0.16483161097E+03  0.00000000000E+00 0. -1.
          1    1    1    2  501    0  0.24035544439E+02  0.12996155144E+02  0.16568829429E+03  0.16792622877E+03  0.00000000000E+00 0. -1.
<scales pt_clust_5="13000.00000" pt_clust_6="13000.00000" pt_clust_7="13000.00000" pt_clust_8="13000.00000" pt_clust_9="27.32412"></scales>
<clustering>
<clus scale="   27.324">  1  9  2 -1</clus>
<clus scale="   90.612">  7  8 -1 -1</clus>
<clus scale="   93.386">  1  7  2 -1</clus>
<clus scale="   93.417">  5  6 -1 -1</clus>
<clus scale="   27.324">  1  5  2 -1</clus>
</clustering>
</event>
<event>
 9    1  0.1315259E-005  0.1157512E+03  0.7546771E-02  0.1250686E+00
         21   -1    0    0  501  502  0.00000000000E+00  0.00000000000E+00  0.17398260796E+03  0.17398260796E+03  0.00000000000E+00 0.  1.
          1   -1    0    0  502    0 -0.00000000000E+00 -0.00000000000E+00 -0.29803357095E+03  0.29803357095E+03  0.00000000000E+00 0. -1.
         23    2    1    2    0    0 -0.31782191717E+01 -0.69887251115E+02 -0.23520273015E+03  0.26159809868E+03  0.90658215383E+02 0.  0.
         23    2    1    2    0    0  0.40814964011E+02  0.70309151781E+02  0.38444989765E+02  0.12854636325E+03  0.91852665482E+02 0.  0.
        -11    1    3    3    0    0  0.13738056336E+02 -0.23440667610E+02 -0.69368986157E+01  0.28041391768E+02  0.00000000000E+00 0.  1.
         11    1    3    3    0    0 -0.16916275508E+02 -0.46446583505E+02 -0.22826583154E+03  0.23355670691E+03  0.00000000000E+00 0. -1.
        -13    1    4    4    0    0  0.56865863673E+02  0.35657839476E+02  0.55142551135E+02  0.86867191235E+02  0.00000000000E+00 0.  1.
         13    1    4    4    0    0 -0.16050899663E+02  0.34651312305E+02 -0.16697561369E+02  0.41679172018E+02  0.00000000000E+00 0. -1.
          1    1    1    2  501    0 -0.37636744839E+02 -0.42190066622E+00  0.72706777395E+02  0.81871716981E+02  0.00000000000E+00 0. -1.
<scales pt_clust_5="13000.00000" pt_clust_6="13000.00000" pt_clust_7="13000.00000" pt_clust_8="13000.00000" pt_clust_9="37.63911"></scales>
<clustering>
<clus scale="   37.639">  1  9  2 -1</clus>
<clus scale="   90.658">  5  6 -1 -1</clus>
<clus scale="   91.853">  7  8 -1 -1</clus>
<clus scale="  114.806">  2  5  1 -1</clus>
<clus scale="   37.639">  1  5  2 -1</clus>
</clustering>
</event>
<event>
 9    1  0.1315259E-005  0.1490766E+03  0.7546771E-02  0.1202009E+00
         21   -1    0    0  501  502  0.00000000000E+00  0.00000000000E+00  0.36361216208E+03  0.36361216208E+03  0.00000000000E+00 0. -1.
          2   -1    0    0  502    0 -0.00000000000E+00 -0.00000000000E+00 -0.14061231609E+03  0.14061231609E+03  0.00000000000E+00 0. -1.
         23    2    1    2    0    0  0.11926176862E+03 -0.39333301366E+02 -0.16954802458E+01  0.15639285579E+03  0.93195346651E+02 0.  0.
         23    2    1    2    0    0 -0.83013292378E+02  0.73682672091E+02  0.29854695540E+02  0.14669310626E+03  0.91143961404E+02 0.  0.
        -11    1    3    3    0    0  0.93845111041E+02  0.11408397401E+02 -0.20259155042E+02  0.96682417019E+02  0.00000000000E+00 0. -1.
         11    1    3    3    0    0  0.25416657583E+02 -0.50741698767E+02  0.18563674796E+02  0.59710438772E+02  0.00000000000E+00 0.  1.
        -11    1    4    4    0    0 -0.53031292038E+02 -0.33045350177E+01 -0.11404784770E+02  0.54344337355E+02  0.00000000000E+00 0.  1.
         11    1    4    4    0    0 -0.29982000340E+02  0.76987207109E+02  0.41259480310E+02  0.92348768905E+02  0.00000000000E+00 0. -1.
          2    1    1    2  501    0 -0.36248476247E+02 -0.34349370725E+02  0.19484063069E+03  0.20113851612E+03  0.00000000000E+00 0. -1.
<scales pt_clust_5="13000.00000" pt_clust_6="13000.00000" pt_clust_7="13000.00000" pt_clust_8="13000.00000" pt_clust_9="49.93827"></scales>
<clustering>
<clus scale="   49.938">  1  9  2 -1</clus>
<clus scale="   91.144">  7  8 -1 -1</clus>
<clus scale="   93.195">  5  6 -1 -1</clus>
<clus scale="  147.803">  1  7  2 -1</clus>
<clus scale="   49.938">  1  5  2 -1</clus>
</clustering>
</event>
<event>
 9    1  0.1315259E-005  0.9427381E+02  0.7546771E-02  0.1294987E+00
         21   -1    0    0  501  502  0.00000000000E+00  0.00000000000E+00  0.52768069310E+02  0.52768069310E+02  0.00000000000E+00 0.  1.
          2   -1    0    0  502    0 -0.00000000000E+00 -0.00000000000E+00 -0.31307286646E+03  0.31307286646E+03  0.00000000000E+00 0. -1.
         23    2    1    2    0    0 -0.17766756918E+02 -0.53634956139E+01 -0.20817161937E+03  0.22746006554E+03  0.89767664371E+02 0.  0.
         23    2    1    2    0    0 -0.46747240844E+01 -0.11715056733E+02 -0.56275860159E+02  0.10987720666E+03  0.93525036791E+02 0.  0.
        -11    1    3    3    0    0  0.34614968592E+02  0.10203751255E+01 -0.11806346678E+03  0.12303747155E+03  0.00000000000E+00 0. -1.
         11    1    3    3    0    0 -0.52381725509E+02 -0.63838707394E+01 -0.90108152589E+02  0.10442259399E+03  0.00000000000E+00 0.  1.
        -13    1    4    4    0    0 -0.28472196629E+02 -0.25330826722E+01  0.16330514369E+02  0.32920634688E+02  0.00000000000E+00 0.  1.
         13    1    4    4    0    0  0.23797472545E+02 -0.91819740604E+01 -0.72606374528E+02  0.76956571969E+02  0.00000000000E+00 0. -1.
          2    1    1    2  501    0  0.22441481002E+02  0.17078552347E+02  0.41426823793E+01  0.28503663573E+02  0.00000000000E+00 0. -1.
<scales pt_clust_5="13000.00000" pt_clust_6="13000.00000" pt_clust_7="13000.00000" pt_clust_8="13000.00000" pt_clust_9="28.20101"></scales>
<clustering>
<clus scale="   28.201">  1  9  2 -1</clus>
<clus scale="   89.768">  5  6 -1 -1</clus>
<clus scale="   90.548">  2  5  1 -1</clus>
<clus scale="   93.525">  7  8 -1 -1</clus>
<clus scale="   28.201">  1  5  2 -1</clus>
</clustering>
</event>
<event>
 9    1  0.1315259E-005  0.1336434E+03  0.7546771E-02  0.1223279E+00
         21   -1    0    0  501  502  0.00000000000E+00  0.00000000000E+00  0.30307706640E+02  0.30307706640E+02  0.00000000000E+00 0. -1.
          1   -1    0    0  502    0 -0.00000000000E+00 -0.00000000000E+00 -0.79946345497E+03  0.79946345497E+03  0.00000000000E+00 0. -1.
         23    2    1    2    0    0  0.11820706529E+02  0.10391773841E+03 -0.41909997949E+03  0.44157138042E+03  0.91661691788E+02 0.  0.
         23    2    1    2    0    0  0.12148540846E+02 -0.90404446066E+02 -0.33239189159E+03  0.35550197623E+03  0.87044440339E+02 0.  0.
        -11    1    3    3    0    0  0.24703427854E+02  0.63763502846E+02 -0.37249465588E+03  0.37871930543E+03  0.00000000000E+00 0. -1.
         11    1    3    3    0    0 -0.12882721325E+02  0.40154235567E+02 -0.46605323606E+02  0.62852074994E+02  0.00000000000E+00 0.  1.
        -13    1    4    4    0    0  0.45233053817E+02 -0.57225834509E+02 -0.14464810188E+03  0.16199968725E+03  0.00000000000E+00 0. -1.
         13    1    4    4    0    0 -0.33084512971E+02 -0.33178611557E+02 -0.18774378971E+03  0.19350228898E+03  0.00000000000E+00 0.  1.
          1    1    1    2  501    0 -0.23969247375E+02 -0.13513292346E+02 -0.17663877257E+02  0.32697804964E+02  0.00000000000E+00 0. -1.
<scales pt_clust_5="13000.00000" pt_clust_6="13000.00000" pt_clust_7="13000.00000" pt_clust_8="13000.00000" pt_clust_9="27.51607"></scales>
<clustering>
<clus scale="   27.516">  1  9  2 -1</clus>
<clus scale="   87.044">  7  8 -1 -1</clus>
<clus scale="   91.662">  5  6 -1 -1</clus>
<clus scale="  130.520">  1  7  2 -1</clus>
<clus scale="   27.516">  1  5  2 -1</clus>
</clustering>
</event>
<event>
 9    1  0.1315259E-005  0.1027214E+03  0.7546771E-02  0.1274972E+00
         21   -1    0    0  501  502  0.00000000000E+00  0.00000000000E+00  0.51883658891E+02  0.51883658891E+02  0.00000000000E+00 0. -1.
          1   -1    0    0  502    0 -0.00000000000E+00 -0.00000000000E+00 -0.48074318940E+03  0.48074318940E+03  0.00000000000E+00 0. -1.
         23    2    1    2    0    0  0.27877597456E+01 -0.37626322436E+02 -0.25687550168E+03  0.27525289921E+03  0.91409099194E+02 0.  0.
         23    2    1    2    0    0 -0.33154069959E+02  0.73957793217E+02 -0.61581793224E+02  0.13724592491E+03  0.92060736011E+02 0.  0.
        -11    1    4    4    0    0  0.11552602505E+02  0.76947639985E+02 -0.37429983933E+02  0.86344690753E+02  0.00000000000E+00 0. -1.
         11    1    4    4    0    0 -0.44706672464E+02 -0.29898467688E+01 -0.24151809291E+02  0.50901234155E+02  0.00000000000E+00 0.  1.
        -11    1    3    3    0    0  0.22244269158E+02  0.20363574633E+02 -0.41113449603E+02  0.50988218448E+02  0.00000000000E+00 0.  1.
         11    1    3    3    0    0 -0.19456509413E+02 -0.57989897070E+02 -0.21576205208E+03  0.22426468076E+03  0.00000000000E+00 0. -1.
          1    1    1    2  501    0  0.30366310214E+02 -0.36331470780E+02 -0.11040223561E+03  0.12012802417E+03  0.00000000000E+00 0. -1.
<scales pt_clust_5="13000.00000" pt_clust_6="13000.00000" pt_clust_7="13000.00000" pt_clust_8="13000.00000" pt_clust_9="47.35072"></scales>
<clustering>
<clus scale="   47.351">  1  9  2 -1</clus>
<clus scale="   91.409">  7  8 -1 -1</clus>
<clus scale="   92.061">  5  6 -1 -1</clus>
<clus scale="  102.138">  2  7  1 -1</clus>
<clus scale="   47.351">  1  5  2 -1</clus>
</clustering>
</event>
<event>
 9    1  0.1315259E-005  0.2402337E+03  0.7546771E-02  0.1143671E+00
         -2   -1    0    0    0  501 -0.00000000000E+00  0.00000000000E+00  0.12057842619E+04  0.12057842619E+04  0.00000000000E+00 0.  1.
         21   -1    0    0  501  502  0.00000000000E+00 -0.00000000000E+00 -0.12769544782E+03  0.12769544782E+03  0.00000000000E+00 0.  1.
         23    2    1    2    0    0  0.93022694753E+02  0.31336715171E+02  0.30251583371E+03  0.33060675612E+03  0.90276165700E+02 0.  0.
         23    2    1    2    0    0 -0.32727090504E+02 -0.24461320476E+03  0.73109509386E+03  0.77681830686E+03  0.89665841994E+02 0.  0.
        -11    1    4    4    0    0 -0.60210918042E+01 -0.21292998049E+03  0.66959303305E+03  0.70265941967E+03  0.00000000000E+00 0.  1.
         11    1    4    4    0    0 -0.26705998700E+02 -0.31683224267E+02  0.61502060807E+02  0.74158887196E+02  0.00000000000E+00 0. -1.
        -11    1    3    3    0    0  0.35782138497E+02  0.53088649807E+02  0.97491963843E+02  0.11663382523E+03  0.00000000000E+00 0.  1.
         11    1    3    3    0    0  0.57240556255E+02 -0.21751934636E+02  0.20502386987E+03  0.21397293089E+03  0.00000000000E+00 0. -1.
         -2    1    1    2    0  502 -0.60295604248E+02  0.21327648959E+03  0.44477886468E+02  0.22605464668E+03  0.00000000000E+00 0.  1.
<scales pt_clust_5="13000.00000" pt_clust_6="13000.00000" pt_clust_7="13000.00000" pt_clust_8="13000.00000" pt_clust_9="222.87280"></scales>
<clustering>
<clus scale="   89.666">  5  6 -1 -1</clus>
<clus scale="   90.276">  7  8 -1 -1</clus>
<clus scale="  133.360">  1  7  2 -1</clus>
<clus scale="  222.873">  2  9  1 -1</clus>
<clus scale="  222.873">  2  5  1 -1</clus>
</clustering>
</event>
<event>
 9    1  0.1315259E-005  0.1197325E+03  0.7546771E-02  0.1243627E+00
          2   -1    0    0  502    0 -0.00000000000E+00  0.00000000000E+00  0.15397949261E+03  0.15397949261E+03  0.00000000000E+00 0.  1.
         21   -1    0    0  501  502  0.00000000000E+00 -0.00000000000E+00 -0.29061062661E+03  0.29061062661E+03  0.00000000000E+00 0. -1.
         23    2    1    2    0    0 -0.72910036846E+02 -0.12784455626E+01  0.85723060348E+02  0.14490148764E+03  0.91271518824E+02 0.  0.
         23    2    1    2    0    0  0.95166327846E+02  0.20361236534E+02 -0.82305169050E+02  0.15660395426E+03  0.90991470632E+02 0.  0.
        -13    1    4    4    0    0  0.22627110886E+02  0.43255822466E+02 -0.65575595517E+01  0.49254988697E+02  0.00000000000E+00 0.  1.
         13    1    4    4    0    0  0.72539216961E+02 -0.22894585932E+02 -0.75747609498E+02  0.10734896556E+03  0.00000000000E+00 0. -1.
        -13    1    3    3    0    0 -0.67447287282E+02 -0.35424093061E+02  0.35810911409E+02  0.84180902269E+02  0.00000000000E+00 0. -1.
         13    1    3    3    0    0 -0.54627495633E+01  0.34145647498E+02  0.49912148939E+02  0.60720585369E+02  0.00000000000E+00 0.  1.
          2    1    1    2  501    0 -0.22256291001E+02 -0.19082790972E+02 -0.14004902530E+03  0.14308467733E+03  0.00000000000E+00 0.  1.
<scales pt_clust_5="13000.00000" pt_clust_6="13000.00000" pt_clust_7="13000.00000" pt_clust_8="13000.00000" pt_clust_9="29.31715"></scales>
<clustering>
<clus scale="   29.317">  2  9  1 -1</clus>
<clus scale="   90.991">  5  6 -1 -1</clus>
<clus scale="   91.272">  7  8 -1 -1</clus>
<clus scale="  119.519">  2  5  1 -1</clus>
<clus scale="   29.317">  2  5  1 -1</clus>
</clustering>
</event>
<event>
 9    1  0.1315259E-005  0.1043280E+03  0.7546771E-02  0.1272609E+00
          3   -1    0    0  502    0 -0.00000000000E+00  0.00000000000E+00  0.26760771534E+03  0.26760771534E+03  0.00000000000E+00 0. -1.
         21   -1    0    0  501  502  0.00000000000E+00 -0.00000000000E+00 -0.13359155027E+03  0.13359155027E+03  0.00000000000E+00 0.  1.
         23    2    1    2    0    0 -0.53694125316E+02 -0.26463654587E+02  0.17750719768E+03  0.20851483042E+03  0.91576444404E+02 0.  0.
         23    2    1    2    0    0  0.28603459970E+02  0.10738828172E+02  0.41418840124E+02  0.10275947680E+03  0.88941044534E+02 0.  0.
        -11    1    4    4    0    0  0.43046067765E+02  0.40870910678E+02  0.18257343415E+02  0.62102543251E+02  0.00000000000E+00 0.  1.
         11    1    4    4    0    0 -0.14442607795E+02 -0.30132082506E+02  0.23161496709E+02  0.40656933552E+02  0.00000000000E+00 0. -1.
        -13    1    3    3    0    0 -0.76261225788E+02 -0.28128418333E+01  0.13220805271E+03  0.15265207447E+03  0.00000000000E+00 0. -1.
         13    1    3    3    0    0  0.22567100473E+02 -0.23650812754E+02  0.45299144967E+02  0.55862755951E+02  0.00000000000E+00 0.  1.
          3    1    1    2  501    0  0.25090665346E+02  0.15724826415E+02 -0.84909872732E+02  0.89924958386E+02  0.00000000000E+00 0. -1.
<scales pt_clust_5="13000.00000" pt_clust_6="13000.00000" pt_clust_7="13000.00000" pt_clust_8="13000.00000" pt_clust_9="29.61101"></scales>
<clustering>
<clus scale="   29.611">  2  9  1 -1</clus>
<clus scale="   88.941">  5  6 -1 -1</clus>
<clus scale="   91.576">  7  8 -1 -1</clus>
<clus scale="  102.022">  2  5  1 -1</clus>
<clus scale="   29.611">  2  5  1 -1</clus>
</clustering>
</event>
<event>
 9    1  0.1315259E-005  0.9542068E+02  0.7546771E-02  0.1290767E+00
         -2   -1    0    0    0  501 -0.00000000000E+00  0.00000000000E+00  0.22348909298E+03  0.22348909298E+03  0.00000000000E+00 0.  1.
         21   -1    0    0  501  502  0.00000000000E+00 -0.00000000000E+00 -0.10647370487E+03  0.10647370487E+03  0.00000000000E+00 0.  1.
         23    2    1    2    0    0  0.32045119667E+02  0.25351817658E+02  0.12168470775E+03  0.15735232346E+03  0.91010885310E+02 0.  0.
         23    2    1    2    0    0  0.30838114730E+02 -0.16106675684E+02  0.26437078313E+02  0.10184761823E+03  0.91997847299E+02 0.  0.
        -11    1    4    4    0    0 -0.64868566250E+01  0.22502527885E+02 -0.20043144187E+02  0.30824838994E+02  0.00000000000E+00 0. -1.
         11    1    4    4    0    0  0.37324971355E+02 -0.38609203569E+02  0.46480222500E+02  0.71022779236E+02  0.00000000000E+00 0.  1.
        -13    1    3    3    0    0  0.25576972625E+02 -0.29384867343E+02  0.77389054665E+02  0.86641316584E+02  0.00000000000E+00 0. -1.
         13    1    3    3    0    0  0.64681470415E+01  0.54736685002E+02  0.44295653083E+02  0.70711006874E+02  0.00000000000E+00 0.  1.
         -2    1    1    2    0  502 -0.62883234397E+02 -0.92451419748E+01 -0.31106397950E+02  0.70762856159E+02  0.00000000000E+00 0.  1.
<scales pt_clust_5="13000.00000" pt_clust_6="13000.00000" pt_clust_7="13000.00000" pt_clust_8="13000.00000" pt_clust_9="63.55922"></scales>
<clustering>
<clus scale="   63.559">  2  9  1 -1</clus>
<clus scale="   91.011">  7  8 -1 -1</clus>
<clus scale="   91.998">  5  6 -1 -1</clus>
<clus scale="   94.469">  1  7  2 -1</clus>
<clus scale="   63.559">  2  5  1 -1</clus>
</clustering>
</event>
<event>
 9    1  0.1315259E-005  0.1703445E+03  0.7546771E-02  0.1178085E+00
         21   -1    0    0  501  502  0.00000000000E+00  0.00000000000E+00  0.13831737277E+03  0.13831737277E+03  0.00000000000E+00 0. -1.
         -2   -1    0    0    0  501 -0.00000000000E+00 -0.00000000000E+00 -0.47784737443E+03  0.47784737443E+03  0.00000000000E+00 0.  1.
         23    2    1    2    0    0  0.13933850711E+03  0.12881440098E+02 -0.30069897062E+03  0.34299085996E+03  0.87416863483E+02 0.  0.
         23    2    1    2    0    0 -0.14989605151E+03 -0.30569435687E+02 -0.10286881635E+03  0.20590454148E+03  0.91713522287E+02 0.  0.
        -11    1    3    3    0    0  0.47404814026E+02 -0.76710776838E+01 -0.19753173138E+03  0.20328513651E+03  0.00000000000E+00 0. -1.
         11    1    3    3    0    0  0.91933693085E+02  0.20552517782E+02 -0.10316723925E+03  0.13970572345E+03  0.00000000000E+00 0.  1.
        -11    1    4    4    0    0 -0.10069256869E+03 -0.36581754319E+02 -0.11256399968E+03  0.15539585632E+03  0.00000000000E+00 0.  1.
         11    1    4    4    0    0 -0.49203482819E+02  0.60123186318E+01  0.96951833312E+01  0.50508685161E+02  0.00000000000E+00 0. -1.
         -2    1    1    2    0  502  0.10557544399E+02  0.17687995590E+02  0.64037785302E+02  0.67269345753E+02  0.00000000000E+00 0.  1.
<scales pt_clust_5="13000.00000" pt_clust_6="13000.00000" pt_clust_7="13000.00000" pt_clust_8="13000.00000" pt_clust_9="20.59920"></scales>
<clustering>
<clus scale="   20.599">  1  9  2 -1</clus>
<clus scale="   87.417">  5  6 -1 -1</clus>
<clus scale="   91.714">  7  8 -1 -1</clus>
<clus scale="  168.070">  2  5  1 -1</clus>
<clus scale="   20.599">  1  5  2 -1</clus>
</clustering>
</event>
<event>
 9    1  0.1315259E-005  0.1009083E+03  0.7546771E-02  0.1279812E+00
          2   -1    0    0  502    0 -0.00000000000E+00  0.00000000000E+00  0.89243059680E+03  0.89243059680E+03  0.00000000000E+00 0. -1.
         21   -1    0    0  501  502  0.00000000000E+00 -0.00000000000E+00 -0.16954498611E+02  0.16954498611E+02  0.00000000000E+00 0.  1.
         23    2    1    2    0    0  0.90505588327E+01 -0.22400850506E+02  0.37645264342E+03  0.38874121645E+03  0.93911819870E+02 0.  0.
         23    2    1    2    0    0  0.16099228014E+02  0.54637087220E+02  0.37363462616E+03  0.38875739339E+03  0.91022418160E+02 0.  0.
        -11    1    3    3    0    0 -0.16572042413E+02  0.29745577543E+02  0.20247644462E+03  0.20531961085E+03  0.00000000000E+00 0.  1.
         11    1    3    3    0    0  0.25622601246E+02 -0.52146428049E+02  0.17397619880E+03  0.18342160560E+03  0.00000000000E+00 0. -1.
        -13    1    4    4    0    0 -0.74157362681E+01  0.73539934737E+02  0.21697075554E+03  0.22921479861E+03  0.00000000000E+00 0.  1.
         13    1    4    4    0    0  0.23514964282E+02 -0.18902847517E+02  0.15666387062E+03  0.15954259477E+03  0.00000000000E+00 0. -1.
          2    1    1    2  501    0 -0.25149786846E+02 -0.32236236714E+02  0.12538882862E+03  0.13188648558E+03  0.00000000000E+00 0. -1.
<scales pt_clust_5="13000.00000" pt_clust_6="13000.00000" pt_clust_7="13000.00000" pt_clust_8="13000.00000" pt_clust_9="40.88627"></scales>
<clustering>
<clus scale="   40.886">  2  9  1 -1</clus>
<clus scale="   91.022">  7  8 -1 -1</clus>
<clus scale="   93.912">  5  6 -1 -1</clus>
<clus scale="   98.225">  2  7  1 -1</clus>
<clus scale="   40.886">  2  5  1 -1</clus>
</clustering>
</event>
<event>
 9    1  0.1315259E-005  0.9414095E+02  0.7546771E-02  0.1293289E+00
         21   -1    0    0  501  502  0.00000000000E+00  0.00000000000E+00  0.39307149483E+02  0.39307149483E+02  0.00000000000E+00 0. -1.
          1   -1    0    0  502    0 -0.00000000000E+00 -0.00000000000E+00 -0.43798836289E+03  0.43798836289E+03  0.00000000000E+00 0. -1.
         23    2    1    2    0    0 -0.15444056344E+02  0.12119814113E+02 -0.31270779799E+03  0.32619269800E+03  0.90719901506E+02 0.  0.
         23    2    1    2    0    0  0.38470539045E+02 -0.14707328718E+02 -0.77459689039E+02  0.12641683304E+03  0.91021559855E+02 0.  0.
        -11    1    3    3    0    0  0.26141177074E+02 -0.20889010732E+02 -0.67948824785E+02  0.75741367150E+02  0.00000000000E+00 0. -1.
         11    1    3    3    0    0 -0.41585233418E+02  0.33008824845E+02 -0.24475897321E+03  0.25045133085E+03  0.00000000000E+00 0.  1.
        -13    1    4    4    0    0  0.54094156142E+02  0.37060441992E+01 -0.10490072701E+02  0.55226389684E+02  0.00000000000E+00 0.  1.
         13    1    4    4    0    0 -0.15623617096E+02 -0.18413372918E+02 -0.66969616338E+02  0.71190443360E+02  0.00000000000E+00 0. -1.
          1    1    1    2  501    0 -0.23026482701E+02  0.25875146054E+01 -0.85137263690E+01  0.24685981328E+02  0.00000000000E+00 0. -1.
<scales pt_clust_5="13000.00000" pt_clust_6="13000.00000" pt_clust_7="13000.00000" pt_clust_8="13000.00000" pt_clust_9="23.17141"></scales>
<clustering>
<clus scale="   23.171">  1  9  2 -1</clus>
<clus scale="   90.720">  5  6 -1 -1</clus>
<clus scale="   91.022">  7  8 -1 -1</clus>
<clus scale="   93.849">  2  5  1 -1</clus>
<clus scale="   23.171">  1  5  2 -1</clus>
</clustering>
</event>
<event>
 9    1  0.1315259E-005  0.1185676E+03  0.7546771E-02  0.1246366E+00
         21   -1    0    0  501  502  0.00000000000E+00  0.00000000000E+00  0.12348684747E+03  0.12348684747E+03  0.00000000000E+00 0.  1.
         -1   -1    0    0    0  501 -0.00000000000E+00 -0.00000000000E+00 -0.44520190973E+03  0.44520190973E+03  0.00000000000E+00 0.  1.
         23    2    1    2    0    0  0.80544129888E+02  0.10858366150E+01 -0.36755803627E+03  0.38716720782E+03  0.91164691010E+02 0.  0.
         23    2    1    2    0    0 -0.52743193682E+02  0.28987794628E+02 -0.15178379202E+02  0.10803059144E+03  0.88419956882E+02 0.  0.
        -11    1    3    3    0    0  0.35416211483E+02 -0.30494009548E+02 -0.27892893951E+03  0.28281715993E+03  0.00000000000E+00 0.  1.
         11    1    3    3    0    0  0.45127918405E+02  0.31579846163E+02 -0.88629096761E+02  0.10435004790E+03  0.00000000000E+00 0. -1.
        -13    1    4    4    0    0  0.24053646466E+02  0.13435460096E+01 -0.10488012325E+02  0.26275110404E+02  0.00000000000E+00 0.  1.
         13    1    4    4    0    0 -0.76796840148E+02  0.27644248619E+02 -0.46903668770E+01  0.81755481038E+02  0.00000000000E+00 0. -1.
         -1    1    1    2    0  502 -0.27800936206E+02 -0.30073631243E+02  0.61021353213E+02  0.73490957934E+02  0.00000000000E+00 0.  1.
<scales pt_clust_5="13000.00000" pt_clust_6="13000.00000" pt_clust_7="13000.00000" pt_clust_8="13000.00000" pt_clust_9="40.95504"></scales>
<clustering>
<clus scale="   40.955">  1  9  2 -1</clus>
<clus scale="   88.420">  7  8 -1 -1</clus>
<clus scale="   91.165">  5  6 -1 -1</clus>
<clus scale="  116.470">  1  7  2 -1</clus>
<clus scale="   40.955">  1  5  2 -1</clus>
</clustering>
</event>
<event>
 9    1  0.1315259E-005  0.1420138E+03  0.7546771E-02  0.1210803E+00
         21   -1    0    0  501  502  0.00000000000E+00  0.00000000000E+00  0.46907623807E+02  0.46907623807E+02  0.00000000000E+00 0.  1.
          1   -1    0    0  502    0 -0.00000000000E+00 -0.00000000000E+00 -0.50744095917E+03  0.50744095917E+03  0.00000000000E+00 0. -1.
         23    2    1    2    0    0 -0.66440527266E+02  0.83394261724E+02 -0.22215555216E+03  0.26244039178E+03  0.90293539797E+02 0.  0.
         23    2    1    2    0    0  0.50925955174E+02 -0.10083180029E+03 -0.20264868561E+03  0.24923105313E+03  0.91044622076E+02 0.  0.
        -11    1    3    3    0    0 -0.39143760812E+02  0.98095699677E+02 -0.14584086228E+03  0.18006820212E+03  0.00000000000E+00 0.  1.
         11    1    3    3    0    0 -0.27296766454E+02 -0.14701437953E+02 -0.76314689889E+02  0.82372189661E+02  0.00000000000E+00 0. -1.
        -11    1    4    4    0    0 -0.17407649905E+02 -0.46524529198E+02 -0.11623954423E+03  0.12640881985E+03  0.00000000000E+00 0.  1.
         11    1    4    4    0    0  0.68333605080E+02 -0.54307271088E+02 -0.86409141376E+02  0.12282223329E+03  0.00000000000E+00 0. -1.
          1    1    1    2  501    0  0.15514572092E+02  0.17437538562E+02 -0.35729097593E+02  0.42677138061E+02  0.00000000000E+00 0. -1.
<scales pt_clust_5="13000.00000" pt_clust_6="13000.00000" pt_clust_7="13000.00000" pt_clust_8="13000.00000" pt_clust_9="23.34031"></scales>
<clustering>
<clus scale="   23.340">  1  9  2 -1</clus>
<clus scale="   90.294">  5  6 -1 -1</clus>
<clus scale="   91.045">  7  8 -1 -1</clus>
<clus scale="  141.533">  2  5  1 -1</clus>
<clus scale="   23.340">  1  5  2 -1</clus>
</clustering>
</event>
<event>
 9    1  0.1315259E-005  0.1115820E+03  0.7546771E-02  0.1258346E+00
          2   -1    0    0  502    0 -0.00000000000E+00  0.00000000000E+00  0.53565045662E+03  0.53565045662E+03  0.00000000000E+00 0. -1.
         21   -1    0    0  501  502  0.00000000000E+00 -0.00000000000E+00 -0.48370987323E+02  0.48370987323E+02  0.00000000000E+00 0.  1.
         23    2    1    2    0    0 -0.54514134656E+02 -0.15935983758E+02  0.29503356241E+03  0.31397401633E+03  0.91154448736E+02 0.  0.
         23    2    1    2    0    0  0.50018081020E+02  0.62257046899E+02  0.18650273845E+03  0.22315564398E+03  0.92937730083E+02 0.  0.
        -11    1    4    4    0    0  0.26978612907E+02  0.44895549540E+02  0.23134086634E+02  0.57259426187E+02  0.00000000000E+00 0.  1.
         11    1    4    4    0    0  0.23039468113E+02  0.17361497359E+02  0.16336865182E+03  0.16589621780E+03  0.00000000000E+00 0. -1.
        -11    1    3    3    0    0 -0.13709465510E+02  0.37621610504E+02  0.10657199345E+03  0.11384605750E+03  0.00000000000E+00 0.  1.
         11    1    3    3    0    0 -0.40804669146E+02 -0.53557594263E+02  0.18846156896E+03  0.20012795882E+03  0.00000000000E+00 0. -1.
          2    1    1    2  501    0  0.44960536354E+01 -0.46321063141E+02  0.57431684341E+01  0.46891783635E+02  0.00000000000E+00 0. -1.
<scales pt_clust_5="13000.00000" pt_clust_6="13000.00000" pt_clust_7="13000.00000" pt_clust_8="13000.00000" pt_clust_9="46.53875"></scales>
<clustering>
<clus scale="   46.539">  2  9  1 -1</clus>
<clus scale="   91.154">  7  8 -1 -1</clus>
<clus scale="   92.938">  5  6 -1 -1</clus>
<clus scale="  110.101">  1  7  2 -1</clus>
<clus scale="   46.539">  2  5  1 -1</clus>
</clustering>
</event>
<event>
 9    1  0.1315259E-005  0.1795539E+03  0.7546771E-02  0.1170737E+00
         21   -1    0    0  501  502  0.00000000000E+00  0.00000000000E+00  0.71434757706E+03  0.71434757706E+03  0.00000000000E+00 0. -1.
          4   -1    0    0  502    0 -0.00000000000E+00 -0.00000000000E+00 -0.79803311182E+02  0.79803311182E+02  0.00000000000E+00 0. -1.
         23    2    1    2    0    0  0.12609317876E+03 -0.29100321271E+02  0.18370402004E+03  0.24241058934E+03  0.90936287685E+02 0.  0.
         23    2    1    2    0    0 -0.15205421030E+03  0.11842184682E+03  0.20879724464E+03  0.29243907539E+03  0.69138316227E+02 0.  0.
        -11    1    4    4    0    0 -0.87747335680E+02  0.26578973810E+02  0.10803944231E+03  0.14169882802E+03  0.00000000000E+00 0.  1.
         11    1    4    4    0    0 -0.64306874624E+02  0.91842873011E+02  0.10075780232E+03  0.15074024737E+03  0.00000000000E+00 0. -1.
        -13    1    3    3    0    0  0.28718822654E+02 -0.48208446870E+02  0.89172286542E+02  0.10535901391E+03  0.00000000000E+00 0.  1.
         13    1    3    3    0    0  0.97374356105E+02  0.19108125599E+02  0.94531733500E+02  0.13705157544E+03  0.00000000000E+00 0. -1.
          4    1    1    2  501    0  0.25961031545E+02 -0.89321525549E+02  0.24204300120E+03  0.25930122351E+03  0.00000000000E+00 0. -1.
<scales pt_clust_5="13000.00000" pt_clust_6="13000.00000" pt_clust_7="13000.00000" pt_clust_8="13000.00000" pt_clust_9="93.01779"></scales>
<clustering>
<clus scale="   69.138">  5  6 -1 -1</clus>
<clus scale="   90.936">  7  8 -1 -1</clus>
<clus scale="   93.018">  1  9  2 -1</clus>
<clus scale="  169.559">  1  5  2 -1</clus>
<clus scale="   93.018">  1  5  2 -1</clus>
</clustering>
</event>
<event>
 9    1  0.1315259E-005  0.1049676E+03  0.7546771E-02  0.1270418E+00
          1   -1    0    0  502    0 -0.00000000000E+00  0.00000000000E+00  0.18133513025E+03  0.18133513025E+03  0.00000000000E+00 0. -1.
         21   -1    0    0  501  502  0.00000000000E+00 -0.00000000000E+00 -0.95269488991E+02  0.95269488991E+02  0.00000000000E+00 0.  1.
         23    2    1    2    0    0 -0.12129248353E+02 -0.29528616718E+02  0.47642189999E+02  0.11171145737E+03  0.95867687822E+02 0.  0.
         23    2    1    2    0    0 -0.83702321436E+01  0.63997149086E+02  0.96642636107E+01  0.11554339694E+03  0.95347693778E+02 0.  0.
        -11    1    3    3    0    0  0.99159885206E+01 -0.59408949207E+02  0.43608863848E+02  0.74360494083E+02  0.00000000000E+00 0. -1.
         11    1    3    3    0    0 -0.22045236873E+02  0.29880332489E+02  0.40333261511E+01  0.37350963284E+02  0.00000000000E+00 0.  1.
        -11    1    4    4    0    0  0.21306508253E+02  0.33261881373E+02 -0.35688899668E+02  0.53235491976E+02  0.00000000000E+00 0.  1.
         11    1    4    4    0    0 -0.29676740397E+02  0.30735267713E+02  0.45353163279E+02  0.62307904967E+02  0.00000000000E+00 0. -1.
          1    1    1    2  501    0  0.20499480496E+02 -0.34468532368E+02  0.28759187645E+02  0.49349764926E+02  0.00000000000E+00 0. -1.
<scales pt_clust_5="13000.00000" pt_clust_6="13000.00000" pt_clust_7="13000.00000" pt_clust_8="13000.00000" pt_clust_9="40.10374"></scales>
<clustering>
<clus scale="   40.104">  2  9  1 -1</clus>
<clus scale="   95.348">  7  8 -1 -1</clus>
<clus scale="   95.868">  5  6 -1 -1</clus>
<clus scale="  104.493">  2  7  1 -1</clus>
<clus scale="   40.104">  2  5  1 -1</clus>
</clustering>
</event>
<event>
 9    1  0.1315259E-005  0.9748637E+02  0.7546771E-02  0.1285933E+00
         21   -1    0    0  501  502  0.00000000000E+00  0.00000000000E+00  0.64780868552E+02  0.64780868552E+02  0.00000000000E+00 0.  1.
          2   -1    0    0  502    0 -0.00000000000E+00 -0.00000000000E+00 -0.29372125582E+03  0.29372125582E+03  0.00000000000E+00 0. -1.
         23    2    1    2    0    0 -0.17976677785E+02  0.36200399431E+02 -0.13708748876E+03  0.16921139572E+03  0.90586351094E+02 0.  0.
         23    2    1    2    0    0 -0.11325327070E+02 -0.32560280804E+02 -0.11576864597E+03  0.15129308493E+03  0.91097657696E+02 0.  0.
        -11    1    3    3    0    0 -0.30695115593E+02 -0.89315787713E+01 -0.11108701757E+03  0.11559536622E+03  0.00000000000E+00 0.  1.
         11    1    3    3    0    0  0.12718437807E+02  0.45131978203E+02 -0.26000471189E+02  0.53616029495E+02  0.00000000000E+00 0. -1.
        -13    1    4    4    0    0  0.12334029020E+01  0.31173193192E+02 -0.49389239381E+02  0.58417345225E+02  0.00000000000E+00 0. -1.
         13    1    4    4    0    0 -0.12558729972E+02 -0.63733473996E+02 -0.66379406586E+02  0.92875739700E+02  0.00000000000E+00 0.  1.
          2    1    1    2  501    0  0.29302004856E+02 -0.36401186273E+01  0.23915747458E+02  0.37997643725E+02  0.00000000000E+00 0. -1.
<scales pt_clust_5="13000.00000" pt_clust_6="13000.00000" pt_clust_7="13000.00000" pt_clust_8="13000.00000" pt_clust_9="29.52724"></scales>
<clustering>
<clus scale="   29.527">  1  9  2 -1</clus>
<clus scale="   90.586">  5  6 -1 -1</clus>
<clus scale="   91.098">  7  8 -1 -1</clus>
<clus scale="   97.009">  2  5  1 -1</clus>
<clus scale="   29.527">  1  5  2 -1</clus>
</clustering>
</event>
<event>
 9    1  0.1315259E-005  0.9562807E+02  0.7546771E-02  0.1291582E+00
          1   -1    0    0  502    0 -0.00000000000E+00  0.00000000000E+00  0.38179969414E+02  0.38179969414E+02  0.00000000000E+00 0. -1.
         21   -1    0    0  501  502  0.00000000000E+00 -0.00000000000E+00 -0.37395834921E+03  0.37395834921E+03  0.00000000000E+00 0.  1.
         23    2    1    2    0    0  0.43705349484E+02  0.72506907262E+01 -0.92302637551E+02  0.13395144109E+03  0.86374079333E+02 0.  0.
         23    2    1    2    0    0 -0.17452684635E+02  0.19545005276E+02 -0.14232665729E+03  0.17030569696E+03  0.89780563647E+02 0.  0.
        -13    1    3    3    0    0  0.12511459284E+02 -0.22471224345E+02 -0.86781548207E+02  0.90512593855E+02  0.00000000000E+00 0.  1.
         13    1    3    3    0    0  0.31193890199E+02  0.29721915071E+02 -0.55210893436E+01  0.43438847232E+02  0.00000000000E+00 0. -1.
        -13    1    4    4    0    0  0.32951616310E+02 -0.58561286836E+01 -0.77085734318E+02  0.84037573120E+02  0.00000000000E+00 0.  1.
         13    1    4    4    0    0 -0.50404300945E+02  0.25401133960E+02 -0.65240922972E+02  0.86268123837E+02  0.00000000000E+00 0. -1.
          1    1    1    2  501    0 -0.26252664849E+02 -0.26795696002E+02 -0.10114908496E+03  0.10788118058E+03  0.00000000000E+00 0. -1.
<scales pt_clust_5="13000.00000" pt_clust_6="13000.00000" pt_clust_7="13000.00000" pt_clust_8="13000.00000" pt_clust_9="37.51282"></scales>
<clustering>
<clus scale="   37.513">  2  9  1 -1</clus>
<clus scale="   86.374">  5  6 -1 -1</clus>
<clus scale="   89.781">  7  8 -1 -1</clus>
<clus scale="   92.437">  1  5  2 -1</clus>
<clus scale="   37.513">  2  5  1 -1</clus>
</clustering>
</event>
<event>
 9    1  0.1315259E-005  0.8853212E+02  0.7546771E-02  0.1312121E+00
         -1   -1    0    0    0  501 -0.00000000000E+00  0.00000000000E+00  0.30997198457E+02  0.30997198457E+02  0.00000000000E+00 0.  1.
         21   -1    0    0  501  502  0.00000000000E+00 -0.00000000000E+00 -0.57839621103E+03  0.57839621103E+03  0.00000000000E+00 0.  1.
         23    2    1    2    0    0 -0.45783421761E+01 -0.73487282735E+01 -0.71740481532E+02  0.10753811908E+03  0.79641605594E+02 0.  0.
         23    2    1    2    0    0 -0.11474072276E+02 -0.36519231311E+02 -0.19651793148E+03  0.21883311422E+03  0.88336435834E+02 0.  0.
        -11    1    4    4    0    0 -0.36851969801E+02 -0.28751142073E+02 -0.44569725014E+02  0.64584489133E+02  0.00000000000E+00 0.  1.
         11    1    4    4    0    0  0.25377897525E+02 -0.77680892381E+01 -0.15194820646E+03  0.15424862508E+03  0.00000000000E+00 0. -1.
        -13    1    3    3    0    0 -0.18578591021E+01 -0.43550522520E+02 -0.35186623540E+02  0.56019622708E+02  0.00000000000E+00 0. -1.
         13    1    3    3    0    0 -0.27204830740E+01  0.36201794246E+02 -0.36553857992E+02  0.51518496377E+02  0.00000000000E+00 0.  1.
         -1    1    1    2    0  502  0.16052414452E+02  0.43867959584E+02 -0.27914059956E+03  0.28302217618E+03  0.00000000000E+00 0.  1.
<scales pt_clust_5="13000.00000" pt_clust_6="13000.00000" pt_clust_7="13000.00000" pt_clust_8="13000.00000" pt_clust_9="46.71272"></scales>
<clustering>
<clus scale="   46.713">  2  9  1 -1</clus>
<clus scale="   79.642">  7  8 -1 -1</clus>
<clus scale="   79.859">  1  7  2 -1</clus>
<clus scale="   88.336">  5  6 -1 -1</clus>
<clus scale="   46.713">  2  5  1 -1</clus>
</clustering>
</event>
<event>
 9    1  0.1315259E-005  0.9280763E+02  0.7546771E-02  0.1296266E+00
         -3   -1    0    0    0  501 -0.00000000000E+00  0.00000000000E+00  0.56529078605E+02  0.56529078605E+02  0.00000000000E+00 0.  1.
         21   -1    0    0  501  502  0.00000000000E+00 -0.00000000000E+00 -0.23865563825E+03  0.23865563825E+03  0.00000000000E+00 0. -1.
         23    2    1    2    0    0  0.60020558397E+01  0.29725121103E+02 -0.30755148317E+02  0.99805402295E+02  0.89975728285E+02 0.  0.
         23    2    1    2    0    0 -0.86008371940E+01 -0.76245280509E+01 -0.81464420518E+02  0.12201599101E+03  0.90107393837E+02 0.  0.
        -11    1    4    4    0    0  0.23837853238E+01  0.37810836460E+02 -0.59090892225E+02  0.70193128796E+02  0.00000000000E+00 0. -1.
         11    1    4    4    0    0 -0.10984622518E+02 -0.45435364510E+02 -0.22373528293E+02  0.51822862217E+02  0.00000000000E+00 0.  1.
        -13    1    3    3    0    0 -0.20904809068E+02  0.50663539072E+00  0.24209975194E+02  0.31990477028E+02  0.00000000000E+00 0.  1.
         13    1    3    3    0    0  0.26906864908E+02  0.29218485712E+02 -0.54965123510E+02  0.67814925267E+02  0.00000000000E+00 0. -1.
         -3    1    1    2    0  502  0.25987813544E+01 -0.22100593052E+02 -0.69906990815E+02  0.73363323552E+02  0.00000000000E+00 0.  1.
<scales pt_clust_5="13000.00000" pt_clust_6="13000.00000" pt_clust_7="13000.00000" pt_clust_8="13000.00000" pt_clust_9="22.25286"></scales>
<clustering>
<clus scale="   22.253">  2  9  1 -1</clus>
<clus scale="   89.976">  7  8 -1 -1</clus>
<clus scale="   90.107">  5  6 -1 -1</clus>
<clus scale="   92.680">  1  7  2 -1</clus>
<clus scale="   22.253">  2  5  1 -1</clus>
</clustering>
</event>
<event>
 9    1  0.1315259E-005  0.1011450E+03  0.7546771E-02  0.1281287E+00
         21   -1    0    0  501  502  0.00000000000E+00  0.00000000000E+00  0.73552972750E+02  0.73552972750E+02  0.00000000000E+00 0. -1.
          1   -1    0    0  502    0 -0.00000000000E+00 -0.00000000000E+00 -0.43876026727E+03  0.43876026727E+03  0.00000000000E+00 0. -1.
         23    2    1    2    0    0  0.19948750369E+02  0.31336777265E+02 -0.31689116223E+03  0.33338624310E+03  0.96676947305E+02 0.  0.
         23    2    1    2    0    0 -0.29459037852E+02  0.13060823899E+02 -0.79058971433E+02  0.12409347875E+03  0.90058039463E+02 0.  0.
        -11    1    3    3    0    0  0.36137121531E+02  0.57060389983E+02 -0.16156425215E+03  0.17511364091E+03  0.00000000000E+00 0. -1.
         11    1    3    3    0    0 -0.16188371162E+02 -0.25723612719E+02 -0.15532691007E+03  0.15827260219E+03  0.00000000000E+00 0.  1.
        -13    1    4    4    0    0 -0.45557475489E+02  0.41527633282E+02 -0.41603242651E+02  0.74369736438E+02  0.00000000000E+00 0. -1.
         13    1    4    4    0    0  0.16098437637E+02 -0.28466809382E+02 -0.37455728782E+02  0.49723742311E+02  0.00000000000E+00 0.  1.
          1    1    1    2  501    0  0.95102874828E+01 -0.44397601164E+02  0.30742839137E+02  0.54833518174E+02  0.00000000000E+00 0. -1.
<scales pt_clust_5="13000.00000" pt_clust_6="13000.00000" pt_clust_7="13000.00000" pt_clust_8="13000.00000" pt_clust_9="45.40476"></scales>
<clustering>
<clus scale="   45.405">  1  9  2 -1</clus>
<clus scale="   90.058">  7  8 -1 -1</clus>
<clus scale="   94.838">  1  7  2 -1</clus>
<clus scale="   96.677">  5  6 -1 -1</clus>
<clus scale="   45.405">  1  5  2 -1</clus>
</clustering>
</event>
<event>
 9    1  0.1315259E-005  0.1444548E+03  0.7546771E-02  0.1229734E+00
         21   -1    0    0  501  502  0.00000000000E+00  0.00000000000E+00  0.15053411174E+03  0.15053411174E+03  0.00000000000E+00 0. -1.
          1   -1    0    0  502    0 -0.00000000000E+00 -0.00000000000E+00 -0.23866778689E+03  0.23866778689E+03  0.00000000000E+00 0. -1.
         23    2    1    2    0    0 -0.10780594082E+02 -0.28703477036E+01 -0.95691347414E+02  0.13163027919E+03  0.89695241377E+02 0.  0.
         23    2    1    2    0    0 -0.51344647425E+02 -0.95075963194E+02  0.92349207294E+01  0.14157231507E+03  0.91003983630E+02 0.  0.
        -11    1    3    3    0    0  0.33320377816E+02  0.10406575384E+02 -0.71594326484E+02  0.79651063858E+02  0.00000000000E+00 0. -1.
         11    1    3    3    0    0 -0.44100971899E+02 -0.13276923087E+02 -0.24097020930E+02  0.51979215334E+02  0.00000000000E+00 0.  1.
        -13    1    4    4    0    0 -0.76441032155E+02 -0.67300423605E+02 -0.38463267455E+01  0.10191846076E+03  0.00000000000E+00 0. -1.
         13    1    4    4    0    0  0.25096384730E+02 -0.27775539589E+02  0.13081247475E+02  0.39653854308E+02  0.00000000000E+00 0.  1.
          1    1    1    2  501    0  0.62125241507E+02  0.97946310898E+02 -0.16772484615E+01  0.11599930437E+03  0.00000000000E+00 0. -1.
<scales pt_clust_5="13000.00000" pt_clust_6="13000.00000" pt_clust_7="13000.00000" pt_clust_8="13000.00000" pt_clust_9="112.18504"></scales>
<clustering>
<clus scale="   89.695">  5  6 -1 -1</clus>
<clus scale="   90.386">  2  5  1 -1</clus>
<clus scale="   91.004">  7  8 -1 -1</clus>
<clus scale="  112.185">  1  9  2 -1</clus>
<clus scale="  112.185">  1  5  2 -1</clus>
</clustering>
</event>
<event>
 9    1  0.1315259E-005  0.1202247E+03  0.7546771E-02  0.1243981E+00
         21   -1    0    0  501  502  0.00000000000E+00  0.00000000000E+00  0.13148026507E+03  0.13148026507E+03  0.00000000000E+00 0.  1.
          1   -1    0    0  502    0 -0.00000000000E+00 -0.00000000000E+00 -0.51558719103E+03  0.51558719103E+03  0.00000000000E+00 0. -1.
         23    2    1    2    0    0 -0.37109658994E+02  0.69796133898E+02 -0.43839460077E+03  0.45365123196E+03  0.85796195616E+02 0.  0.
         23    2    1    2    0    0  0.83963073350E+02 -0.54415917285E+02  0.27391545134E+02  0.13724509906E+03  0.89861174769E+02 0.  0.
        -11    1    3    3    0    0  0.42776339944E+01  0.65926013133E+02 -0.34720441863E+03  0.35343379250E+03  0.00000000000E+00 0.  1.
         11    1    3    3    0    0 -0.41387292988E+02  0.38701207650E+01 -0.91190182135E+02  0.10021743947E+03  0.00000000000E+00 0. -1.
        -13    1    4    4    0    0  0.24167709330E+02  0.18412407760E+02 -0.15040335276E+02  0.33901425029E+02  0.00000000000E+00 0. -1.
         13    1    4    4    0    0  0.59795364020E+02 -0.72828325045E+02  0.42431880410E+02  0.10334367403E+03  0.00000000000E+00 0.  1.
          1    1    1    2  501    0 -0.46853414357E+02 -0.15380216613E+02  0.26896129679E+02  0.56171125070E+02  0.00000000000E+00 0. -1.
<scales pt_clust_5="13000.00000" pt_clust_6="13000.00000" pt_clust_7="13000.00000" pt_clust_8="13000.00000" pt_clust_9="49.31322"></scales>
<clustering>
<clus scale="   49.313">  1  9  2 -1</clus>
<clus scale="   85.796">  5  6 -1 -1</clus>
<clus scale="   89.861">  7  8 -1 -1</clus>
<clus scale="  117.217">  2  5  1 -1</clus>
<clus scale="   49.313">  1  5  2 -1</clus>
</clustering>
</event>
<event>
 9    1  0.1315259E-005  0.1019492E+03  0.7546771E-02  0.1276681E+00
          1   -1    0    0  502    0 -0.00000000000E+00  0.00000000000E+00  0.37368643786E+03  0.37368643786E+03  0.00000000000E+00 0. -1.
         21   -1    0    0  501  502  0.00000000000E+00 -0.00000000000E+00 -0.70908506672E+02  0.70908506672E+02  0.00000000000E+00 0.  1.
         23    2    1    2    0    0 -0.24089056987E+01  0.45763971304E+02  0.29683850399E+03  0.31408999690E+03  0.91865580080E+02 0.  0.
         23    2    1    2    0    0  0.26487521079E+02 -0.33648900577E+02  0.15912275597E+02  0.10176451684E+03  0.90933927053E+02 0.  0.
        -11    1    3    3    0    0 -0.92074487264E+01 -0.25985077707E+02  0.51884743270E+02  0.58753961225E+02  0.00000000000E+00 0. -1.
         11    1    3    3    0    0  0.67985430277E+01  0.71749049012E+02  0.24495376072E+03  0.25533603568E+03  0.00000000000E+00 0.  1.
        -11    1    4    4    0    0 -0.31817729998E+02 -0.15109699729E+02  0.19894706777E+02  0.40453310444E+02  0.00000000000E+00 0.  1.
         11    1    4    4    0    0  0.58305251077E+02 -0.18539200848E+02 -0.39824311806E+01  0.61311206392E+02  0.00000000000E+00 0. -1.
          1    1    1    2  501    0 -0.24078615380E+02 -0.12115070727E+02 -0.99728483988E+01  0.28740430800E+02  0.00000000000E+00 0. -1.
<scales pt_clust_5="13000.00000" pt_clust_6="13000.00000" pt_clust_7="13000.00000" pt_clust_8="13000.00000" pt_clust_9="26.95468"></scales>
<clustering>
<clus scale="   26.955">  2  9  1 -1</clus>
<clus scale="   90.934">  7  8 -1 -1</clus>
<clus scale="   91.866">  5  6 -1 -1</clus>
<clus scale="  101.111">  2  7  1 -1</clus>
<clus scale="   26.955">  2  5  1 -1</clus>
</clustering>
</event>
<event>
 9    1  0.1315259E-005  0.1088355E+03  0.7546771E-02  0.1262992E+00
          2   -1    0    0  502    0 -0.00000000000E+00  0.00000000000E+00  0.31745319036E+03  0.31745319036E+03  0.00000000000E+00 0.  1.
         21   -1    0    0  501  502  0.00000000000E+00 -0.00000000000E+00 -0.16833097952E+03  0.16833097952E+03  0.00000000000E+00 0. -1.
         23    2    1    2    0    0  0.53371080767E+02  0.28241140430E+02  0.26601907242E+03  0.28767724038E+03  0.91356518444E+02 0.  0.
         23    2    1    2    0    0 -0.13614304676E+02 -0.55092981868E+02 -0.59778654880E+02  0.12351395281E+03  0.91987080709E+02 0.  0.
        -11    1    4    4    0    0 -0.31758456885E+02  0.91219097608E+01  0.12774646660E+01  0.33067215446E+02  0.00000000000E+00 0.  1.
         11    1    4    4    0    0  0.18144152209E+02 -0.64214891629E+02 -0.61056119546E+02  0.90446737367E+02  0.00000000000E+00 0. -1.
        -13    1    3    3    0    0  0.29579201332E+02  0.50942808572E+02  0.23569546910E+03  0.24294537051E+03  0.00000000000E+00 0.  1.
         13    1    3    3    0    0  0.23791879434E+02 -0.22701668142E+02  0.30323603325E+02  0.44731869870E+02  0.00000000000E+00 0. -1.
          2    1    1    2  501    0 -0.39756776091E+02  0.26851841439E+02 -0.57118206707E+02  0.74592976688E+02  0.00000000000E+00 0.  1.
<scales pt_clust_5="13000.00000" pt_clust_6="13000.00000" pt_clust_7="13000.00000" pt_clust_8="13000.00000" pt_clust_9="47.97523"></scales>
<clustering>
<clus scale="   47.975">  2  9  1 -1</clus>
<clus scale="   91.357">  7  8 -1 -1</clus>
<clus scale="   91.987">  5  6 -1 -1</clus>
<clus scale="  108.303">  1  7  2 -1</clus>
<clus scale="   47.975">  2  5  1 -1</clus>
</clustering>
</event>
<event>
 9    1  0.1315259E-005  0.1601461E+03  0.7546771E-02  0.1188685E+00
         21   -1    0    0  501  502  0.00000000000E+00  0.00000000000E+00  0.35681867825E+03  0.35681867825E+03  0.00000000000E+00 0. -1.
         -1   -1    0    0    0  501 -0.00000000000E+00 -0.00000000000E+00 -0.12553836459E+03  0.12553836459E+03  0.00000000000E+00 0.  1.
         23    2    1    2    0    0 -0.10719251352E+03 -0.77783573663E+02 -0.15294526905E+02  0.16144979446E+03  0.91058191775E+02 0.  0.
         23    2    1    2    0    0  0.93229930576E+02  0.92221705985E+02  0.13838592306E+03  0.21086973088E+03  0.90103921615E+02 0.  0.
        -11    1    4    4    0    0  0.47637278182E+02  0.92302697066E+02  0.12663890528E+03  0.16378800472E+03  0.00000000000E+00 0. -1.
         11    1    4    4    0    0  0.45592652393E+02 -0.80991081355E-01  0.11747017780E+02  0.47081726163E+02  0.00000000000E+00 0.  1.
        -13    1    3    3    0    0 -0.77200700318E+02  0.11487102337E+00 -0.93673093608E+01  0.77767009776E+02  0.00000000000E+00 0. -1.
         13    1    3    3    0    0 -0.29991813206E+02 -0.77898444686E+02 -0.59272175442E+01  0.83682784680E+02  0.00000000000E+00 0.  1.
         -1    1    1    2    0  502  0.13962582947E+02 -0.14438132322E+02  0.10818891751E+03  0.11003751751E+03  0.00000000000E+00 0.  1.
<scales pt_clust_5="13000.00000" pt_clust_6="13000.00000" pt_clust_7="13000.00000" pt_clust_8="13000.00000" pt_clust_9="20.08515"></scales>
<clustering>
<clus scale="   20.085">  1  9  2 -1</clus>
<clus scale="   90.104">  5  6 -1 -1</clus>
<clus scale="   91.058">  7  8 -1 -1</clus>
<clus scale="  159.605">  1  5  2 -1</clus>
<clus scale="   20.085">  1  5  2 -1</clus>
</clustering>
</event>
<event>
 9    1  0.1315259E-005  0.9457718E+02  0.7546771E-02  0.1296706E+00
          1   -1    0    0  502    0 -0.00000000000E+00  0.00000000000E+00  0.24316415024E+03  0.24316415024E+03  0.00000000000E+00 0. -1.
         21   -1    0    0  501  502  0.00000000000E+00 -0.00000000000E+00 -0.65603519456E+02  0.65603519456E+02  0.00000000000E+00 0.  1.
         23    2    1    2    0    0 -0.33019728556E+02  0.10185469260E+02  0.10187593601E+03  0.14296964442E+03  0.94167757909E+02 0.  0.
         23    2    1    2    0    0 -0.20660808504E+02  0.16960889830E+01  0.64196427180E+02  0.10963084823E+03  0.86417567052E+02 0.  0.
        -11    1    3    3    0    0 -0.57386544365E+02 -0.67919302211E-01  0.10141942876E+03  0.11652948390E+03  0.00000000000E+00 0.  1.
         11    1    3    3    0    0  0.24366815809E+02  0.10253388562E+02  0.45650725251E+00  0.26440160525E+02  0.00000000000E+00 0. -1.
        -11    1    4    4    0    0  0.28372892358E+02 -0.16875395613E+02  0.40059383273E+02  0.51909095408E+02  0.00000000000E+00 0. -1.
         11    1    4    4    0    0 -0.49033700862E+02  0.18571484596E+02  0.24137043907E+02  0.57721752823E+02  0.00000000000E+00 0.  1.
          1    1    1    2  501    0  0.53680537060E+02 -0.11881558243E+02  0.11488267596E+02  0.56167177049E+02  0.00000000000E+00 0. -1.
<scales pt_clust_5="13000.00000" pt_clust_6="13000.00000" pt_clust_7="13000.00000" pt_clust_8="13000.00000" pt_clust_9="54.97974"></scales>
<clustering>
<clus scale="   54.980">  2  9  1 -1</clus>
<clus scale="   86.418">  7  8 -1 -1</clus>
<clus scale="   86.864">  2  7  1 -1</clus>
<clus scale="   94.168">  5  6 -1 -1</clus>
<clus scale="   54.980">  2  5  1 -1</clus>
</clustering>
</event>
<event>
 9    1  0.1315259E-005  0.1428083E+03  0.7546771E-02  0.1210652E+00
         21   -1    0    0  501  502  0.00000000000E+00  0.00000000000E+00  0.11102796448E+03  0.11102796448E+03  0.00000000000E+00 0.  1.
          1   -1    0    0  502    0 -0.00000000000E+00 -0.00000000000E+00 -0.42800289218E+03  0.42800289218E+03  0.00000000000E+00 0. -1.
         23    2    1    2    0    0 -0.39668190871E+02  0.10244445259E+03 -0.34427244325E+03  0.37339879835E+03  0.93993171012E+02 0.  0.
         23    2    1    2    0    0  0.17543234369E+02 -0.96480126728E+02  0.34217000483E+01  0.13253913687E+03  0.89099578258E+02 0.  0.
        -11    1    3    3    0    0 -0.16054784084E+02  0.89735505715E+02 -0.33129358669E+03  0.34360683588E+03  0.00000000000E+00 0. -1.
         11    1    3    3    0    0 -0.23613406787E+02  0.12708946873E+02 -0.12978856560E+02  0.29791962478E+02  0.00000000000E+00 0.  1.
        -13    1    4    4    0    0 -0.16776692714E+02 -0.96693820541E+02  0.11821834154E+01  0.98145554698E+02  0.00000000000E+00 0.  1.
         13    1    4    4    0    0  0.34319927083E+02  0.21369381312E+00  0.22395166330E+01  0.34393582174E+02  0.00000000000E+00 0. -1.
          1    1    1    2  501    0  0.22124956502E+02 -0.59643258592E+01  0.23875815502E+02  0.33092921434E+02  0.00000000000E+00 0. -1.
<scales pt_clust_5="13000.00000" pt_clust_6="13000.00000" pt_clust_7="13000.00000" pt_clust_8="13000.00000" pt_clust_9="22.91477"></scales>
<clustering>
<clus scale="   22.915">  1  9  2 -1</clus>
<clus scale="   89.100">  7  8 -1 -1</clus>
<clus scale="   93.993">  5  6 -1 -1</clus>
<clus scale="  139.636">  1  7  2 -1</clus>
<clus scale="   22.915">  1  5  2 -1</clus>
</clustering>
</event>
<event>
 9    1  0.1315259E-005  0.1032687E+03  0.7546771E-02  0.1279090E+00
         21   -1    0    0  501  502  0.00000000000E+00  0.00000000000E+00  0.82352266827E+02  0.82352266827E+02  0.00000000000E+00 0. -1.
          1   -1    0    0  502    0 -0.00000000000E+00 -0.00000000000E+00 -0.46995145917E+03  0.46995145917E+03  0.00000000000E+00 0. -1.
         23    2    1    2    0    0 -0.10290231815E+02  0.27743514301E+02 -0.35876574582E+03  0.37113918712E+03  0.90309713667E+02 0.  0.
         23    2    1    2    0    0 -0.36750994613E+02  0.17784474483E+02 -0.37436907423E+02  0.11513655780E+03  0.10093553272E+03 0.  0.
        -11    1    3    3    0    0 -0.49290988367E+02  0.62013675908E+01 -0.21296152588E+03  0.21867937717E+03  0.00000000000E+00 0. -1.
         11    1    3    3    0    0  0.39000756552E+02  0.21542146710E+02 -0.14580421994E+03  0.15245980994E+03  0.00000000000E+00 0.  1.
        -13    1    4    4    0    0  0.34316434376E+02  0.46795247598E+01 -0.22623418810E+02  0.41368281315E+02  0.00000000000E+00 0.  1.
         13    1    4    4    0    0 -0.71067428989E+02  0.13104949724E+02 -0.14813488613E+02  0.73768276483E+02  0.00000000000E+00 0. -1.
          1    1    1    2  501    0  0.47041226428E+02 -0.45527988785E+02  0.86034608995E+01  0.66027981084E+02  0.00000000000E+00 0. -1.
<scales pt_clust_5="13000.00000" pt_clust_6="13000.00000" pt_clust_7="13000.00000" pt_clust_8="13000.00000" pt_clust_9="65.46507"></scales>
<clustering>
<clus scale="   65.465">  1  9  2 -1</clus>
<clus scale="   90.310">  5  6 -1 -1</clus>
<clus scale="   92.910">  2  5  1 -1</clus>
<clus scale="  100.936">  7  8 -1 -1</clus>
<clus scale="   65.465">  1  5  2 -1</clus>
</clustering>
</event>
<event>
 9    1  0.1315259E-005  0.1575077E+03  0.7546771E-02  0.1191706E+00
         21   -1    0    0  501  502  0.00000000000E+00  0.00000000000E+00  0.51613503284E+02  0.51613503284E+02  0.00000000000E+00 0. -1.
         -1   -1    0    0    0  501 -0.00000000000E+00 -0.00000000000E+00 -0.88360592058E+03  0.88360592058E+03  0.00000000000E+00 0.  1.
         23    2    1    2    0    0  0.60863867822E+02 -0.11830644646E+03 -0.50752792446E+03  0.53270423170E+03  0.92132397630E+02 0.  0.
         23    2    1    2    0    0 -0.10842444211E+03  0.68701677870E+02 -0.27638409111E+03  0.31864406290E+03  0.93113333171E+02 0.  0.
        -11    1    3    3    0    0  0.57530972712E+02 -0.16787007300E+02 -0.20493719696E+03  0.21352018905E+03  0.00000000000E+00 0.  1.
         11    1    3    3    0    0  0.33328951094E+01 -0.10151943916E+03 -0.30259072750E+03  0.31918404265E+03  0.00000000000E+00 0. -1.
        -11    1    4    4    0    0 -0.29099853189E+02 -0.92421418393E+01 -0.13684526471E+03  0.14021000362E+03  0.00000000000E+00 0.  1.
         11    1    4    4    0    0 -0.79324588920E+02  0.77943819709E+02 -0.13953882640E+03  0.17843405928E+03  0.00000000000E+00 0. -1.
         -1    1    1    2    0  502  0.47560574287E+02  0.49604768586E+02 -0.48080401731E+02  0.83871129262E+02  0.00000000000E+00 0.  1.
<scales pt_clust_5="13000.00000" pt_clust_6="13000.00000" pt_clust_7="13000.00000" pt_clust_8="13000.00000" pt_clust_9="68.72148"></scales>
<clustering>
<clus scale="   68.721">  1  9  2 -1</clus>
<clus scale="   92.132">  5  6 -1 -1</clus>
<clus scale="   93.113">  7  8 -1 -1</clus>
<clus scale="  156.930">  2  5  1 -1</clus>
<clus scale="   68.721">  1  5  2 -1</clus>
</clustering>
</event>
<event>
 9    1  0.1315259E-005  0.2038504E+03  0.7546771E-02  0.1180904E+00
         21   -1    0    0  501  502  0.00000000000E+00  0.00000000000E+00  0.29754800136E+02  0.29754800136E+02  0.00000000000E+00 0. -1.
          2   -1    0    0  502    0 -0.00000000000E+00 -0.00000000000E+00 -0.19844980101E+04  0.19844980101E+04  0.00000000000E+00 0. -1.
         23    2    1    2    0    0  0.16679826441E+02  0.63333755818E+01 -0.39517518691E+03  0.40575286291E+03  0.90297448198E+02 0.  0.
         23    2    1    2    0    0  0.88360508990E+01  0.18071162784E+03 -0.68800571427E+03  0.71672769423E+03  0.87246527608E+02 0.  0.
        -11    1    4    4    0    0 -0.34312473603E+02  0.41994398395E+02 -0.15200180689E+03  0.16138594932E+03  0.00000000000E+00 0.  1.
         11    1    4    4    0    0  0.43148524502E+02  0.13871722944E+03 -0.53600390739E+03  0.55534174491E+03  0.00000000000E+00 0. -1.
        -13    1    3    3    0    0  0.37282490377E+02  0.35075452777E+02 -0.29752953123E+03  0.30190080065E+03  0.00000000000E+00 0.  1.
         13    1    3    3    0    0 -0.20602663936E+02 -0.28742077196E+02 -0.97645655681E+02  0.10385206226E+03  0.00000000000E+00 0. -1.
          2    1    1    2  501    0 -0.25515877340E+02 -0.18704500342E+03 -0.87156230879E+03  0.89177225310E+03  0.00000000000E+00 0. -1.
<scales pt_clust_5="13000.00000" pt_clust_6="13000.00000" pt_clust_7="13000.00000" pt_clust_8="13000.00000" pt_clust_9="184.23641"></scales>
<clustering>
<clus scale="   87.247">  5  6 -1 -1</clus>
<clus scale="   90.297">  7  8 -1 -1</clus>
<clus scale="   92.043">  2  7  1 -1</clus>
<clus scale="  184.236">  1  9  2 -1</clus>
<clus scale="  184.236">  1  5  2 -1</clus>
</clustering>
</event>
<event>
 9    1  0.1315259E-005  0.1473286E+03  0.7546771E-02  0.1205149E+00
         21   -1    0    0  501  502  0.00000000000E+00  0.00000000000E+00  0.86252892466E+02  0.86252892466E+02  0.00000000000E+00 0. -1.
         -3   -1    0    0    0  501 -0.00000000000E+00 -0.00000000000E+00 -0.38949872394E+03  0.38949872394E+03  0.00000000000E+00 0.  1.
         23    2    1    2    0    0  0.10870965296E+03  0.22520426374E+02 -0.26933888256E+03  0.30736823205E+03  0.98014479355E+02 0.  0.
         23    2    1    2    0    0 -0.99625797711E+02 -0.42831512398E+02 -0.23547488686E+02  0.14384005414E+03  0.91518516860E+02 0.  0.
        -13    1    3    3    0    0  0.84838660730E+02  0.52211837332E+02 -0.23810523901E+03  0.25810420213E+03  0.00000000000E+00 0.  1.
         13    1    3    3    0    0  0.23870992234E+02 -0.29691410958E+02 -0.31233643555E+02  0.49264029926E+02  0.00000000000E+00 0. -1.
        -13    1    4    4    0    0 -0.80093872724E+02 -0.57601113348E+02 -0.47579948383E+02  0.10952975940E+03  0.00000000000E+00 0.  1.
         13    1    4    4    0    0 -0.19531924987E+02  0.14769600950E+02  0.24032459697E+02  0.34310294738E+02  0.00000000000E+00 0. -1.
         -3    1    1    2    0  502 -0.90838552532E+01  0.20311086024E+02 -0.10359460224E+02  0.24543330212E+02  0.00000000000E+00 0.  1.
<scales pt_clust_5="13000.00000" pt_clust_6="13000.00000" pt_clust_7="13000.00000" pt_clust_8="13000.00000" pt_clust_9="22.24987"></scales>
<clustering>
<clus scale="   22.250">  1  9  2 -1</clus>
<clus scale="   91.519">  7  8 -1 -1</clus>
<clus scale="   98.014">  5  6 -1 -1</clus>
<clus scale="  143.089">  1  7  2 -1</clus>
<clus scale="   22.250">  1  5  2 -1</clus>
</clustering>
</event>
<event>
 9    1  0.1315259E-005  0.9203767E+02  0.7546771E-02  0.1298595E+00
         21   -1    0    0  501  502  0.00000000000E+00  0.00000000000E+00  0.55317846305E+02  0.55317846305E+02  0.00000000000E+00 0. -1.
          1   -1    0    0  502    0 -0.00000000000E+00 -0.00000000000E+00 -0.51231701815E+03  0.51231701815E+03  0.00000000000E+00 0. -1.
         23    2    1    2    0    0  0.60903440137E+01  0.72753455998E+01 -0.40491274282E+03  0.41513671163E+03  0.91072153300E+02 0.  0.
         23    2    1    2    0    0 -0.14357097859E+02 -0.27424088417E+02 -0.74763297137E+02  0.12105691552E+03  0.90038987737E+02 0.  0.
        -11    1    4    4    0    0 -0.45647491987E+02 -0.28469634149E+02 -0.18904679795E+02  0.57022806941E+02  0.00000000000E+00 0.  1.
         11    1    4    4    0    0  0.31290394127E+02  0.10455457322E+01 -0.55858617342E+02  0.64034108582E+02  0.00000000000E+00 0. -1.
        -13    1    3    3    0    0 -0.96082815860E+01  0.47003119921E+02 -0.24251758500E+03  0.24721729590E+03  0.00000000000E+00 0.  1.
         13    1    3    3    0    0  0.15698625600E+02 -0.39727774321E+02 -0.16239515781E+03  0.16791941573E+03  0.00000000000E+00 0. -1.
          1    1    1    2  501    0  0.82667538457E+01  0.20148742817E+02  0.22676868103E+02  0.31441237304E+02  0.00000000000E+00 0. -1.
<scales pt_clust_5="13000.00000" pt_clust_6="13000.00000" pt_clust_7="13000.00000" pt_clust_8="13000.00000" pt_clust_9="21.77868"></scales>
<clustering>
<clus scale="   21.779">  1  9  2 -1</clus>
<clus scale="   90.039">  5  6 -1 -1</clus>
<clus scale="   91.015">  1  5  2 -1</clus>
<clus scale="   91.072">  7  8 -1 -1</clus>
<clus scale="   21.779">  1  5  2 -1</clus>
</clustering>
</event>
<event>
 9    1  0.1315259E-005  0.1029454E+03  0.7546771E-02  0.1274557E+00
         21   -1    0    0  501  502  0.00000000000E+00  0.00000000000E+00  0.18270965334E+03  0.18270965334E+03  0.00000000000E+00 0. -1.
          2   -1    0    0  502    0 -0.00000000000E+00 -0.00000000000E+00 -0.14491169334E+03  0.14491169334E+03  0.00000000000E+00 0. -1.
         23    2    1    2    0    0 -0.39303125381E+02  0.47960309867E+02 -0.66851194008E+02  0.13076516107E+03  0.93731095280E+02 0.  0.
         23    2    1    2    0    0 -0.86788131428E+01 -0.12733529239E+02  0.25201991227E+02  0.97583610486E+02  0.93005140230E+02 0.  0.
        -11    1    4    4    0    0  0.11583740292E+01  0.40218229460E+02  0.77978724557E+01  0.40983589718E+02  0.00000000000E+00 0. -1.
         11    1    4    4    0    0 -0.98371871720E+01 -0.52951758699E+02  0.17404118771E+02  0.56600020768E+02  0.00000000000E+00 0.  1.
        -13    1    3    3    0    0 -0.81944811975E+01  0.72168756019E+02 -0.48090625025E+02  0.87110200796E+02  0.00000000000E+00 0.  1.
         13    1    3    3    0    0 -0.31108644183E+02 -0.24208446152E+02 -0.18760568983E+02  0.43654960275E+02  0.00000000000E+00 0. -1.
          2    1    1    2  501    0  0.47981938524E+02 -0.35226780629E+02  0.79447162785E+02  0.99272575128E+02  0.00000000000E+00 0. -1.
<scales pt_clust_5="13000.00000" pt_clust_6="13000.00000" pt_clust_7="13000.00000" pt_clust_8="13000.00000" pt_clust_9="59.52472"></scales>
<clustering>
<clus scale="   59.525">  1  9  2 -1</clus>
<clus scale="   93.005">  5  6 -1 -1</clus>
<clus scale="   93.731">  7  8 -1 -1</clus>
<clus scale="  102.285">  1  5  2 -1</clus>
<clus scale="   59.525">  1  5  2 -1</clus>
</clustering>
</event>
<event>
 9    1  0.1315259E-005  0.9337287E+02  0.7546771E-02  0.1295111E+00
          2   -1    0    0  502    0 -0.00000000000E+00  0.00000000000E+00  0.29747861015E+03  0.29747861015E+03  0.00000000000E+00 0. -1.
         21   -1    0    0  501  502  0.00000000000E+00 -0.00000000000E+00 -0.73369319416E+02  0.73369319416E+02  0.00000000000E+00 0.  1.
         23    2    1    2    0    0  0.93033754705E+01 -0.23910781192E+01  0.14748526870E+03  0.17327791337E+03  0.90449216298E+02 0.  0.
         23    2    1    2    0    0 -0.41796539905E+02  0.11611136188E+02  0.11100725232E+03  0.14937228046E+03  0.90042761351E+02 0.  0.
        -11    1    4    4    0    0 -0.58107362958E+01 -0.20315728612E+02 -0.67378822665E+01  0.22178650608E+02  0.00000000000E+00 0.  1.
         11    1    4    4    0    0 -0.35985803610E+02  0.31926864800E+02  0.11774513458E+03  0.12719362986E+03  0.00000000000E+00 0. -1.
        -13    1    3    3    0    0  0.43680589174E+02  0.21002834502E+02  0.67092008884E+02  0.82767448818E+02  0.00000000000E+00 0. -1.
         13    1    3    3    0    0 -0.34377213703E+02 -0.23393912621E+02  0.80393259815E+02  0.90510464552E+02  0.00000000000E+00 0.  1.
          2    1    1    2  501    0  0.32493164435E+02 -0.92200580692E+01 -0.34383230279E+02  0.48197735737E+02  0.00000000000E+00 0. -1.
<scales pt_clust_5="13000.00000" pt_clust_6="13000.00000" pt_clust_7="13000.00000" pt_clust_8="13000.00000" pt_clust_9="33.77596"></scales>
<clustering>
<clus scale="   33.776">  2  9  1 -1</clus>
<clus scale="   90.043">  5  6 -1 -1</clus>
<clus scale="   90.449">  7  8 -1 -1</clus>
<clus scale="   92.979">  2  5  1 -1</clus>
<clus scale="   33.776">  2  5  1 -1</clus>
</clustering>
</event>
<event>
 9    1  0.1315259E-005  0.1172307E+03  0.7546771E-02  0.1248103E+00
          2   -1    0    0  502    0 -0.00000000000E+00  0.00000000000E+00  0.42902799111E+02  0.42902799111E+02  0.00000000000E+00 0. -1.
         21   -1    0    0  501  502  0.00000000000E+00 -0.00000000000E+00 -0.43500297839E+03  0.43500297839E+03  0.00000000000E+00 0. -1.
         23    2    1    2    0    0  0.67688205879E+02  0.80188847277E+01 -0.10367784259E+03  0.15346848629E+03  0.90318799329E+02 0.  0.
         23    2    1    2    0    0 -0.84105087204E+02  0.82861993851E+01 -0.22874190079E+03  0.26042850909E+03  0.91421137452E+02 0.  0.
        -11    1    3    3    0    0 -0.58312498156E+00  0.24070584056E+02 -0.73093036467E+02  0.76956643843E+02  0.00000000000E+00 0.  1.
         11    1    3    3    0    0  0.68271330861E+02 -0.16051699329E+02 -0.30584806121E+02  0.76511842445E+02  0.00000000000E+00 0. -1.
        -11    1    4    4    0    0 -0.64326320941E+02  0.14204314245E+02 -0.23048070606E+03  0.23971022919E+03  0.00000000000E+00 0. -1.
         11    1    4    4    0    0 -0.19778766263E+02 -0.59181148598E+01  0.17388052682E+01  0.20718279903E+02  0.00000000000E+00 0.  1.
          2    1    1    2  501    0  0.16416881325E+02 -0.16305084113E+02 -0.59680435891E+02  0.64008782121E+02  0.00000000000E+00 0. -1.
<scales pt_clust_5="13000.00000" pt_clust_6="13000.00000" pt_clust_7="13000.00000" pt_clust_8="13000.00000" pt_clust_9="23.13806"></scales>
<clustering>
<clus scale="   23.138">  2  9  1 -1</clus>
<clus scale="   90.319">  5  6 -1 -1</clus>
<clus scale="   91.421">  7  8 -1 -1</clus>
<clus scale="  116.373">  1  5  2 -1</clus>
<clus scale="   23.138">  2  5  1 -1</clus>
</clustering>
</event>
<event>
 9    1  0.1315259E-005  0.1929700E+03  0.7546771E-02  0.1156178E+00
         21   -1    0    0  501  502  0.00000000000E+00  0.00000000000E+00  0.90968814170E+02  0.90968814170E+02  0.00000000000E+00 0. -1.
         -1   -1    0    0    0  501 -0.00000000000E+00 -0.00000000000E+00 -0.68907310209E+03  0.68907310209E+03  0.00000000000E+00 0.  1.
         23    2    1    2    0    0  0.14092129441E+01 -0.21224527175E+03 -0.40565570054E+03  0.46643001549E+03  0.89164851320E+02 0.  0.
         23    2    1    2    0    0  0.18419956205E+02  0.11752971227E+03 -0.12030479136E+03  0.19290995190E+03  0.92674045252E+02 0.  0.
        -11    1    4    4    0    0 -0.52944542196E+01  0.11626562211E+03 -0.12260658181E+03  0.16905058424E+03  0.00000000000E+00 0.  1.
         11    1    4    4    0    0  0.23714410425E+02  0.12640901670E+01  0.23017904480E+01  0.23859367658E+02  0.00000000000E+00 0. -1.
        -11    1    3    3    0    0  0.29627768709E+02 -0.18910724179E+03 -0.36233551978E+03  0.40978821661E+03  0.00000000000E+00 0. -1.
         11    1    3    3    0    0 -0.28218555765E+02 -0.23138029966E+02 -0.43320180757E+02  0.56641798885E+02  0.00000000000E+00 0.  1.
         -1    1    1    2    0  502 -0.19829169150E+02  0.94715559481E+02 -0.72143796024E+02  0.12070194887E+03  0.00000000000E+00 0.  1.
<scales pt_clust_5="13000.00000" pt_clust_6="13000.00000" pt_clust_7="13000.00000" pt_clust_8="13000.00000" pt_clust_9="96.76897"></scales>
<clustering>
<clus scale="   89.165">  7  8 -1 -1</clus>
<clus scale="   92.674">  5  6 -1 -1</clus>
<clus scale="   96.769">  1  9  2 -1</clus>
<clus scale="  191.310">  2  7  1 -1</clus>
<clus scale="   96.769">  1  5  2 -1</clus>
</clustering>
</event>
<event>
 9    1  0.1315259E-005  0.1046424E+03  0.7546771E-02  0.1271743E+00
         21   -1    0    0  501  502  0.00000000000E+00  0.00000000000E+00  0.51513484198E+02  0.51513484198E+02  0.00000000000E+00 0. -1.
          1   -1    0    0  502    0 -0.00000000000E+00 -0.00000000000E+00 -0.53326226479E+03  0.53326226479E+03  0.00000000000E+00 0. -1.
         23    2    1    2    0    0  0.42021175389E+02  0.32719483046E+02 -0.24985590681E+03  0.27167540883E+03  0.92429485803E+02 0.  0.
         23    2    1    2    0    0 -0.24615211306E+01 -0.54739076573E+02 -0.24428697497E+03  0.26615949985E+03  0.90345601061E+02 0.  0.
        -11    1    3    3    0    0  0.43927442483E+02  0.62705072153E+02 -0.17499841436E+03  0.19101306580E+03  0.00000000000E+00 0. -1.
         11    1    3    3    0    0 -0.19062670945E+01 -0.29985589108E+02 -0.74857492449E+02  0.80662343037E+02  0.00000000000E+00 0.  1.
        -13    1    4    4    0    0 -0.29371837699E+02 -0.50281353635E+02 -0.22584936075E+03  0.23323561719E+03  0.00000000000E+00 0. -1.
         13    1    4    4    0    0  0.26910316569E+02 -0.44577229374E+01 -0.18437614219E+02  0.32923882665E+02  0.00000000000E+00 0.  1.
          1    1    1    2  501    0 -0.39559654258E+02  0.22019593527E+02  0.12394101187E+02  0.46940840303E+02  0.00000000000E+00 0. -1.
<scales pt_clust_5="13000.00000" pt_clust_6="13000.00000" pt_clust_7="13000.00000" pt_clust_8="13000.00000" pt_clust_9="45.27503"></scales>
<clustering>
<clus scale="   45.275">  1  9  2 -1</clus>
<clus scale="   90.346">  7  8 -1 -1</clus>
<clus scale="   92.429">  5  6 -1 -1</clus>
<clus scale="  102.806">  1  7  2 -1</clus>
<clus scale="   45.275">  1  5  2 -1</clus>
</clustering>
</event>
<event>
 9    1  0.1315259E-005  0.9882349E+02  0.7546771E-02  0.1284157E+00
         -2   -1    0    0    0  501 -0.00000000000E+00  0.00000000000E+00  0.55393145844E+03  0.55393145844E+03  0.00000000000E+00 0.  1.
         21   -1    0    0  501  502  0.00000000000E+00 -0.00000000000E+00 -0.44038243397E+02  0.44038243397E+02  0.00000000000E+00 0. -1.
         23    2    1    2    0    0  0.42123935231E+02  0.26548503240E+02  0.33898422820E+03  0.35492787480E+03  0.92651175926E+02 0.  0.
         23    2    1    2    0    0 -0.19473002055E+02  0.26128036385E+02  0.15729645806E+03  0.18410810544E+03  0.89954136523E+02 0.  0.
        -11    1    4    4    0    0 -0.53467346660E+02  0.28693462365E+02  0.11242269287E+03  0.12775341018E+03  0.00000000000E+00 0.  1.
         11    1    4    4    0    0  0.33994344605E+02 -0.25654259797E+01  0.44873765187E+02  0.56354695258E+02  0.00000000000E+00 0. -1.
        -11    1    3    3    0    0  0.55892321374E+02  0.49983000344E+02  0.20668950991E+03  0.21986997389E+03  0.00000000000E+00 0. -1.
         11    1    3    3    0    0 -0.13768386143E+02 -0.23434497104E+02  0.13229471829E+03  0.13505790091E+03  0.00000000000E+00 0.  1.
         -2    1    1    2    0  502 -0.22650933176E+02 -0.52676539625E+02  0.13612528785E+02  0.58933721591E+02  0.00000000000E+00 0.  1.
<scales pt_clust_5="13000.00000" pt_clust_6="13000.00000" pt_clust_7="13000.00000" pt_clust_8="13000.00000" pt_clust_9="57.34006"></scales>
<clustering>
<clus scale="   57.340">  2  9  1 -1</clus>
<clus scale="   89.954">  5  6 -1 -1</clus>
<clus scale="   92.651">  7  8 -1 -1</clus>
<clus scale="   96.299">  2  5  1 -1</clus>
<clus scale="   57.340">  2  5  1 -1</clus>
</clustering>
</event>
<event>
 9    1  0.1315259E-005  0.9316517E+02  0.7546771E-02  0.1296520E+00
          4   -1    0    0  502    0 -0.00000000000E+00  0.00000000000E+00  0.15001962106E+03  0.15001962106E+03  0.00000000000E+00 0. -1.
         21   -1    0    0  501  502  0.00000000000E+00 -0.00000000000E+00 -0.11968720364E+03  0.11968720364E+03  0.00000000000E+00 0.  1.
         23    2    1    2    0    0  0.13535192767E+02  0.14228468717E+02  0.62331856144E+02  0.11231108535E+03  0.91339306085E+02 0.  0.
         23    2    1    2    0    0  0.73881559336E+01 -0.22598700595E+02  0.25295298042E+02  0.95828425265E+02  0.89319364468E+02 0.  0.
        -11    1    4    4    0    0 -0.19636200716E+02  0.76488345438E+01 -0.24034072727E+02  0.31964381744E+02  0.00000000000E+00 0.  1.
         11    1    4    4    0    0  0.27024356649E+02 -0.30247535139E+02  0.49329370770E+02  0.63864043521E+02  0.00000000000E+00 0. -1.
        -11    1    3    3    0    0 -0.67378302951E+01 -0.36477577645E+02  0.35976938158E+02  0.51675449753E+02  0.00000000000E+00 0. -1.
         11    1    3    3    0    0  0.20273023062E+02  0.50706046363E+02  0.26354917986E+02  0.60635635594E+02  0.00000000000E+00 0.  1.
          4    1    1    2  501    0 -0.20923348700E+02  0.83702318776E+01 -0.57294736764E+02  0.61567314083E+02  0.00000000000E+00 0. -1.
<scales pt_clust_5="13000.00000" pt_clust_6="13000.00000" pt_clust_7="13000.00000" pt_clust_8="13000.00000" pt_clust_9="22.53547"></scales>
<clustering>
<clus scale="   22.535">  2  9  1 -1</clus>
<clus scale="   89.319">  5  6 -1 -1</clus>
<clus scale="   91.186">  2  5  1 -1</clus>
<clus scale="   91.339">  7  8 -1 -1</clus>
<clus scale="   22.535">  2  5  1 -1</clus>
</clustering>
</event>
<event>
 9    1  0.1315259E-005  0.9234035E+02  0.7546771E-02  0.1297670E+00
         21   -1    0    0  501  502  0.00000000000E+00  0.00000000000E+00  0.42850225463E+02  0.42850225463E+02  0.00000000000E+00 0. -1.
          1   -1    0    0  502    0 -0.00000000000E+00 -0.00000000000E+00 -0.36719943087E+03  0.36719943087E+03  0.00000000000E+00 0. -1.
         23    2    1    2    0    0  0.16305267606E+02 -0.31735187773E+01 -0.26315634317E+03  0.27912589688E+03  0.91564580408E+02 0.  0.
         23    2    1    2    0    0  0.56282272550E+01  0.88478471008E+01 -0.57232858735E+02  0.10792467628E+03  0.90896503188E+02 0.  0.
        -11    1    4    4    0    0  0.52829597405E+01 -0.38228866658E+02 -0.45002644961E+02  0.59284011024E+02  0.00000000000E+00 0.  1.
         11    1    4    4    0    0  0.34526751451E+00  0.47076713759E+02 -0.12230213774E+02  0.48640665260E+02  0.00000000000E+00 0. -1.
        -13    1    3    3    0    0  0.27202406858E+02  0.39880323305E+02 -0.14949576938E+03  0.15709677333E+03  0.00000000000E+00 0. -1.
         13    1    3    3    0    0 -0.10897139252E+02 -0.43053842082E+02 -0.11366057379E+03  0.12202912356E+03  0.00000000000E+00 0.  1.
          1    1    1    2  501    0 -0.21933494861E+02 -0.56743283235E+01 -0.39600034981E+01  0.22999083165E+02  0.00000000000E+00 0. -1.
<scales pt_clust_5="13000.00000" pt_clust_6="13000.00000" pt_clust_7="13000.00000" pt_clust_8="13000.00000" pt_clust_9="22.65560"></scales>
<clustering>
<clus scale="   22.656">  1  9  2 -1</clus>
<clus scale="   90.897">  5  6 -1 -1</clus>
<clus scale="   91.565">  7  8 -1 -1</clus>
<clus scale="   91.678">  1  5  2 -1</clus>
<clus scale="   22.656">  1  5  2 -1</clus>
</clustering>
</event>
<event>
 9    1  0.1315259E-005  0.9972881E+02  0.7546771E-02  0.1280925E+00
         21   -1    0    0  501  502  0.00000000000E+00  0.00000000000E+00  0.11900016767E+03  0.11900016767E+03  0.00000000000E+00 0. -1.
         -3   -1    0    0    0  501 -0.00000000000E+00 -0.00000000000E+00 -0.29063694293E+03  0.29063694293E+03  0.00000000000E+00 0.  1.
         23    2    1    2    0    0  0.50639407773E+02 -0.51532549431E+01 -0.13986285120E+03  0.17480022542E+03  0.91665675168E+02 0.  0.
         23    2    1    2    0    0 -0.23669872959E+02 -0.28376512385E+02 -0.10860931203E+03  0.14677282923E+03  0.91546662420E+02 0.  0.
        -11    1    3    3    0    0  0.31367377672E+02 -0.43834635765E+02 -0.43763890886E+02  0.69431014830E+02  0.00000000000E+00 0.  1.
         11    1    3    3    0    0  0.19272030101E+02  0.38681380822E+02 -0.96098960314E+02  0.10536921059E+03  0.00000000000E+00 0. -1.
        -11    1    4    4    0    0 -0.25893535825E+02  0.11808649040E+01 -0.11377054321E+03  0.11668592949E+03  0.00000000000E+00 0.  1.
         11    1    4    4    0    0  0.22236628661E+01 -0.29557377289E+02  0.51612311779E+01  0.30086899741E+02  0.00000000000E+00 0. -1.
         -3    1    1    2    0  502 -0.26969534815E+02  0.33529767328E+02  0.76835387968E+02  0.88064055945E+02  0.00000000000E+00 0.  1.
<scales pt_clust_5="13000.00000" pt_clust_6="13000.00000" pt_clust_7="13000.00000" pt_clust_8="13000.00000" pt_clust_9="43.03023"></scales>
<clustering>
<clus scale="   43.030">  1  9  2 -1</clus>
<clus scale="   91.547">  7  8 -1 -1</clus>
<clus scale="   91.666">  5  6 -1 -1</clus>
<clus scale="   99.619">  1  7  2 -1</clus>
<clus scale="   43.030">  1  5  2 -1</clus>
</clustering>
</event>
<event>
 9    1  0.1315259E-005  0.1340091E+03  0.7546771E-02  0.1222179E+00
          1   -1    0    0  502    0 -0.00000000000E+00  0.00000000000E+00  0.33670704345E+03  0.33670704345E+03  0.00000000000E+00 0. -1.
         21   -1    0    0  501  502  0.00000000000E+00 -0.00000000000E+00 -0.86279069038E+02  0.86279069038E+02  0.00000000000E+00 0.  1.
         23    2    1    2    0    0 -0.11279947146E+03  0.22218144175E+02  0.15697066449E+03  0.21558560975E+03  0.92843949339E+02 0.  0.
         23    2    1    2    0    0  0.54668596862E+02 -0.47834586558E+02  0.46215742115E+02  0.12823506564E+03  0.95034383706E+02 0.  0.
        -11    1    4    4    0    0  0.56874238491E+02 -0.69171549984E+02  0.15672844248E+02  0.90912157482E+02  0.00000000000E+00 0.  1.
         11    1    4    4    0    0 -0.22056416292E+01  0.21336963427E+02  0.30542897867E+02  0.37322908158E+02  0.00000000000E+00 0. -1.
        -11    1    3    3    0    0 -0.89764988100E+02 -0.19843582129E+02  0.67425639420E+02  0.11400762120E+03  0.00000000000E+00 0.  1.
         11    1    3    3    0    0 -0.23034483360E+02  0.42061726304E+02  0.89545025071E+02  0.10157798855E+03  0.00000000000E+00 0. -1.
          1    1    1    2  501    0  0.58130874598E+02  0.25616442383E+02  0.47241567803E+02  0.79165437094E+02  0.00000000000E+00 0. -1.
<scales pt_clust_5="13000.00000" pt_clust_6="13000.00000" pt_clust_7="13000.00000" pt_clust_8="13000.00000" pt_clust_9="63.52484"></scales>
<clustering>
<clus scale="   63.525">  2  9  1 -1</clus>
<clus scale="   92.844">  7  8 -1 -1</clus>
<clus scale="   95.034">  5  6 -1 -1</clus>
<clus scale="  132.465">  1  7  2 -1</clus>
<clus scale="   63.525">  2  5  1 -1</clus>
</clustering>
</event>
<event>
 9    1  0.1315259E-005  0.1177561E+03  0.7546771E-02  0.1247735E+00
          2   -1    0    0  502    0 -0.00000000000E+00  0.00000000000E+00  0.66846520857E+03  0.66846520857E+03  0.00000000000E+00 0. -1.
         21   -1    0    0  501  502  0.00000000000E+00 -0.00000000000E+00 -0.35842174757E+02  0.35842174757E+02  0.00000000000E+00 0. -1.
         23    2    1    2    0    0  0.69162473066E+02 -0.49861383186E+02  0.37280890579E+03  0.39319812888E+03  0.91371128412E+02 0.  0.
         23    2    1    2    0    0 -0.19668431629E+02  0.65734785297E+02  0.21501088762E+03  0.24248742568E+03  0.88671081058E+02 0.  0.
        -11    1    3    3    0    0 -0.94633306385E+01 -0.28675593789E+02  0.37517689586E+02  0.48160371030E+02  0.00000000000E+00 0.  1.
         11    1    3    3    0    0  0.78625803704E+02 -0.21185789397E+02  0.33529121621E+03  0.34503775785E+03  0.00000000000E+00 0. -1.
        -13    1    4    4    0    0 -0.30957026371E+02  0.35584256226E+02  0.32788047682E+02  0.57442430691E+02  0.00000000000E+00 0.  1.
         13    1    4    4    0    0  0.11288594742E+02  0.30150529072E+02  0.18222283994E+03  0.18504499499E+03  0.00000000000E+00 0. -1.
          2    1    1    2  501    0 -0.49494041437E+02 -0.15873402111E+02  0.44803240398E+02  0.68621828761E+02  0.00000000000E+00 0. -1.
<scales pt_clust_5="13000.00000" pt_clust_6="13000.00000" pt_clust_7="13000.00000" pt_clust_8="13000.00000" pt_clust_9="51.97716"></scales>
<clustering>
<clus scale="   51.977">  2  9  1 -1</clus>
<clus scale="   88.671">  7  8 -1 -1</clus>
<clus scale="   91.371">  5  6 -1 -1</clus>
<clus scale="  115.674">  2  7  1 -1</clus>
<clus scale="   51.977">  2  5  1 -1</clus>
</clustering>
</event>
<event>
 9    1  0.1315259E-005  0.9886765E+02  0.7546771E-02  0.1283998E+00
         21   -1    0    0  501  502  0.00000000000E+00  0.00000000000E+00  0.11037589233E+03  0.11037589233E+03  0.00000000000E+00 0.  1.
         -1   -1    0    0    0  501 -0.00000000000E+00 -0.00000000000E+00 -0.42517753872E+03  0.42517753872E+03  0.00000000000E+00 0.  1.
         23    2    1    2    0    0 -0.27908356992E+02 -0.19687550748E+02 -0.35201669882E+03  0.36519242428E+03  0.91012496195E+02 0.  0.
         23    2    1    2    0    0  0.27196801350E+02 -0.64636533997E+01 -0.26756446194E+02  0.10124701089E+03  0.93560702123E+02 0.  0.
        -11    1    4    4    0    0  0.45309968243E+02  0.30775646887E+02 -0.23830611476E+02  0.59733003498E+02  0.00000000000E+00 0.  1.
         11    1    4    4    0    0 -0.18113166894E+02 -0.37239300287E+02 -0.29258347181E+01  0.41514007390E+02  0.00000000000E+00 0. -1.
        -13    1    3    3    0    0  0.98610144195E+01  0.20319824138E+02 -0.25465170638E+02  0.34038357393E+02  0.00000000000E+00 0. -1.
         13    1    3    3    0    0 -0.37769371411E+02 -0.40007374886E+02 -0.32655152818E+03  0.33115406689E+03  0.00000000000E+00 0.  1.
         -1    1    1    2    0  502  0.71155564223E+00  0.26151204148E+02  0.63971498626E+02  0.69113995878E+02  0.00000000000E+00 0.  1.
<scales pt_clust_5="13000.00000" pt_clust_6="13000.00000" pt_clust_7="13000.00000" pt_clust_8="13000.00000" pt_clust_9="26.16088"></scales>
<clustering>
<clus scale="   26.161">  1  9  2 -1</clus>
<clus scale="   91.012">  7  8 -1 -1</clus>
<clus scale="   93.561">  5  6 -1 -1</clus>
<clus scale="   96.460">  2  7  1 -1</clus>
<clus scale="   26.161">  1  5  2 -1</clus>
</clustering>
</event>
<event>
 9    1  0.1315259E-005  0.9889223E+02  0.7546771E-02  0.1282765E+00
         21   -1    0    0  501  502  0.00000000000E+00  0.00000000000E+00  0.81894757562E+02  0.81894757562E+02  0.00000000000E+00 0. -1.
         -1   -1    0    0    0  501 -0.00000000000E+00 -0.00000000000E+00 -0.25481442895E+03  0.25481442895E+03  0.00000000000E+00 0.  1.
         23    2    1    2    0    0 -0.27737765076E+02  0.33089858985E+02 -0.17999448924E+03  0.20634442749E+03  0.91190373526E+02 0.  0.
         23    2    1    2    0    0  0.74337151637E+01 -0.13753525122E+02  0.26792524999E+02  0.96087416277E+02  0.90942468608E+02 0.  0.
        -11    1    3    3    0    0 -0.55997184062E+02  0.18072465292E+01 -0.78497737283E+02  0.96440891335E+02  0.00000000000E+00 0.  1.
         11    1    3    3    0    0  0.28259418986E+02  0.31282612456E+02 -0.10149675195E+03  0.10990353616E+03  0.00000000000E+00 0. -1.
        -11    1    4    4    0    0 -0.30560197547E+02  0.19324829416E+02  0.27945947496E+02  0.45698475768E+02  0.00000000000E+00 0.  1.
         11    1    4    4    0    0  0.37993912711E+02 -0.33078354539E+02 -0.11534224976E+01  0.50388940508E+02  0.00000000000E+00 0. -1.
         -1    1    1    2    0  502  0.20304049912E+02 -0.19336333863E+02 -0.19717707149E+02  0.34277342740E+02  0.00000000000E+00 0.  1.
<scales pt_clust_5="13000.00000" pt_clust_6="13000.00000" pt_clust_7="13000.00000" pt_clust_8="13000.00000" pt_clust_9="28.03835"></scales>
<clustering>
<clus scale="   28.038">  1  9  2 -1</clus>
<clus scale="   90.942">  7  8 -1 -1</clus>
<clus scale="   91.190">  5  6 -1 -1</clus>
<clus scale="   98.664">  1  7  2 -1</clus>
<clus scale="   28.038">  1  5  2 -1</clus>
</clustering>
</event>
<event>
 9    1  0.1315259E-005  0.1271730E+03  0.7546771E-02  0.1231992E+00
          2   -1    0    0  502    0 -0.00000000000E+00  0.00000000000E+00  0.16739037591E+03  0.16739037591E+03  0.00000000000E+00 0. -1.
         21   -1    0    0  501  502  0.00000000000E+00 -0.00000000000E+00 -0.27730233942E+03  0.27730233942E+03  0.00000000000E+00 0.  1.
         23    2    1    2    0    0  0.85670281465E+02 -0.54357528140E+02  0.98154075738E+02  0.16649014389E+03  0.88264417736E+02 0.  0.
         23    2    1    2    0    0 -0.49531151092E+02 -0.12336278259E+02 -0.15341398617E+03  0.18470953714E+03  0.89309816193E+02 0.  0.
        -13    1    4    4    0    0 -0.88971925236E+01  0.19810139459E+02 -0.12242703583E+03  0.12433817098E+03  0.00000000000E+00 0.  1.
         13    1    4    4    0    0 -0.40633958568E+02 -0.32146417718E+02 -0.30986950341E+02  0.60371366164E+02  0.00000000000E+00 0. -1.
        -13    1    3    3    0    0 -0.72840037895E+01 -0.34031652290E+02  0.46933422578E+02  0.58429070022E+02  0.00000000000E+00 0.  1.
         13    1    3    3    0    0  0.92954285255E+02 -0.20325875850E+02  0.51220653160E+02  0.10806107387E+03  0.00000000000E+00 0. -1.
          2    1    1    2  501    0 -0.36139130373E+02  0.66693806399E+02 -0.54652053075E+02  0.93493034294E+02  0.00000000000E+00 0. -1.
<scales pt_clust_5="13000.00000" pt_clust_6="13000.00000" pt_clust_7="13000.00000" pt_clust_8="13000.00000" pt_clust_9="75.85579"></scales>
<clustering>
<clus scale="   75.856">  2  9  1 -1</clus>
<clus scale="   88.264">  7  8 -1 -1</clus>
<clus scale="   89.310">  5  6 -1 -1</clus>
<clus scale="  126.441">  1  7  2 -1</clus>
<clus scale="   75.856">  2  5  1 -1</clus>
</clustering>
</event>
<event>
 9    1  0.1315259E-005  0.2336057E+03  0.7546771E-02  0.1124133E+00
         21   -1    0    0  501  502  0.00000000000E+00  0.00000000000E+00  0.26945637989E+03  0.26945637989E+03  0.00000000000E+00 0. -1.
          1   -1    0    0  502    0 -0.00000000000E+00 -0.00000000000E+00 -0.39616699043E+03  0.39616699043E+03  0.00000000000E+00 0. -1.
         23    2    1    2    0    0 -0.14185611301E+03  0.18503528779E+03 -0.21236024645E+03  0.32863706091E+03  0.92434998815E+02 0.  0.
         23    2    1    2    0    0  0.45090483555E+02 -0.18540240710E+03  0.67983681777E+01  0.21216145514E+03  0.92515193185E+02 0.  0.
        -11    1    3    3    0    0 -0.30114867758E+02  0.42917786156E+00 -0.50843869534E+02  0.59094741922E+02  0.00000000000E+00 0.  1.
         11    1    3    3    0    0 -0.11174124525E+03  0.18460610993E+03 -0.16151637692E+03  0.26954231899E+03  0.00000000000E+00 0. -1.
        -11    1    4    4    0    0  0.22968475942E+02 -0.18148534470E+03  0.23125814335E+02  0.18438894901E+03  0.00000000000E+00 0. -1.
         11    1    4    4    0    0  0.22122007612E+02 -0.39170624022E+01 -0.16327446157E+02  0.27772506129E+02  0.00000000000E+00 0.  1.
          1    1    1    2  501    0  0.96765629454E+02  0.36711931315E+00  0.78851267727E+02  0.12482485427E+03  0.00000000000E+00 0. -1.
<scales pt_clust_5="13000.00000" pt_clust_6="13000.00000" pt_clust_7="13000.00000" pt_clust_8="13000.00000" pt_clust_9="96.76633"></scales>
<clustering>
<clus scale="   92.435">  5  6 -1 -1</clus>
<clus scale="   92.515">  7  8 -1 -1</clus>
<clus scale="   96.766">  1  9  2 -1</clus>
<clus scale="  233.574">  2  5  1 -1</clus>
<clus scale="   96.766">  1  5  2 -1</clus>
</clustering>
</event>
<event>
 9    1  0.1315259E-005  0.1804111E+03  0.7546771E-02  0.1167587E+00
         21   -1    0    0  501  502  0.00000000000E+00  0.00000000000E+00  0.14753716201E+03  0.14753716201E+03  0.00000000000E+00 0.  1.
          2   -1    0    0  502    0 -0.00000000000E+00 -0.00000000000E+00 -0.33765132773E+03  0.33765132773E+03  0.00000000000E+00 0. -1.
         23    2    1    2    0    0 -0.13911302560E+02  0.16078906168E+03 -0.12085843736E+03  0.22140280466E+03  0.91464710883E+02 0.  0.
         23    2    1    2    0    0  0.54532678608E+02 -0.14259409766E+03 -0.10563030061E+03  0.20630297103E+03  0.89979251631E+02 0.  0.
        -11    1    3    3    0    0  0.19347790771E+02  0.12843962243E+03 -0.55496621915E+02  0.14124782711E+03  0.00000000000E+00 0.  1.
         11    1    3    3    0    0 -0.33259093330E+02  0.32349439246E+02 -0.65361815446E+02  0.80154977556E+02  0.00000000000E+00 0. -1.
        -11    1    4    4    0    0  0.71728217354E+02 -0.92454896546E+02 -0.44003746828E+02  0.12501669806E+03  0.00000000000E+00 0. -1.
         11    1    4    4    0    0 -0.17195538747E+02 -0.50139201119E+02 -0.61626553781E+02  0.81286272965E+02  0.00000000000E+00 0.  1.
          2    1    1    2  501    0 -0.40621376048E+02 -0.18194964014E+02  0.36374572250E+02  0.57482714044E+02  0.00000000000E+00 0. -1.
<scales pt_clust_5="13000.00000" pt_clust_6="13000.00000" pt_clust_7="13000.00000" pt_clust_8="13000.00000" pt_clust_9="44.51014"></scales>
<clustering>
<clus scale="   44.510">  1  9  2 -1</clus>
<clus scale="   89.979">  7  8 -1 -1</clus>
<clus scale="   91.465">  5  6 -1 -1</clus>
<clus scale="  179.663">  1  7  2 -1</clus>
<clus scale="   44.510">  1  5  2 -1</clus>
</clustering>
</event>
<event>
 9    1  0.1315259E-005  0.1154611E+03  0.7546771E-02  0.1252630E+00
         21   -1    0    0  501  502  0.00000000000E+00  0.00000000000E+00  0.79791001253E+02  0.79791001253E+02  0.00000000000E+00 0.  1.
         -1   -1    0    0    0  501 -0.00000000000E+00 -0.00000000000E+00 -0.60590069293E+03  0.60590069293E+03  0.00000000000E+00 0.  1.
         23    2    1    2    0    0  0.72839226717E+02  0.23279570966E+02 -0.40726876756E+03  0.42385319783E+03  0.89085312519E+02 0.  0.
         23    2    1    2    0    0 -0.51047287572E+02  0.43100257081E+01 -0.16924695971E+03  0.20038247238E+03  0.94256034163E+02 0.  0.
        -11    1    3    3    0    0  0.29786626354E+02  0.55776832342E+02 -0.23296862250E+03  0.24139734300E+03  0.00000000000E+00 0.  1.
         11    1    3    3    0    0  0.43052600364E+02 -0.32497261376E+02 -0.17430014506E+03  0.18245585483E+03  0.00000000000E+00 0. -1.
        -13    1    4    4    0    0  0.24027796284E+02  0.10511808416E+02 -0.19253654879E+02  0.32535155396E+02  0.00000000000E+00 0.  1.
         13    1    4    4    0    0 -0.75075083856E+02 -0.62017827077E+01 -0.14999330483E+03  0.16784731699E+03  0.00000000000E+00 0. -1.
         -1    1    1    2    0  502 -0.21791939146E+02 -0.27589596675E+02  0.50406035602E+02  0.61456023965E+02  0.00000000000E+00 0.  1.
<scales pt_clust_5="13000.00000" pt_clust_6="13000.00000" pt_clust_7="13000.00000" pt_clust_8="13000.00000" pt_clust_9="35.15785"></scales>
<clustering>
<clus scale="   35.158">  1  9  2 -1</clus>
<clus scale="   89.085">  5  6 -1 -1</clus>
<clus scale="   94.256">  7  8 -1 -1</clus>
<clus scale="  111.280">  2  5  1 -1</clus>
<clus scale="   35.158">  1  5  2 -1</clus>
</clustering>
</event>
<event>
 9    1  0.1315259E-005  0.9731983E+02  0.7546771E-02  0.1286797E+00
          1   -1    0    0  502    0 -0.00000000000E+00  0.00000000000E+00  0.32076275024E+03  0.32076275024E+03  0.00000000000E+00 0. -1.
         21   -1    0    0  501  502  0.00000000000E+00 -0.00000000000E+00 -0.87420973432E+02  0.87420973432E+02  0.00000000000E+00 0. -1.
         23    2    1    2    0    0  0.26904735650E+02  0.98746725921E+01  0.24170526045E+03  0.26068117336E+03  0.93337383998E+02 0.  0.
         23    2    1    2    0    0 -0.59180948281E+01 -0.34295209968E+02 -0.36421477809E+02  0.10479361946E+03  0.91891203929E+02 0.  0.
        -11    1    4    4    0    0  0.33567008023E+02  0.71947058242E+01 -0.32678173641E+02  0.47395894886E+02  0.00000000000E+00 0.  1.
         11    1    4    4    0    0 -0.39485102851E+02 -0.41489915793E+02 -0.37433041686E+01  0.57397724570E+02  0.00000000000E+00 0. -1.
        -13    1    3    3    0    0  0.61658422424E+02  0.10478034385E+01  0.15883173772E+03  0.17038303864E+03  0.00000000000E+00 0. -1.
         13    1    3    3    0    0 -0.34753686773E+02  0.88268691536E+01  0.82873522733E+02  0.90298134719E+02  0.00000000000E+00 0.  1.
          1    1    1    2  501    0 -0.20986640822E+02  0.24420537376E+02  0.28057994159E+02  0.42708930857E+02  0.00000000000E+00 0. -1.
<scales pt_clust_5="13000.00000" pt_clust_6="13000.00000" pt_clust_7="13000.00000" pt_clust_8="13000.00000" pt_clust_9="32.19942"></scales>
<clustering>
<clus scale="   32.199">  2  9  1 -1</clus>
<clus scale="   91.891">  5  6 -1 -1</clus>
<clus scale="   93.337">  7  8 -1 -1</clus>
<clus scale="   95.934">  2  5  1 -1</clus>
<clus scale="   32.199">  2  5  1 -1</clus>
</clustering>
</event>
<event>
 9    1  0.1315259E-005  0.1511143E+03  0.7546771E-02  0.1217212E+00
         21   -1    0    0  501  502  0.00000000000E+00  0.00000000000E+00  0.96315334278E+03  0.96315334278E+03  0.00000000000E+00 0.  1.
         -1   -1    0    0    0  501 -0.00000000000E+00 -0.00000000000E+00 -0.16883112472E+03  0.16883112472E+03  0.00000000000E+00 0.  1.
         23    2    1    2    0    0  0.45339406308E+02 -0.88474524033E+01 -0.12442860545E+03  0.16123729782E+03  0.91548070299E+02 0.  0.
         23    2    1    2    0    0  0.80110707149E+02  0.44516643787E+02  0.18322989783E+03  0.22375248810E+03  0.89958454291E+02 0.  0.
        -13    1    3    3    0    0  0.57826869316E+02  0.26197453920E+02 -0.63115488397E+02  0.89519932319E+02  0.00000000000E+00 0. -1.
         13    1    3    3    0    0 -0.12487463007E+02 -0.35044906324E+02 -0.61313117057E+02  0.71717365504E+02  0.00000000000E+00 0.  1.
        -13    1    4    4    0    0  0.23136639120E+02  0.51589172126E+02  0.39473100542E+02  0.68955582928E+02  0.00000000000E+00 0.  1.
         13    1    4    4    0    0  0.56974068030E+02 -0.70725283395E+01  0.14375679728E+03  0.15479690517E+03  0.00000000000E+00 0. -1.
         -1    1    1    2    0  502 -0.12545011346E+03 -0.35669191384E+02  0.73552092569E+03  0.74699468158E+03  0.00000000000E+00 0.  1.
<scales pt_clust_5="13000.00000" pt_clust_6="13000.00000" pt_clust_7="13000.00000" pt_clust_8="13000.00000" pt_clust_9="121.42075"></scales>
<clustering>
<clus scale="   89.958">  7  8 -1 -1</clus>
<clus scale="   91.548">  5  6 -1 -1</clus>
<clus scale="  102.543">  2  5  1 -1</clus>
<clus scale="  121.421">  1  9  2 -1</clus>
<clus scale="  121.421">  1  5  2 -1</clus>
</clustering>
</event>
<event>
 9    1  0.1315259E-005  0.1139310E+03  0.7546771E-02  0.1254100E+00
         21   -1    0    0  501  502  0.00000000000E+00  0.00000000000E+00  0.20741593191E+03  0.20741593191E+03  0.00000000000E+00 0.  1.
         -3   -1    0    0    0  501 -0.00000000000E+00 -0.00000000000E+00 -0.34007606477E+03  0.34007606477E+03  0.00000000000E+00 0.  1.
         23    2    1    2    0    0 -0.64610873403E+02  0.21800597070E+02 -0.29660148094E+03  0.31698071700E+03  0.88625647871E+02 0.  0.
         23    2    1    2    0    0  0.72404228125E+02 -0.41177929978E+02  0.86588114791E+02  0.15038799900E+03  0.90449181595E+02 0.  0.
        -13    1    3    3    0    0 -0.34605416432E+01 -0.30870504171E+02 -0.86824802610E+02  0.92214476762E+02  0.00000000000E+00 0.  1.
         13    1    3    3    0    0 -0.61150331760E+02  0.52671101241E+02 -0.20977667833E+03  0.22476624024E+03  0.00000000000E+00 0. -1.
        -13    1    4    4    0    0 -0.16265927068E+02 -0.17698820055E+02 -0.30352086677E+00  0.24039982106E+02  0.00000000000E+00 0.  1.
         13    1    4    4    0    0  0.88670155194E+02 -0.23479109924E+02  0.86891635658E+02  0.12634801689E+03  0.00000000000E+00 0. -1.
         -3    1    1    2    0  502 -0.77933547220E+01  0.19377332908E+02  0.77353233284E+02  0.80123280686E+02  0.00000000000E+00 0.  1.
<scales pt_clust_5="13000.00000" pt_clust_6="13000.00000" pt_clust_7="13000.00000" pt_clust_8="13000.00000" pt_clust_9="20.88582"></scales>
<clustering>
<clus scale="   20.886">  1  9  2 -1</clus>
<clus scale="   88.626">  5  6 -1 -1</clus>
<clus scale="   90.449">  7  8 -1 -1</clus>
<clus scale="  112.489">  2  5  1 -1</clus>
<clus scale="   20.886">  1  5  2 -1</clus>
</clustering>
</event>
<event>
 9    1  0.1315259E-005  0.1447868E+03  0.7546771E-02  0.1219955E+00
          1   -1    0    0  502    0 -0.00000000000E+00  0.00000000000E+00  0.32859414334E+03  0.32859414334E+03  0.00000000000E+00 0. -1.
         21   -1    0    0  501  502  0.00000000000E+00 -0.00000000000E+00 -0.26375248915E+03  0.26375248915E+03  0.00000000000E+00 0. -1.
         23    2    1    2    0    0  0.78001083743E+01  0.63245974024E+02  0.80507054089E+02  0.13634724788E+03  0.89712269649E+02 0.  0.
         23    2    1    2    0    0  0.10078131801E+03 -0.24367640360E+02  0.18148532009E+03  0.22759216629E+03  0.90058962869E+02 0.  0.
        -11    1    4    4    0    0  0.37250004932E+02 -0.51510080919E+02  0.57783798355E+02  0.85905870906E+02  0.00000000000E+00 0.  1.
         11    1    4    4    0    0  0.63531313079E+02  0.27142440559E+02  0.12370152174E+03  0.14168629539E+03  0.00000000000E+00 0. -1.
        -13    1    3    3    0    0 -0.37178028703E+02  0.73408690567E+01  0.22432430051E+02  0.44037575941E+02  0.00000000000E+00 0.  1.
         13    1    3    3    0    0  0.44978137078E+02  0.55905104967E+02  0.58074624038E+02  0.92309671939E+02  0.00000000000E+00 0. -1.
          1    1    1    2  501    0 -0.10858142639E+03 -0.38878333664E+02 -0.19715071999E+03  0.22840721831E+03  0.00000000000E+00 0. -1.
<scales pt_clust_5="13000.00000" pt_clust_6="13000.00000" pt_clust_7="13000.00000" pt_clust_8="13000.00000" pt_clust_9="113.36927"></scales>
<clustering>
<clus scale="   89.712">  7  8 -1 -1</clus>
<clus scale="   90.059">  5  6 -1 -1</clus>
<clus scale="  110.042">  1  7  2 -1</clus>
<clus scale="  113.369">  2  9  1 -1</clus>
<clus scale="  113.369">  2  5  1 -1</clus>
</clustering>
</event>
<event>
 9    1  0.1315259E-005  0.9513158E+02  0.7546771E-02  0.1291326E+00
         21   -1    0    0  501  502  0.00000000000E+00  0.00000000000E+00  0.38834977958E+02  0.38834977958E+02  0.00000000000E+00 0.  1.
          1   -1    0    0  502    0 -0.00000000000E+00 -0.00000000000E+00 -0.60030732759E+03  0.60030732759E+03  0.00000000000E+00 0. -1.
         23    2    1    2    0    0  0.25680881619E+02  0.21561082323E+02 -0.39080706741E+03  0.40267814267E+03  0.91077630030E+02 0.  0.
         23    2    1    2    0    0  0.16200783135E+01  0.24532783204E+02 -0.57232337315E+02  0.11101688375E+03  0.91895189954E+02 0.  0.
        -11    1    4    4    0    0 -0.28768159273E+02  0.29709382268E+02  0.49132133530E+01  0.41646056813E+02  0.00000000000E+00 0.  1.
         11    1    4    4    0    0  0.30388237586E+02 -0.51765990635E+01 -0.62145550668E+02  0.69370826933E+02  0.00000000000E+00 0. -1.
        -11    1    3    3    0    0  0.32541554883E+02 -0.29677430839E+02 -0.21314837613E+03  0.21765094289E+03  0.00000000000E+00 0.  1.
         11    1    3    3    0    0 -0.68606732634E+01  0.51238513161E+02 -0.17765869128E+03  0.18502719978E+03  0.00000000000E+00 0. -1.
          1    1    1    2  501    0 -0.27300959933E+02 -0.46093865527E+02 -0.11343294491E+03  0.12544727914E+03  0.00000000000E+00 0. -1.
<scales pt_clust_5="13000.00000" pt_clust_6="13000.00000" pt_clust_7="13000.00000" pt_clust_8="13000.00000" pt_clust_9="53.57229"></scales>
<clustering>
<clus scale="   53.572">  1  9  2 -1</clus>
<clus scale="   91.078">  7  8 -1 -1</clus>
<clus scale="   91.895">  5  6 -1 -1</clus>
<clus scale="   94.342">  2  7  1 -1</clus>
<clus scale="   53.572">  1  5  2 -1</clus>
</clustering>
</event>
<event>
 9    1  0.1315259E-005  0.9467239E+02  0.7546771E-02  0.1296474E+00
         -1   -1    0    0    0  501 -0.00000000000E+00  0.00000000000E+00  0.35054632516E+03  0.35054632516E+03  0.00000000000E+00 0.  1.
         21   -1    0    0  501  502  0.00000000000E+00 -0.00000000000E+00 -0.31860602308E+02  0.31860602308E+02  0.00000000000E+00 0.  1.
         23    2    1    2    0    0 -0.93485748189E+01  0.18315710631E+02  0.17574457064E+03  0.19576924300E+03  0.83765036212E+02 0.  0.
         23    2    1    2    0    0 -0.76952688021E+01 -0.31318435571E+02  0.12686245767E+03  0.15984052269E+03  0.91732480381E+02 0.  0.
        -11    1    4    4    0    0 -0.41923065803E+02 -0.16571394866E+02  0.25384758849E+02  0.51735293136E+02  0.00000000000E+00 0.  1.
         11    1    4    4    0    0  0.34227797000E+02 -0.14747040705E+02  0.10147769883E+03  0.10810522955E+03  0.00000000000E+00 0. -1.
        -11    1    3    3    0    0 -0.44513973400E+02 -0.14051913690E+00  0.71601627256E+02  0.84310773921E+02  0.00000000000E+00 0.  1.
         11    1    3    3    0    0  0.35165398581E+02  0.18456229768E+02  0.10414294338E+03  0.11145846908E+03  0.00000000000E+00 0. -1.
         -1    1    1    2    0  502  0.17043843621E+02  0.13002724940E+02  0.16078694545E+02  0.26797161781E+02  0.00000000000E+00 0.  1.
<scales pt_clust_5="13000.00000" pt_clust_6="13000.00000" pt_clust_7="13000.00000" pt_clust_8="13000.00000" pt_clust_9="21.43743"></scales>
<clustering>
<clus scale="   21.437">  2  9  1 -1</clus>
<clus scale="   83.765">  7  8 -1 -1</clus>
<clus scale="   86.975">  1  7  2 -1</clus>
<clus scale="   91.732">  5  6 -1 -1</clus>
<clus scale="   21.437">  2  5  1 -1</clus>
</clustering>
</event>
<event>
 9    1  0.1315259E-005  0.1308956E+03  0.7546771E-02  0.1230015E+00
          1   -1    0    0  502    0 -0.00000000000E+00  0.00000000000E+00  0.38813815639E+03  0.38813815639E+03  0.00000000000E+00 0. -1.
         21   -1    0    0  501  502  0.00000000000E+00 -0.00000000000E+00 -0.67218124631E+02  0.67218124631E+02  0.00000000000E+00 0.  1.
         23    2    1    2    0    0 -0.42498245646E+02  0.53268440736E+02  0.19263074519E+03  0.22896305544E+03  0.10331432187E+03 0.  0.
         23    2    1    2    0    0  0.39447517788E+02 -0.95237855927E+02  0.12282734781E+03  0.18396008374E+03  0.90157635152E+02 0.  0.
        -11    1    4    4    0    0  0.38265738086E+02 -0.45111115674E+01  0.11235151062E+02  0.40135339269E+02  0.00000000000E+00 0.  1.
         11    1    4    4    0    0  0.11817797026E+01 -0.90726744360E+02  0.11159219675E+03  0.14382474447E+03  0.00000000000E+00 0. -1.
        -13    1    3    3    0    0  0.12259260036E+02 -0.24863303442E+02  0.53590042130E+02  0.60335445057E+02  0.00000000000E+00 0. -1.
         13    1    3    3    0    0 -0.54757505683E+02  0.78131744178E+02  0.13904070306E+03  0.16862761038E+03  0.00000000000E+00 0.  1.
          1    1    1    2  501    0  0.30507278579E+01  0.41969415191E+02  0.54619387614E+01  0.42433141847E+02  0.00000000000E+00 0. -1.
<scales pt_clust_5="13000.00000" pt_clust_6="13000.00000" pt_clust_7="13000.00000" pt_clust_8="13000.00000" pt_clust_9="42.08015"></scales>
<clustering>
<clus scale="   42.080">  2  9  1 -1</clus>
<clus scale="   90.158">  5  6 -1 -1</clus>
<clus scale="  103.314">  7  8 -1 -1</clus>
<clus scale="  120.782">  2  5  1 -1</clus>
<clus scale="   42.080">  2  5  1 -1</clus>
</clustering>
</event>
<event>
 9    1  0.1315259E-005  0.2146396E+03  0.7546771E-02  0.1138147E+00
          3   -1    0    0  502    0 -0.00000000000E+00  0.00000000000E+00  0.86820414566E+03  0.86820414566E+03  0.00000000000E+00 0. -1.
         21   -1    0    0  501  502  0.00000000000E+00 -0.00000000000E+00 -0.10769417269E+03  0.10769417269E+03  0.00000000000E+00 0. -1.
         23    2    1    2    0    0 -0.11242593647E+03 -0.14207203021E+03  0.44306980664E+03  0.48760511681E+03  0.92864651104E+02 0.  0.
         23    2    1    2    0    0  0.21543929232E+03  0.10223400200E+03  0.25839584553E+03  0.36305322472E+03  0.90406587957E+02 0.  0.
        -13    1    4    4    0    0  0.71806094711E+02  0.10122340603E+01  0.11801060933E+03  0.13814356217E+03  0.00000000000E+00 0.  1.
         13    1    4    4    0    0  0.14363319761E+03  0.10122176794E+03  0.14038523620E+03  0.22490966254E+03  0.00000000000E+00 0. -1.
        -13    1    3    3    0    0 -0.47799223032E+02 -0.12859212702E+03  0.31281075552E+03  0.34157176351E+03  0.00000000000E+00 0. -1.
         13    1    3    3    0    0 -0.64626713435E+02 -0.13479903194E+02  0.13025905111E+03  0.14603335330E+03  0.00000000000E+00 0.  1.
          3    1    1    2  501    0 -0.10301335586E+03  0.39838028214E+02  0.59044320798E+02  0.12523997683E+03  0.00000000000E+00 0. -1.
<scales pt_clust_5="13000.00000" pt_clust_6="13000.00000" pt_clust_7="13000.00000" pt_clust_8="13000.00000" pt_clust_9="110.44827"></scales>
<clustering>
<clus scale="   90.407">  5  6 -1 -1</clus>
<clus scale="   92.865">  7  8 -1 -1</clus>
<clus scale="  110.448">  2  9  1 -1</clus>
<clus scale="  213.588">  2  5  1 -1</clus>
<clus scale="  110.448">  2  5  1 -1</clus>
</clustering>
</event>
<event>
 9    1  0.1315259E-005  0.9965508E+02  0.7546771E-02  0.1281623E+00
          1   -1    0    0  502    0 -0.00000000000E+00  0.00000000000E+00  0.23437414488E+03  0.23437414488E+03  0.00000000000E+00 0. -1.
         21   -1    0    0  501  502  0.00000000000E+00 -0.00000000000E+00 -0.16814229585E+03  0.16814229585E+03  0.00000000000E+00 0. -1.
         23    2    1    2    0    0 -0.36584994376E+02  0.44724787923E+02  0.11895135217E+03  0.15980837062E+03  0.89724704902E+02 0.  0.
         23    2    1    2    0    0  0.17044304399E+02 -0.12890127871E+02  0.68503767488E+02  0.11586026569E+03  0.90962471912E+02 0.  0.
        -11    1    3    3    0    0  0.14177822801E+02 -0.19034652948E+02  0.16555699858E+02  0.28938207789E+02  0.00000000000E+00 0.  1.
         11    1    3    3    0    0 -0.50762817176E+02  0.63759440871E+02  0.10239565231E+03  0.13087016283E+03  0.00000000000E+00 0. -1.
        -13    1    4    4    0    0  0.39676511108E+02  0.23674781543E+02  0.18142466106E+02  0.49637384009E+02  0.00000000000E+00 0.  1.
         13    1    4    4    0    0 -0.22632206709E+02 -0.36564909414E+02  0.50361301382E+02  0.66222881679E+02  0.00000000000E+00 0. -1.
          1    1    1    2  501    0  0.19540689976E+02 -0.31834660052E+02 -0.12122327063E+03  0.12684780442E+03  0.00000000000E+00 0. -1.
<scales pt_clust_5="13000.00000" pt_clust_6="13000.00000" pt_clust_7="13000.00000" pt_clust_8="13000.00000" pt_clust_9="37.35350"></scales>
<clustering>
<clus scale="   37.354">  2  9  1 -1</clus>
<clus scale="   89.725">  5  6 -1 -1</clus>
<clus scale="   90.962">  7  8 -1 -1</clus>
<clus scale="   98.527">  1  5  2 -1</clus>
<clus scale="   37.354">  2  5  1 -1</clus>
</clustering>
</event>
<event>
 9    1  0.1315259E-005  0.1354389E+03  0.7546771E-02  0.1224151E+00
          3   -1    0    0  502    0 -0.00000000000E+00  0.00000000000E+00  0.35231434717E+03  0.35231434717E+03  0.00000000000E+00 0. -1.
         21   -1    0    0  501  502  0.00000000000E+00 -0.00000000000E+00 -0.16384805361E+03  0.16384805361E+03  0.00000000000E+00 0. -1.
         23    2    1    2    0    0 -0.41739621892E+02  0.84039402713E+02  0.15563741565E+03  0.20308260814E+03  0.90635110933E+02 0.  0.
         23    2    1    2    0    0  0.20752439966E+02 -0.10773744316E+03  0.14578733468E+03  0.19576964014E+03  0.70949169308E+02 0.  0.
        -11    1    4    4    0    0  0.69799935730E+00 -0.11038017033E+03  0.12510999855E+03  0.16684358227E+03  0.00000000000E+00 0.  1.
         11    1    4    4    0    0  0.20054440609E+02  0.26427271697E+01  0.20677336122E+02  0.28926057874E+02  0.00000000000E+00 0. -1.
        -13    1    3    3    0    0  0.12321877603E+02  0.21891001150E+02  0.10138314202E+03  0.10444896402E+03  0.00000000000E+00 0.  1.
         13    1    3    3    0    0 -0.54061499495E+02  0.62148401563E+02  0.54254273627E+02  0.98633644115E+02  0.00000000000E+00 0. -1.
          3    1    1    2  501    0  0.20987181926E+02  0.23698040449E+02 -0.11295845676E+03  0.11731015250E+03  0.00000000000E+00 0. -1.
<scales pt_clust_5="13000.00000" pt_clust_6="13000.00000" pt_clust_7="13000.00000" pt_clust_8="13000.00000" pt_clust_9="31.65531"></scales>
<clustering>
<clus scale="   31.655">  2  9  1 -1</clus>
<clus scale="   70.949">  5  6 -1 -1</clus>
<clus scale="   90.635">  7  8 -1 -1</clus>
<clus scale="  123.137">  2  5  1 -1</clus>
<clus scale="   31.655">  2  5  1 -1</clus>
</clustering>
</event>
<event>
 9    1  0.1315259E-005  0.1022487E+03  0.7546771E-02  0.1275847E+00
         21   -1    0    0  501  502  0.00000000000E+00  0.00000000000E+00  0.68381512068E+02  0.68381512068E+02  0.00000000000E+00 0. -1.
         -1   -1    0    0    0  501 -0.00000000000E+00 -0.00000000000E+00 -0.40991003550E+03  0.40991003550E+03  0.00000000000E+00 0.  1.
         23    2    1    2    0    0 -0.41941889901E+02  0.38488471058E+01 -0.32776890482E+03  0.34300165670E+03  0.91889856780E+02 0.  0.
         23    2    1    2    0    0  0.57606917329E+02  0.11648914602E+02 -0.28450775154E+00  0.10946059906E+03  0.92343314145E+02 0.  0.
        -11    1    4    4    0    0  0.22995574740E+02 -0.13420722604E+02  0.41749207596E+02  0.49516750578E+02  0.00000000000E+00 0. -1.
         11    1    4    4    0    0  0.34611342589E+02  0.25069637206E+02 -0.42033715348E+02  0.59943848486E+02  0.00000000000E+00 0.  1.
        -13    1    3    3    0    0 -0.28687002326E+02  0.46453556575E+02 -0.14712169092E+03  0.15692567973E+03  0.00000000000E+00 0. -1.
         13    1    3    3    0    0 -0.13254887575E+02 -0.42604709469E+02 -0.18064721391E+03  0.18607597697E+03  0.00000000000E+00 0.  1.
         -1    1    1    2    0  502 -0.15665027428E+02 -0.15497761707E+02 -0.13475110855E+02  0.25829291799E+02  0.00000000000E+00 0.  1.
<scales pt_clust_5="13000.00000" pt_clust_6="13000.00000" pt_clust_7="13000.00000" pt_clust_8="13000.00000" pt_clust_9="22.03574"></scales>
<clustering>
<clus scale="   22.036">  1  9  2 -1</clus>
<clus scale="   91.890">  7  8 -1 -1</clus>
<clus scale="   92.343">  5  6 -1 -1</clus>
<clus scale="  101.839">  2  7  1 -1</clus>
<clus scale="   22.036">  1  5  2 -1</clus>
</clustering>
</event>
<event>
 9    1  0.1315259E-005  0.1510309E+03  0.7546771E-02  0.1220505E+00
         -1   -1    0    0    0  501 -0.00000000000E+00  0.00000000000E+00  0.56256060997E+03  0.56256060997E+03  0.00000000000E+00 0.  1.
         21   -1    0    0  501  502  0.00000000000E+00 -0.00000000000E+00 -0.69557057407E+02  0.69557057407E+02  0.00000000000E+00 0.  1.
         23    2    1    2    0    0  0.21826701856E+02 -0.41890708479E+02  0.12526441017E+03  0.15772203000E+03  0.83389627191E+02 0.  0.
         23    2    1    2    0    0 -0.13477979066E+03  0.18382785749E+02  0.29539309792E+03  0.33821570914E+03  0.92893836356E+02 0.  0.
        -11    1    4    4    0    0 -0.90230451054E+02  0.37849035893E+02  0.11310280355E+03  0.14955376286E+03  0.00000000000E+00 0. -1.
         11    1    4    4    0    0 -0.44549339604E+02 -0.19466250144E+02  0.18229029437E+03  0.18866194629E+03  0.00000000000E+00 0.  1.
        -13    1    3    3    0    0 -0.28430042523E+02 -0.19456934766E+02  0.22497958253E+02  0.41146053929E+02  0.00000000000E+00 0. -1.
         13    1    3    3    0    0  0.50256744380E+02 -0.22433773714E+02  0.10276645192E+03  0.11657597608E+03  0.00000000000E+00 0.  1.
         -1    1    1    2    0  502  0.11295308880E+03  0.23507922730E+02  0.72346044478E+02  0.13617992823E+03  0.00000000000E+00 0.  1.
<scales pt_clust_5="13000.00000" pt_clust_6="13000.00000" pt_clust_7="13000.00000" pt_clust_8="13000.00000" pt_clust_9="119.08435"></scales>
<clustering>
<clus scale="   83.390">  7  8 -1 -1</clus>
<clus scale="   92.894">  5  6 -1 -1</clus>
<clus scale="   95.839">  1  7  2 -1</clus>
<clus scale="  119.084">  2  9  1 -1</clus>
<clus scale="  119.084">  2  5  1 -1</clus>
</clustering>
</event>
<event>
 9    1  0.1315259E-005  0.1278678E+03  0.7546771E-02  0.1230682E+00
         21   -1    0    0  501  502  0.00000000000E+00  0.00000000000E+00  0.40429478708E+02  0.40429478708E+02  0.00000000000E+00 0.  1.
         -1   -1    0    0    0  501 -0.00000000000E+00 -0.00000000000E+00 -0.10053511845E+04  0.10053511845E+04  0.00000000000E+00 0.  1.
         23    2    1    2    0    0 -0.80159883481E+02  0.71689454535E+02 -0.69115518168E+03  0.70532017274E+03  0.90642573283E+02 0.  0.
         23    2    1    2    0    0  0.47287105946E+02 -0.42548105783E+02 -0.27502509337E+03  0.29651254731E+03  0.90744019275E+02 0.  0.
        -11    1    3    3    0    0 -0.22802973962E+02 -0.19637049175E+02 -0.10082416074E+03  0.10521929819E+03  0.00000000000E+00 0. -1.
         11    1    3    3    0    0 -0.57356909519E+02  0.91326503710E+02 -0.59033102094E+03  0.60010087455E+03  0.00000000000E+00 0.  1.
        -11    1    4    4    0    0  0.67042490535E+02 -0.49557753262E+02 -0.25171963585E+03  0.26516681828E+03  0.00000000000E+00 0.  1.
         11    1    4    4    0    0 -0.19755384589E+02  0.70096474792E+01 -0.23305457522E+02  0.31345729029E+02  0.00000000000E+00 0. -1.
         -1    1    1    2    0  502  0.32872777535E+02 -0.29141348752E+02  0.12585692790E+01  0.43947943144E+02  0.00000000000E+00 0.  1.
<scales pt_clust_5="13000.00000" pt_clust_6="13000.00000" pt_clust_7="13000.00000" pt_clust_8="13000.00000" pt_clust_9="43.92992"></scales>
<clustering>
<clus scale="   43.930">  1  9  2 -1</clus>
<clus scale="   90.643">  5  6 -1 -1</clus>
<clus scale="   90.744">  7  8 -1 -1</clus>
<clus scale="  127.796">  2  5  1 -1</clus>
<clus scale="   43.930">  1  5  2 -1</clus>
</clustering>
</event>
<event>
 9    1  0.1315259E-005  0.2350442E+03  0.7546771E-02  0.1123980E+00
          2   -1    0    0  502    0 -0.00000000000E+00  0.00000000000E+00  0.77089938762E+03  0.77089938762E+03  0.00000000000E+00 0. -1.
         21   -1    0    0  501  502  0.00000000000E+00 -0.00000000000E+00 -0.17714655466E+03  0.17714655466E+03  0.00000000000E+00 0.  1.
         23    2    1    2    0    0 -0.17393682547E+03 -0.11010693983E+03  0.56662784020E+03  0.60963279651E+03  0.90595142484E+02 0.  0.
         23    2    1    2    0    0  0.20519654626E+03  0.14447223378E+03 -0.20625275675E+02  0.27179309093E+03  0.10231438488E+03 0.  0.
        -11    1    3    3    0    0 -0.45680835133E+02 -0.22672129124E+02  0.27073790540E+03  0.27549914257E+03  0.00000000000E+00 0. -1.
         11    1    3    3    0    0 -0.12825599034E+03 -0.87434810704E+02  0.29588993480E+03  0.33413365394E+03  0.00000000000E+00 0.  1.
        -13    1    4    4    0    0  0.14693620300E+03  0.13842186474E+03 -0.47448555998E+02  0.20736978048E+03  0.00000000000E+00 0.  1.
         13    1    4    4    0    0  0.58260343261E+02  0.60503690350E+01  0.26823280323E+02  0.64423310453E+02  0.00000000000E+00 0. -1.
          2    1    1    2  501    0 -0.31259720787E+02 -0.34365293948E+02  0.47750268437E+02  0.66620054845E+02  0.00000000000E+00 0. -1.
<scales pt_clust_5="13000.00000" pt_clust_6="13000.00000" pt_clust_7="13000.00000" pt_clust_8="13000.00000" pt_clust_9="46.45585"></scales>
<clustering>
<clus scale="   46.456">  2  9  1 -1</clus>
<clus scale="   90.595">  5  6 -1 -1</clus>
<clus scale="  102.314">  7  8 -1 -1</clus>
<clus scale="  230.185">  1  5  2 -1</clus>
<clus scale="   46.456">  2  5  1 -1</clus>
</clustering>
</event>
<event>
 9    1  0.1315259E-005  0.1343005E+03  0.7546771E-02  0.1221840E+00
          1   -1    0    0  502    0 -0.00000000000E+00  0.00000000000E+00  0.57923418738E+03  0.57923418738E+03  0.00000000000E+00 0. -1.
         21   -1    0    0  501  502  0.00000000000E+00 -0.00000000000E+00 -0.42575493634E+02  0.42575493634E+02  0.00000000000E+00 0.  1.
         23    2    1    2    0    0 -0.92430588206E+02 -0.27168944727E+02  0.28341574540E+03  0.31330934321E+03  0.92502403243E+02 0.  0.
         23    2    1    2    0    0  0.79895064782E+02  0.52316001006E+02  0.24436136862E+03  0.27903177412E+03  0.95005616466E+02 0.  0.
        -11    1    3    3    0    0 -0.64582295967E+02  0.22692328343E+02  0.99824909950E+02  0.12104060213E+03  0.00000000000E+00 0. -1.
         11    1    3    3    0    0 -0.27848292240E+02 -0.49861273069E+02  0.18359083545E+03  0.19226874108E+03  0.00000000000E+00 0.  1.
        -13    1    4    4    0    0  0.46581939879E+02 -0.11201113050E+02  0.39877635604E+02  0.62334323433E+02  0.00000000000E+00 0.  1.
         13    1    4    4    0    0  0.33313124903E+02  0.63517114056E+02  0.20448373301E+03  0.21669745069E+03  0.00000000000E+00 0. -1.
          1    1    1    2  501    0  0.12535523424E+02 -0.25147056280E+02  0.88815797248E+01  0.29468563682E+02  0.00000000000E+00 0. -1.
<scales pt_clust_5="13000.00000" pt_clust_6="13000.00000" pt_clust_7="13000.00000" pt_clust_8="13000.00000" pt_clust_9="28.09829"></scales>
<clustering>
<clus scale="   28.098">  2  9  1 -1</clus>
<clus scale="   92.502">  5  6 -1 -1</clus>
<clus scale="   95.006">  7  8 -1 -1</clus>
<clus scale="  132.541">  1  5  2 -1</clus>
<clus scale="   28.098">  2  5  1 -1</clus>
</clustering>
</event>
<event>
 9    1  0.1315259E-005  0.2358937E+03  0.7546771E-02  0.1122610E+00
          2   -1    0    0  502    0 -0.00000000000E+00  0.00000000000E+00  0.72292814352E+03  0.72292814352E+03  0.00000000000E+00 0. -1.
         21   -1    0    0  501  502  0.00000000000E+00 -0.00000000000E+00 -0.24643736455E+03  0.24643736455E+03  0.00000000000E+00 0.  1.
         23    2    1    2    0    0  0.97761093012E+02 -0.19222147664E+03  0.55422612619E+03  0.60155864707E+03  0.90553186144E+02 0.  0.
         23    2    1    2    0    0 -0.15319277588E+03  0.17454663150E+03  0.23905310871E+02  0.25069198152E+03  0.91326078207E+02 0.  0.
        -11    1    3    3    0    0  0.75360475425E+02 -0.81087068222E+02  0.18782814717E+03  0.21802230794E+03  0.00000000000E+00 0.  1.
         11    1    3    3    0    0  0.22400617587E+02 -0.11113440842E+03  0.36639797902E+03  0.38353633913E+03  0.00000000000E+00 0. -1.
        -13    1    4    4    0    0 -0.65995181492E+02  0.90311470223E+02 -0.33198616198E+02  0.11667764889E+03  0.00000000000E+00 0.  1.
         13    1    4    4    0    0 -0.87197594387E+02  0.84235161276E+02  0.57103927069E+02  0.13401433262E+03  0.00000000000E+00 0. -1.
          2    1    1    2  501    0  0.55431682867E+02  0.17674845143E+02 -0.10164065810E+03  0.11711487947E+03  0.00000000000E+00 0. -1.
<scales pt_clust_5="13000.00000" pt_clust_6="13000.00000" pt_clust_7="13000.00000" pt_clust_8="13000.00000" pt_clust_9="58.18137"></scales>
<clustering>
<clus scale="   58.181">  2  9  1 -1</clus>
<clus scale="   90.553">  5  6 -1 -1</clus>
<clus scale="   91.326">  7  8 -1 -1</clus>
<clus scale="  235.596">  1  5  2 -1</clus>
<clus scale="   58.181">  2  5  1 -1</clus>
</clustering>
</event>
<event>
 9    1  0.1315259E-005  0.1912965E+03  0.7546771E-02  0.1157380E+00
         21   -1    0    0  501  502  0.00000000000E+00  0.00000000000E+00  0.24145605538E+03  0.24145605538E+03  0.00000000000E+00 0.  1.
          3   -1    0    0  502    0 -0.00000000000E+00 -0.00000000000E+00 -0.29514931060E+03  0.29514931060E+03  0.00000000000E+00 0. -1.
         23    2    1    2    0    0  0.16533231920E+03 -0.18189024265E+02 -0.18619417412E+03  0.26616094915E+03  0.92237541160E+02 0.  0.
         23    2    1    2    0    0 -0.17505138500E+03 -0.17783401645E+02  0.10744552782E+03  0.22554176336E+03  0.91462062105E+02 0.  0.
        -11    1    3    3    0    0  0.14431747749E+03 -0.43870085270E+02 -0.12239877347E+03  0.19425132802E+03  0.00000000000E+00 0. -1.
         11    1    3    3    0    0  0.21014841711E+02  0.25681061005E+02 -0.63795400658E+02  0.71909621133E+02  0.00000000000E+00 0.  1.
        -11    1    4    4    0    0 -0.16519908093E+03  0.72922378924E+01  0.70368487378E+02  0.17970986921E+03  0.00000000000E+00 0.  1.
         11    1    4    4    0    0 -0.98523040730E+01 -0.25075639537E+02  0.37077040442E+02  0.45831894153E+02  0.00000000000E+00 0. -1.
          3    1    1    2  501    0  0.97190658041E+01  0.35972425910E+02  0.25055391088E+02  0.44902653469E+02  0.00000000000E+00 0. -1.
<scales pt_clust_5="13000.00000" pt_clust_6="13000.00000" pt_clust_7="13000.00000" pt_clust_8="13000.00000" pt_clust_9="37.26226"></scales>
<clustering>
<clus scale="   37.262">  1  9  2 -1</clus>
<clus scale="   91.462">  7  8 -1 -1</clus>
<clus scale="   92.238">  5  6 -1 -1</clus>
<clus scale="  190.924">  1  7  2 -1</clus>
<clus scale="   37.262">  1  5  2 -1</clus>
</clustering>
</event>
<event>
 9    1  0.1315259E-005  0.1080508E+03  0.7546771E-02  0.1265575E+00
         21   -1    0    0  501  502  0.00000000000E+00  0.00000000000E+00  0.43448970393E+02  0.43448970393E+02  0.00000000000E+00 0.  1.
          1   -1    0    0  502    0 -0.00000000000E+00 -0.00000000000E+00 -0.34340702238E+03  0.34340702238E+03  0.00000000000E+00 0. -1.
         23    2    1    2    0    0 -0.52379016988E+02  0.43200997639E+01 -0.19447864912E+03  0.22349652274E+03  0.96780814370E+02 0.  0.
         23    2    1    2    0    0  0.40311179452E+02  0.12165658857E+02 -0.77100895303E+02  0.12839159003E+03  0.93631500525E+02 0.  0.
        -11    1    3    3    0    0 -0.68114003741E+02 -0.25320536719E+02 -0.10297821588E+03  0.12603634409E+03  0.00000000000E+00 0. -1.
         11    1    3    3    0    0  0.15734986754E+02  0.29640636483E+02 -0.91500433245E+02  0.97460178654E+02  0.00000000000E+00 0.  1.
        -11    1    4    4    0    0 -0.20949116641E+02 -0.20114304931E+02 -0.70343262971E+01  0.29881976128E+02  0.00000000000E+00 0. -1.
         11    1    4    4    0    0  0.61260296092E+02  0.32279963788E+02 -0.70066569006E+02  0.98509613905E+02  0.00000000000E+00 0.  1.
          1    1    1    2  501    0  0.12067837536E+02 -0.16485758621E+02 -0.28378507560E+02  0.34967879996E+02  0.00000000000E+00 0. -1.
<scales pt_clust_5="13000.00000" pt_clust_6="13000.00000" pt_clust_7="13000.00000" pt_clust_8="13000.00000" pt_clust_9="20.43070"></scales>
<clustering>
<clus scale="   20.431">  1  9  2 -1</clus>
<clus scale="   93.632">  7  8 -1 -1</clus>
<clus scale="   96.781">  5  6 -1 -1</clus>
<clus scale="  105.239">  1  7  2 -1</clus>
<clus scale="   20.431">  1  5  2 -1</clus>
</clustering>
</event>
<event>
 9    1  0.1315259E-005  0.2370287E+03  0.7546771E-02  0.1121884E+00
         21   -1    0    0  501  502  0.00000000000E+00  0.00000000000E+00  0.11152347421E+03  0.11152347421E+03  0.00000000000E+00 0.  1.
          2   -1    0    0  502    0 -0.00000000000E+00 -0.00000000000E+00 -0.76603863121E+03  0.76603863121E+03  0.00000000000E+00 0. -1.
         23    2    1    2    0    0  0.19175486269E+03  0.10653376320E+03 -0.49492828359E+03  0.54912075633E+03  0.91979503503E+02 0.  0.
         23    2    1    2    0    0 -0.21007650325E+03 -0.64286621570E+02 -0.15120341272E+03  0.28163551716E+03  0.90505168783E+02 0.  0.
        -11    1    3    3    0    0 -0.66591354629E+01  0.19828493979E+02 -0.35073540795E+02  0.40837072893E+02  0.00000000000E+00 0.  1.
         11    1    3    3    0    0  0.19841399815E+03  0.86705269224E+02 -0.45985474280E+03  0.50828368344E+03  0.00000000000E+00 0. -1.
        -13    1    4    4    0    0 -0.15757347117E+03 -0.70904957321E+02 -0.73846681251E+02  0.18791020228E+03  0.00000000000E+00 0.  1.
         13    1    4    4    0    0 -0.52503032088E+02  0.66183357510E+01 -0.77356731472E+02  0.93725314886E+02  0.00000000000E+00 0. -1.
          2    1    1    2  501    0  0.18321640563E+02 -0.42247141634E+02 -0.83834606854E+01  0.46805831925E+02  0.00000000000E+00 0. -1.
<scales pt_clust_5="13000.00000" pt_clust_6="13000.00000" pt_clust_7="13000.00000" pt_clust_8="13000.00000" pt_clust_9="46.04892"></scales>
<clustering>
<clus scale="   46.049">  1  9  2 -1</clus>
<clus scale="   90.505">  7  8 -1 -1</clus>
<clus scale="   91.980">  5  6 -1 -1</clus>
<clus scale="  236.460">  1  7  2 -1</clus>
<clus scale="   46.049">  1  5  2 -1</clus>
</clustering>
</event>
<event>
 9    1  0.1315259E-005  0.1116612E+03  0.7546771E-02  0.1259802E+00
         21   -1    0    0  501  502  0.00000000000E+00  0.00000000000E+00  0.22534726881E+03  0.22534726881E+03  0.00000000000E+00 0.  1.
         -2   -1    0    0    0  501 -0.00000000000E+00 -0.00000000000E+00 -0.21276573228E+03  0.21276573228E+03  0.00000000000E+00 0.  1.
         23    2    1    2    0    0  0.55416360626E+02  0.14257283587E+01 -0.14914754801E+03  0.18543090190E+03  0.95218814194E+02 0.  0.
         23    2    1    2    0    0 -0.69019918788E+02 -0.48272659047E+02  0.53539772311E+02  0.13400346173E+03  0.89422713753E+02 0.  0.
        -13    1    4    4    0    0 -0.36282094786E+02  0.10221588536E+02  0.55326871376E+02  0.66947247669E+02  0.00000000000E+00 0. -1.
         13    1    4    4    0    0 -0.32737824002E+02 -0.58494247584E+02 -0.17870990653E+01  0.67056214058E+02  0.00000000000E+00 0.  1.
        -13    1    3    3    0    0  0.59715532552E+02  0.28324296680E+02 -0.14295787144E+03  0.15749655113E+03  0.00000000000E+00 0.  1.
         13    1    3    3    0    0 -0.42991719251E+01 -0.26898568321E+02 -0.61896765641E+01  0.27934350770E+02  0.00000000000E+00 0. -1.
         -2    1    1    2    0  502  0.13603558162E+02  0.46846930689E+02  0.10818931223E+03  0.11867863746E+03  0.00000000000E+00 0.  1.
<scales pt_clust_5="13000.00000" pt_clust_6="13000.00000" pt_clust_7="13000.00000" pt_clust_8="13000.00000" pt_clust_9="48.78208"></scales>
<clustering>
<clus scale="   48.782">  1  9  2 -1</clus>
<clus scale="   89.423">  5  6 -1 -1</clus>
<clus scale="   95.219">  7  8 -1 -1</clus>
<clus scale="  106.762">  1  5  2 -1</clus>
<clus scale="   48.782">  1  5  2 -1</clus>
</clustering>
</event>
<event>
 9    1  0.1315259E-005  0.1907965E+03  0.7546771E-02  0.1158429E+00
         21   -1    0    0  501  502  0.00000000000E+00  0.00000000000E+00  0.25245102886E+03  0.25245102886E+03  0.00000000000E+00 0. -1.
          1   -1    0    0  502    0 -0.00000000000E+00 -0.00000000000E+00 -0.32887376426E+03  0.32887376426E+03  0.00000000000E+00 0. -1.
         23    2    1    2    0    0  0.22274938406E+01  0.16140515841E+03 -0.21738474251E+03  0.28630048664E+03  0.93033625546E+02 0.  0.
         23    2    1    2    0    0  0.66261493675E+01 -0.18829687543E+03  0.70426294095E+02  0.21901879186E+03  0.86658808765E+02 0.  0.
        -11    1    3    3    0    0  0.34366199964E+02  0.17308226474E+02 -0.50382551626E+02  0.63395677391E+02  0.00000000000E+00 0.  1.
         11    1    3    3    0    0 -0.32138706123E+02  0.14409693193E+03 -0.16700219089E+03  0.22290480925E+03  0.00000000000E+00 0. -1.
        -11    1    4    4    0    0 -0.37506019631E+02 -0.10887850159E+03  0.51805433710E+02  0.12627364166E+03  0.00000000000E+00 0.  1.
         11    1    4    4    0    0  0.44132168998E+02 -0.79418373846E+02  0.18620860385E+02  0.92745150204E+02  0.00000000000E+00 0. -1.
          1    1    1    2  501    0 -0.88536432080E+01  0.26891717025E+02  0.70535713017E+02  0.76005514625E+02  0.00000000000E+00 0. -1.
<scales pt_clust_5="13000.00000" pt_clust_6="13000.00000" pt_clust_7="13000.00000" pt_clust_8="13000.00000" pt_clust_9="28.31168"></scales>
<clustering>
<clus scale="   28.312">  1  9  2 -1</clus>
<clus scale="   86.659">  7  8 -1 -1</clus>
<clus scale="   93.034">  5  6 -1 -1</clus>
<clus scale="  187.771">  1  7  2 -1</clus>
<clus scale="   28.312">  1  5  2 -1</clus>
</clustering>
</event>
<event>
 9    1  0.1315259E-005  0.2333673E+03  0.7546771E-02  0.1138767E+00
         21   -1    0    0  501  502  0.00000000000E+00  0.00000000000E+00  0.55012456566E+03  0.55012456566E+03  0.00000000000E+00 0. -1.
          1   -1    0    0  502    0 -0.00000000000E+00 -0.00000000000E+00 -0.16217022911E+04  0.16217022911E+04  0.00000000000E+00 0. -1.
         23    2    1    2    0    0  0.93906790535E+02  0.98515155712E+02  0.17727675161E+03  0.24130282102E+03  0.90974081792E+02 0.  0.
         23    2    1    2    0    0 -0.25318316540E+03 -0.23740022061E+03 -0.15340686969E+04  0.15755519579E+04  0.92393859402E+02 0.  0.
        -13    1    4    4    0    0 -0.21309252728E+02 -0.63926962644E+01 -0.37442868379E+02  0.43553636011E+02  0.00000000000E+00 0.  1.
         13    1    4    4    0    0 -0.23187391268E+03 -0.23100752435E+03 -0.14966258285E+04  0.15319983219E+04  0.00000000000E+00 0. -1.
        -13    1    3    3    0    0 -0.12127992966E+02  0.35884087083E+02  0.61777768691E+02  0.72465499540E+02  0.00000000000E+00 0.  1.
         13    1    3    3    0    0  0.10603478350E+03  0.62631068629E+02  0.11549898292E+03  0.16883732148E+03  0.00000000000E+00 0. -1.
          1    1    1    2  501    0  0.15927637487E+03  0.13888506490E+03  0.28521421984E+03  0.35497207784E+03  0.00000000000E+00 0. -1.
<scales pt_clust_5="13000.00000" pt_clust_6="13000.00000" pt_clust_7="13000.00000" pt_clust_8="13000.00000" pt_clust_9="214.29811"></scales>
<clustering>
<clus scale="   90.974">  7  8 -1 -1</clus>
<clus scale="   92.394">  5  6 -1 -1</clus>
<clus scale="  163.707">  2  7  1 -1</clus>
<clus scale="  214.298">  1  9  2 -1</clus>
<clus scale="  214.298">  1  5  2 -1</clus>
</clustering>
</event>
<event>
 9    1  0.1315259E-005  0.1124301E+03  0.7546771E-02  0.1257146E+00
         -2   -1    0    0    0  501 -0.00000000000E+00  0.00000000000E+00  0.50157476693E+02  0.50157476693E+02  0.00000000000E+00 0.  1.
         21   -1    0    0  501  502  0.00000000000E+00 -0.00000000000E+00 -0.49875814146E+03  0.49875814146E+03  0.00000000000E+00 0.  1.
         23    2    1    2    0    0 -0.66774006717E+02  0.40667283195E+02 -0.84371010867E+02  0.14882526602E+03  0.94434614604E+02 0.  0.
         23    2    1    2    0    0  0.41045187107E+02 -0.76698658478E-01 -0.15026856978E+03  0.18079850725E+03  0.91775508147E+02 0.  0.
        -11    1    3    3    0    0 -0.91184321511E+02  0.32734460480E+02 -0.68408596549E+02  0.11859958463E+03  0.00000000000E+00 0.  1.
         11    1    3    3    0    0  0.24410314795E+02  0.79328227153E+01 -0.15962414319E+02  0.30225681390E+02  0.00000000000E+00 0. -1.
        -13    1    4    4    0    0 -0.19317378966E+02 -0.27897774668E+02 -0.46383489286E+02  0.57470645027E+02  0.00000000000E+00 0. -1.
         13    1    4    4    0    0  0.60362566072E+02  0.27821076009E+02 -0.10388508049E+03  0.12332786223E+03  0.00000000000E+00 0.  1.
         -2    1    1    2    0  502  0.25728819610E+02 -0.40590584537E+02 -0.21396108413E+03  0.21929184488E+03  0.00000000000E+00 0.  1.
<scales pt_clust_5="13000.00000" pt_clust_6="13000.00000" pt_clust_7="13000.00000" pt_clust_8="13000.00000" pt_clust_9="48.05796"></scales>
<clustering>
<clus scale="   48.058">  2  9  1 -1</clus>
<clus scale="   91.776">  7  8 -1 -1</clus>
<clus scale="   94.435">  5  6 -1 -1</clus>
<clus scale="  110.206">  2  7  1 -1</clus>
<clus scale="   48.058">  2  5  1 -1</clus>
</clustering>
</event>
<event>
 9    1  0.1315259E-005  0.1264324E+03  0.7546771E-02  0.1233482E+00
         21   -1    0    0  501  502  0.00000000000E+00  0.00000000000E+00  0.20021024179E+03  0.20021024179E+03  0.00000000000E+00 0.  1.
         -1   -1    0    0    0  501 -0.00000000000E+00 -0.00000000000E+00 -0.20027207219E+03  0.20027207219E+03  0.00000000000E+00 0.  1.
         23    2    1    2    0    0  0.37477249362E+01  0.70528092186E+02 -0.61813160759E+02  0.13058365391E+03  0.90790784757E+02 0.  0.
         23    2    1    2    0    0  0.46859049024E+02 -0.10826419723E+03 -0.35106487126E+02  0.15428509684E+03  0.93029666189E+02 0.  0.
        -11    1    3    3    0    0  0.26420560269E+02 -0.42392479855E+01 -0.42302091369E+02  0.50054811583E+02  0.00000000000E+00 0. -1.
         11    1    3    3    0    0 -0.22672835332E+02  0.74767340171E+02 -0.19511069389E+02  0.80528842330E+02  0.00000000000E+00 0.  1.
        -13    1    4    4    0    0  0.94002850798E+01 -0.26678427751E+02  0.31622447698E+02  0.42427385794E+02  0.00000000000E+00 0. -1.
         13    1    4    4    0    0  0.37458763944E+02 -0.81585769477E+02 -0.66728934825E+02  0.11185771104E+03  0.00000000000E+00 0.  1.
         -1    1    1    2    0  502 -0.50606773960E+02  0.37736105042E+02  0.96857817481E+02  0.11561356322E+03  0.00000000000E+00 0.  1.
<scales pt_clust_5="13000.00000" pt_clust_6="13000.00000" pt_clust_7="13000.00000" pt_clust_8="13000.00000" pt_clust_9="63.12733"></scales>
<clustering>
<clus scale="   63.127">  1  9  2 -1</clus>
<clus scale="   90.791">  5  6 -1 -1</clus>
<clus scale="   93.030">  7  8 -1 -1</clus>
<clus scale="  124.794">  2  5  1 -1</clus>
<clus scale="   63.127">  1  5  2 -1</clus>
</clustering>
</event>
<event>
 9    1  0.1315259E-005  0.1309663E+03  0.7546771E-02  0.1226072E+00
          1   -1    0    0  502    0 -0.00000000000E+00  0.00000000000E+00  0.34327989222E+03  0.34327989222E+03  0.00000000000E+00 0. -1.
         21   -1    0    0  501  502  0.00000000000E+00 -0.00000000000E+00 -0.93853124655E+02  0.93853124655E+02  0.00000000000E+00 0. -1.
         23    2    1    2    0    0 -0.41715724663E+02 -0.74465851035E+02  0.13955679062E+03  0.18782235368E+03  0.92280951876E+02 0.  0.
         23    2    1    2    0    0  0.36133516370E+02  0.95207894954E+02  0.15026774012E+03  0.20355727311E+03  0.92114035009E+02 0.  0.
        -11    1    4    4    0    0 -0.29328362310E+02  0.32252015085E+02  0.69370523784E+02  0.81930549144E+02  0.00000000000E+00 0.  1.
         11    1    4    4    0    0  0.65461878680E+02  0.62955879869E+02  0.80897216339E+02  0.12162672396E+03  0.00000000000E+00 0. -1.
        -13    1    3    3    0    0  0.23166266040E+02 -0.33615365668E+02  0.83169649581E+02  0.92649119276E+02  0.00000000000E+00 0.  1.
         13    1    3    3    0    0 -0.64881990703E+02 -0.40850485367E+02  0.56387141036E+02  0.95173234401E+02  0.00000000000E+00 0. -1.
          1    1    1    2  501    0  0.55822082934E+01 -0.20742043919E+02 -0.40397763175E+02  0.45753390092E+02  0.00000000000E+00 0. -1.
<scales pt_clust_5="13000.00000" pt_clust_6="13000.00000" pt_clust_7="13000.00000" pt_clust_8="13000.00000" pt_clust_9="21.48007"></scales>
<clustering>
<clus scale="   21.480">  2  9  1 -1</clus>
<clus scale="   92.114">  5  6 -1 -1</clus>
<clus scale="   92.281">  7  8 -1 -1</clus>
<clus scale="  130.849">  2  5  1 -1</clus>
<clus scale="   21.480">  2  5  1 -1</clus>
</clustering>
</event>
<event>
 9    1  0.1315259E-005  0.1627372E+03  0.7546771E-02  0.1186174E+00
         -3   -1    0    0    0  501 -0.00000000000E+00  0.00000000000E+00  0.24999957773E+03  0.24999957773E+03  0.00000000000E+00 0.  1.
         21   -1    0    0  501  502  0.00000000000E+00 -0.00000000000E+00 -0.30537782281E+03  0.30537782281E+03  0.00000000000E+00 0. -1.
         23    2    1    2    0    0 -0.12316051345E+03 -0.39895062655E+02  0.14995745855E+03  0.21728636348E+03  0.89252430105E+02 0.  0.
         23    2    1    2    0    0  0.17003422492E+03 -0.17564155240E+02 -0.14822251115E+03  0.24449283568E+03  0.92664430584E+02 0.  0.
        -11    1    3    3    0    0 -0.94057082570E+02 -0.16572729195E+02  0.44377109167E+02  0.10531247767E+03  0.00000000000E+00 0. -1.
         11    1    3    3    0    0 -0.29103430884E+02 -0.23322333460E+02  0.10558034938E+03  0.11197388581E+03  0.00000000000E+00 0.  1.
        -13    1    4    4    0    0  0.11657164497E+03  0.32598159622E+02 -0.95801081002E+02  0.15436785787E+03  0.00000000000E+00 0. -1.
         13    1    4    4    0    0  0.53462579944E+02 -0.50162314862E+02 -0.52421430146E+02  0.90124977809E+02  0.00000000000E+00 0.  1.
         -3    1    1    2    0  502 -0.46873711462E+02  0.57459217895E+02 -0.57113192481E+02  0.93598201386E+02  0.00000000000E+00 0.  1.
<scales pt_clust_5="13000.00000" pt_clust_6="13000.00000" pt_clust_7="13000.00000" pt_clust_8="13000.00000" pt_clust_9="74.15326"></scales>
<clustering>
<clus scale="   74.153">  2  9  1 -1</clus>
<clus scale="   89.252">  5  6 -1 -1</clus>
<clus scale="   92.664">  7  8 -1 -1</clus>
<clus scale="  160.819">  1  5  2 -1</clus>
<clus scale="   74.153">  2  5  1 -1</clus>
</clustering>
</event>
<event>
 9    1  0.1315259E-005  0.9545924E+02  0.7546771E-02  0.1293113E+00
         21   -1    0    0  501  502  0.00000000000E+00  0.00000000000E+00  0.43471760749E+03  0.43471760749E+03  0.00000000000E+00 0.  1.
         -1   -1    0    0    0  501 -0.00000000000E+00 -0.00000000000E+00 -0.36522993960E+02  0.36522993960E+02  0.00000000000E+00 0.  1.
         23    2    1    2    0    0  0.21255217039E+02 -0.35909411368E+01  0.10150492859E+03  0.14026098898E+03  0.94367448799E+02 0.  0.
         23    2    1    2    0    0  0.60340240546E+01 -0.29727534340E+02  0.14187423424E+03  0.17028534604E+03  0.89155285822E+02 0.  0.
        -13    1    3    3    0    0  0.50406196405E+02  0.13834334488E+02  0.28018158115E+02  0.59305907218E+02  0.00000000000E+00 0.  1.
         13    1    3    3    0    0 -0.29150979367E+02 -0.17425275625E+02  0.73486770476E+02  0.80955081766E+02  0.00000000000E+00 0. -1.
        -13    1    4    4    0    0  0.32288654365E+02 -0.47053034422E+02  0.11702814211E+03  0.13020035059E+03  0.00000000000E+00 0.  1.
         13    1    4    4    0    0 -0.26254630311E+02  0.17325500082E+02  0.24846092139E+02  0.40084995452E+02  0.00000000000E+00 0. -1.
         -1    1    1    2    0  502 -0.27289241093E+02  0.33318475477E+02  0.15481545069E+03  0.16069426642E+03  0.00000000000E+00 0.  1.
<scales pt_clust_5="13000.00000" pt_clust_6="13000.00000" pt_clust_7="13000.00000" pt_clust_8="13000.00000" pt_clust_9="43.06766"></scales>
<clustering>
<clus scale="   43.068">  1  9  2 -1</clus>
<clus scale="   89.155">  7  8 -1 -1</clus>
<clus scale="   90.310">  1  7  2 -1</clus>
<clus scale="   94.367">  5  6 -1 -1</clus>
<clus scale="   43.068">  1  5  2 -1</clus>
</clustering>
</event>
<event>
 9    1  0.1315259E-005  0.1084641E+03  0.7546771E-02  0.1263670E+00
          1   -1    0    0  502    0 -0.00000000000E+00  0.00000000000E+00  0.74902808722E+03  0.74902808722E+03  0.00000000000E+00 0. -1.
         21   -1    0    0  501  502  0.00000000000E+00 -0.00000000000E+00 -0.40712922125E+02  0.40712922125E+02  0.00000000000E+00 0. -1.
         23    2    1    2    0    0  0.24867557055E+02 -0.34752150997E+02  0.37991404238E+03  0.39290298844E+03  0.90619927916E+02 0.  0.
         23    2    1    2    0    0 -0.25168671576E+02  0.10595970090E+03  0.27000500243E+03  0.30474723582E+03  0.90040302974E+02 0.  0.
        -13    1    4    4    0    0 -0.57043847929E+02  0.46060303755E+02  0.14694944728E+03  0.16422451773E+03  0.00000000000E+00 0. -1.
         13    1    4    4    0    0  0.31875176353E+02  0.59899397142E+02  0.12305555515E+03  0.14052271809E+03  0.00000000000E+00 0.  1.
        -13    1    3    3    0    0 -0.25613738360E+02 -0.41868311317E+02  0.19628939785E+03  0.20233276253E+03  0.00000000000E+00 0.  1.
         13    1    3    3    0    0  0.50481295415E+02  0.71161603197E+01  0.18362464454E+03  0.19057022591E+03  0.00000000000E+00 0. -1.
          1    1    1    2  501    0  0.30111452084E+00 -0.71207549900E+02  0.58396120283E+02  0.92090785081E+02  0.00000000000E+00 0. -1.
<scales pt_clust_5="13000.00000" pt_clust_6="13000.00000" pt_clust_7="13000.00000" pt_clust_8="13000.00000" pt_clust_9="71.20819"></scales>
<clustering>
<clus scale="   71.208">  2  9  1 -1</clus>
<clus scale="   90.040">  5  6 -1 -1</clus>
<clus scale="   90.620">  7  8 -1 -1</clus>
<clus scale="  107.980">  2  5  1 -1</clus>
<clus scale="   71.208">  2  5  1 -1</clus>
</clustering>
</event>
<event>
 9    1  0.1315259E-005  0.1057666E+03  0.7546771E-02  0.1268924E+00
          1   -1    0    0  502    0 -0.00000000000E+00  0.00000000000E+00  0.26927478261E+03  0.26927478261E+03  0.00000000000E+00 0. -1.
         21   -1    0    0  501  502  0.00000000000E+00 -0.00000000000E+00 -0.11650400966E+03  0.11650400966E+03  0.00000000000E+00 0. -1.
         23    2    1    2    0    0  0.14553706866E+02 -0.58159957590E+02  0.17982841597E+03  0.20959544883E+03  0.89429312485E+02 0.  0.
         23    2    1    2    0    0 -0.40237004506E+02  0.31798958866E+02  0.30270098883E+02  0.10805842859E+03  0.90167370963E+02 0.  0.
        -11    1    3    3    0    0  0.18239721683E+02 -0.14967249392E+02 -0.10273191997E+01  0.23616972418E+02  0.00000000000E+00 0. -1.
         11    1    3    3    0    0 -0.36860148172E+01 -0.43192708198E+02  0.18085573517E+03  0.18597847641E+03  0.00000000000E+00 0.  1.
        -11    1    4    4    0    0  0.28784714793E+02  0.11340314023E+02  0.15357834861E+02  0.34540202945E+02  0.00000000000E+00 0.  1.
         11    1    4    4    0    0 -0.69021719299E+02  0.20458644843E+02  0.14912264022E+02  0.73518225646E+02  0.00000000000E+00 0. -1.
          1    1    1    2  501    0  0.25683297640E+02  0.26360998724E+02 -0.57327741900E+02  0.68124914846E+02  0.00000000000E+00 0. -1.
<scales pt_clust_5="13000.00000" pt_clust_6="13000.00000" pt_clust_7="13000.00000" pt_clust_8="13000.00000" pt_clust_9="36.80399"></scales>
<clustering>
<clus scale="   36.804">  2  9  1 -1</clus>
<clus scale="   89.429">  5  6 -1 -1</clus>
<clus scale="   90.167">  7  8 -1 -1</clus>
<clus scale="  105.138">  1  5  2 -1</clus>
<clus scale="   36.804">  2  5  1 -1</clus>
</clustering>
</event>
<event>
 9    1  0.2706998E-005  0.1123061E+03  0.7546771E-02  0.1256531E+00
          4   -1    0    0  502    0 -0.00000000000E+00  0.00000000000E+00  0.49376149278E+03  0.49376149278E+03  0.00000000000E+00 0. -1.
         21   -1    0    0  501  502  0.00000000000E+00 -0.00000000000E+00 -0.23345006699E+03  0.23345006699E+03  0.00000000000E+00 0. -1.
         23    2    1    2    0    0  0.57501417902E+02  0.34209220086E+02  0.42426105342E+03  0.43925615377E+03  0.92042617163E+02 0.  0.
         23    2    1    2    0    0 -0.67531907447E+01  0.18878782591E+02 -0.18849654386E+03  0.21051982190E+03  0.91573109298E+02 0.  0.
        -11    1    4    4    0    0 -0.45634002048E+02 -0.81632206748E+01 -0.90865742381E+02  0.10200825189E+03  0.00000000000E+00 0.  1.
         11    1    4    4    0    0  0.38880811303E+02  0.27042003266E+02 -0.97630801484E+02  0.10851157001E+03  0.00000000000E+00 0. -1.
        -13    1    3    3    0    0  0.17130941521E+02 -0.31283109195E+02  0.10648034484E+03  0.11229499506E+03  0.00000000000E+00 0.  1.
         13    1    3    3    0    0  0.40370476381E+02  0.65492329281E+02  0.31778070858E+03  0.32696115871E+03  0.00000000000E+00 0. -1.
          4    1    1    2  501    0 -0.50748227158E+02 -0.53088002677E+02  0.24546916242E+02  0.77435584099E+02  0.00000000000E+00 0. -1.
<scales pt_clust_5="13000.00000" pt_clust_6="13000.00000" pt_clust_7="13000.00000" pt_clust_8="13000.00000" pt_clust_9="73.44194"></scales>
<clustering>
<clus scale="   73.442">  2  9  1 -1</clus>
<clus scale="   91.573">  5  6 -1 -1</clus>
<clus scale="   92.043">  7  8 -1 -1</clus>
<clus scale="  111.922">  2  5  1 -1</clus>
<clus scale="   73.442">  2  5  1 -1</clus>
</clustering>
</event>
<event>
 9    1  0.1315259E-005  0.1161102E+03  0.7546771E-02  0.1252427E+00
         21   -1    0    0  501  502  0.00000000000E+00  0.00000000000E+00  0.66576831386E+02  0.66576831386E+02  0.00000000000E+00 0.  1.
         -3   -1    0    0    0  501 -0.00000000000E+00 -0.00000000000E+00 -0.64831541170E+03  0.64831541170E+03  0.00000000000E+00 0.  1.
         23    2    1    2    0    0  0.15618069366E+02 -0.33815091603E+02 -0.24196751550E+03  0.25996602961E+03  0.87445259930E+02 0.  0.
         23    2    1    2    0    0 -0.73275427866E+02  0.10153661709E+03 -0.32985630607E+03  0.36543387612E+03  0.95172276560E+02 0.  0.
        -11    1    4    4    0    0 -0.46809885489E+02  0.29355163515E+02 -0.47710519168E+02  0.73001264673E+02  0.00000000000E+00 0. -1.
         11    1    4    4    0    0 -0.26465542376E+02  0.72181453576E+02 -0.28214578690E+03  0.29243261145E+03  0.00000000000E+00 0.  1.
        -11    1    3    3    0    0  0.17340716505E+02 -0.63145519688E+02 -0.17431540160E+03  0.18620933473E+03  0.00000000000E+00 0.  1.
         11    1    3    3    0    0 -0.17226471387E+01  0.29330428085E+02 -0.67652113896E+02  0.73756694879E+02  0.00000000000E+00 0. -1.
         -3    1    1    2    0  502  0.57657358500E+02 -0.67721525488E+02 -0.99147587458E+01  0.89492337351E+02  0.00000000000E+00 0.  1.
<scales pt_clust_5="13000.00000" pt_clust_6="13000.00000" pt_clust_7="13000.00000" pt_clust_8="13000.00000" pt_clust_9="88.94142"></scales>
<clustering>
<clus scale="   87.445">  7  8 -1 -1</clus>
<clus scale="   88.941">  1  9  2 -1</clus>
<clus scale="   95.172">  5  6 -1 -1</clus>
<clus scale="  109.866">  2  7  1 -1</clus>
<clus scale="   88.941">  1  5  2 -1</clus>
</clustering>
</event>
<event>
 9    1  0.1315259E-005  0.3297208E+03  0.7546771E-02  0.1071796E+00
         21   -1    0    0  501  502  0.00000000000E+00  0.00000000000E+00  0.23530174014E+03  0.23530174014E+03  0.00000000000E+00 0.  1.
          1   -1    0    0  502    0 -0.00000000000E+00 -0.00000000000E+00 -0.58833952558E+03  0.58833952558E+03  0.00000000000E+00 0. -1.
         23    2    1    2    0    0  0.28007506171E+03 -0.25746657505E+02 -0.15073897094E+03  0.33617863350E+03  0.10577762381E+03 0.  0.
         23    2    1    2    0    0 -0.34218773821E+03  0.72855649301E+02 -0.19137388950E+03  0.40874417392E+03  0.89707526514E+02 0.  0.
        -11    1    3    3    0    0  0.49827019963E+02  0.47033176317E+01  0.13361704209E+02  0.51801431008E+02  0.00000000000E+00 0.  1.
         11    1    3    3    0    0  0.23024804175E+03 -0.30449975137E+02 -0.16410067515E+03  0.28437720249E+03  0.00000000000E+00 0. -1.
        -13    1    4    4    0    0 -0.27197908286E+03  0.61411387288E+02 -0.10766102280E+03  0.29888940402E+03  0.00000000000E+00 0.  1.
         13    1    4    4    0    0 -0.70208655350E+02  0.11444262013E+02 -0.83712866702E+02  0.10985476990E+03  0.00000000000E+00 0. -1.
          1    1    1    2  501    0  0.62112676505E+02 -0.47108991796E+02 -0.10924925001E+02  0.78718458299E+02  0.00000000000E+00 0. -1.
<scales pt_clust_5="13000.00000" pt_clust_6="13000.00000" pt_clust_7="13000.00000" pt_clust_8="13000.00000" pt_clust_9="77.95667"></scales>
<clustering>
<clus scale="   77.957">  1  9  2 -1</clus>
<clus scale="   89.708">  7  8 -1 -1</clus>
<clus scale="  105.778">  5  6 -1 -1</clus>
<clus scale="  324.922">  1  7  2 -1</clus>
<clus scale="   77.957">  1  5  2 -1</clus>
</clustering>
</event>
<event>
 9    1  0.1394755E-005  0.1083359E+03  0.7546771E-02  0.1264372E+00
         -1   -1    0    0    0  501 -0.00000000000E+00  0.00000000000E+00  0.49592286989E+03  0.49592286989E+03  0.00000000000E+00 0.  1.
         21   -1    0    0  501  502  0.00000000000E+00 -0.00000000000E+00 -0.91875550246E+02  0.91875550246E+02  0.00000000000E+00 0.  1.
         23    2    1    2    0    0 -0.27165675944E+01 -0.62750819697E+02  0.41206959162E+03  0.42692972180E+03  0.92317895938E+02 0.  0.
         23    2    1    2    0    0  0.21369271843E+02  0.26842521488E+02  0.33854576090E+02  0.10263640780E+03  0.90614199471E+02 0.  0.
        -13    1    4    4    0    0  0.38894680819E+02  0.88104389137E+01  0.56257392793E+02  0.68958786777E+02  0.00000000000E+00 0.  1.
         13    1    4    4    0    0 -0.17525408977E+02  0.18032082574E+02 -0.22402816704E+02  0.33677621027E+02  0.00000000000E+00 0. -1.
        -13    1    3    3    0    0 -0.40623679160E+02 -0.28702862521E+02  0.11177340762E+03  0.12234145772E+03  0.00000000000E+00 0. -1.
         13    1    3    3    0    0  0.37907111565E+02 -0.34047957176E+02  0.30029618400E+03  0.30458826408E+03  0.00000000000E+00 0.  1.
         -1    1    1    2    0  502 -0.18652704248E+02  0.35908298209E+02 -0.41876848066E+02  0.58232290527E+02  0.00000000000E+00 0.  1.
<scales pt_clust_5="13000.00000" pt_clust_6="13000.00000" pt_clust_7="13000.00000" pt_clust_8="13000.00000" pt_clust_9="40.46393"></scales>
<clustering>
<clus scale="   40.464">  2  9  1 -1</clus>
<clus scale="   90.614">  5  6 -1 -1</clus>
<clus scale="   92.318">  7  8 -1 -1</clus>
<clus scale="  106.888">  2  5  1 -1</clus>
<clus scale="   40.464">  2  5  1 -1</clus>
</clustering>
</event>
<event>
 9    1  0.1315259E-005  0.9905449E+02  0.7546771E-02  0.1284184E+00
         21   -1    0    0  501  502  0.00000000000E+00  0.00000000000E+00  0.26690004373E+03  0.26690004373E+03  0.00000000000E+00 0. -1.
          3   -1    0    0  502    0 -0.00000000000E+00 -0.00000000000E+00 -0.23362881101E+03  0.23362881101E+03  0.00000000000E+00 0. -1.
         23    2    1    2    0    0 -0.52076805462E+01  0.31702180261E+02 -0.19799087338E+03  0.22166052439E+03  0.94344337207E+02 0.  0.
         23    2    1    2    0    0  0.19194616799E+02 -0.10989469605E+02  0.72614902896E+02  0.11826451393E+03  0.90688308922E+02 0.  0.
        -13    1    3    3    0    0 -0.28351182128E+02  0.48844866607E+02 -0.67411734284E+02  0.87942893068E+02  0.00000000000E+00 0. -1.
         13    1    3    3    0    0  0.23143501582E+02 -0.17142686346E+02 -0.13057913909E+03  0.13371763132E+03  0.00000000000E+00 0.  1.
        -13    1    4    4    0    0  0.45000588267E+02 -0.23702107631E+02  0.73619067752E+02  0.89479662422E+02  0.00000000000E+00 0.  1.
         13    1    4    4    0    0 -0.25805971468E+02  0.12712638026E+02 -0.10041648561E+01  0.28784851503E+02  0.00000000000E+00 0. -1.
          3    1    1    2  501    0 -0.13986936253E+02 -0.20712710656E+02  0.15864720320E+03  0.16060381643E+03  0.00000000000E+00 0. -1.
<scales pt_clust_5="13000.00000" pt_clust_6="13000.00000" pt_clust_7="13000.00000" pt_clust_8="13000.00000" pt_clust_9="24.99301"></scales>
<clustering>
<clus scale="   24.993">  1  9  2 -1</clus>
<clus scale="   90.688">  7  8 -1 -1</clus>
<clus scale="   94.344">  5  6 -1 -1</clus>
<clus scale="   95.579">  1  7  2 -1</clus>
<clus scale="   24.993">  1  5  2 -1</clus>
</clustering>
</event>
<event>
 9    1  0.1315259E-005  0.9889955E+02  0.7546771E-02  0.1283889E+00
          2   -1    0    0  502    0 -0.00000000000E+00  0.00000000000E+00  0.42937128285E+03  0.42937128285E+03  0.00000000000E+00 0. -1.
         21   -1    0    0  501  502  0.00000000000E+00 -0.00000000000E+00 -0.84681077754E+02  0.84681077754E+02  0.00000000000E+00 0. -1.
         23    2    1    2    0    0 -0.18737384641E+02 -0.77972648166E+01  0.20733308085E+03  0.22788766378E+03  0.92379077549E+02 0.  0.
         23    2    1    2    0    0  0.39439974011E+02  0.41204204358E+02  0.19159826367E+03  0.21918169883E+03  0.89874492781E+02 0.  0.
        -11    1    3    3    0    0  0.15123027492E+02  0.29854419951E+02  0.13819239646E+03  0.14218695717E+03  0.00000000000E+00 0. -1.
         11    1    3    3    0    0 -0.33860412134E+02 -0.37651684767E+02  0.69140684390E+02  0.85700706611E+02  0.00000000000E+00 0.  1.
        -11    1    4    4    0    0 -0.28867176018E+02  0.64789132731E+01  0.60062770022E+02  0.66953913337E+02  0.00000000000E+00 0.  1.
         11    1    4    4    0    0  0.68307150028E+02  0.34725291085E+02  0.13153549365E+03  0.15222778549E+03  0.00000000000E+00 0. -1.
          2    1    1    2  501    0 -0.20702589369E+02 -0.33406939541E+02 -0.54241139415E+02  0.66982998001E+02  0.00000000000E+00 0. -1.
<scales pt_clust_5="13000.00000" pt_clust_6="13000.00000" pt_clust_7="13000.00000" pt_clust_8="13000.00000" pt_clust_9="39.30166"></scales>
<clustering>
<clus scale="   39.302">  2  9  1 -1</clus>
<clus scale="   89.874">  7  8 -1 -1</clus>
<clus scale="   92.379">  5  6 -1 -1</clus>
<clus scale="   96.564">  2  7  1 -1</clus>
<clus scale="   39.302">  2  5  1 -1</clus>
</clustering>
</event>
<event>
 9    1  0.1315259E-005  0.1102795E+03  0.7546771E-02  0.1260516E+00
         21   -1    0    0  501  502  0.00000000000E+00  0.00000000000E+00  0.11104306692E+03  0.11104306692E+03  0.00000000000E+00 0. -1.
          2   -1    0    0  502    0 -0.00000000000E+00 -0.00000000000E+00 -0.13484517159E+03  0.13484517159E+03  0.00000000000E+00 0. -1.
         23    2    1    2    0    0  0.62570314990E+02 -0.27758705125E+02 -0.38101408827E+02  0.12038283518E+03  0.91404155391E+02 0.  0.
         23    2    1    2    0    0 -0.51336445767E+02  0.11153266680E+02  0.14950518092E+02  0.10544637835E+03  0.90197531530E+02 0.  0.
        -11    1    3    3    0    0 -0.13367834769E+02  0.15401810194E+02  0.76474076412E+01  0.21780670497E+02  0.00000000000E+00 0.  1.
         11    1    3    3    0    0  0.75938149759E+02 -0.43160515319E+02 -0.45748816468E+02  0.98602164681E+02  0.00000000000E+00 0. -1.
        -11    1    4    4    0    0  0.27729262761E+01  0.37541701513E+02  0.23890589134E+02  0.44585072858E+02  0.00000000000E+00 0.  1.
         11    1    4    4    0    0 -0.54109372043E+02 -0.26388434834E+02 -0.89400710414E+01  0.60861305491E+02  0.00000000000E+00 0. -1.
          2    1    1    2  501    0 -0.11233869223E+02  0.16605438445E+02 -0.65121394279E+00  0.20059024983E+02  0.00000000000E+00 0. -1.
<scales pt_clust_5="13000.00000" pt_clust_6="13000.00000" pt_clust_7="13000.00000" pt_clust_8="13000.00000" pt_clust_9="20.04845"></scales>
<clustering>
<clus scale="   20.048">  1  9  2 -1</clus>
<clus scale="   90.198">  7  8 -1 -1</clus>
<clus scale="   91.404">  5  6 -1 -1</clus>
<clus scale="  109.282">  1  7  2 -1</clus>
<clus scale="   20.048">  1  5  2 -1</clus>
</clustering>
</event>
<event>
 9    1  0.1315259E-005  0.1194557E+03  0.7546771E-02  0.1244053E+00
          2   -1    0    0  502    0 -0.00000000000E+00  0.00000000000E+00  0.80198336058E+02  0.80198336058E+02  0.00000000000E+00 0. -1.
         21   -1    0    0  501  502  0.00000000000E+00 -0.00000000000E+00 -0.30095628174E+03  0.30095628174E+03  0.00000000000E+00 0.  1.
         23    2    1    2    0    0  0.78000445898E+02  0.13503192495E+02 -0.55320064742E+02  0.13162635440E+03  0.89435909134E+02 0.  0.
         23    2    1    2    0    0 -0.68385256308E+02 -0.46997683706E+02 -0.54970401046E+02  0.13369477546E+03  0.89259298903E+02 0.  0.
        -13    1    3    3    0    0  0.29929203041E+02  0.87756901204E+01  0.23590275233E+02  0.39105894918E+02  0.00000000000E+00 0. -1.
         13    1    3    3    0    0  0.48071242858E+02  0.47275023742E+01 -0.78910339974E+02  0.92520459486E+02  0.00000000000E+00 0.  1.
        -13    1    4    4    0    0 -0.29978552233E+02 -0.69852118306E+02 -0.25568807739E+02  0.80198478508E+02  0.00000000000E+00 0. -1.
         13    1    4    4    0    0 -0.38406704074E+02  0.22854434600E+02 -0.29401593307E+02  0.53496296953E+02  0.00000000000E+00 0.  1.
          2    1    1    2  501    0 -0.96151895907E+01  0.33494491212E+02 -0.11046747990E+03  0.11583348794E+03  0.00000000000E+00 0. -1.
<scales pt_clust_5="13000.00000" pt_clust_6="13000.00000" pt_clust_7="13000.00000" pt_clust_8="13000.00000" pt_clust_9="34.84728"></scales>
<clustering>
<clus scale="   34.847">  2  9  1 -1</clus>
<clus scale="   89.259">  7  8 -1 -1</clus>
<clus scale="   89.436">  5  6 -1 -1</clus>
<clus scale="  119.323">  2  7  1 -1</clus>
<clus scale="   34.847">  2  5  1 -1</clus>
</clustering>
</event>
<event>
 9    1  0.1315259E-005  0.9135800E+02  0.7546771E-02  0.1299783E+00
         21   -1    0    0  501  502  0.00000000000E+00  0.00000000000E+00  0.10898311286E+03  0.10898311286E+03  0.00000000000E+00 0. -1.
         -4   -1    0    0    0  501 -0.00000000000E+00 -0.00000000000E+00 -0.16036881703E+03  0.16036881703E+03  0.00000000000E+00 0.  1.
         23    2    1    2    0    0  0.67658597727E+01 -0.63243374312E+01 -0.10541608022E+03  0.13931155139E+03  0.90605652588E+02 0.  0.
         23    2    1    2    0    0 -0.16679033309E+02 -0.15815575134E+02  0.39478749940E+02  0.10175263273E+03  0.90921416625E+02 0.  0.
        -11    1    3    3    0    0  0.15473565223E+02 -0.40939840368E+02 -0.22876230325E+02  0.49384447592E+02  0.00000000000E+00 0. -1.
         11    1    3    3    0    0 -0.87077054498E+01  0.34615502937E+02 -0.82539849894E+02  0.89927103803E+02  0.00000000000E+00 0.  1.
        -11    1    4    4    0    0  0.48248430612E+01  0.22514853400E+02  0.51308144873E+02  0.56238096203E+02  0.00000000000E+00 0.  1.
         11    1    4    4    0    0 -0.21503876370E+02 -0.38330428534E+02 -0.11829394934E+02  0.45514536524E+02  0.00000000000E+00 0. -1.
         -4    1    1    2    0  502  0.99131735362E+01  0.22139912565E+02  0.14551626114E+02  0.28287745766E+02  0.00000000000E+00 0.  1.
<scales pt_clust_5="13000.00000" pt_clust_6="13000.00000" pt_clust_7="13000.00000" pt_clust_8="13000.00000" pt_clust_9="24.25792"></scales>
<clustering>
<clus scale="   24.258">  1  9  2 -1</clus>
<clus scale="   90.606">  5  6 -1 -1</clus>
<clus scale="   90.921">  7  8 -1 -1</clus>
<clus scale="   91.044">  2  5  1 -1</clus>
<clus scale="   24.258">  1  5  2 -1</clus>
</clustering>
</event>
<event>
 9    1  0.1315259E-005  0.9821542E+02  0.7546771E-02  0.1284874E+00
         -1   -1    0    0    0  501 -0.00000000000E+00  0.00000000000E+00  0.29171669797E+03  0.29171669797E+03  0.00000000000E+00 0.  1.
         21   -1    0    0  501  502  0.00000000000E+00 -0.00000000000E+00 -0.69445826237E+02  0.69445826237E+02  0.00000000000E+00 0.  1.
         23    2    1    2    0    0 -0.17237270417E+02  0.23487802943E+01  0.10909648950E+03  0.14327922040E+03  0.91237331816E+02 0.  0.
         23    2    1    2    0    0  0.45341032605E+02 -0.41077074487E+02  0.12794815497E+03  0.16780370136E+03  0.89689556483E+02 0.  0.
        -13    1    4    4    0    0  0.43442436862E+02 -0.68076469732E+02  0.10393183627E+03  0.13161868272E+03  0.00000000000E+00 0.  1.
         13    1    4    4    0    0  0.18985957432E+01  0.26999395245E+02  0.24016318702E+02  0.36185018632E+02  0.00000000000E+00 0. -1.
        -13    1    3    3    0    0 -0.45998118023E+02  0.91774727032E-01  0.20973547182E+02  0.50554178518E+02  0.00000000000E+00 0. -1.
         13    1    3    3    0    0  0.28760847605E+02  0.22570055673E+01  0.88122942321E+02  0.92725041884E+02  0.00000000000E+00 0.  1.
         -1    1    1    2    0  502 -0.28103762188E+02  0.38728294193E+02 -0.14773772743E+02  0.50079602447E+02  0.00000000000E+00 0.  1.
<scales pt_clust_5="13000.00000" pt_clust_6="13000.00000" pt_clust_7="13000.00000" pt_clust_8="13000.00000" pt_clust_9="47.85083"></scales>
<clustering>
<clus scale="   47.851">  2  9  1 -1</clus>
<clus scale="   89.690">  5  6 -1 -1</clus>
<clus scale="   91.237">  7  8 -1 -1</clus>
<clus scale="   96.779">  2  5  1 -1</clus>
<clus scale="   47.851">  2  5  1 -1</clus>
</clustering>
</event>
<event>
 9    1  0.1315259E-005  0.1047697E+03  0.7546771E-02  0.1271154E+00
         21   -1    0    0  501  502  0.00000000000E+00  0.00000000000E+00  0.15654457289E+03  0.15654457289E+03  0.00000000000E+00 0. -1.
          2   -1    0    0  502    0 -0.00000000000E+00 -0.00000000000E+00 -0.12789604688E+03  0.12789604688E+03  0.00000000000E+00 0. -1.
         23    2    1    2    0    0  0.18538369529E+02  0.54024527523E+02 -0.66527057266E+02  0.12617953427E+03  0.90736457950E+02 0.  0.
         23    2    1    2    0    0 -0.43207091599E+01 -0.28277221017E+02  0.66009774550E+02  0.11683995494E+03  0.92065275642E+02 0.  0.
        -11    1    3    3    0    0  0.35070501583E+02 -0.12950045732E+02 -0.31099503024E+02  0.48629444312E+02  0.00000000000E+00 0.  1.
         11    1    3    3    0    0 -0.16532132054E+02  0.66974573255E+02 -0.35427554242E+02  0.77550089958E+02  0.00000000000E+00 0. -1.
        -11    1    4    4    0    0 -0.47546791822E+01  0.33815789969E+02  0.20194701847E+02  0.39672920336E+02  0.00000000000E+00 0. -1.
         11    1    4    4    0    0  0.43397002232E+00 -0.62093010986E+02  0.45815072703E+02  0.77167034607E+02  0.00000000000E+00 0.  1.
          2    1    1    2  501    0 -0.14217660369E+02 -0.25747306506E+02  0.29165808726E+02  0.41421130565E+02  0.00000000000E+00 0. -1.
<scales pt_clust_5="13000.00000" pt_clust_6="13000.00000" pt_clust_7="13000.00000" pt_clust_8="13000.00000" pt_clust_9="29.41200"></scales>
<clustering>
<clus scale="   29.412">  1  9  2 -1</clus>
<clus scale="   90.736">  5  6 -1 -1</clus>
<clus scale="   92.065">  7  8 -1 -1</clus>
<clus scale="  103.604">  2  5  1 -1</clus>
<clus scale="   29.412">  1  5  2 -1</clus>
</clustering>
</event>
<event>
 9    1  0.1315259E-005  0.2422196E+03  0.7546771E-02  0.1118492E+00
         21   -1    0    0  501  502  0.00000000000E+00  0.00000000000E+00  0.24123519553E+03  0.24123519553E+03  0.00000000000E+00 0. -1.
          2   -1    0    0  502    0 -0.00000000000E+00 -0.00000000000E+00 -0.60395343009E+03  0.60395343009E+03  0.00000000000E+00 0. -1.
         23    2    1    2    0    0  0.87439316872E+02  0.16508606690E+03 -0.18313576260E+03  0.27733362957E+03  0.92066231223E+02 0.  0.
         23    2    1    2    0    0 -0.19432966596E+03 -0.28765416131E+03 -0.54254420123E+02  0.36253669419E+03  0.89332955476E+02 0.  0.
        -11    1    4    4    0    0 -0.61703354810E+02 -0.16946274769E+03 -0.36501165982E+02  0.18400342922E+03  0.00000000000E+00 0.  1.
         11    1    4    4    0    0 -0.13262631115E+03 -0.11819141363E+03 -0.17753254141E+02  0.17853326496E+03  0.00000000000E+00 0. -1.
        -13    1    3    3    0    0  0.62634319076E+02  0.28538239677E+02 -0.50556201273E+02  0.85401513670E+02  0.00000000000E+00 0.  1.
         13    1    3    3    0    0  0.24804997796E+02  0.13654782722E+03 -0.13257956132E+03  0.19193211590E+03  0.00000000000E+00 0. -1.
          2    1    1    2  501    0  0.10689034909E+03  0.12256809442E+03 -0.12532805184E+03  0.20531830186E+03  0.00000000000E+00 0. -1.
<scales pt_clust_5="13000.00000" pt_clust_6="13000.00000" pt_clust_7="13000.00000" pt_clust_8="13000.00000" pt_clust_9="162.62998"></scales>
<clustering>
<clus scale="   89.333">  5  6 -1 -1</clus>
<clus scale="   92.066">  7  8 -1 -1</clus>
<clus scale="  162.630">  1  9  2 -1</clus>
<clus scale="  241.194">  1  5  2 -1</clus>
<clus scale="  162.630">  1  5  2 -1</clus>
</clustering>
</event>
<event>
 9    1  0.1315259E-005  0.9446581E+02  0.7546771E-02  0.1293438E+00
          4   -1    0    0  502    0 -0.00000000000E+00  0.00000000000E+00  0.85330128727E+02  0.85330128727E+02  0.00000000000E+00 0. -1.
         21   -1    0    0  501  502  0.00000000000E+00 -0.00000000000E+00 -0.13517691782E+03  0.13517691782E+03  0.00000000000E+00 0.  1.
         23    2    1    2    0    0 -0.13621491394E+02 -0.27699103845E+02 -0.78571642783E+01  0.95847229413E+02  0.90400060697E+02 0.  0.
         23    2    1    2    0    0  0.38426873993E+01  0.50532611011E+01 -0.36127735061E+02  0.99305903183E+02  0.92282974985E+02 0.  0.
        -11    1    4    4    0    0  0.39427809398E+02  0.23640712124E+02 -0.10356473948E+01  0.45983779632E+02  0.00000000000E+00 0. -1.
         11    1    4    4    0    0 -0.35585121999E+02 -0.18587451023E+02 -0.35092087666E+02  0.53322123551E+02  0.00000000000E+00 0.  1.
        -13    1    3    3    0    0  0.18180491305E+02 -0.49749337214E+02  0.88406041042E+01  0.53699935738E+02  0.00000000000E+00 0.  1.
         13    1    3    3    0    0 -0.31801982699E+02  0.22050233369E+02 -0.16697768383E+02  0.42147293675E+02  0.00000000000E+00 0. -1.
          4    1    1    2  501    0  0.97788039944E+01  0.22645842744E+02 -0.58618897537E+01  0.25353913951E+02  0.00000000000E+00 0. -1.
<scales pt_clust_5="13000.00000" pt_clust_6="13000.00000" pt_clust_7="13000.00000" pt_clust_8="13000.00000" pt_clust_9="24.66697"></scales>
<clustering>
<clus scale="   24.667">  2  9  1 -1</clus>
<clus scale="   90.400">  7  8 -1 -1</clus>
<clus scale="   92.283">  5  6 -1 -1</clus>
<clus scale="   92.627">  1  7  2 -1</clus>
<clus scale="   24.667">  2  5  1 -1</clus>
</clustering>
</event>
<event>
 9    1  0.1315259E-005  0.9975748E+02  0.7546771E-02  0.1284380E+00
         21   -1    0    0  501  502  0.00000000000E+00  0.00000000000E+00  0.15449432597E+03  0.15449432597E+03  0.00000000000E+00 0.  1.
         -2   -1    0    0    0  501 -0.00000000000E+00 -0.00000000000E+00 -0.25338595408E+03  0.25338595408E+03  0.00000000000E+00 0. -1.
         23    2    1    2    0    0  0.26859714583E+02  0.10530120816E+02 -0.18531934393E+03  0.20852553060E+03  0.91144445607E+02 0.  0.
         23    2    1    2    0    0  0.17099489439E+02  0.16297627051E+02  0.22258460245E+01  0.10065270008E+03  0.97816187085E+02 0.  0.
        -11    1    4    4    0    0 -0.26841417680E+02 -0.14356612678E+02 -0.26056664807E+02  0.40068988152E+02  0.00000000000E+00 0. -1.
         11    1    4    4    0    0  0.43940907119E+02  0.30654239728E+02  0.28282510832E+02  0.60583711926E+02  0.00000000000E+00 0.  1.
        -13    1    3    3    0    0  0.17073561039E+02 -0.38073498322E+02 -0.11618979164E+03  0.12345511510E+03  0.00000000000E+00 0.  1.
         13    1    3    3    0    0  0.97861535435E+01  0.48603619139E+02 -0.69129552283E+02  0.85070415500E+02  0.00000000000E+00 0. -1.
         -2    1    1    2    0  502 -0.43959204022E+02 -0.26827747867E+02  0.84201869798E+02  0.98702049378E+02  0.00000000000E+00 0. -1.
<scales pt_clust_5="13000.00000" pt_clust_6="13000.00000" pt_clust_7="13000.00000" pt_clust_8="13000.00000" pt_clust_9="51.49893"></scales>
<clustering>
<clus scale="   51.499">  1  9  2 -1</clus>
<clus scale="   91.144">  7  8 -1 -1</clus>
<clus scale="   93.225">  2  7  1 -1</clus>
<clus scale="   97.816">  5  6 -1 -1</clus>
<clus scale="   51.499">  1  5  2 -1</clus>
</clustering>
</event>
<event>
 9    1  0.1315259E-005  0.9797051E+02  0.7546771E-02  0.1285483E+00
          1   -1    0    0  502    0 -0.00000000000E+00  0.00000000000E+00  0.23598600375E+03  0.23598600375E+03  0.00000000000E+00 0. -1.
         21   -1    0    0  501  502  0.00000000000E+00 -0.00000000000E+00 -0.10229480467E+03  0.10229480467E+03  0.00000000000E+00 0. -1.
         23    2    1    2    0    0  0.53578351159E+01 -0.18841185182E+02  0.98834765808E+02  0.13532187738E+03  0.90332734424E+02 0.  0.
         23    2    1    2    0    0 -0.27526116805E+02  0.45773635167E+02  0.88892463264E+02  0.13864188732E+03  0.92015162395E+02 0.  0.
        -11    1    3    3    0    0  0.17822488912E+02 -0.51531034728E+02  0.43041934385E+02  0.69467235203E+02  0.00000000000E+00 0. -1.
         11    1    3    3    0    0 -0.12464653796E+02  0.32689849547E+02  0.55792831424E+02  0.65854642174E+02  0.00000000000E+00 0.  1.
        -11    1    4    4    0    0 -0.22516693857E+02  0.52111643768E+01  0.94593086989E+02  0.97375612155E+02  0.00000000000E+00 0. -1.
         11    1    4    4    0    0 -0.50094229482E+01  0.40562470790E+02 -0.57006237247E+01  0.41266275161E+02  0.00000000000E+00 0.  1.
          1    1    1    2  501    0  0.22168281689E+02 -0.26932449985E+02 -0.54036029996E+02  0.64317043720E+02  0.00000000000E+00 0. -1.
<scales pt_clust_5="13000.00000" pt_clust_6="13000.00000" pt_clust_7="13000.00000" pt_clust_8="13000.00000" pt_clust_9="34.88251"></scales>
<clustering>
<clus scale="   34.883">  2  9  1 -1</clus>
<clus scale="   90.333">  5  6 -1 -1</clus>
<clus scale="   92.015">  7  8 -1 -1</clus>
<clus scale="   96.392">  1  5  2 -1</clus>
<clus scale="   34.883">  2  5  1 -1</clus>
</clustering>
</event>
<event>
 9    1  0.1315259E-005  0.1527723E+03  0.7546771E-02  0.1197693E+00
         21   -1    0    0  501  502  0.00000000000E+00  0.00000000000E+00  0.57334255344E+03  0.57334255344E+03  0.00000000000E+00 0. -1.
          1   -1    0    0  502    0 -0.00000000000E+00 -0.00000000000E+00 -0.42889667686E+03  0.42889667686E+03  0.00000000000E+00 0. -1.
         23    2    1    2    0    0 -0.89748215375E+02 -0.74766226254E+02 -0.34431451327E+03  0.37421319477E+03  0.88534176153E+02 0.  0.
         23    2    1    2    0    0  0.14404892940E+03  0.19237001751E+03  0.26405268233E+03  0.36865608144E+03  0.91799616779E+02 0.  0.
        -11    1    4    4    0    0  0.58801856350E+02  0.14662922706E+03  0.18822764262E+03  0.24573854802E+03  0.00000000000E+00 0.  1.
         11    1    4    4    0    0  0.85247073052E+02  0.45740790448E+02  0.75825039709E+02  0.12291753342E+03  0.00000000000E+00 0. -1.
        -13    1    3    3    0    0 -0.47058299638E+02 -0.76319639548E+02 -0.14586889225E+03  0.17122179964E+03  0.00000000000E+00 0. -1.
         13    1    3    3    0    0 -0.42689915736E+02  0.15534132943E+01 -0.19844562102E+03  0.20299139514E+03  0.00000000000E+00 0.  1.
          1    1    1    2  501    0 -0.54300714027E+02 -0.11760379126E+03  0.22470770753E+03  0.25936995409E+03  0.00000000000E+00 0. -1.
<scales pt_clust_5="13000.00000" pt_clust_6="13000.00000" pt_clust_7="13000.00000" pt_clust_8="13000.00000" pt_clust_9="129.53463"></scales>
<clustering>
<clus scale="   88.534">  7  8 -1 -1</clus>
<clus scale="   91.800">  5  6 -1 -1</clus>
<clus scale="  129.535">  1  9  2 -1</clus>
<clus scale="  150.833">  2  7  1 -1</clus>
<clus scale="  129.535">  1  5  2 -1</clus>
</clustering>
</event>
<event>
 9    1  0.1315259E-005  0.1212311E+03  0.7546771E-02  0.1243167E+00
         21   -1    0    0  501  502  0.00000000000E+00  0.00000000000E+00  0.63965444770E+03  0.63965444770E+03  0.00000000000E+00 0.  1.
          3   -1    0    0  502    0 -0.00000000000E+00 -0.00000000000E+00 -0.28129830413E+02  0.28129830413E+02  0.00000000000E+00 0. -1.
         23    2    1    2    0    0  0.62614703941E+02  0.27059209273E+02  0.24579017434E+03  0.27164467865E+03  0.93408884391E+02 0.  0.
         23    2    1    2    0    0 -0.71722689055E+02 -0.53185019933E+02  0.29810866088E+03  0.32307278226E+03  0.86801258485E+02 0.  0.
        -11    1    4    4    0    0 -0.55783227643E+02 -0.76652178738E+02  0.20758099318E+03  0.22820428068E+03  0.00000000000E+00 0.  1.
         11    1    4    4    0    0 -0.15939461412E+02  0.23467158805E+02  0.90527667696E+02  0.94868501574E+02  0.00000000000E+00 0. -1.
        -11    1    3    3    0    0  0.24055780611E+02 -0.21551903500E+02  0.17304115499E+03  0.17602956129E+03  0.00000000000E+00 0.  1.
         11    1    3    3    0    0  0.38558923330E+02  0.48611112773E+02  0.72749019345E+02  0.95615117366E+02  0.00000000000E+00 0. -1.
          3    1    1    2  501    0  0.91079851140E+01  0.26125810660E+02  0.67625782069E+02  0.73066817201E+02  0.00000000000E+00 0. -1.
<scales pt_clust_5="13000.00000" pt_clust_6="13000.00000" pt_clust_7="13000.00000" pt_clust_8="13000.00000" pt_clust_9="27.66791"></scales>
<clustering>
<clus scale="   27.668">  1  9  2 -1</clus>
<clus scale="   86.801">  5  6 -1 -1</clus>
<clus scale="   93.409">  7  8 -1 -1</clus>
<clus scale="  116.216">  1  5  2 -1</clus>
<clus scale="   27.668">  1  5  2 -1</clus>
</clustering>
</event>
<event>
 9    1  0.1315259E-005  0.1196118E+03  0.7546771E-02  0.1247075E+00
          2   -1    0    0  502    0 -0.00000000000E+00  0.00000000000E+00  0.50647138783E+03  0.50647138783E+03  0.00000000000E+00 0. -1.
         21   -1    0    0  501  502  0.00000000000E+00 -0.00000000000E+00 -0.78042477048E+02  0.78042477048E+02  0.00000000000E+00 0. -1.
         23    2    1    2    0    0 -0.22349295092E+01 -0.80434184035E+02  0.41233114162E+03  0.43029170423E+03  0.93055507709E+02 0.  0.
         23    2    1    2    0    0 -0.97810452008E+01  0.56564542923E+02  0.48813267150E+02  0.11197944266E+03  0.82833834677E+02 0.  0.
        -11    1    4    4    0    0 -0.38592317031E+02  0.49701071963E+02  0.10888859889E+02  0.63860243953E+02  0.00000000000E+00 0. -1.
         11    1    4    4    0    0  0.28811271830E+02  0.68634709600E+01  0.37924407261E+02  0.48119198706E+02  0.00000000000E+00 0.  1.
        -11    1    3    3    0    0  0.35407932038E+02 -0.76755910762E+02  0.30474185145E+03  0.31624798421E+03  0.00000000000E+00 0. -1.
         11    1    3    3    0    0 -0.37642861548E+02 -0.36782732731E+01  0.10758929016E+03  0.11404372003E+03  0.00000000000E+00 0.  1.
          2    1    1    2  501    0  0.12015974710E+02  0.23869641112E+02 -0.32715497979E+02  0.42242717989E+02  0.00000000000E+00 0. -1.
<scales pt_clust_5="13000.00000" pt_clust_6="13000.00000" pt_clust_7="13000.00000" pt_clust_8="13000.00000" pt_clust_9="26.72346"></scales>
<clustering>
<clus scale="   26.723">  2  9  1 -1</clus>
<clus scale="   82.834">  5  6 -1 -1</clus>
<clus scale="   93.056">  7  8 -1 -1</clus>
<clus scale="  111.844">  2  5  1 -1</clus>
<clus scale="   26.723">  2  5  1 -1</clus>
</clustering>
</event>
<event>
 9    1  0.1315259E-005  0.9982603E+02  0.7546771E-02  0.1280758E+00
          3   -1    0    0  502    0 -0.00000000000E+00  0.00000000000E+00  0.14555634831E+03  0.14555634831E+03  0.00000000000E+00 0. -1.
         21   -1    0    0  501  502  0.00000000000E+00 -0.00000000000E+00 -0.16694044927E+03  0.16694044927E+03  0.00000000000E+00 0. -1.
         23    2    1    2    0    0 -0.42834673554E+02 -0.10315341828E+02  0.76681572922E+02  0.12680415341E+03  0.90873616413E+02 0.  0.
         23    2    1    2    0    0  0.15147637582E+02  0.47195917172E+02 -0.39054201058E+02  0.11079870100E+03  0.91072586442E+02 0.  0.
        -11    1    3    3    0    0 -0.71614752269E+02 -0.75348538268E+01  0.52601072028E+02  0.89175778905E+02  0.00000000000E+00 0.  1.
         11    1    3    3    0    0  0.28780078715E+02 -0.27804880007E+01  0.24080500894E+02  0.37628374502E+02  0.00000000000E+00 0. -1.
        -11    1    4    4    0    0 -0.30486075321E+02  0.77321267660E+01 -0.39467228532E+02  0.50466312534E+02  0.00000000000E+00 0.  1.
         11    1    4    4    0    0  0.45633712903E+02  0.39463790406E+02  0.41302747410E+00  0.60332388467E+02  0.00000000000E+00 0. -1.
          3    1    1    2  501    0  0.27687035972E+02 -0.36880575344E+02 -0.59011472827E+02  0.74893943172E+02  0.00000000000E+00 0. -1.
<scales pt_clust_5="13000.00000" pt_clust_6="13000.00000" pt_clust_7="13000.00000" pt_clust_8="13000.00000" pt_clust_9="46.11669"></scales>
<clustering>
<clus scale="   46.117">  2  9  1 -1</clus>
<clus scale="   90.874">  5  6 -1 -1</clus>
<clus scale="   91.073">  7  8 -1 -1</clus>
<clus scale="   99.645">  1  5  2 -1</clus>
<clus scale="   46.117">  2  5  1 -1</clus>
</clustering>
</event>
<event>
 9    1  0.1315259E-005  0.1154722E+03  0.7546771E-02  0.1255979E+00
          2   -1    0    0  502    0 -0.00000000000E+00  0.00000000000E+00  0.15457400363E+03  0.15457400363E+03  0.00000000000E+00 0. -1.
         21   -1    0    0  501  502  0.00000000000E+00 -0.00000000000E+00 -0.13970797359E+03  0.13970797359E+03  0.00000000000E+00 0.  1.
         23    2    1    2    0    0  0.10119747944E+01 -0.65261202724E+02  0.70754558430E+02  0.12311959709E+03  0.76760530054E+02 0.  0.
         23    2    1    2    0    0 -0.12645243093E+02  0.83492036788E+02 -0.15757149013E+02  0.12557483960E+03  0.91596562241E+02 0.  0.
        -13    1    4    4    0    0 -0.13808601929E+02  0.10356127214E+03 -0.12982561917E+02  0.10528134445E+03  0.00000000000E+00 0.  1.
         13    1    4    4    0    0  0.11633588353E+01 -0.20069235357E+02 -0.27745870959E+01  0.20293495144E+02  0.00000000000E+00 0. -1.
        -13    1    3    3    0    0  0.37530223736E+02 -0.20344793521E+02  0.33685986767E+02  0.54379904575E+02  0.00000000000E+00 0.  1.
         13    1    3    3    0    0 -0.36518248942E+02 -0.44916409204E+02  0.37068571664E+02  0.68739692512E+02  0.00000000000E+00 0. -1.
          2    1    1    2  501    0  0.11633268299E+02 -0.18230834063E+02 -0.40131379376E+02  0.45587540541E+02  0.00000000000E+00 0. -1.
<scales pt_clust_5="13000.00000" pt_clust_6="13000.00000" pt_clust_7="13000.00000" pt_clust_8="13000.00000" pt_clust_9="21.62629"></scales>
<clustering>
<clus scale="   21.626">  2  9  1 -1</clus>
<clus scale="   76.761">  7  8 -1 -1</clus>
<clus scale="   91.597">  5  6 -1 -1</clus>
<clus scale="  104.096">  1  7  2 -1</clus>
<clus scale="   21.626">  2  5  1 -1</clus>
</clustering>
</event>
<event>
 9    1  0.1315259E-005  0.1048223E+03  0.7546771E-02  0.1270476E+00
         21   -1    0    0  501  502  0.00000000000E+00  0.00000000000E+00  0.10413851395E+03  0.10413851395E+03  0.00000000000E+00 0. -1.
         -1   -1    0    0    0  501 -0.00000000000E+00 -0.00000000000E+00 -0.23889761181E+03  0.23889761181E+03  0.00000000000E+00 0.  1.
         23    2    1    2    0    0 -0.39139355487E+01  0.54428351780E+02 -0.14110279810E+03  0.17787239634E+03  0.93545846396E+02 0.  0.
         23    2    1    2    0    0  0.21211317719E+02 -0.31088570132E+02 -0.41613583507E+02  0.10909372048E+03  0.93559234310E+02 0.  0.
        -13    1    3    3    0    0  0.30901645417E+02  0.39543185023E+02 -0.25632406285E+02  0.56352421627E+02  0.00000000000E+00 0. -1.
         13    1    3    3    0    0 -0.34815580966E+02  0.14885166757E+02 -0.11547039182E+03  0.12151997471E+03  0.00000000000E+00 0.  1.
        -13    1    4    4    0    0  0.32244487433E+02 -0.60753822709E+02 -0.33028349435E+02  0.76299448294E+02  0.00000000000E+00 0.  1.
         13    1    4    4    0    0 -0.11033169714E+02  0.29665252577E+02 -0.85852340718E+01  0.32794272190E+02  0.00000000000E+00 0. -1.
         -1    1    1    2    0  502 -0.17297382170E+02 -0.23339781649E+02  0.47957283748E+02  0.56070008934E+02  0.00000000000E+00 0.  1.
<scales pt_clust_5="13000.00000" pt_clust_6="13000.00000" pt_clust_7="13000.00000" pt_clust_8="13000.00000" pt_clust_9="29.05073"></scales>
<clustering>
<clus scale="   29.051">  1  9  2 -1</clus>
<clus scale="   93.546">  5  6 -1 -1</clus>
<clus scale="   93.559">  7  8 -1 -1</clus>
<clus scale="  104.810">  2  5  1 -1</clus>
<clus scale="   29.051">  1  5  2 -1</clus>
</clustering>
</event>
<event>
 9    1  0.1315259E-005  0.1578483E+03  0.7546771E-02  0.1195873E+00
         -3   -1    0    0    0  501 -0.00000000000E+00  0.00000000000E+00  0.85993014551E+02  0.85993014551E+02  0.00000000000E+00 0.  1.
         21   -1    0    0  501  502  0.00000000000E+00 -0.00000000000E+00 -0.46755479939E+03  0.46755479939E+03  0.00000000000E+00 0.  1.
         23    2    1    2    0    0  0.98591297354E+02 -0.47312970001E+02 -0.35977917308E+02  0.15338870396E+03  0.10136529448E+03 0.  0.
         23    2    1    2    0    0 -0.71420750429E+02  0.34522343775E+02 -0.17867156348E+03  0.23056678708E+03  0.12224892597E+03 0.  0.
        -11    1    4    4    0    0 -0.80541505163E+02 -0.24743744370E+02 -0.12039708378E+03  0.14695116441E+03  0.00000000000E+00 0. -1.
         11    1    4    4    0    0  0.91207547339E+01  0.59266088145E+02 -0.58274479697E+02  0.83615622672E+02  0.00000000000E+00 0.  1.
        -11    1    3    3    0    0  0.44403925982E+00  0.24605473469E+02  0.47760802281E+01  0.25068654488E+02  0.00000000000E+00 0. -1.
         11    1    3    3    0    0  0.98147258095E+02 -0.71918443469E+02 -0.40753997536E+02  0.12832004948E+03  0.00000000000E+00 0.  1.
         -3    1    1    2    0  502 -0.27170546925E+02  0.12790626225E+02 -0.16691230405E+03  0.16959232289E+03  0.00000000000E+00 0.  1.
<scales pt_clust_5="13000.00000" pt_clust_6="13000.00000" pt_clust_7="13000.00000" pt_clust_8="13000.00000" pt_clust_9="30.03063"></scales>
<clustering>
<clus scale="   30.031">  2  9  1 -1</clus>
<clus scale="  101.365">  7  8 -1 -1</clus>
<clus scale="  122.249">  5  6 -1 -1</clus>
<clus scale="  142.289">  1  7  2 -1</clus>
<clus scale="   30.031">  2  5  1 -1</clus>
</clustering>
</event>
<event>
 9    1  0.1315259E-005  0.9155495E+02  0.7546771E-02  0.1301446E+00
          1   -1    0    0  502    0 -0.00000000000E+00  0.00000000000E+00  0.32623127197E+03  0.32623127197E+03  0.00000000000E+00 0. -1.
         21   -1    0    0  501  502  0.00000000000E+00 -0.00000000000E+00 -0.70146133428E+02  0.70146133428E+02  0.00000000000E+00 0.  1.
         23    2    1    2    0    0  0.47882267079E+01  0.46591693285E+01  0.14284558791E+03  0.16727349340E+03  0.86780900177E+02 0.  0.
         23    2    1    2    0    0  0.10411606891E+02  0.33430364271E+02  0.14684280428E+03  0.17608480067E+03  0.90647984222E+02 0.  0.
        -11    1    3    3    0    0  0.20299485381E+02  0.36919019152E+02  0.11323245965E+03  0.12081669173E+03  0.00000000000E+00 0. -1.
         11    1    3    3    0    0 -0.15511258673E+02 -0.32259849823E+02  0.29613128257E+02  0.46456801670E+02  0.00000000000E+00 0.  1.
        -11    1    4    4    0    0  0.39235813892E+02  0.49308712387E+02  0.10927313780E+03  0.12614046478E+03  0.00000000000E+00 0. -1.
         11    1    4    4    0    0 -0.28824207001E+02 -0.15878348116E+02  0.37569666476E+02  0.49944335888E+02  0.00000000000E+00 0.  1.
          1    1    1    2  501    0 -0.15199833599E+02 -0.38089533599E+02 -0.33603253643E+02  0.53019111334E+02  0.00000000000E+00 0. -1.
<scales pt_clust_5="13000.00000" pt_clust_6="13000.00000" pt_clust_7="13000.00000" pt_clust_8="13000.00000" pt_clust_9="41.01033"></scales>
<clustering>
<clus scale="   41.010">  2  9  1 -1</clus>
<clus scale="   86.781">  5  6 -1 -1</clus>
<clus scale="   87.728">  1  5  2 -1</clus>
<clus scale="   90.648">  7  8 -1 -1</clus>
<clus scale="   41.010">  2  5  1 -1</clus>
</clustering>
</event>
<event>
 9    1  0.1315259E-005  0.9569034E+02  0.7546771E-02  0.1295343E+00
         21   -1    0    0  501  502  0.00000000000E+00  0.00000000000E+00  0.74120512594E+02  0.74120512594E+02  0.00000000000E+00 0. -1.
          1   -1    0    0  502    0 -0.00000000000E+00 -0.00000000000E+00 -0.41755149931E+03  0.41755149931E+03  0.00000000000E+00 0. -1.
         23    2    1    2    0    0 -0.91477879978E+01  0.28322798229E+02 -0.32755978680E+03  0.33880283614E+03  0.81277825501E+02 0.  0.
         23    2    1    2    0    0 -0.11473357508E+02 -0.23849789905E+02 -0.53878813610E+02  0.10939713712E+03  0.91456856731E+02 0.  0.
        -11    1    4    4    0    0 -0.63350703215E+01  0.21004254428E+02  0.15330258793E+02  0.26764316818E+02  0.00000000000E+00 0.  1.
         11    1    4    4    0    0 -0.51382871862E+01 -0.44854044334E+02 -0.69209072403E+02  0.82632820303E+02  0.00000000000E+00 0. -1.
        -13    1    3    3    0    0 -0.21628550035E+02  0.53741356914E+02 -0.23303694671E+03  0.24012943625E+03  0.00000000000E+00 0. -1.
         13    1    3    3    0    0  0.12480762037E+02 -0.25418558684E+02 -0.94522840091E+02  0.98673399888E+02  0.00000000000E+00 0.  1.
          1    1    1    2  501    0  0.20621145505E+02 -0.44730083241E+01  0.38007613696E+02  0.43472038649E+02  0.00000000000E+00 0. -1.
<scales pt_clust_5="13000.00000" pt_clust_6="13000.00000" pt_clust_7="13000.00000" pt_clust_8="13000.00000" pt_clust_9="21.10070"></scales>
<clustering>
<clus scale="   21.101">  1  9  2 -1</clus>
<clus scale="   81.278">  7  8 -1 -1</clus>
<clus scale="   86.014">  2  7  1 -1</clus>
<clus scale="   91.457">  5  6 -1 -1</clus>
<clus scale="   21.101">  1  5  2 -1</clus>
</clustering>
</event>
<event>
 9    1  0.1315259E-005  0.1103456E+03  0.7546771E-02  0.1262693E+00
         21   -1    0    0  501  502  0.00000000000E+00  0.00000000000E+00  0.15512070858E+03  0.15512070858E+03  0.00000000000E+00 0. -1.
          2   -1    0    0  502    0 -0.00000000000E+00 -0.00000000000E+00 -0.42993140072E+03  0.42993140072E+03  0.00000000000E+00 0. -1.
         23    2    1    2    0    0 -0.32386703369E+02  0.48116773937E+02 -0.34243832726E+03  0.35915642682E+03  0.91461513572E+02 0.  0.
         23    2    1    2    0    0  0.44325847749E+01 -0.10525277625E+03  0.26711896946E+01  0.13498201294E+03  0.84351726993E+02 0.  0.
        -11    1    3    3    0    0 -0.54546784575E+02 -0.85088479254E+00 -0.17275819477E+03  0.18116696601E+03  0.00000000000E+00 0. -1.
         11    1    3    3    0    0  0.22160081206E+02  0.48967658729E+02 -0.16968013249E+03  0.17798946082E+03  0.00000000000E+00 0.  1.
        -11    1    4    4    0    0  0.29283118708E+02 -0.42958040923E+02 -0.30376829997E+02  0.60213338405E+02  0.00000000000E+00 0.  1.
         11    1    4    4    0    0 -0.24850533933E+02 -0.62294735325E+02  0.33048019691E+02  0.74768674533E+02  0.00000000000E+00 0. -1.
          2    1    1    2  501    0  0.27954118594E+02  0.57136002311E+02  0.64956445426E+02  0.90913669538E+02  0.00000000000E+00 0. -1.
<scales pt_clust_5="13000.00000" pt_clust_6="13000.00000" pt_clust_7="13000.00000" pt_clust_8="13000.00000" pt_clust_9="63.60783"></scales>
<clustering>
<clus scale="   63.608">  1  9  2 -1</clus>
<clus scale="   84.352">  7  8 -1 -1</clus>
<clus scale="   91.462">  5  6 -1 -1</clus>
<clus scale="  104.528">  1  7  2 -1</clus>
<clus scale="   63.608">  1  5  2 -1</clus>
</clustering>
</event>
<event>
 9    1  0.1315259E-005  0.1050263E+03  0.7546771E-02  0.1271579E+00
          1   -1    0    0  502    0 -0.00000000000E+00  0.00000000000E+00  0.38012290400E+03  0.38012290400E+03  0.00000000000E+00 0. -1.
         21   -1    0    0  501  502  0.00000000000E+00 -0.00000000000E+00 -0.15492532584E+03  0.15492532584E+03  0.00000000000E+00 0.  1.
         23    2    1    2    0    0 -0.47571880836E+02 -0.46816017062E+02  0.22060391324E+03  0.24774000344E+03  0.90852624975E+02 0.  0.
         23    2    1    2    0    0  0.13006066192E+02  0.17537506081E+02  0.12535197938E+03  0.15833304560E+03  0.94231166381E+02 0.  0.
        -11    1    3    3    0    0 -0.73043404609E+02 -0.47655299491E+02  0.17324369097E+03  0.19395809596E+03  0.00000000000E+00 0.  1.
         11    1    3    3    0    0  0.25471523774E+02  0.83928242943E+00  0.47360222273E+02  0.53781907479E+02  0.00000000000E+00 0. -1.
        -13    1    4    4    0    0  0.38286735973E+02  0.22622078679E+02  0.12485828226E+03  0.13254140200E+03  0.00000000000E+00 0. -1.
         13    1    4    4    0    0 -0.25280669781E+02 -0.50845725977E+01  0.49369712661E+00  0.25791643607E+02  0.00000000000E+00 0.  1.
          1    1    1    2  501    0  0.34565814644E+02  0.29278510980E+02 -0.12075831447E+03  0.12897518079E+03  0.00000000000E+00 0. -1.
<scales pt_clust_5="13000.00000" pt_clust_6="13000.00000" pt_clust_7="13000.00000" pt_clust_8="13000.00000" pt_clust_9="45.29930"></scales>
<clustering>
<clus scale="   45.299">  2  9  1 -1</clus>
<clus scale="   90.853">  5  6 -1 -1</clus>
<clus scale="   94.231">  7  8 -1 -1</clus>
<clus scale="  102.006">  1  5  2 -1</clus>
<clus scale="   45.299">  2  5  1 -1</clus>
</clustering>
</event>
<event>
 9    1  0.1315259E-005  0.1063551E+03  0.7546771E-02  0.1268528E+00
         -4   -1    0    0    0  501 -0.00000000000E+00  0.00000000000E+00  0.39920684915E+03  0.39920684915E+03  0.00000000000E+00 0.  1.
         21   -1    0    0  501  502  0.00000000000E+00 -0.00000000000E+00 -0.11941825374E+03  0.11941825374E+03  0.00000000000E+00 0.  1.
         23    2    1    2    0    0  0.37893403804E+02  0.44963187506E+02  0.29688065522E+03  0.31638983736E+03  0.92232355815E+02 0.  0.
         23    2    1    2    0    0  0.12797417272E+02 -0.29995903431E+02  0.53915709310E+02  0.11371587665E+03  0.94661865497E+02 0.  0.
        -11    1    4    4    0    0  0.34746891355E+02  0.23491931589E+02  0.17926255264E+02  0.45613242994E+02  0.00000000000E+00 0.  1.
         11    1    4    4    0    0 -0.21949474083E+02 -0.53487835021E+02  0.35989454045E+02  0.68102633651E+02  0.00000000000E+00 0. -1.
        -13    1    3    3    0    0 -0.22531045430E+02  0.40282855764E+02  0.95181214313E+02  0.10578194569E+03  0.00000000000E+00 0. -1.
         13    1    3    3    0    0  0.60424449234E+02  0.46803317414E+01  0.20169944090E+03  0.21060789166E+03  0.00000000000E+00 0.  1.
         -4    1    1    2    0  502 -0.50690821076E+02 -0.14967284074E+02 -0.71007769112E+02  0.88519388882E+02  0.00000000000E+00 0.  1.
<scales pt_clust_5="13000.00000" pt_clust_6="13000.00000" pt_clust_7="13000.00000" pt_clust_8="13000.00000" pt_clust_9="52.85432"></scales>
<clustering>
<clus scale="   52.854">  2  9  1 -1</clus>
<clus scale="   92.232">  7  8 -1 -1</clus>
<clus scale="   94.662">  5  6 -1 -1</clus>
<clus scale="  104.199">  1  7  2 -1</clus>
<clus scale="   52.854">  2  5  1 -1</clus>
</clustering>
</event>
<event>
 9    1  0.1315259E-005  0.2942403E+03  0.7546771E-02  0.1088237E+00
          2   -1    0    0  502    0 -0.00000000000E+00  0.00000000000E+00  0.48987420905E+03  0.48987420905E+03  0.00000000000E+00 0. -1.
         21   -1    0    0  501  502  0.00000000000E+00 -0.00000000000E+00 -0.79649245895E+03  0.79649245895E+03  0.00000000000E+00 0. -1.
         23    2    1    2    0    0  0.98285952148E+02  0.23609411405E+03  0.18722031102E+03  0.32956786807E+03  0.90349187760E+02 0.  0.
         23    2    1    2    0    0 -0.33774526046E+03 -0.20785179646E+03  0.46411223050E-01  0.40719825904E+03  0.92391502622E+02 0.  0.
        -11    1    4    4    0    0 -0.83092870256E+02 -0.93972031685E+02 -0.22071252362E+02  0.12736682459E+03  0.00000000000E+00 0.  1.
         11    1    4    4    0    0 -0.25465239021E+03 -0.11387976478E+03  0.22117663586E+02  0.27983143445E+03  0.00000000000E+00 0. -1.
        -11    1    3    3    0    0  0.81483895592E+02  0.10083516992E+03  0.58998553843E+02  0.14243660376E+03  0.00000000000E+00 0. -1.
         11    1    3    3    0    0  0.16802056556E+02  0.13525894412E+03  0.12822175718E+03  0.18713126431E+03  0.00000000000E+00 0.  1.
          2    1    1    2  501    0  0.23945930831E+03 -0.28242317583E+02 -0.49388497214E+03  0.54960054089E+03  0.00000000000E+00 0. -1.
<scales pt_clust_5="13000.00000" pt_clust_6="13000.00000" pt_clust_7="13000.00000" pt_clust_8="13000.00000" pt_clust_9="241.11903"></scales>
<clustering>
<clus scale="   90.349">  7  8 -1 -1</clus>
<clus scale="   92.392">  5  6 -1 -1</clus>
<clus scale="  241.119">  2  9  1 -1</clus>
<clus scale="  293.605">  1  7  2 -1</clus>
<clus scale="  241.119">  2  5  1 -1</clus>
</clustering>
</event>
<event>
 9    1  0.1315259E-005  0.1088683E+03  0.7546771E-02  0.1262967E+00
         21   -1    0    0  501  502  0.00000000000E+00  0.00000000000E+00  0.45766709019E+02  0.45766709019E+02  0.00000000000E+00 0.  1.
          2   -1    0    0  502    0 -0.00000000000E+00 -0.00000000000E+00 -0.10287107660E+04  0.10287107660E+04  0.00000000000E+00 0. -1.
         23    2    1    2    0    0  0.51012704289E+02  0.18175798312E+02 -0.52331252544E+03  0.53409191420E+03  0.92008249073E+02 0.  0.
         23    2    1    2    0    0 -0.85990733645E+02  0.15063675968E+02 -0.65313963245E+02  0.14312661522E+03  0.92725366443E+02 0.  0.
        -11    1    4    4    0    0 -0.34098111970E+02  0.59492369967E+01  0.22096772614E+02  0.41065094919E+02  0.00000000000E+00 0.  1.
         11    1    4    4    0    0 -0.51892621675E+02  0.91144389709E+01 -0.87410735858E+02  0.10206152030E+03  0.00000000000E+00 0. -1.
        -13    1    3    3    0    0 -0.23195817064E+02  0.21752296940E+02 -0.18552272888E+03  0.18822829565E+03  0.00000000000E+00 0.  1.
         13    1    3    3    0    0  0.74208521353E+02 -0.35764986288E+01 -0.33778979655E+03  0.34586361855E+03  0.00000000000E+00 0. -1.
          2    1    1    2  501    0  0.34978029357E+02 -0.33239474279E+02 -0.39431756835E+03  0.39725894565E+03  0.00000000000E+00 0. -1.
<scales pt_clust_5="13000.00000" pt_clust_6="13000.00000" pt_clust_7="13000.00000" pt_clust_8="13000.00000" pt_clust_9="48.25275"></scales>
<clustering>
<clus scale="   48.253">  1  9  2 -1</clus>
<clus scale="   92.008">  7  8 -1 -1</clus>
<clus scale="   92.725">  5  6 -1 -1</clus>
<clus scale="  108.258">  2  7  1 -1</clus>
<clus scale="   48.253">  1  5  2 -1</clus>
</clustering>
</event>
<event>
 9    1  0.1315259E-005  0.1273382E+03  0.7546771E-02  0.1231713E+00
         21   -1    0    0  501  502  0.00000000000E+00  0.00000000000E+00  0.43121656667E+03  0.43121656667E+03  0.00000000000E+00 0. -1.
         -1   -1    0    0    0  501 -0.00000000000E+00 -0.00000000000E+00 -0.64558774871E+02  0.64558774871E+02  0.00000000000E+00 0.  1.
         23    2    1    2    0    0 -0.94358455320E+02  0.31820965828E+02  0.50503427047E+02  0.14434680276E+03  0.91483940491E+02 0.  0.
         23    2    1    2    0    0  0.60201665423E+02 -0.63143947410E+01  0.21694739489E+03  0.24345032647E+03  0.92400093110E+02 0.  0.
        -11    1    3    3    0    0 -0.36305650060E+02 -0.57374286342E+01  0.64089569138E+02  0.73881602486E+02  0.00000000000E+00 0.  1.
         11    1    3    3    0    0 -0.58052805260E+02  0.37558394462E+02 -0.13586142091E+02  0.70465200277E+02  0.00000000000E+00 0. -1.
        -13    1    4    4    0    0  0.31589731020E+01  0.30480005611E+02  0.24037585990E+02  0.38946314246E+02  0.00000000000E+00 0. -1.
         13    1    4    4    0    0  0.57042692321E+02 -0.36794400352E+02  0.19290980890E+03  0.20450401223E+03  0.00000000000E+00 0.  1.
         -1    1    1    2    0  502  0.34156789896E+02 -0.25506571087E+02  0.99206969855E+02  0.10797821230E+03  0.00000000000E+00 0.  1.
<scales pt_clust_5="13000.00000" pt_clust_6="13000.00000" pt_clust_7="13000.00000" pt_clust_8="13000.00000" pt_clust_9="42.62947"></scales>
<clustering>
<clus scale="   42.629">  1  9  2 -1</clus>
<clus scale="   91.484">  5  6 -1 -1</clus>
<clus scale="   92.400">  7  8 -1 -1</clus>
<clus scale="  126.675">  2  5  1 -1</clus>
<clus scale="   42.629">  1  5  2 -1</clus>
</clustering>
</event>
<event>
 9    1  0.1315259E-005  0.1008997E+03  0.7546771E-02  0.1281449E+00
          2   -1    0    0  502    0 -0.00000000000E+00  0.00000000000E+00  0.33452448349E+03  0.33452448349E+03  0.00000000000E+00 0. -1.
         21   -1    0    0  501  502  0.00000000000E+00 -0.00000000000E+00 -0.18893523762E+03  0.18893523762E+03  0.00000000000E+00 0.  1.
         23    2    1    2    0    0 -0.28082427858E+02  0.34561074125E+01  0.27381376987E+03  0.28988294517E+03  0.90871193990E+02 0.  0.
         23    2    1    2    0    0  0.31381738527E+02  0.28615933447E+02 -0.45774957619E+01  0.10579536553E+03  0.96788536205E+02 0.  0.
        -11    1    4    4    0    0  0.35010120731E+02 -0.28614122525E+02  0.10670316670E+02  0.46457854227E+02  0.00000000000E+00 0.  1.
         11    1    4    4    0    0 -0.36283822039E+01  0.57230055972E+02 -0.15247812432E+02  0.59337511306E+02  0.00000000000E+00 0. -1.
        -13    1    3    3    0    0  0.18339431163E+02  0.13389370337E+02  0.16105788473E+02  0.27838936685E+02  0.00000000000E+00 0.  1.
         13    1    3    3    0    0 -0.46421859021E+02 -0.99332629243E+01  0.25770798140E+03  0.26204400848E+03  0.00000000000E+00 0. -1.
          2    1    1    2  501    0 -0.32993106699E+01 -0.32072040859E+02 -0.12364702824E+03  0.12778141041E+03  0.00000000000E+00 0. -1.
<scales pt_clust_5="13000.00000" pt_clust_6="13000.00000" pt_clust_7="13000.00000" pt_clust_8="13000.00000" pt_clust_9="32.24130"></scales>
<clustering>
<clus scale="   32.241">  2  9  1 -1</clus>
<clus scale="   90.871">  7  8 -1 -1</clus>
<clus scale="   95.238">  1  7  2 -1</clus>
<clus scale="   96.789">  5  6 -1 -1</clus>
<clus scale="   32.241">  2  5  1 -1</clus>
</clustering>
</event>
<event>
 9    1  0.1315259E-005  0.1167402E+03  0.7546771E-02  0.1248630E+00
          1   -1    0    0  502    0 -0.00000000000E+00  0.00000000000E+00  0.42890655711E+03  0.42890655711E+03  0.00000000000E+00 0. -1.
         21   -1    0    0  501  502  0.00000000000E+00 -0.00000000000E+00 -0.78787545768E+02  0.78787545768E+02  0.00000000000E+00 0.  1.
         23    2    1    2    0    0  0.64189560055E+02 -0.43837459020E+02  0.19630525685E+03  0.22982053811E+03  0.90772812192E+02 0.  0.
         23    2    1    2    0    0 -0.86890047843E+02 -0.43166246405E+02  0.53983172548E+02  0.14351917521E+03  0.90941549871E+02 0.  0.
        -11    1    4    4    0    0 -0.98805691154E+02 -0.25663894327E+02  0.63588063276E+02  0.12026903952E+03  0.00000000000E+00 0.  1.
         11    1    4    4    0    0  0.11915643312E+02 -0.17502352078E+02 -0.96048907278E+01  0.23250135691E+02  0.00000000000E+00 0. -1.
        -13    1    3    3    0    0  0.70564935658E+01  0.23555590860E+02  0.16892426186E+02  0.29833102833E+02  0.00000000000E+00 0.  1.
         13    1    3    3    0    0  0.57133066489E+02 -0.67393049880E+02  0.17941283067E+03  0.19998743527E+03  0.00000000000E+00 0. -1.
          1    1    1    2  501    0  0.22700487788E+02  0.87003705425E+02  0.99830581943E+02  0.13435438956E+03  0.00000000000E+00 0. -1.
<scales pt_clust_5="13000.00000" pt_clust_6="13000.00000" pt_clust_7="13000.00000" pt_clust_8="13000.00000" pt_clust_9="89.91643"></scales>
<clustering>
<clus scale="   89.916">  2  9  1 -1</clus>
<clus scale="   90.773">  7  8 -1 -1</clus>
<clus scale="   90.942">  5  6 -1 -1</clus>
<clus scale="  116.609">  1  7  2 -1</clus>
<clus scale="   89.916">  2  5  1 -1</clus>
</clustering>
</event>
<event>
 9    1  0.1315259E-005  0.1365401E+03  0.7546771E-02  0.1218368E+00
         21   -1    0    0  501  502  0.00000000000E+00  0.00000000000E+00  0.14963053949E+03  0.14963053949E+03  0.00000000000E+00 0.  1.
          2   -1    0    0  502    0 -0.00000000000E+00 -0.00000000000E+00 -0.38162130383E+03  0.38162130383E+03  0.00000000000E+00 0. -1.
         23    2    1    2    0    0 -0.55398240659E+02 -0.83736813179E+02 -0.31190454161E+03  0.34021271465E+03  0.91539222100E+02 0.  0.
         23    2    1    2    0    0  0.37212844739E+02  0.10418272743E+03  0.51952265345E+02  0.15191637081E+03  0.90225879530E+02 0.  0.
        -13    1    4    4    0    0  0.62385110341E+02  0.79258398382E+02  0.17255123991E+02  0.10233051847E+03  0.00000000000E+00 0. -1.
         13    1    4    4    0    0 -0.25172265602E+02  0.24924329047E+02  0.34697141354E+02  0.49585852338E+02  0.00000000000E+00 0.  1.
        -13    1    3    3    0    0  0.23092494639E+02 -0.32733874243E+01 -0.47998986892E+02  0.53365542408E+02  0.00000000000E+00 0.  1.
         13    1    3    3    0    0 -0.78490735298E+02 -0.80463425755E+02 -0.26390555472E+03  0.28684717224E+03  0.00000000000E+00 0. -1.
          2    1    1    2  501    0  0.18185395920E+02 -0.20445914250E+02  0.27961511921E+02  0.39122757868E+02  0.00000000000E+00 0. -1.
<scales pt_clust_5="13000.00000" pt_clust_6="13000.00000" pt_clust_7="13000.00000" pt_clust_8="13000.00000" pt_clust_9="27.36319"></scales>
<clustering>
<clus scale="   27.363">  1  9  2 -1</clus>
<clus scale="   90.226">  5  6 -1 -1</clus>
<clus scale="   91.539">  7  8 -1 -1</clus>
<clus scale="  135.663">  1  5  2 -1</clus>
<clus scale="   27.363">  1  5  2 -1</clus>
</clustering>
</event>
<event>
 9    1  0.1315259E-005  0.9909650E+02  0.7546771E-02  0.1283284E+00
         -1   -1    0    0    0  501 -0.00000000000E+00  0.00000000000E+00  0.74116165554E+02  0.74116165554E+02  0.00000000000E+00 0.  1.
         21   -1    0    0  501  502  0.00000000000E+00 -0.00000000000E+00 -0.29529839321E+03  0.29529839321E+03  0.00000000000E+00 0. -1.
         23    2    1    2    0    0  0.33598689166E+02 -0.13939768570E+02 -0.45695334670E+02  0.11242487938E+03  0.96063004484E+02 0.  0.
         23    2    1    2    0    0  0.26861798164E+02  0.30851815785E+02 -0.16364288175E+03  0.19310095995E+03  0.93997857669E+02 0.  0.
        -13    1    3    3    0    0  0.21282691787E+02  0.31441292681E+02 -0.52628116349E+02  0.64893963399E+02  0.00000000000E+00 0. -1.
         13    1    3    3    0    0  0.12315997378E+02 -0.45381061251E+02  0.69327816791E+01  0.47530915976E+02  0.00000000000E+00 0.  1.
        -13    1    4    4    0    0 -0.33759216342E+02  0.20090047781E+02 -0.81212922590E+02  0.90215483723E+02  0.00000000000E+00 0.  1.
         13    1    4    4    0    0  0.60621014506E+02  0.10761768005E+02 -0.82429959165E+02  0.10288547623E+03  0.00000000000E+00 0. -1.
         -1    1    1    2    0  502 -0.60460487330E+02 -0.16912047215E+02 -0.11844011227E+02  0.63888719436E+02  0.00000000000E+00 0.  1.
<scales pt_clust_5="13000.00000" pt_clust_6="13000.00000" pt_clust_7="13000.00000" pt_clust_8="13000.00000" pt_clust_9="62.78130"></scales>
<clustering>
<clus scale="   62.781">  2  9  1 -1</clus>
<clus scale="   93.998">  7  8 -1 -1</clus>
<clus scale="   96.063">  5  6 -1 -1</clus>
<clus scale="   97.096">  2  7  1 -1</clus>
<clus scale="   62.781">  2  5  1 -1</clus>
</clustering>
</event>
<event>
 9    1  0.1315259E-005  0.1149416E+03  0.7546771E-02  0.1253898E+00
         21   -1    0    0  501  502  0.00000000000E+00  0.00000000000E+00  0.40083125770E+03  0.40083125770E+03  0.00000000000E+00 0. -1.
         -3   -1    0    0    0  501 -0.00000000000E+00 -0.00000000000E+00 -0.78007944635E+02  0.78007944635E+02  0.00000000000E+00 0.  1.
         23    2    1    2    0    0 -0.21400400445E+02 -0.23635869260E+02  0.95656995859E+02  0.13833746832E+03  0.94711999395E+02 0.  0.
         23    2    1    2    0    0  0.55163873376E+02  0.11180126249E+03  0.17576228951E+03  0.23300530277E+03  0.88636975825E+02 0.  0.
        -11    1    3    3    0    0  0.15974351772E+01 -0.50296280340E+02  0.18656070298E+02  0.53668580884E+02  0.00000000000E+00 0.  1.
         11    1    3    3    0    0 -0.22997835622E+02  0.26660411080E+02  0.77000925560E+02  0.84668887435E+02  0.00000000000E+00 0. -1.
        -13    1    4    4    0    0  0.53986504647E+02  0.75706948019E+02  0.57441478226E+02  0.10929596554E+03  0.00000000000E+00 0.  1.
         13    1    4    4    0    0  0.11773687286E+01  0.36094314470E+02  0.11832081129E+03  0.12370933723E+03  0.00000000000E+00 0. -1.
         -3    1    1    2    0  502 -0.33763472931E+02 -0.88165393230E+02  0.51404027692E+02  0.10749643125E+03  0.00000000000E+00 0.  1.
<scales pt_clust_5="13000.00000" pt_clust_6="13000.00000" pt_clust_7="13000.00000" pt_clust_8="13000.00000" pt_clust_9="94.40931"></scales>
<clustering>
<clus scale="   88.637">  7  8 -1 -1</clus>
<clus scale="   94.409">  1  9  2 -1</clus>
<clus scale="   94.712">  5  6 -1 -1</clus>
<clus scale="  109.990">  1  7  2 -1</clus>
<clus scale="   94.409">  1  5  2 -1</clus>
</clustering>
</event>
<event>
 9    1  0.1315259E-005  0.9316354E+02  0.7546771E-02  0.1297837E+00
          1   -1    0    0  502    0 -0.00000000000E+00  0.00000000000E+00  0.99638415565E+02  0.99638415565E+02  0.00000000000E+00 0. -1.
         21   -1    0    0  501  502  0.00000000000E+00 -0.00000000000E+00 -0.26839704789E+03  0.26839704789E+03  0.00000000000E+00 0. -1.
         23    2    1    2    0    0 -0.16063352794E+02 -0.23969094162E+01  0.38152259105E+02  0.99936461635E+02  0.90928131024E+02 0.  0.
         23    2    1    2    0    0  0.28227425968E+02 -0.24245233938E+02 -0.46698585059E+02  0.10523171968E+03  0.86650666674E+02 0.  0.
        -13    1    4    4    0    0  0.53574614885E+02 -0.32993032958E+02 -0.46802653564E+02  0.78417268280E+02  0.00000000000E+00 0.  1.
         13    1    4    4    0    0 -0.25347188917E+02  0.87477990206E+01  0.10406850437E+00  0.26814451402E+02  0.00000000000E+00 0. -1.
        -13    1    3    3    0    0  0.15767998264E+02  0.36603598410E+02  0.27659779860E+02  0.48513056054E+02  0.00000000000E+00 0. -1.
         13    1    3    3    0    0 -0.31831351058E+02 -0.39000507826E+02  0.10492479246E+02  0.51423405581E+02  0.00000000000E+00 0.  1.
          1    1    1    2  501    0 -0.12164073174E+02  0.26642143354E+02 -0.16021230637E+03  0.16286728214E+03  0.00000000000E+00 0. -1.
<scales pt_clust_5="13000.00000" pt_clust_6="13000.00000" pt_clust_7="13000.00000" pt_clust_8="13000.00000" pt_clust_9="29.28768"></scales>
<clustering>
<clus scale="   29.288">  2  9  1 -1</clus>
<clus scale="   86.651">  5  6 -1 -1</clus>
<clus scale="   88.994">  2  5  1 -1</clus>
<clus scale="   90.928">  7  8 -1 -1</clus>
<clus scale="   29.288">  2  5  1 -1</clus>
</clustering>
</event>
<event>
 9    1  0.1315259E-005  0.1415000E+03  0.7546771E-02  0.1211587E+00
         21   -1    0    0  501  502  0.00000000000E+00  0.00000000000E+00  0.12862858286E+03  0.12862858286E+03  0.00000000000E+00 0.  1.
          2   -1    0    0  502    0 -0.00000000000E+00 -0.00000000000E+00 -0.35645354861E+03  0.35645354861E+03  0.00000000000E+00 0. -1.
         23    2    1    2    0    0  0.10009919116E+03 -0.25998678864E+02 -0.14533912246E+03  0.20043873605E+03  0.91413604127E+02 0.  0.
         23    2    1    2    0    0 -0.12911766681E+03 -0.65941751557E+02 -0.25465850416E+02  0.17263270726E+03  0.90187890516E+02 0.  0.
        -11    1    4    4    0    0 -0.12896348642E+03 -0.43119414432E+02 -0.44328318584E+02  0.14302399994E+03  0.00000000000E+00 0.  1.
         11    1    4    4    0    0 -0.15418039098E+00 -0.22822337126E+02  0.18862468168E+02  0.29608707315E+02  0.00000000000E+00 0. -1.
        -11    1    3    3    0    0  0.18628611437E+02 -0.40850944607E+02 -0.17642292515E+02  0.48239769117E+02  0.00000000000E+00 0.  1.
         11    1    3    3    0    0  0.81470579723E+02  0.14852265743E+02 -0.12769682995E+03  0.15219896694E+03  0.00000000000E+00 0. -1.
          2    1    1    2  501    0  0.29018475651E+02  0.91940430421E+02 -0.57019992876E+02  0.11201068816E+03  0.00000000000E+00 0. -1.
<scales pt_clust_5="13000.00000" pt_clust_6="13000.00000" pt_clust_7="13000.00000" pt_clust_8="13000.00000" pt_clust_9="96.41122"></scales>
<clustering>
<clus scale="   90.188">  5  6 -1 -1</clus>
<clus scale="   91.414">  7  8 -1 -1</clus>
<clus scale="   96.411">  1  9  2 -1</clus>
<clus scale="  140.711">  1  5  2 -1</clus>
<clus scale="   96.411">  1  5  2 -1</clus>
</clustering>
</event>
<event>
 9    1  0.1315259E-005  0.1130371E+03  0.7546771E-02  0.1255584E+00
          2   -1    0    0  502    0 -0.00000000000E+00  0.00000000000E+00  0.59887693346E+03  0.59887693346E+03  0.00000000000E+00 0. -1.
         21   -1    0    0  501  502  0.00000000000E+00 -0.00000000000E+00 -0.95391301523E+02  0.95391301523E+02  0.00000000000E+00 0. -1.
         23    2    1    2    0    0 -0.66386500753E+02 -0.14351320871E+02  0.46111367545E+03  0.47494054053E+03  0.91266464039E+02 0.  0.
         23    2    1    2    0    0  0.55388454846E+02  0.35148436035E+02  0.10468700095E+03  0.15271957348E+03  0.89780880311E+02 0.  0.
        -11    1    3    3    0    0 -0.69653090311E+02  0.23699562071E+02  0.25886563930E+03  0.26911826665E+03  0.00000000000E+00 0. -1.
         11    1    3    3    0    0  0.32665895577E+01 -0.38050882942E+02  0.20224803615E+03  0.20582227388E+03  0.00000000000E+00 0.  1.
        -11    1    4    4    0    0  0.16196322943E+02  0.48473478259E+02  0.98357418899E+02  0.11084304590E+03  0.00000000000E+00 0.  1.
         11    1    4    4    0    0  0.39192131903E+02 -0.13325042224E+02  0.63295820542E+01  0.41876527582E+02  0.00000000000E+00 0. -1.
          2    1    1    2  501    0  0.10998045907E+02 -0.20797115164E+02 -0.62315044466E+02  0.66608120974E+02  0.00000000000E+00 0. -1.
<scales pt_clust_5="13000.00000" pt_clust_6="13000.00000" pt_clust_7="13000.00000" pt_clust_8="13000.00000" pt_clust_9="23.52609"></scales>
<clustering>
<clus scale="   23.526">  2  9  1 -1</clus>
<clus scale="   89.781">  7  8 -1 -1</clus>
<clus scale="   91.266">  5  6 -1 -1</clus>
<clus scale="  111.841">  2  7  1 -1</clus>
<clus scale="   23.526">  2  5  1 -1</clus>
</clustering>
</event>
<event>
 9    1  0.1315259E-005  0.9503891E+02  0.7546771E-02  0.1292400E+00
         -2   -1    0    0    0  501 -0.00000000000E+00  0.00000000000E+00  0.53854517714E+03  0.53854517714E+03  0.00000000000E+00 0.  1.
         21   -1    0    0  501  502  0.00000000000E+00 -0.00000000000E+00 -0.86689809003E+02  0.86689809003E+02  0.00000000000E+00 0.  1.
         23    2    1    2    0    0  0.12884996750E+02 -0.25805692167E+02  0.33763705451E+03  0.35136551671E+03  0.92881585199E+02 0.  0.
         23    2    1    2    0    0 -0.12303669153E+01  0.66535641105E+01  0.18150768962E+03  0.20294349021E+03  0.90527537851E+02 0.  0.
        -13    1    4    4    0    0  0.35933272622E+02  0.13469408190E+02  0.14647322236E+03  0.15141674249E+03  0.00000000000E+00 0.  1.
         13    1    4    4    0    0 -0.37163639538E+02 -0.68158440792E+01  0.35034467259E+02  0.51526747717E+02  0.00000000000E+00 0. -1.
        -13    1    3    3    0    0  0.49381577846E+02 -0.22297292619E+02  0.25892003050E+03  0.26452843266E+03  0.00000000000E+00 0.  1.
         13    1    3    3    0    0 -0.36496581096E+02 -0.35083995480E+01  0.78717024006E+02  0.86837084057E+02  0.00000000000E+00 0. -1.
         -2    1    1    2    0  502 -0.11654629834E+02  0.19152128056E+02 -0.67289375996E+02  0.70925979215E+02  0.00000000000E+00 0.  1.
<scales pt_clust_5="13000.00000" pt_clust_6="13000.00000" pt_clust_7="13000.00000" pt_clust_8="13000.00000" pt_clust_9="22.41951"></scales>
<clustering>
<clus scale="   22.420">  2  9  1 -1</clus>
<clus scale="   90.528">  5  6 -1 -1</clus>
<clus scale="   92.740">  2  5  1 -1</clus>
<clus scale="   92.882">  7  8 -1 -1</clus>
<clus scale="   22.420">  2  5  1 -1</clus>
</clustering>
</event>
<event>
 9    1  0.1315259E-005  0.1138248E+03  0.7546771E-02  0.1271550E+00
          1   -1    0    0  502    0 -0.00000000000E+00  0.00000000000E+00  0.39743000095E+03  0.39743000095E+03  0.00000000000E+00 0. -1.
         21   -1    0    0  501  502  0.00000000000E+00 -0.00000000000E+00 -0.54460089437E+02  0.54460089437E+02  0.00000000000E+00 0. -1.
         23    2    1    2    0    0  0.25522621226E+02 -0.25535317606E+02  0.35293074994E+02  0.87600636853E+02  0.71587804793E+02 0.  0.
         23    2    1    2    0    0  0.54620194823E+02 -0.52716251147E+01  0.13755026241E+03  0.17372453047E+03  0.90823907007E+02 0.  0.
        -11    1    4    4    0    0 -0.23488210985E+02  0.82458056218E+01  0.48417552580E+02  0.54442159798E+02  0.00000000000E+00 0.  1.
         11    1    4    4    0    0  0.78108405807E+02 -0.13517430737E+02  0.89132709828E+02  0.11928237067E+03  0.00000000000E+00 0. -1.
        -13    1    3    3    0    0  0.47682236394E+02 -0.22206560421E+02  0.95302923369E+01  0.53456089133E+02  0.00000000000E+00 0. -1.
         13    1    3    3    0    0 -0.22159615169E+02 -0.33287571841E+01  0.25762782657E+02  0.34144547721E+02  0.00000000000E+00 0.  1.
          1    1    1    2  501    0 -0.80142816048E+02  0.30806942720E+02  0.17012657411E+03  0.19056492306E+03  0.00000000000E+00 0. -1.
<scales pt_clust_5="13000.00000" pt_clust_6="13000.00000" pt_clust_7="13000.00000" pt_clust_8="13000.00000" pt_clust_9="68.60833"></scales>
<clustering>
<clus scale="   71.588">  7  8 -1 -1</clus>
<clus scale="   80.177">  1  7  2 -1</clus>
<clus scale="   68.608">  2  9  1 -1</clus>
<clus scale="   90.824">  5  6 -1 -1</clus>
<clus scale="   68.608">  2  5  1 -1</clus>
</clustering>
</event>
<event>
 9    1  0.1315259E-005  0.1017228E+03  0.7546771E-02  0.1280059E+00
         21   -1    0    0  501  502  0.00000000000E+00  0.00000000000E+00  0.68309482685E+02  0.68309482685E+02  0.00000000000E+00 0. -1.
         -1   -1    0    0    0  501 -0.00000000000E+00 -0.00000000000E+00 -0.22615895148E+03  0.22615895148E+03  0.00000000000E+00 0.  1.
         23    2    1    2    0    0 -0.11489681856E+02  0.38918578572E+02 -0.11910612306E+03  0.15452023282E+03  0.89685925621E+02 0.  0.
         23    2    1    2    0    0  0.86945372105E+01 -0.17917181080E+02 -0.55477467590E+02  0.11295000946E+03  0.96350064207E+02 0.  0.
        -11    1    4    4    0    0 -0.18631659569E+02 -0.38124860944E+02 -0.65026911161E+02  0.77647555889E+02  0.00000000000E+00 0.  1.
         11    1    4    4    0    0  0.27326196780E+02  0.20207679865E+02  0.95494435712E+01  0.35302453576E+02  0.00000000000E+00 0. -1.
        -13    1    3    3    0    0 -0.50258825286E+02  0.22011714950E+02 -0.54762515298E+02  0.77520308281E+02  0.00000000000E+00 0.  1.
         13    1    3    3    0    0  0.38769143431E+02  0.16906863622E+02 -0.64343607761E+02  0.76999924543E+02  0.00000000000E+00 0. -1.
         -1    1    1    2    0  502  0.27951446453E+01 -0.21001397493E+02  0.16734121857E+02  0.26998191875E+02  0.00000000000E+00 0.  1.
<scales pt_clust_5="13000.00000" pt_clust_6="13000.00000" pt_clust_7="13000.00000" pt_clust_8="13000.00000" pt_clust_9="21.18659"></scales>
<clustering>
<clus scale="   21.187">  1  9  2 -1</clus>
<clus scale="   89.686">  7  8 -1 -1</clus>
<clus scale="   95.435">  2  7  1 -1</clus>
<clus scale="   96.350">  5  6 -1 -1</clus>
<clus scale="   21.187">  1  5  2 -1</clus>
</clustering>
</event>
<event>
 9    1  0.1315259E-005  0.1137588E+03  0.7546771E-02  0.1255296E+00
         21   -1    0    0  501  502  0.00000000000E+00  0.00000000000E+00  0.27671475517E+03  0.27671475517E+03  0.00000000000E+00 0. -1.
         -3   -1    0    0    0  501 -0.00000000000E+00 -0.00000000000E+00 -0.69784761171E+02  0.69784761171E+02  0.00000000000E+00 0.  1.
         23    2    1    2    0    0 -0.65586536112E+02  0.20845534662E+02  0.22446797123E+02  0.11725547584E+03  0.92243470661E+02 0.  0.
         23    2    1    2    0    0  0.64549059983E+02  0.34109510847E+01  0.13125031525E+03  0.17073597999E+03  0.88010873646E+02 0.  0.
        -11    1    3    3    0    0 -0.58862971076E+02 -0.18331095117E+02  0.40327604987E+02  0.73669492574E+02  0.00000000000E+00 0. -1.
         11    1    3    3    0    0 -0.67235650360E+01  0.39176629779E+02 -0.17880807864E+02  0.43585983269E+02  0.00000000000E+00 0.  1.
        -13    1    4    4    0    0  0.54882350697E+02 -0.37287364486E+02  0.91547379009E+02  0.11306344490E+03  0.00000000000E+00 0.  1.
         13    1    4    4    0    0  0.96667092866E+01  0.40698315571E+02  0.39702936237E+02  0.57672535097E+02  0.00000000000E+00 0. -1.
         -3    1    1    2    0  502  0.10374761287E+01 -0.24256485747E+02  0.53232881632E+02  0.58508060507E+02  0.00000000000E+00 0.  1.
<scales pt_clust_5="13000.00000" pt_clust_6="13000.00000" pt_clust_7="13000.00000" pt_clust_8="13000.00000" pt_clust_9="24.27866"></scales>
<clustering>
<clus scale="   24.279">  1  9  2 -1</clus>
<clus scale="   88.011">  7  8 -1 -1</clus>
<clus scale="   92.243">  5  6 -1 -1</clus>
<clus scale="  110.354">  1  7  2 -1</clus>
<clus scale="   24.279">  1  5  2 -1</clus>
</clustering>
</event>
<event>
 9    1  0.1315259E-005  0.1160320E+03  0.7546771E-02  0.1251619E+00
         -3   -1    0    0    0  501 -0.00000000000E+00  0.00000000000E+00  0.17572083719E+03  0.17572083719E+03  0.00000000000E+00 0.  1.
         21   -1    0    0  501  502  0.00000000000E+00 -0.00000000000E+00 -0.12563627486E+03  0.12563627486E+03  0.00000000000E+00 0. -1.
         23    2    1    2    0    0  0.31109207346E+02 -0.59816527242E+02  0.97011154045E+02  0.14891830009E+03  0.90662541218E+02 0.  0.
         23    2    1    2    0    0 -0.35937550535E+02  0.79751225183E+02 -0.29866692238E+02  0.12576025783E+03  0.85275187997E+02 0.  0.
        -11    1    4    4    0    0 -0.61049865872E+02  0.42937702852E+02 -0.51816157103E+01  0.74816987313E+02  0.00000000000E+00 0. -1.
         11    1    4    4    0    0  0.25112315337E+02  0.36813522331E+02 -0.24685076527E+02  0.50943270518E+02  0.00000000000E+00 0.  1.
        -13    1    3    3    0    0 -0.16416357049E+02 -0.43002591089E+02  0.81388278110E+01  0.46743557174E+02  0.00000000000E+00 0. -1.
         13    1    3    3    0    0  0.47525564395E+02 -0.16813936152E+02  0.88872326234E+02  0.10217474292E+03  0.00000000000E+00 0.  1.
         -3    1    1    2    0  502  0.48283431894E+01 -0.19934697941E+02 -0.17059899478E+02  0.26678554124E+02  0.00000000000E+00 0.  1.
<scales pt_clust_5="13000.00000" pt_clust_6="13000.00000" pt_clust_7="13000.00000" pt_clust_8="13000.00000" pt_clust_9="20.51110"></scales>
<clustering>
<clus scale="   20.511">  2  9  1 -1</clus>
<clus scale="   85.275">  5  6 -1 -1</clus>
<clus scale="   90.663">  7  8 -1 -1</clus>
<clus scale="  111.873">  2  5  1 -1</clus>
<clus scale="   20.511">  2  5  1 -1</clus>
</clustering>
</event>
<event>
 9    1  0.1315259E-005  0.2785968E+03  0.7546771E-02  0.1096514E+00
          1   -1    0    0  502    0 -0.00000000000E+00  0.00000000000E+00  0.53602591344E+03  0.53602591344E+03  0.00000000000E+00 0. -1.
         21   -1    0    0  501  502  0.00000000000E+00 -0.00000000000E+00 -0.22670939010E+03  0.22670939010E+03  0.00000000000E+00 0. -1.
         23    2    1    2    0    0  0.18045618175E+03  0.20479813803E+03  0.33189489603E+03  0.43951915490E+03  0.92283013832E+02 0.  0.
         23    2    1    2    0    0 -0.14932940864E+03 -0.18994280297E+03  0.30422486115E+02  0.25998128470E+03  0.91034059828E+02 0.  0.
        -13    1    3    3    0    0  0.85982250688E+02  0.14376763481E+03  0.14582030908E+03  0.22209377027E+03  0.00000000000E+00 0.  1.
         13    1    3    3    0    0  0.94473931061E+02  0.61030503221E+02  0.18607458695E+03  0.21742538463E+03  0.00000000000E+00 0. -1.
        -13    1    4    4    0    0  0.67814417478E+01 -0.42841012593E+02  0.27933033483E+00  0.43375319453E+02  0.00000000000E+00 0.  1.
         13    1    4    4    0    0 -0.15611085039E+03 -0.14710179038E+03  0.30143155780E+02  0.21660596525E+03  0.00000000000E+00 0. -1.
          1    1    1    2  501    0 -0.31126773106E+02 -0.14855335062E+02 -0.53000858800E+02  0.63234863939E+02  0.00000000000E+00 0. -1.
<scales pt_clust_5="13000.00000" pt_clust_6="13000.00000" pt_clust_7="13000.00000" pt_clust_8="13000.00000" pt_clust_9="34.48995"></scales>
<clustering>
<clus scale="   34.490">  2  9  1 -1</clus>
<clus scale="   91.034">  7  8 -1 -1</clus>
<clus scale="   92.283">  5  6 -1 -1</clus>
<clus scale="  278.186">  2  7  1 -1</clus>
<clus scale="   34.490">  2  5  1 -1</clus>
</clustering>
</event>
<event>
 9    1  0.1315259E-005  0.1171929E+03  0.7546771E-02  0.1248948E+00
         21   -1    0    0  501  502  0.00000000000E+00  0.00000000000E+00  0.41643232865E+02  0.41643232865E+02  0.00000000000E+00 0. -1.
          3   -1    0    0  502    0 -0.00000000000E+00 -0.00000000000E+00 -0.58658150626E+03  0.58658150626E+03  0.00000000000E+00 0. -1.
         23    2    1    2    0    0  0.36754951013E+02  0.59844297518E+02 -0.41160837769E+03  0.42738281977E+03  0.91117241431E+02 0.  0.
         23    2    1    2    0    0 -0.12480346565E+02 -0.69469171723E+02 -0.12830535877E+03  0.17424980405E+03  0.94440479950E+02 0.  0.
        -11    1    4    4    0    0  0.17136735920E+02  0.13895468358E+02 -0.55330542956E+02  0.59566943373E+02  0.00000000000E+00 0.  1.
         11    1    4    4    0    0 -0.29617082485E+02 -0.83364640081E+02 -0.72974815810E+02  0.11468286068E+03  0.00000000000E+00 0. -1.
        -11    1    3    3    0    0  0.19412086864E+02 -0.22417568323E+02 -0.13798266149E+03  0.14113323973E+03  0.00000000000E+00 0.  1.
         11    1    3    3    0    0  0.17342864149E+02  0.82261865840E+02 -0.27362571620E+03  0.28624958004E+03  0.00000000000E+00 0. -1.
          3    1    1    2  501    0 -0.24274604449E+02  0.96248742053E+01 -0.50245369386E+01  0.26592115299E+02  0.00000000000E+00 0. -1.
<scales pt_clust_5="13000.00000" pt_clust_6="13000.00000" pt_clust_7="13000.00000" pt_clust_8="13000.00000" pt_clust_9="26.11311"></scales>
<clustering>
<clus scale="   26.113">  1  9  2 -1</clus>
<clus scale="   91.117">  7  8 -1 -1</clus>
<clus scale="   94.440">  5  6 -1 -1</clus>
<clus scale="  114.532">  2  7  1 -1</clus>
<clus scale="   26.113">  1  5  2 -1</clus>
</clustering>
</event>
<event>
 9    1  0.1315259E-005  0.9726061E+02  0.7546771E-02  0.1289116E+00
         -1   -1    0    0    0  501 -0.00000000000E+00  0.00000000000E+00  0.32870958679E+03  0.32870958679E+03  0.00000000000E+00 0.  1.
         21   -1    0    0  501  502  0.00000000000E+00 -0.00000000000E+00 -0.38810364947E+03  0.38810364947E+03  0.00000000000E+00 0.  1.
         23    2    1    2    0    0  0.12997146961E+02  0.42058601960E+01  0.20375589793E+03  0.22597848400E+03  0.96763599564E+02 0.  0.
         23    2    1    2    0    0  0.27976518089E+02  0.40414606707E+02  0.87002543712E+02  0.13548055773E+03  0.91485042000E+02 0.  0.
        -11    1    4    4    0    0  0.61321473555E+02  0.28565977143E+02  0.48846057705E+02  0.83440251213E+02  0.00000000000E+00 0.  1.
         11    1    4    4    0    0 -0.33344955467E+02  0.11848629565E+02  0.38156486006E+02  0.52040306513E+02  0.00000000000E+00 0. -1.
        -13    1    3    3    0    0 -0.19257167297E+02 -0.39180619423E+02  0.91992049607E+02  0.10182581510E+03  0.00000000000E+00 0. -1.
         13    1    3    3    0    0  0.32254314258E+02  0.43386479619E+02  0.11176384832E+03  0.12415266889E+03  0.00000000000E+00 0.  1.
         -1    1    1    2    0  502 -0.40973665050E+02 -0.44620466903E+02 -0.35015250432E+03  0.35535419454E+03  0.00000000000E+00 0.  1.
<scales pt_clust_5="13000.00000" pt_clust_6="13000.00000" pt_clust_7="13000.00000" pt_clust_8="13000.00000" pt_clust_9="60.57910"></scales>
<clustering>
<clus scale="   60.579">  2  9  1 -1</clus>
<clus scale="   91.485">  5  6 -1 -1</clus>
<clus scale="   92.011">  2  5  1 -1</clus>
<clus scale="   96.764">  7  8 -1 -1</clus>
<clus scale="   60.579">  2  5  1 -1</clus>
</clustering>
</event>
<event>
 9    1  0.1315259E-005  0.1431545E+03  0.7546771E-02  0.1209689E+00
          2   -1    0    0  502    0 -0.00000000000E+00  0.00000000000E+00  0.95567384224E+02  0.95567384224E+02  0.00000000000E+00 0. -1.
         21   -1    0    0  501  502  0.00000000000E+00 -0.00000000000E+00 -0.80315736294E+03  0.80315736294E+03  0.00000000000E+00 0. -1.
         23    2    1    2    0    0 -0.12336091357E+03 -0.28975855137E+02  0.90535686767E+01  0.15677263019E+03  0.91859541104E+02 0.  0.
         23    2    1    2    0    0  0.42787544017E+02  0.16033767065E+02 -0.27232270034E+03  0.29019932988E+03  0.89264451676E+02 0.  0.
        -11    1    3    3    0    0 -0.10870755746E+03 -0.85714086552E+01 -0.27462653419E+02  0.11244998634E+03  0.00000000000E+00 0. -1.
         11    1    3    3    0    0 -0.14653356115E+02 -0.20404446481E+02  0.36516222096E+02  0.44322643849E+02  0.00000000000E+00 0.  1.
        -11    1    4    4    0    0  0.21623460953E+02 -0.37038737718E+02 -0.10664552012E+03  0.11494654896E+03  0.00000000000E+00 0.  1.
         11    1    4    4    0    0  0.21164083064E+02  0.53072504782E+02 -0.16567718022E+03  0.17525278093E+03  0.00000000000E+00 0. -1.
          2    1    1    2  501    0  0.80573369554E+02  0.12942088072E+02 -0.44432084705E+03  0.45175278709E+03  0.00000000000E+00 0. -1.
<scales pt_clust_5="13000.00000" pt_clust_6="13000.00000" pt_clust_7="13000.00000" pt_clust_8="13000.00000" pt_clust_9="81.60616"></scales>
<clustering>
<clus scale="   81.606">  2  9  1 -1</clus>
<clus scale="   89.264">  7  8 -1 -1</clus>
<clus scale="   91.860">  5  6 -1 -1</clus>
<clus scale="  141.503">  2  7  1 -1</clus>
<clus scale="   81.606">  2  5  1 -1</clus>
</clustering>
</event>
<event>
 9    1  0.2197707E-005  0.1034142E+03  0.7546771E-02  0.1273286E+00
         21   -1    0    0  501  502  0.00000000000E+00  0.00000000000E+00  0.33463639927E+03  0.33463639927E+03  0.00000000000E+00 0. -1.
          4   -1    0    0  502    0 -0.00000000000E+00 -0.00000000000E+00 -0.17691731735E+03  0.17691731735E+03  0.00000000000E+00 0. -1.
         23    2    1    2    0    0 -0.49621654272E+02 -0.26993522480E+02 -0.13331912545E+03  0.17076406698E+03  0.90528550924E+02 0.  0.
         23    2    1    2    0    0  0.21002352637E+02 -0.38517788705E+01  0.71717100642E+02  0.11746870370E+03  0.90551746572E+02 0.  0.
        -11    1    3    3    0    0 -0.51550658006E+02  0.22919135785E+02 -0.77495091756E+02  0.95855340865E+02  0.00000000000E+00 0. -1.
         11    1    3    3    0    0  0.19290037337E+01 -0.49912658264E+02 -0.55824033691E+02  0.74908726114E+02  0.00000000000E+00 0.  1.
        -13    1    4    4    0    0 -0.85461193980E+01 -0.43053077675E+02  0.35814502392E+02  0.56650527232E+02  0.00000000000E+00 0. -1.
         13    1    4    4    0    0  0.29548472035E+02  0.39201298805E+02  0.35902598250E+02  0.60818176466E+02  0.00000000000E+00 0.  1.
          4    1    1    2  501    0  0.28619301635E+02  0.30845301350E+02  0.21932110673E+03  0.22332094595E+03  0.00000000000E+00 0. -1.
<scales pt_clust_5="13000.00000" pt_clust_6="13000.00000" pt_clust_7="13000.00000" pt_clust_8="13000.00000" pt_clust_9="42.07727"></scales>
<clustering>
<clus scale="   42.077">  1  9  2 -1</clus>
<clus scale="   90.529">  5  6 -1 -1</clus>
<clus scale="   90.552">  7  8 -1 -1</clus>
<clus scale="  103.394">  2  5  1 -1</clus>
<clus scale="   42.077">  1  5  2 -1</clus>
</clustering>
</event>
<event>
 9    1  0.1315259E-005  0.2142785E+03  0.7546771E-02  0.1155486E+00
         21   -1    0    0  501  502  0.00000000000E+00  0.00000000000E+00  0.23606290393E+03  0.23606290393E+03  0.00000000000E+00 0.  1.
          3   -1    0    0  502    0 -0.00000000000E+00 -0.00000000000E+00 -0.34423089432E+03  0.34423089432E+03  0.00000000000E+00 0. -1.
         23    2    1    2    0    0  0.10224120182E+03  0.34102990533E+02 -0.33651419119E+02  0.14594132861E+03  0.92467162141E+02 0.  0.
         23    2    1    2    0    0 -0.19291403454E+03  0.11957700784E+03 -0.43222821636E+00  0.24114896456E+03  0.81474847420E+02 0.  0.
        -13    1    4    4    0    0 -0.78544160055E+02  0.79058359808E+02  0.31258945826E+02  0.11574338438E+03  0.00000000000E+00 0.  1.
         13    1    4    4    0    0 -0.11436987448E+03  0.40518648029E+02 -0.31691174042E+02  0.12540558018E+03  0.00000000000E+00 0. -1.
        -13    1    3    3    0    0  0.41456874392E+02  0.14601229301E+02  0.32002221678E+02  0.54369205657E+02  0.00000000000E+00 0.  1.
         13    1    3    3    0    0  0.60784327431E+02  0.19501761232E+02 -0.65653640797E+02  0.91572122954E+02  0.00000000000E+00 0. -1.
          3    1    1    2  501    0  0.90672832717E+02 -0.15367999837E+03 -0.74084343055E+02  0.19320350509E+03  0.00000000000E+00 0. -1.
<scales pt_clust_5="13000.00000" pt_clust_6="13000.00000" pt_clust_7="13000.00000" pt_clust_8="13000.00000" pt_clust_9="198.18463"></scales>
<clustering>
<clus scale="   81.475">  5  6 -1 -1</clus>
<clus scale="   92.467">  7  8 -1 -1</clus>
<clus scale="  142.009">  2  7  1 -1</clus>
<clus scale="  198.185">  1  9  2 -1</clus>
<clus scale="  198.185">  1  5  2 -1</clus>
</clustering>
</event>
<event>
 9    1  0.1315259E-005  0.1335792E+03  0.7546771E-02  0.1229760E+00
         21   -1    0    0  501  502  0.00000000000E+00  0.00000000000E+00  0.16740021226E+03  0.16740021226E+03  0.00000000000E+00 0.  1.
          2   -1    0    0  502    0 -0.00000000000E+00 -0.00000000000E+00 -0.21629959386E+03  0.21629959386E+03  0.00000000000E+00 0. -1.
         23    2    1    2    0    0 -0.25543481109E+02  0.53561514789E+02 -0.13498783293E+03  0.17514603660E+03  0.94515151187E+02 0.  0.
         23    2    1    2    0    0  0.59722368109E+02 -0.73239286099E+02  0.68604166495E+02  0.16541317128E+03  0.11715046433E+03 0.  0.
        -11    1    4    4    0    0  0.55492352852E+02 -0.10183301762E+02 -0.17076470193E+02  0.58946642772E+02  0.00000000000E+00 0. -1.
         11    1    4    4    0    0  0.42300152566E+01 -0.63055984337E+02  0.85680636688E+02  0.10646652851E+03  0.00000000000E+00 0.  1.
        -13    1    3    3    0    0  0.31770801264E+02  0.19410363037E+02 -0.20149243729E+02  0.42333651260E+02  0.00000000000E+00 0.  1.
         13    1    3    3    0    0 -0.57314282373E+02  0.34151151752E+02 -0.11483858920E+03  0.13281238534E+03  0.00000000000E+00 0. -1.
          2    1    1    2  501    0 -0.34178886999E+02  0.19677771310E+02  0.17484284833E+02  0.43140598238E+02  0.00000000000E+00 0. -1.
<scales pt_clust_5="13000.00000" pt_clust_6="13000.00000" pt_clust_7="13000.00000" pt_clust_8="13000.00000" pt_clust_9="39.43870"></scales>
<clustering>
<clus scale="   39.439">  1  9  2 -1</clus>
<clus scale="   94.515">  7  8 -1 -1</clus>
<clus scale="  114.247">  2  7  1 -1</clus>
<clus scale="  117.150">  5  6 -1 -1</clus>
<clus scale="   39.439">  1  5  2 -1</clus>
</clustering>
</event>
<event>
 9    1  0.1315259E-005  0.1031420E+03  0.7546771E-02  0.1274330E+00
          2   -1    0    0  502    0 -0.00000000000E+00  0.00000000000E+00  0.83354036542E+03  0.83354036542E+03  0.00000000000E+00 0. -1.
         21   -1    0    0  501  502  0.00000000000E+00 -0.00000000000E+00 -0.29224542856E+02  0.29224542856E+02  0.00000000000E+00 0. -1.
         23    2    1    2    0    0 -0.51818384859E+02 -0.14756782092E+02  0.52322742967E+03  0.53380835540E+03  0.91002799458E+02 0.  0.
         23    2    1    2    0    0  0.42000545859E+02 -0.43100896908E+01  0.28939696679E+03  0.30595724936E+03  0.89869968991E+02 0.  0.
        -11    1    3    3    0    0  0.23909360995E+02  0.73596665404E+01  0.87914451672E+02  0.91404447635E+02  0.00000000000E+00 0.  1.
         11    1    3    3    0    0 -0.75727745854E+02 -0.22116448632E+02  0.43531297800E+03  0.44240390776E+03  0.00000000000E+00 0. -1.
        -13    1    4    4    0    0 -0.24425660629E+02  0.65155398556E+01  0.37506933268E+02  0.45230909785E+02  0.00000000000E+00 0. -1.
         13    1    4    4    0    0  0.66426206489E+02 -0.10825629546E+02  0.25189003352E+03  0.26072633958E+03  0.00000000000E+00 0.  1.
          2    1    1    2  501    0  0.98178389998E+01  0.19066871782E+02 -0.83085738882E+01  0.22999303517E+02  0.00000000000E+00 0. -1.
<scales pt_clust_5="13000.00000" pt_clust_6="13000.00000" pt_clust_7="13000.00000" pt_clust_8="13000.00000" pt_clust_9="21.44611"></scales>
<clustering>
<clus scale="   21.446">  2  9  1 -1</clus>
<clus scale="   89.870">  7  8 -1 -1</clus>
<clus scale="   91.003">  5  6 -1 -1</clus>
<clus scale="  102.144">  2  7  1 -1</clus>
<clus scale="   21.446">  2  5  1 -1</clus>
</clustering>
</event>
<event>
 9    1  0.1315259E-005  0.1532020E+03  0.7546771E-02  0.1198021E+00
         21   -1    0    0  501  502  0.00000000000E+00  0.00000000000E+00  0.92936615222E+02  0.92936615222E+02  0.00000000000E+00 0.  1.
          2   -1    0    0  502    0 -0.00000000000E+00 -0.00000000000E+00 -0.34720700958E+03  0.34720700958E+03  0.00000000000E+00 0. -1.
         23    2    1    2    0    0 -0.88275369056E+02  0.86869864099E+02 -0.22015784408E+03  0.27085926963E+03  0.97756603686E+02 0.  0.
         23    2    1    2    0    0  0.71751015532E+02 -0.74149863296E+02 -0.10021763829E+02  0.13742185885E+03  0.90210426693E+02 0.  0.
        -13    1    4    4    0    0 -0.17004394686E+02 -0.34194978931E+02 -0.12115383666E+02  0.40065303495E+02  0.00000000000E+00 0.  1.
         13    1    4    4    0    0  0.88755410218E+02 -0.39954884365E+02  0.20936198379E+01  0.97356555360E+02  0.00000000000E+00 0. -1.
        -13    1    3    3    0    0 -0.99684174873E+02  0.64036418539E+02 -0.12454680415E+03  0.17189969181E+03  0.00000000000E+00 0.  1.
         13    1    3    3    0    0  0.11408805817E+02  0.22833445560E+02 -0.95611039933E+02  0.98959577826E+02  0.00000000000E+00 0. -1.
          2    1    1    2  501    0  0.16524353524E+02 -0.12720000803E+02 -0.24090786444E+02  0.31862496314E+02  0.00000000000E+00 0. -1.
<scales pt_clust_5="13000.00000" pt_clust_6="13000.00000" pt_clust_7="13000.00000" pt_clust_8="13000.00000" pt_clust_9="20.85313"></scales>
<clustering>
<clus scale="   20.853">  1  9  2 -1</clus>
<clus scale="   90.210">  5  6 -1 -1</clus>
<clus scale="   97.757">  7  8 -1 -1</clus>
<clus scale="  148.501">  1  5  2 -1</clus>
<clus scale="   20.853">  1  5  2 -1</clus>
</clustering>
</event>
<event>
 9    1  0.1315259E-005  0.2681287E+03  0.7546771E-02  0.1138270E+00
          3   -1    0    0  502    0 -0.00000000000E+00  0.00000000000E+00  0.67157905518E+02  0.67157905518E+02  0.00000000000E+00 0. -1.
         21   -1    0    0  501  502  0.00000000000E+00 -0.00000000000E+00 -0.19282183866E+04  0.19282183866E+04  0.00000000000E+00 0.  1.
         23    2    1    2    0    0 -0.28655315817E+02 -0.49062687640E+02 -0.77244285438E+02  0.13379013052E+03  0.93299758564E+02 0.  0.
         23    2    1    2    0    0  0.21801160417E+03  0.16633757273E+03 -0.12539271810E+04  0.12867891796E+04  0.91081117553E+02 0.  0.
        -11    1    4    4    0    0  0.12366556432E+03  0.49345089401E+02 -0.71529619844E+03  0.72758282082E+03  0.00000000000E+00 0.  1.
         11    1    4    4    0    0  0.94346039848E+02  0.11699248333E+03 -0.53863098253E+03  0.55920635881E+03  0.00000000000E+00 0. -1.
        -11    1    3    3    0    0 -0.41905772626E+02 -0.68869786406E+02 -0.41080632839E+02  0.90480714262E+02  0.00000000000E+00 0.  1.
         11    1    3    3    0    0  0.13250456809E+02  0.19807098765E+02 -0.36163652599E+02  0.43309416256E+02  0.00000000000E+00 0. -1.
          3    1    1    2  501    0 -0.18935628835E+03 -0.11727488509E+03 -0.52988901466E+03  0.57479698196E+03  0.00000000000E+00 0. -1.
<scales pt_clust_5="13000.00000" pt_clust_6="13000.00000" pt_clust_7="13000.00000" pt_clust_8="13000.00000" pt_clust_9="252.18501"></scales>
<clustering>
<clus scale="   91.081">  5  6 -1 -1</clus>
<clus scale="   93.300">  7  8 -1 -1</clus>
<clus scale="  109.239">  1  7  2 -1</clus>
<clus scale="  252.185">  2  9  1 -1</clus>
<clus scale="  252.185">  2  5  1 -1</clus>
</clustering>
</event>
<event>
 9    1  0.1315259E-005  0.1359763E+03  0.7546771E-02  0.1233569E+00
         21   -1    0    0  501  502  0.00000000000E+00  0.00000000000E+00  0.98142471470E+02  0.98142471470E+02  0.00000000000E+00 0. -1.
          3   -1    0    0  502    0 -0.00000000000E+00 -0.00000000000E+00 -0.57174298918E+03  0.57174298918E+03  0.00000000000E+00 0. -1.
         23    2    1    2    0    0 -0.18599885316E+02  0.68771835297E+02 -0.38666544509E+03  0.39942256996E+03  0.70375435389E+02 0.  0.
         23    2    1    2    0    0  0.42291567642E+01  0.52436936439E+02 -0.10322153441E+03  0.14732340465E+03  0.91005397201E+02 0.  0.
        -13    1    4    4    0    0 -0.36873823135E+02  0.34640078758E+02 -0.23285692536E+02  0.55694141216E+02  0.00000000000E+00 0.  1.
         13    1    4    4    0    0  0.41102979899E+02  0.17796857681E+02 -0.79935841878E+02  0.91629263430E+02  0.00000000000E+00 0. -1.
        -13    1    3    3    0    0 -0.34072202711E+02  0.15642049604E+02 -0.87677715101E+02  0.95357068111E+02  0.00000000000E+00 0.  1.
         13    1    3    3    0    0  0.15472317395E+02  0.53129785693E+02 -0.29898772998E+03  0.30406550185E+03  0.00000000000E+00 0. -1.
          3    1    1    2  501    0  0.14370728551E+02 -0.12120877174E+03  0.16286461792E+02  0.12313948604E+03  0.00000000000E+00 0. -1.
<scales pt_clust_5="13000.00000" pt_clust_6="13000.00000" pt_clust_7="13000.00000" pt_clust_8="13000.00000" pt_clust_9="101.03255"></scales>
<clustering>
<clus scale="   70.375">  7  8 -1 -1</clus>
<clus scale="   91.005">  5  6 -1 -1</clus>
<clus scale="  100.141">  2  7  1 -1</clus>
<clus scale="  101.033">  1  9  2 -1</clus>
<clus scale="  101.033">  1  5  2 -1</clus>
</clustering>
</event>
<event>
 9    1  0.1315259E-005  0.1328839E+03  0.7546771E-02  0.1224575E+00
          3   -1    0    0  502    0 -0.00000000000E+00  0.00000000000E+00  0.86241133255E+03  0.86241133255E+03  0.00000000000E+00 0. -1.
         21   -1    0    0  501  502  0.00000000000E+00 -0.00000000000E+00 -0.27105711592E+02  0.27105711592E+02  0.00000000000E+00 0.  1.
         23    2    1    2    0    0 -0.88054645890E+02  0.13823816794E+02  0.44665301996E+03  0.46480549437E+03  0.92738928084E+02 0.  0.
         23    2    1    2    0    0  0.10157788315E+03 -0.34529643310E+02  0.26881334290E+03  0.30234710649E+03  0.87423091176E+02 0.  0.
        -13    1    3    3    0    0 -0.31610504778E+01  0.27046065532E+02  0.35334588140E+02  0.44609584395E+02  0.00000000000E+00 0.  1.
         13    1    3    3    0    0 -0.84893595412E+02 -0.13222248738E+02  0.41131843182E+03  0.42019590997E+03  0.00000000000E+00 0. -1.
        -13    1    4    4    0    0  0.43383867352E+02 -0.17406618345E+02  0.21876931618E+03  0.22370776475E+03  0.00000000000E+00 0. -1.
         13    1    4    4    0    0  0.58194015801E+02 -0.17123024966E+02  0.50044026718E+02  0.78639341739E+02  0.00000000000E+00 0.  1.
          3    1    1    2  501    0 -0.13523237262E+02  0.20705826517E+02  0.11983925810E+03  0.12236444328E+03  0.00000000000E+00 0. -1.
<scales pt_clust_5="13000.00000" pt_clust_6="13000.00000" pt_clust_7="13000.00000" pt_clust_8="13000.00000" pt_clust_9="24.73075"></scales>
<clustering>
<clus scale="   24.731">  2  9  1 -1</clus>
<clus scale="   87.423">  7  8 -1 -1</clus>
<clus scale="   92.739">  5  6 -1 -1</clus>
<clus scale="  129.230">  2  7  1 -1</clus>
<clus scale="   24.731">  2  5  1 -1</clus>
</clustering>
</event>
<event>
 9    1  0.1315259E-005  0.1137386E+03  0.7546771E-02  0.1257637E+00
          2   -1    0    0  502    0 -0.00000000000E+00  0.00000000000E+00  0.78034413238E+03  0.78034413238E+03  0.00000000000E+00 0. -1.
         21   -1    0    0  501  502  0.00000000000E+00 -0.00000000000E+00 -0.22812848229E+02  0.22812848229E+02  0.00000000000E+00 0.  1.
         23    2    1    2    0    0 -0.34366619742E+02 -0.46836379934E+02  0.48432992477E+03  0.49607700062E+03  0.90234159201E+02 0.  0.
         23    2    1    2    0    0  0.43642405078E+02  0.24990877837E+02  0.25017917183E+03  0.27401508508E+03  0.99827077164E+02 0.  0.
        -13    1    3    3    0    0 -0.10433000040E+02  0.26780969981E+02  0.10104483055E+03  0.10505296581E+03  0.00000000000E+00 0. -1.
         13    1    3    3    0    0 -0.23933619701E+02 -0.73617349915E+02  0.38328509421E+03  0.39102403482E+03  0.00000000000E+00 0.  1.
        -13    1    4    4    0    0  0.97209450255E+01  0.45082981566E+02  0.21885271561E+03  0.22365930146E+03  0.00000000000E+00 0. -1.
         13    1    4    4    0    0  0.33921460052E+02 -0.20092103729E+02  0.31326456220E+02  0.50355783617E+02  0.00000000000E+00 0.  1.
          2    1    1    2  501    0 -0.92757853362E+01  0.21845502097E+02  0.23022187552E+02  0.33064894906E+02  0.00000000000E+00 0. -1.
<scales pt_clust_5="13000.00000" pt_clust_6="13000.00000" pt_clust_7="13000.00000" pt_clust_8="13000.00000" pt_clust_9="23.73323"></scales>
<clustering>
<clus scale="   23.733">  2  9  1 -1</clus>
<clus scale="   90.234">  5  6 -1 -1</clus>
<clus scale="   99.827">  7  8 -1 -1</clus>
<clus scale="  105.419">  1  5  2 -1</clus>
<clus scale="   23.733">  2  5  1 -1</clus>
</clustering>
</event>
<event>
 9    1  0.1315259E-005  0.1382218E+03  0.7546771E-02  0.1216156E+00
         21   -1    0    0  501  502  0.00000000000E+00  0.00000000000E+00  0.63408179320E+02  0.63408179320E+02  0.00000000000E+00 0. -1.
          1   -1    0    0  502    0 -0.00000000000E+00 -0.00000000000E+00 -0.77764781715E+03  0.77764781715E+03  0.00000000000E+00 0. -1.
         23    2    1    2    0    0  0.96532049833E+02 -0.30636839498E+02 -0.60207897404E+03  0.61734426674E+03  0.91421004796E+02 0.  0.
         23    2    1    2    0    0 -0.11649477158E+03  0.91809558861E+01 -0.12360596628E+03  0.19224968673E+03  0.89588980299E+02 0.  0.
        -13    1    4    4    0    0 -0.25117608326E+02  0.31183222276E+02 -0.41567406623E+01  0.40256255321E+02  0.00000000000E+00 0.  1.
         13    1    4    4    0    0 -0.91377163254E+02 -0.22002266390E+02 -0.11944922562E+03  0.15199343141E+03  0.00000000000E+00 0. -1.
        -13    1    3    3    0    0  0.54674122318E+02  0.27531352656E+02 -0.20875635287E+03  0.21754643158E+03  0.00000000000E+00 0.  1.
         13    1    3    3    0    0  0.41857927515E+02 -0.58168192154E+02 -0.39332262117E+03  0.39979783516E+03  0.00000000000E+00 0. -1.
          1    1    1    2  501    0  0.19962721748E+02  0.21455883612E+02  0.11445302485E+02  0.31462043006E+02  0.00000000000E+00 0. -1.
<scales pt_clust_5="13000.00000" pt_clust_6="13000.00000" pt_clust_7="13000.00000" pt_clust_8="13000.00000" pt_clust_9="29.30640"></scales>
<clustering>
<clus scale="   29.306">  1  9  2 -1</clus>
<clus scale="   89.589">  5  6 -1 -1</clus>
<clus scale="   91.421">  7  8 -1 -1</clus>
<clus scale="  137.017">  1  5  2 -1</clus>
<clus scale="   29.306">  1  5  2 -1</clus>
</clustering>
</event>
<event>
 9    1  0.1315259E-005  0.1217967E+03  0.7546771E-02  0.1240677E+00
         21   -1    0    0  501  502  0.00000000000E+00  0.00000000000E+00  0.17272408419E+03  0.17272408419E+03  0.00000000000E+00 0.  1.
          1   -1    0    0  502    0 -0.00000000000E+00 -0.00000000000E+00 -0.15001718176E+03  0.15001718176E+03  0.00000000000E+00 0. -1.
         23    2    1    2    0    0 -0.11082718219E+01 -0.77177901278E+02 -0.71056664083E+02  0.13862248872E+03  0.90606225816E+02 0.  0.
         23    2    1    2    0    0  0.93689928212E+01  0.97197098959E+02  0.94609568723E+02  0.16244567162E+03  0.88896409719E+02 0.  0.
        -11    1    3    3    0    0 -0.32268558085E+02 -0.77328852015E+02 -0.34575531879E+02  0.90644793560E+02  0.00000000000E+00 0. -1.
         11    1    3    3    0    0  0.31160286263E+02  0.15095073654E+00 -0.36481132204E+02  0.47977695162E+02  0.00000000000E+00 0.  1.
        -13    1    4    4    0    0 -0.18195189472E+02  0.10019198481E+03  0.86354966397E+02  0.13351658684E+03  0.00000000000E+00 0.  1.
         13    1    4    4    0    0  0.27564182293E+02 -0.29948858462E+01  0.82546023256E+01  0.28929084781E+02  0.00000000000E+00 0. -1.
          1    1    1    2  501    0 -0.82607209993E+01 -0.20019197681E+02 -0.84600220730E+00  0.21673105614E+02  0.00000000000E+00 0. -1.
<scales pt_clust_5="13000.00000" pt_clust_6="13000.00000" pt_clust_7="13000.00000" pt_clust_8="13000.00000" pt_clust_9="21.65660"></scales>
<clustering>
<clus scale="   21.657">  1  9  2 -1</clus>
<clus scale="   88.896">  7  8 -1 -1</clus>
<clus scale="   90.606">  5  6 -1 -1</clus>
<clus scale="  120.530">  1  7  2 -1</clus>
<clus scale="   21.657">  1  5  2 -1</clus>
</clustering>
</event>
<event>
 9    1  0.1315259E-005  0.1184405E+03  0.7546771E-02  0.1247060E+00
         21   -1    0    0  501  502  0.00000000000E+00  0.00000000000E+00  0.69376126021E+02  0.69376126021E+02  0.00000000000E+00 0. -1.
         -1   -1    0    0    0  501 -0.00000000000E+00 -0.00000000000E+00 -0.36559513010E+03  0.36559513010E+03  0.00000000000E+00 0.  1.
         23    2    1    2    0    0 -0.37074347549E+02 -0.57140621184E+02 -0.25075095018E+03  0.27607291924E+03  0.93277327840E+02 0.  0.
         23    2    1    2    0    0  0.47399012135E+02  0.75539791977E+02 -0.52585440923E+02  0.13663209825E+03  0.89163754701E+02 0.  0.
        -13    1    3    3    0    0  0.29690981158E+02 -0.33153637748E+02 -0.10068483775E+03  0.11008249003E+03  0.00000000000E+00 0.  1.
         13    1    3    3    0    0 -0.66765328708E+02 -0.23986983436E+02 -0.15006611243E+03  0.16599042922E+03  0.00000000000E+00 0. -1.
        -13    1    4    4    0    0 -0.19904750889E+02  0.36233564459E+02  0.21418103280E+01  0.41396348303E+02  0.00000000000E+00 0. -1.
         13    1    4    4    0    0  0.67303763024E+02  0.39306227519E+02 -0.54727251251E+02  0.95235749949E+02  0.00000000000E+00 0.  1.
         -1    1    1    2    0  502 -0.10324664586E+02 -0.18399170793E+02  0.71173870184E+01  0.22266238628E+02  0.00000000000E+00 0.  1.
<scales pt_clust_5="13000.00000" pt_clust_6="13000.00000" pt_clust_7="13000.00000" pt_clust_8="13000.00000" pt_clust_9="21.09806"></scales>
<clustering>
<clus scale="   21.098">  1  9  2 -1</clus>
<clus scale="   89.164">  7  8 -1 -1</clus>
<clus scale="   93.277">  5  6 -1 -1</clus>
<clus scale="  115.229">  1  7  2 -1</clus>
<clus scale="   21.098">  1  5  2 -1</clus>
</clustering>
</event>
<event>
 9    1  0.1315259E-005  0.1572325E+03  0.7546771E-02  0.1211253E+00
         21   -1    0    0  501  502  0.00000000000E+00  0.00000000000E+00  0.11232872030E+03  0.11232872030E+03  0.00000000000E+00 0. -1.
          1   -1    0    0  502    0 -0.00000000000E+00 -0.00000000000E+00 -0.39704281992E+03  0.39704281992E+03  0.00000000000E+00 0. -1.
         23    2    1    2    0    0  0.62394717614E+01  0.41943330984E+02 -0.16961313875E+03  0.19858885614E+03  0.94184621482E+02 0.  0.
         23    2    1    2    0    0 -0.68077064088E+02 -0.13346263347E+03 -0.48670332525E+02  0.18189242481E+03  0.90935646189E+02 0.  0.
        -11    1    4    4    0    0 -0.82408754241E+02 -0.11526052486E+03 -0.17077913326E+02  0.14271596439E+03  0.00000000000E+00 0. -1.
         11    1    4    4    0    0  0.14331690153E+02 -0.18202108601E+02 -0.31592419199E+02  0.39176460420E+02  0.00000000000E+00 0.  1.
        -13    1    3    3    0    0 -0.35235517878E+02  0.10977139414E+02 -0.12474240449E+03  0.13008730449E+03  0.00000000000E+00 0. -1.
         13    1    3    3    0    0  0.41474989639E+02  0.30966191570E+02 -0.44870734258E+02  0.68501551652E+02  0.00000000000E+00 0.  1.
          1    1    1    2  501    0  0.61837592327E+02  0.91519302482E+02 -0.66430628341E+02  0.12889025926E+03  0.00000000000E+00 0. -1.
<scales pt_clust_5="13000.00000" pt_clust_6="13000.00000" pt_clust_7="13000.00000" pt_clust_8="13000.00000" pt_clust_9="128.26844"></scales>
<clustering>
<clus scale="   90.936">  5  6 -1 -1</clus>
<clus scale="   94.185">  7  8 -1 -1</clus>
<clus scale="  103.290">  2  7  1 -1</clus>
<clus scale="  128.268">  1  9  2 -1</clus>
<clus scale="  128.268">  1  5  2 -1</clus>
</clustering>
</event>
<event>
 9    1  0.1315259E-005  0.1826978E+03  0.7546771E-02  0.1184792E+00
          1   -1    0    0  502    0 -0.00000000000E+00  0.00000000000E+00  0.33725115496E+03  0.33725115496E+03  0.00000000000E+00 0. -1.
         21   -1    0    0  501  502  0.00000000000E+00 -0.00000000000E+00 -0.17233372975E+03  0.17233372975E+03  0.00000000000E+00 0. -1.
         23    2    1    2    0    0  0.22059035721E+02 -0.85542261959E+01  0.98748676541E+02  0.15326140536E+03  0.11479538933E+03 0.  0.
         23    2    1    2    0    0 -0.13825991316E+03 -0.96952731481E+02  0.51620956250E+01  0.18793056455E+03  0.82314118663E+02 0.  0.
        -11    1    3    3    0    0  0.26686543232E+01 -0.56678383272E+02  0.22510505355E+02  0.61043293633E+02  0.00000000000E+00 0.  1.
         11    1    3    3    0    0  0.19390381398E+02  0.48124157076E+02  0.76238171186E+02  0.92218111729E+02  0.00000000000E+00 0. -1.
        -11    1    4    4    0    0 -0.44682741588E+02 -0.76233143195E+02 -0.15945396109E+02  0.89790284409E+02  0.00000000000E+00 0.  1.
         11    1    4    4    0    0 -0.93577171576E+02 -0.20719588286E+02  0.21107491734E+02  0.98140280141E+02  0.00000000000E+00 0. -1.
          1    1    1    2  501    0  0.11620087744E+03  0.10550695768E+03  0.61006653047E+02  0.16839291479E+03  0.00000000000E+00 0. -1.
<scales pt_clust_5="13000.00000" pt_clust_6="13000.00000" pt_clust_7="13000.00000" pt_clust_8="13000.00000" pt_clust_9="163.10390"></scales>
<clustering>
<clus scale="   82.314">  7  8 -1 -1</clus>
<clus scale="  114.795">  5  6 -1 -1</clus>
<clus scale="  117.208">  1  5  2 -1</clus>
<clus scale="  163.104">  2  9  1 -1</clus>
<clus scale="  163.104">  2  5  1 -1</clus>
</clustering>
</event>
<event>
 9    1  0.1315259E-005  0.1151274E+03  0.7546771E-02  0.1251758E+00
         -1   -1    0    0    0  501 -0.00000000000E+00  0.00000000000E+00  0.63648739135E+02  0.63648739135E+02  0.00000000000E+00 0.  1.
         21   -1    0    0  501  502  0.00000000000E+00 -0.00000000000E+00 -0.59597076237E+03  0.59597076237E+03  0.00000000000E+00 0. -1.
         23    2    1    2    0    0  0.64090639524E+02 -0.37894477138E+01 -0.49769726958E+02  0.12313055251E+03  0.92531817502E+02 0.  0.
         23    2    1    2    0    0 -0.72638058452E+02 -0.44182030906E+02 -0.12867265129E+03  0.17927035449E+03  0.91394033815E+02 0.  0.
        -11    1    4    4    0    0 -0.50985571673E+02  0.17455520836E+02 -0.32261333660E+02  0.62809373314E+02  0.00000000000E+00 0.  1.
         11    1    4    4    0    0 -0.21652486779E+02 -0.61637551742E+02 -0.96411317633E+02  0.11646098118E+03  0.00000000000E+00 0. -1.
        -11    1    3    3    0    0  0.20848817637E+02  0.38254859263E+02  0.20480559767E+01  0.43615387048E+02  0.00000000000E+00 0.  1.
         11    1    3    3    0    0  0.43241821888E+02 -0.42044306977E+02 -0.51817782935E+02  0.79515165457E+02  0.00000000000E+00 0. -1.
         -1    1    1    2    0  502  0.85474189277E+01  0.47971478620E+02 -0.35387964498E+03  0.35721859451E+03  0.00000000000E+00 0.  1.
<scales pt_clust_5="13000.00000" pt_clust_6="13000.00000" pt_clust_7="13000.00000" pt_clust_8="13000.00000" pt_clust_9="48.72701"></scales>
<clustering>
<clus scale="   48.727">  2  9  1 -1</clus>
<clus scale="   91.394">  5  6 -1 -1</clus>
<clus scale="   92.532">  7  8 -1 -1</clus>
<clus scale="  114.215">  2  5  1 -1</clus>
<clus scale="   48.727">  2  5  1 -1</clus>
</clustering>
</event>
<event>
 9    1  0.1315259E-005  0.1272416E+03  0.7546771E-02  0.1232221E+00
         21   -1    0    0  501  502  0.00000000000E+00  0.00000000000E+00  0.14002963724E+03  0.14002963724E+03  0.00000000000E+00 0.  1.
          1   -1    0    0  502    0 -0.00000000000E+00 -0.00000000000E+00 -0.21231524296E+03  0.21231524296E+03  0.00000000000E+00 0. -1.
         23    2    1    2    0    0 -0.65722123432E+02  0.34320248880E+02 -0.73699092562E+02  0.14116077254E+03  0.94855313343E+02 0.  0.
         23    2    1    2    0    0  0.70525142513E+02 -0.75942153516E+02 -0.47354024642E+02  0.14689007905E+03  0.92699974470E+02 0.  0.
        -11    1    3    3    0    0 -0.14023340860E+02 -0.28292275786E+02 -0.10922001102E+00  0.31577189347E+02  0.00000000000E+00 0.  1.
         11    1    3    3    0    0 -0.51698782573E+02  0.62612524666E+02 -0.73589872551E+02  0.10958358320E+03  0.00000000000E+00 0. -1.
        -11    1    4    4    0    0  0.43629140947E+02 -0.93533216775E+02 -0.20987963501E+02  0.10532074436E+03  0.00000000000E+00 0.  1.
         11    1    4    4    0    0  0.26896001567E+02  0.17591063259E+02 -0.26366061142E+02  0.41569334695E+02  0.00000000000E+00 0. -1.
          1    1    1    2  501    0 -0.48030190808E+01  0.41621904636E+02  0.48767511486E+02  0.64294028606E+02  0.00000000000E+00 0. -1.
<scales pt_clust_5="13000.00000" pt_clust_6="13000.00000" pt_clust_7="13000.00000" pt_clust_8="13000.00000" pt_clust_9="41.89811"></scales>
<clustering>
<clus scale="   41.898">  1  9  2 -1</clus>
<clus scale="   92.700">  7  8 -1 -1</clus>
<clus scale="   94.855">  5  6 -1 -1</clus>
<clus scale="  125.643">  1  7  2 -1</clus>
<clus scale="   41.898">  1  5  2 -1</clus>
</clustering>
</event>
<event>
 9    1  0.1315259E-005  0.1576854E+03  0.7546771E-02  0.1201836E+00
         -1   -1    0    0    0  501 -0.00000000000E+00  0.00000000000E+00  0.98098142777E+03  0.98098142777E+03  0.00000000000E+00 0.  1.
         21   -1    0    0  501  502  0.00000000000E+00 -0.00000000000E+00 -0.45784217107E+02  0.45784217107E+02  0.00000000000E+00 0.  1.
         23    2    1    2    0    0  0.67827220700E+02  0.53054181162E+02  0.24489701915E+03  0.27511720029E+03  0.91102392401E+02 0.  0.
         23    2    1    2    0    0  0.89390034093E+02 -0.32224794701E+02  0.38832286898E+03  0.41055984632E+03  0.93465080351E+02 0.  0.
        -13    1    4    4    0    0  0.25065314628E+02  0.26228659594E+02  0.53510316811E+02  0.64649567568E+02  0.00000000000E+00 0. -1.
         13    1    4    4    0    0  0.64324719464E+02 -0.58453454295E+02  0.33481255217E+03  0.34591027875E+03  0.00000000000E+00 0.  1.
        -13    1    3    3    0    0  0.40809548476E+02 -0.76660161090E+01  0.32991404815E+02  0.53034138453E+02  0.00000000000E+00 0.  1.
         13    1    3    3    0    0  0.27017672224E+02  0.60720197271E+02  0.21190561433E+03  0.22208306183E+03  0.00000000000E+00 0. -1.
         -1    1    1    2    0  502 -0.15721725479E+03 -0.20829386461E+02  0.30197732253E+03  0.34108859827E+03  0.00000000000E+00 0.  1.
<scales pt_clust_5="13000.00000" pt_clust_6="13000.00000" pt_clust_7="13000.00000" pt_clust_8="13000.00000" pt_clust_9="126.99991"></scales>
<clustering>
<clus scale="   91.102">  7  8 -1 -1</clus>
<clus scale="   93.465">  5  6 -1 -1</clus>
<clus scale="  125.359">  1  7  2 -1</clus>
<clus scale="  127.000">  2  9  1 -1</clus>
<clus scale="  127.000">  2  5  1 -1</clus>
</clustering>
</event>
<event>
 9    1  0.1315259E-005  0.1230943E+03  0.7546771E-02  0.1239213E+00
         21   -1    0    0  501  502  0.00000000000E+00  0.00000000000E+00  0.44364810513E+02  0.44364810513E+02  0.00000000000E+00 0.  1.
          1   -1    0    0  502    0 -0.00000000000E+00 -0.00000000000E+00 -0.63072350726E+03  0.63072350726E+03  0.00000000000E+00 0. -1.
         23    2    1    2    0    0 -0.86080112233E+02 -0.19409312219E+02 -0.41637761319E+03  0.43563528547E+03  0.92850837692E+02 0.  0.
         23    2    1    2    0    0  0.57554699666E+02 -0.15678772066E+01 -0.55697690652E+02  0.11981008210E+03  0.89091084496E+02 0.  0.
        -11    1    4    4    0    0  0.77360858724E+01 -0.38603891757E+02 -0.39243845161E+02  0.55589449236E+02  0.00000000000E+00 0. -1.
         11    1    4    4    0    0  0.49818613794E+02  0.37036014551E+02 -0.16453845491E+02  0.64220632865E+02  0.00000000000E+00 0.  1.
        -13    1    3    3    0    0 -0.62651360724E+02 -0.51112354054E+02 -0.20052818739E+03  0.21621567861E+03  0.00000000000E+00 0. -1.
         13    1    3    3    0    0 -0.23428751509E+02  0.31703041835E+02 -0.21584942580E+03  0.21941960686E+03  0.00000000000E+00 0.  1.
          1    1    1    2  501    0  0.28525412567E+02  0.20977189426E+02 -0.11428339291E+03  0.11964295021E+03  0.00000000000E+00 0. -1.
<scales pt_clust_5="13000.00000" pt_clust_6="13000.00000" pt_clust_7="13000.00000" pt_clust_8="13000.00000" pt_clust_9="35.40823"></scales>
<clustering>
<clus scale="   35.408">  1  9  2 -1</clus>
<clus scale="   89.091">  5  6 -1 -1</clus>
<clus scale="   92.851">  7  8 -1 -1</clus>
<clus scale="  120.284">  1  5  2 -1</clus>
<clus scale="   35.408">  1  5  2 -1</clus>
</clustering>
</event>
<event>
 9    1  0.1315259E-005  0.1113285E+03  0.7546771E-02  0.1258659E+00
         21   -1    0    0  501  502  0.00000000000E+00  0.00000000000E+00  0.41838892446E+02  0.41838892446E+02  0.00000000000E+00 0.  1.
          2   -1    0    0  502    0 -0.00000000000E+00 -0.00000000000E+00 -0.48454229649E+03  0.48454229649E+03  0.00000000000E+00 0. -1.
         23    2    1    2    0    0  0.54582408266E+02 -0.15869785675E+02 -0.26415942641E+03  0.28528237177E+03  0.91513603869E+02 0.  0.
         23    2    1    2    0    0 -0.60913994415E+02  0.54267876932E+02 -0.14869769101E+03  0.19205492641E+03  0.90103131267E+02 0.  0.
        -11    1    4    4    0    0 -0.18181781453E+02 -0.10647751404E+02 -0.95686989555E+02  0.97979343521E+02  0.00000000000E+00 0. -1.
         11    1    4    4    0    0 -0.42732212962E+02  0.64915628337E+02 -0.53010701453E+02  0.94075582887E+02  0.00000000000E+00 0.  1.
        -13    1    3    3    0    0 -0.85001401813E+01 -0.21512104270E+02 -0.13578826305E+02  0.26821773563E+02  0.00000000000E+00 0.  1.
         13    1    3    3    0    0  0.63082548448E+02  0.56423185953E+01 -0.25058060010E+03  0.25846059821E+03  0.00000000000E+00 0. -1.
          2    1    1    2  501    0  0.63315861484E+01 -0.38398091258E+02 -0.29846286635E+02  0.49043890764E+02  0.00000000000E+00 0. -1.
<scales pt_clust_5="13000.00000" pt_clust_6="13000.00000" pt_clust_7="13000.00000" pt_clust_8="13000.00000" pt_clust_9="38.91661"></scales>
<clustering>
<clus scale="   38.917">  1  9  2 -1</clus>
<clus scale="   90.103">  5  6 -1 -1</clus>
<clus scale="   91.514">  7  8 -1 -1</clus>
<clus scale="  110.172">  1  5  2 -1</clus>
<clus scale="   38.917">  1  5  2 -1</clus>
</clustering>
</event>
<event>
 9    1  0.1315259E-005  0.1122355E+03  0.7546771E-02  0.1258068E+00
         21   -1    0    0  501  502  0.00000000000E+00  0.00000000000E+00  0.28970715612E+02  0.28970715612E+02  0.00000000000E+00 0.  1.
          1   -1    0    0  502    0 -0.00000000000E+00 -0.00000000000E+00 -0.77279376685E+03  0.77279376685E+03  0.00000000000E+00 0. -1.
         23    2    1    2    0    0 -0.15487778448E+02 -0.57173881546E+02 -0.51641901529E+03  0.52829636913E+03  0.94338381695E+02 0.  0.
         23    2    1    2    0    0 -0.18334972540E+02  0.70042963459E+02 -0.17047205621E+03  0.20600818397E+03  0.90202339030E+02 0.  0.
        -11    1    4    4    0    0 -0.20156083118E+02  0.28421159666E+02 -0.15903230045E+03  0.16280449192E+03  0.00000000000E+00 0. -1.
         11    1    4    4    0    0  0.18211105787E+01  0.41621803794E+02 -0.11439755757E+02  0.43203692048E+02  0.00000000000E+00 0.  1.
        -13    1    3    3    0    0 -0.55249582978E+02 -0.30018079305E+02 -0.31342598178E+03  0.31967084253E+03  0.00000000000E+00 0.  1.
         13    1    3    3    0    0  0.39761804529E+02 -0.27155802241E+02 -0.20299303351E+03  0.20862552660E+03  0.00000000000E+00 0. -1.
          1    1    1    2  501    0  0.33822750988E+02 -0.12869081913E+02 -0.56931979742E+02  0.67459929373E+02  0.00000000000E+00 0. -1.
<scales pt_clust_5="13000.00000" pt_clust_6="13000.00000" pt_clust_7="13000.00000" pt_clust_8="13000.00000" pt_clust_9="36.18828"></scales>
<clustering>
<clus scale="   36.188">  1  9  2 -1</clus>
<clus scale="   90.202">  5  6 -1 -1</clus>
<clus scale="   94.338">  7  8 -1 -1</clus>
<clus scale="  108.782">  1  5  2 -1</clus>
<clus scale="   36.188">  1  5  2 -1</clus>
</clustering>
</event>
<event>
 9    1  0.1315259E-005  0.1203360E+03  0.7546771E-02  0.1242756E+00
         -3   -1    0    0    0  501 -0.00000000000E+00  0.00000000000E+00  0.14690709064E+03  0.14690709064E+03  0.00000000000E+00 0.  1.
         21   -1    0    0  501  502  0.00000000000E+00 -0.00000000000E+00 -0.19348010453E+03  0.19348010453E+03  0.00000000000E+00 0. -1.
         23    2    1    2    0    0 -0.58720072366E+02  0.46157592992E+02  0.70179614564E+02  0.13649318509E+03  0.90147883985E+02 0.  0.
         23    2    1    2    0    0  0.68796129702E+02 -0.66791395988E+02 -0.63089341589E+02  0.14552424808E+03  0.89459732385E+02 0.  0.
        -13    1    3    3    0    0 -0.58904090080E+02  0.69965266392E+02  0.64788586221E+02  0.11208207365E+03  0.00000000000E+00 0.  1.
         13    1    3    3    0    0  0.18401771360E+00 -0.23807673400E+02  0.53910283425E+01  0.24411111441E+02  0.00000000000E+00 0. -1.
        -13    1    4    4    0    0  0.90332739340E+02 -0.58370159338E+02 -0.47108726410E+02  0.11741512425E+03  0.00000000000E+00 0. -1.
         13    1    4    4    0    0 -0.21536609638E+02 -0.84212366500E+01 -0.15980615179E+02  0.28109123838E+02  0.00000000000E+00 0.  1.
         -3    1    1    2    0  502 -0.10076057335E+02  0.20633802996E+02 -0.53663286864E+02  0.58369761988E+02  0.00000000000E+00 0.  1.
<scales pt_clust_5="13000.00000" pt_clust_6="13000.00000" pt_clust_7="13000.00000" pt_clust_8="13000.00000" pt_clust_9="22.96259"></scales>
<clustering>
<clus scale="   22.963">  2  9  1 -1</clus>
<clus scale="   89.460">  7  8 -1 -1</clus>
<clus scale="   90.148">  5  6 -1 -1</clus>
<clus scale="  119.821">  2  7  1 -1</clus>
<clus scale="   22.963">  2  5  1 -1</clus>
</clustering>
</event>
<event>
 9    1  0.1315259E-005  0.1144157E+03  0.7546771E-02  0.1253246E+00
         21   -1    0    0  501  502  0.00000000000E+00  0.00000000000E+00  0.27104207409E+03  0.27104207409E+03  0.00000000000E+00 0.  1.
         -1   -1    0    0    0  501 -0.00000000000E+00 -0.00000000000E+00 -0.15571295892E+03  0.15571295892E+03  0.00000000000E+00 0.  1.
         23    2    1    2    0    0 -0.51488635308E+02 -0.40710592123E+02 -0.84795397513E+02  0.14015871380E+03  0.90253940288E+02 0.  0.
         23    2    1    2    0    0  0.39933359428E+02  0.68475858609E+02  0.46542146004E+02  0.13009718894E+03  0.92062428858E+02 0.  0.
        -13    1    4    4    0    0  0.68681122798E+02  0.35149835156E+02  0.34155218163E+02  0.84375271662E+02  0.00000000000E+00 0.  1.
         13    1    4    4    0    0 -0.28747763370E+02  0.33326023453E+02  0.12386927842E+02  0.45721917276E+02  0.00000000000E+00 0. -1.
        -13    1    3    3    0    0 -0.70983858312E+02 -0.52180898304E+02 -0.59968260328E+02  0.10657272885E+03  0.00000000000E+00 0. -1.
         13    1    3    3    0    0  0.19495223005E+02  0.11470306181E+02 -0.24827137185E+02  0.33585984945E+02  0.00000000000E+00 0.  1.
         -1    1    1    2    0  502  0.11555275880E+02 -0.27765266487E+02  0.15358236667E+03  0.15649913027E+03  0.00000000000E+00 0.  1.
<scales pt_clust_5="13000.00000" pt_clust_6="13000.00000" pt_clust_7="13000.00000" pt_clust_8="13000.00000" pt_clust_9="30.07382"></scales>
<clustering>
<clus scale="   30.074">  1  9  2 -1</clus>
<clus scale="   90.254">  7  8 -1 -1</clus>
<clus scale="   92.062">  5  6 -1 -1</clus>
<clus scale="  112.966">  2  7  1 -1</clus>
<clus scale="   30.074">  1  5  2 -1</clus>
</clustering>
</event>
<event>
 9    1  0.1315259E-005  0.1146997E+03  0.7546771E-02  0.1253633E+00
         21   -1    0    0  501  502  0.00000000000E+00  0.00000000000E+00  0.31778589902E+03  0.31778589902E+03  0.00000000000E+00 0. -1.
         -2   -1    0    0    0  501 -0.00000000000E+00 -0.00000000000E+00 -0.72974299648E+02  0.72974299648E+02  0.00000000000E+00 0.  1.
         23    2    1    2    0    0 -0.10295899632E+02  0.68256090019E+02  0.32792537415E+02  0.12258301564E+03  0.95845426803E+02 0.  0.
         23    2    1    2    0    0 -0.16650085292E+02 -0.47678294135E+02  0.20946797486E+03  0.23417659726E+03  0.91713691132E+02 0.  0.
        -11    1    4    4    0    0  0.21789282433E+02  0.12687835216E+02  0.10192813887E+03  0.10500047374E+03  0.00000000000E+00 0.  1.
         11    1    4    4    0    0 -0.38439367725E+02 -0.60366129352E+02  0.10753983599E+03  0.12917612352E+03  0.00000000000E+00 0. -1.
        -13    1    3    3    0    0  0.40827654448E+02  0.13244442909E+02  0.95813462706E+01  0.43978572419E+02  0.00000000000E+00 0.  1.
         13    1    3    3    0    0 -0.51123554080E+02  0.55011647110E+02  0.23211191145E+02  0.78604443220E+02  0.00000000000E+00 0. -1.
         -2    1    1    2    0  502  0.26945984924E+02 -0.20577795884E+02  0.25510870945E+01  0.34000585765E+02  0.00000000000E+00 0.  1.
<scales pt_clust_5="13000.00000" pt_clust_6="13000.00000" pt_clust_7="13000.00000" pt_clust_8="13000.00000" pt_clust_9="33.90476"></scales>
<clustering>
<clus scale="   33.905">  1  9  2 -1</clus>
<clus scale="   91.714">  5  6 -1 -1</clus>
<clus scale="   95.845">  7  8 -1 -1</clus>
<clus scale="  111.270">  1  5  2 -1</clus>
<clus scale="   33.905">  1  5  2 -1</clus>
</clustering>
</event>
<event>
 9    1  0.1315259E-005  0.1021631E+03  0.7546771E-02  0.1276192E+00
         21   -1    0    0  501  502  0.00000000000E+00  0.00000000000E+00  0.17906830034E+03  0.17906830034E+03  0.00000000000E+00 0. -1.
          1   -1    0    0  502    0 -0.00000000000E+00 -0.00000000000E+00 -0.14383279669E+03  0.14383279669E+03  0.00000000000E+00 0. -1.
         23    2    1    2    0    0 -0.39434494917E+02  0.46602796280E+02 -0.29193456590E+02  0.11408204473E+03  0.91845277568E+02 0.  0.
         23    2    1    2    0    0  0.38300372581E+02  0.40727360767E+02  0.53739716018E+02  0.12082983418E+03  0.92662048842E+02 0.  0.
        -13    1    3    3    0    0 -0.28996387652E+02  0.73712379826E+02 -0.30800160018E+02  0.84987971464E+02  0.00000000000E+00 0. -1.
         13    1    3    3    0    0 -0.10438107265E+02 -0.27109583545E+02  0.16067034283E+01  0.29094073266E+02  0.00000000000E+00 0.  1.
        -13    1    4    4    0    0  0.35110092458E+02 -0.18074160572E+02 -0.22767471641E+01  0.39554739924E+02  0.00000000000E+00 0.  1.
         13    1    4    4    0    0  0.31902801233E+01  0.58801521340E+02  0.56016463183E+02  0.81275094258E+02  0.00000000000E+00 0. -1.
          1    1    1    2  501    0  0.11341223356E+01 -0.87330157048E+02  0.10689244216E+02  0.87989218120E+02  0.00000000000E+00 0. -1.
<scales pt_clust_5="13000.00000" pt_clust_6="13000.00000" pt_clust_7="13000.00000" pt_clust_8="13000.00000" pt_clust_9="87.33752"></scales>
<clustering>
<clus scale="   87.338">  1  9  2 -1</clus>
<clus scale="   91.845">  5  6 -1 -1</clus>
<clus scale="   92.662">  7  8 -1 -1</clus>
<clus scale="  101.423">  2  5  1 -1</clus>
<clus scale="   87.338">  1  5  2 -1</clus>
</clustering>
</event>
<event>
 9    1  0.1315259E-005  0.9441087E+02  0.7546771E-02  0.1293324E+00
         21   -1    0    0  501  502  0.00000000000E+00  0.00000000000E+00  0.60825049739E+02  0.60825049739E+02  0.00000000000E+00 0.  1.
         -1   -1    0    0    0  501 -0.00000000000E+00 -0.00000000000E+00 -0.31913528409E+03  0.31913528409E+03  0.00000000000E+00 0.  1.
         23    2    1    2    0    0  0.11652620035E+02  0.55461228332E+01 -0.14353409879E+03  0.16998958724E+03  0.90154751527E+02 0.  0.
         23    2    1    2    0    0 -0.48275825900E+02 -0.16400236714E+01 -0.13450860893E+03  0.16818693006E+03  0.88662464007E+02 0.  0.
        -11    1    3    3    0    0  0.56629773399E+01  0.44495420479E+02 -0.10793429282E+03  0.11688337487E+03  0.00000000000E+00 0.  1.
         11    1    3    3    0    0  0.59896426947E+01 -0.38949297646E+02 -0.35599805970E+02  0.53106212366E+02  0.00000000000E+00 0. -1.
        -11    1    4    4    0    0 -0.32857973262E+02 -0.40155586534E+02 -0.10548661641E+03  0.11755655565E+03  0.00000000000E+00 0.  1.
         11    1    4    4    0    0 -0.15417852638E+02  0.38515562862E+02 -0.29021992523E+02  0.50630374407E+02  0.00000000000E+00 0. -1.
         -1    1    1    2    0  502  0.36623205865E+02 -0.39060991618E+01  0.19732473366E+02  0.41783816528E+02  0.00000000000E+00 0.  1.
<scales pt_clust_5="13000.00000" pt_clust_6="13000.00000" pt_clust_7="13000.00000" pt_clust_8="13000.00000" pt_clust_9="36.83092"></scales>
<clustering>
<clus scale="   36.831">  1  9  2 -1</clus>
<clus scale="   88.662">  7  8 -1 -1</clus>
<clus scale="   90.155">  5  6 -1 -1</clus>
<clus scale="   92.987">  1  7  2 -1</clus>
<clus scale="   36.831">  1  5  2 -1</clus>
</clustering>
</event>
<event>
 9    1  0.1315259E-005  0.1050859E+03  0.7546771E-02  0.1276860E+00
          3   -1    0    0  502    0 -0.00000000000E+00  0.00000000000E+00  0.53231063385E+02  0.53231063385E+02  0.00000000000E+00 0. -1.
         21   -1    0    0  501  502  0.00000000000E+00 -0.00000000000E+00 -0.72930072786E+03  0.72930072786E+03  0.00000000000E+00 0.  1.
         23    2    1    2    0    0 -0.15753659602E+02  0.54668512787E+01 -0.12718385719E+02  0.10564228464E+03  0.10353970598E+03 0.  0.
         23    2    1    2    0    0  0.34169548019E+02  0.23849274609E+02 -0.46046363321E+03  0.47106925275E+03  0.90239334354E+02 0.  0.
        -11    1    4    4    0    0  0.43793567037E+02  0.52961248017E+02 -0.31505044569E+03  0.32245860763E+03  0.00000000000E+00 0.  1.
         11    1    4    4    0    0 -0.96240190172E+01 -0.29111973408E+02 -0.14541318752E+03  0.14861064511E+03  0.00000000000E+00 0. -1.
        -13    1    3    3    0    0 -0.38045117404E+02 -0.19471684793E+02  0.29387626740E+02  0.51867235056E+02  0.00000000000E+00 0. -1.
         13    1    3    3    0    0  0.22291457801E+02  0.24938536072E+02 -0.42106012459E+02  0.53775049582E+02  0.00000000000E+00 0.  1.
          3    1    1    2  501    0 -0.18415888417E+02 -0.29316125888E+02 -0.20288764555E+03  0.20582025386E+03  0.00000000000E+00 0. -1.
<scales pt_clust_5="13000.00000" pt_clust_6="13000.00000" pt_clust_7="13000.00000" pt_clust_8="13000.00000" pt_clust_9="34.62052"></scales>
<clustering>
<clus scale="   34.621">  2  9  1 -1</clus>
<clus scale="   90.239">  5  6 -1 -1</clus>
<clus scale="   92.009">  2  5  1 -1</clus>
<clus scale="  103.540">  7  8 -1 -1</clus>
<clus scale="   34.621">  2  5  1 -1</clus>
</clustering>
</event>
<event>
 9    1  0.1315259E-005  0.1152225E+03  0.7546771E-02  0.1251514E+00
          2   -1    0    0  502    0 -0.00000000000E+00  0.00000000000E+00  0.53081837149E+02  0.53081837149E+02  0.00000000000E+00 0. -1.
         21   -1    0    0  501  502  0.00000000000E+00 -0.00000000000E+00 -0.92867674840E+03  0.92867674840E+03  0.00000000000E+00 0. -1.
         23    2    1    2    0    0  0.12693694468E+01  0.78858961650E+02 -0.60020805148E+02  0.13376060085E+03  0.89827914127E+02 0.  0.
         23    2    1    2    0    0  0.83305933277E+02 -0.20909312333E+02 -0.53142551157E+03  0.54591924090E+03  0.90761585317E+02 0.  0.
        -11    1    4    4    0    0  0.50076998655E+02  0.32688912377E+02 -0.30864043821E+03  0.31438064648E+03  0.00000000000E+00 0.  1.
         11    1    4    4    0    0  0.33228934622E+02 -0.53598224710E+02 -0.22278507337E+03  0.23153859442E+03  0.00000000000E+00 0. -1.
        -13    1    3    3    0    0  0.24304012517E+02 -0.10989165353E+02 -0.15842169798E+02  0.31022912879E+02  0.00000000000E+00 0.  1.
         13    1    3    3    0    0 -0.23034643070E+02  0.89848127003E+02 -0.44178635350E+02  0.10273768797E+03  0.00000000000E+00 0. -1.
          2    1    1    2  501    0 -0.84575302724E+02 -0.57949649317E+02 -0.28414859453E+03  0.30207874381E+03  0.00000000000E+00 0. -1.
<scales pt_clust_5="13000.00000" pt_clust_6="13000.00000" pt_clust_7="13000.00000" pt_clust_8="13000.00000" pt_clust_9="102.52387"></scales>
<clustering>
<clus scale="   89.828">  7  8 -1 -1</clus>
<clus scale="   90.762">  5  6 -1 -1</clus>
<clus scale="  102.524">  2  9  1 -1</clus>
<clus scale="  114.489">  1  7  2 -1</clus>
<clus scale="  102.524">  2  5  1 -1</clus>
</clustering>
</event>
<event>
 9    1  0.1315259E-005  0.1015485E+03  0.7546771E-02  0.1278507E+00
          1   -1    0    0  502    0 -0.00000000000E+00  0.00000000000E+00  0.74829963597E+03  0.74829963597E+03  0.00000000000E+00 0. -1.
         21   -1    0    0  501  502  0.00000000000E+00 -0.00000000000E+00 -0.24337715006E+02  0.24337715006E+02  0.00000000000E+00 0. -1.
         23    2    1    2    0    0 -0.35553607700E+02  0.14130586935E+02  0.41633191544E+03  0.42743582839E+03  0.88912266116E+02 0.  0.
         23    2    1    2    0    0  0.74205790927E+02 -0.23828208089E+02  0.21214032669E+03  0.24173020343E+03  0.85765320127E+02 0.  0.
        -11    1    4    4    0    0  0.34257833213E+02  0.27091793023E+02  0.13009553935E+03  0.13723124187E+03  0.00000000000E+00 0. -1.
         11    1    4    4    0    0  0.39947957714E+02 -0.50920001112E+02  0.82044787333E+02  0.10449896156E+03  0.00000000000E+00 0.  1.
        -11    1    3    3    0    0  0.10729791775E+02  0.38068222452E+02  0.11448765266E+03  0.12112696068E+03  0.00000000000E+00 0. -1.
         11    1    3    3    0    0 -0.46283399475E+02 -0.23937635517E+02  0.30184426278E+03  0.30630886770E+03  0.00000000000E+00 0.  1.
          1    1    1    2  501    0 -0.38652183227E+02  0.96976211537E+01  0.95489678837E+02  0.10347131916E+03  0.00000000000E+00 0. -1.
<scales pt_clust_5="13000.00000" pt_clust_6="13000.00000" pt_clust_7="13000.00000" pt_clust_8="13000.00000" pt_clust_9="39.85016"></scales>
<clustering>
<clus scale="   39.850">  2  9  1 -1</clus>
<clus scale="   85.765">  5  6 -1 -1</clus>
<clus scale="   88.912">  7  8 -1 -1</clus>
<clus scale="   98.805">  2  5  1 -1</clus>
<clus scale="   39.850">  2  5  1 -1</clus>
</clustering>
</event>
<event>
 9    1  0.1886476E-005  0.1712324E+03  0.7546771E-02  0.1181184E+00
         21   -1    0    0  501  502  0.00000000000E+00  0.00000000000E+00  0.15587637428E+03  0.15587637428E+03  0.00000000000E+00 0.  1.
          1   -1    0    0  502    0 -0.00000000000E+00 -0.00000000000E+00 -0.74391752679E+03  0.74391752679E+03  0.00000000000E+00 0. -1.
         23    2    1    2    0    0 -0.46767856572E+01  0.12738355879E+03 -0.64984240288E+03  0.67165158782E+03  0.11212610516E+03 0.  0.
         23    2    1    2    0    0  0.26701338449E+02 -0.15233116103E+03  0.76287260335E+02  0.19184757166E+03  0.84071401604E+02 0.  0.
        -11    1    3    3    0    0  0.34705366113E+02  0.12474805785E+03 -0.52417471541E+03  0.53993117399E+03  0.00000000000E+00 0.  1.
         11    1    3    3    0    0 -0.39382151770E+02  0.26355009390E+01 -0.12566768747E+03  0.13172041382E+03  0.00000000000E+00 0. -1.
        -11    1    4    4    0    0 -0.27115736611E+02 -0.31886546327E+02  0.32010802618E+02  0.52694463588E+02  0.00000000000E+00 0.  1.
         11    1    4    4    0    0  0.53817075060E+02 -0.12044461470E+03  0.44276457717E+02  0.13915310807E+03  0.00000000000E+00 0. -1.
          1    1    1    2  501    0 -0.22024552792E+02  0.24947602234E+02 -0.14486009961E+02  0.36294741596E+02  0.00000000000E+00 0. -1.
<scales pt_clust_5="13000.00000" pt_clust_6="13000.00000" pt_clust_7="13000.00000" pt_clust_8="13000.00000" pt_clust_9="33.27858"></scales>
<clustering>
<clus scale="   33.279">  1  9  2 -1</clus>
<clus scale="   84.071">  7  8 -1 -1</clus>
<clus scale="  112.126">  5  6 -1 -1</clus>
<clus scale="  154.325">  1  7  2 -1</clus>
<clus scale="   33.279">  1  5  2 -1</clus>
</clustering>
</event>
<event>
 9    1  0.1315259E-005  0.9716400E+02  0.7546771E-02  0.1286818E+00
         -4   -1    0    0    0  501 -0.00000000000E+00  0.00000000000E+00  0.46136240191E+03  0.46136240191E+03  0.00000000000E+00 0.  1.
         21   -1    0    0  501  502  0.00000000000E+00 -0.00000000000E+00 -0.25335688979E+02  0.25335688979E+02  0.00000000000E+00 0. -1.
         23    2    1    2    0    0 -0.10385206526E+02  0.37001721585E+02  0.22210167303E+03  0.24314407273E+03  0.91175144791E+02 0.  0.
         23    2    1    2    0    0 -0.63240076991E+01 -0.24307441600E+02  0.17793553728E+03  0.20189364270E+03  0.92027945456E+02 0.  0.
        -13    1    3    3    0    0  0.39435645809E+02  0.14515113289E+02  0.12282115801E+03  0.12981099926E+03  0.00000000000E+00 0.  1.
         13    1    3    3    0    0 -0.49820852334E+02  0.22486608296E+02  0.99280515016E+02  0.11333307347E+03  0.00000000000E+00 0. -1.
        -13    1    4    4    0    0 -0.38750701691E+02 -0.15141636863E+02  0.33028966227E+02  0.53120604839E+02  0.00000000000E+00 0. -1.
         13    1    4    4    0    0  0.32426693992E+02 -0.91658047371E+01  0.14490657105E+03  0.14877303786E+03  0.00000000000E+00 0.  1.
         -4    1    1    2    0  502  0.16709214225E+02 -0.12694279985E+02  0.35989502624E+02  0.41660375460E+02  0.00000000000E+00 0.  1.
<scales pt_clust_5="13000.00000" pt_clust_6="13000.00000" pt_clust_7="13000.00000" pt_clust_8="13000.00000" pt_clust_9="20.98434"></scales>
<clustering>
<clus scale="   20.984">  2  9  1 -1</clus>
<clus scale="   91.175">  5  6 -1 -1</clus>
<clus scale="   92.028">  7  8 -1 -1</clus>
<clus scale="   96.357">  1  5  2 -1</clus>
<clus scale="   20.984">  2  5  1 -1</clus>
</clustering>
</event>
<event>
 9    1  0.1315259E-005  0.1050393E+03  0.7546771E-02  0.1270867E+00
         -1   -1    0    0    0  501 -0.00000000000E+00  0.00000000000E+00  0.18842933856E+03  0.18842933856E+03  0.00000000000E+00 0.  1.
         21   -1    0    0  501  502  0.00000000000E+00 -0.00000000000E+00 -0.18704823474E+03  0.18704823474E+03  0.00000000000E+00 0.  1.
         23    2    1    2    0    0  0.65238629666E+02  0.24155019428E+01  0.11186104069E+03  0.15866249648E+03  0.91645959615E+02 0.  0.
         23    2    1    2    0    0  0.74341704636E+01  0.43356063535E+02 -0.68939481996E+02  0.12141077148E+03  0.89737997073E+02 0.  0.
        -11    1    3    3    0    0  0.38747211609E+02 -0.37929197606E+02  0.25925411466E+02  0.60100727101E+02  0.00000000000E+00 0. -1.
         11    1    3    3    0    0  0.26491418058E+02  0.40344699548E+02  0.85935629225E+02  0.98561769377E+02  0.00000000000E+00 0.  1.
        -11    1    4    4    0    0  0.48685809042E+02  0.25138338366E+02 -0.35871584213E+02  0.65490568877E+02  0.00000000000E+00 0.  1.
         11    1    4    4    0    0 -0.41251638579E+02  0.18217725169E+02 -0.33067897783E+02  0.55920202607E+02  0.00000000000E+00 0. -1.
         -1    1    1    2    0  502 -0.72672800130E+02 -0.45771565478E+02 -0.41540454877E+02  0.95404305335E+02  0.00000000000E+00 0.  1.
<scales pt_clust_5="13000.00000" pt_clust_6="13000.00000" pt_clust_7="13000.00000" pt_clust_8="13000.00000" pt_clust_9="85.88581"></scales>
<clustering>
<clus scale="   85.886">  2  9  1 -1</clus>
<clus scale="   89.738">  7  8 -1 -1</clus>
<clus scale="   91.646">  5  6 -1 -1</clus>
<clus scale="  103.379">  2  7  1 -1</clus>
<clus scale="   85.886">  2  5  1 -1</clus>
</clustering>
</event>
<event>
 9    1  0.1315259E-005  0.9759288E+02  0.7546771E-02  0.1286306E+00
         21   -1    0    0  501  502  0.00000000000E+00  0.00000000000E+00  0.98550744256E+02  0.98550744256E+02  0.00000000000E+00 0. -1.
          2   -1    0    0  502    0 -0.00000000000E+00 -0.00000000000E+00 -0.24860980977E+03  0.24860980977E+03  0.00000000000E+00 0. -1.
         23    2    1    2    0    0  0.17310925145E+01  0.10088147965E+02 -0.91943959650E+02  0.13059808413E+03  0.92181345467E+02 0.  0.
         23    2    1    2    0    0 -0.33232450231E+02 -0.48842384874E+02 -0.10308403513E+03  0.14935807261E+03  0.90507133680E+02 0.  0.
        -11    1    4    4    0    0 -0.21193619409E+02  0.10172538485E+02  0.64317438091E+01  0.24372471588E+02  0.00000000000E+00 0.  1.
         11    1    4    4    0    0 -0.12038830822E+02 -0.59014923360E+02 -0.10951577894E+03  0.12498560102E+03  0.00000000000E+00 0. -1.
        -11    1    3    3    0    0  0.20049998657E+02 -0.47599924646E+01  0.12112369683E+02  0.23903336038E+02  0.00000000000E+00 0.  1.
         11    1    3    3    0    0 -0.18318906143E+02  0.14848140430E+02 -0.10405632933E+03  0.10669474809E+03  0.00000000000E+00 0. -1.
          2    1    1    2  501    0  0.31501357716E+02  0.38754236909E+02  0.44968929258E+02  0.67204397289E+02  0.00000000000E+00 0. -1.
<scales pt_clust_5="13000.00000" pt_clust_6="13000.00000" pt_clust_7="13000.00000" pt_clust_8="13000.00000" pt_clust_9="49.94223"></scales>
<clustering>
<clus scale="   49.942">  1  9  2 -1</clus>
<clus scale="   90.507">  5  6 -1 -1</clus>
<clus scale="   92.181">  7  8 -1 -1</clus>
<clus scale="   96.013">  1  5  2 -1</clus>
<clus scale="   49.942">  1  5  2 -1</clus>
</clustering>
</event>
<event>
 9    1  0.1315259E-005  0.1008689E+03  0.7546771E-02  0.1278640E+00
         -2   -1    0    0    0  501 -0.00000000000E+00  0.00000000000E+00  0.13987828440E+03  0.13987828440E+03  0.00000000000E+00 0.  1.
         21   -1    0    0  501  502  0.00000000000E+00 -0.00000000000E+00 -0.54636886544E+03  0.54636886544E+03  0.00000000000E+00 0.  1.
         23    2    1    2    0    0 -0.16365429305E+02  0.60820155302E+02  0.43180020759E+02  0.11868490247E+03  0.90855232726E+02 0.  0.
         23    2    1    2    0    0  0.43116964975E+02  0.18010204354E+01  0.11359927442E+02  0.10152983948E+03  0.91197280713E+02 0.  0.
        -11    1    4    4    0    0  0.64265384136E+02 -0.12588420160E+01  0.32015831022E+02  0.71809732748E+02  0.00000000000E+00 0. -1.
         11    1    4    4    0    0 -0.21148419161E+02  0.30598624514E+01 -0.20655903580E+02  0.29720106728E+02  0.00000000000E+00 0.  1.
        -11    1    3    3    0    0  0.32138877361E+02  0.27312948993E+02 -0.51015043772E+01  0.42484467369E+02  0.00000000000E+00 0. -1.
         11    1    3    3    0    0 -0.48504306665E+02  0.33507206308E+02  0.48281525136E+02  0.76200435098E+02  0.00000000000E+00 0.  1.
         -2    1    1    2    0  502 -0.26751535670E+02 -0.62621175737E+02 -0.46103052925E+03  0.46603240790E+03  0.00000000000E+00 0.  1.
<scales pt_clust_5="13000.00000" pt_clust_6="13000.00000" pt_clust_7="13000.00000" pt_clust_8="13000.00000" pt_clust_9="68.09593"></scales>
<clustering>
<clus scale="   68.096">  2  9  1 -1</clus>
<clus scale="   90.855">  7  8 -1 -1</clus>
<clus scale="   91.197">  5  6 -1 -1</clus>
<clus scale="  100.560">  1  7  2 -1</clus>
<clus scale="   68.096">  2  5  1 -1</clus>
</clustering>
</event>
<event>
 9    1  0.1315259E-005  0.1339873E+03  0.7546771E-02  0.1221940E+00
          2   -1    0    0  502    0 -0.00000000000E+00  0.00000000000E+00  0.32131724633E+03  0.32131724633E+03  0.00000000000E+00 0. -1.
         21   -1    0    0  501  502  0.00000000000E+00 -0.00000000000E+00 -0.17908639921E+03  0.17908639921E+03  0.00000000000E+00 0. -1.
         23    2    1    2    0    0  0.26126695127E+02  0.97866218730E+02  0.26091387132E+03  0.29467772616E+03  0.92187380280E+02 0.  0.
         23    2    1    2    0    0 -0.42957573336E+02 -0.65478146663E+02 -0.54457428463E+02  0.13185310422E+03  0.91032350184E+02 0.  0.
        -11    1    3    3    0    0 -0.15182880733E+01  0.50617071493E+02  0.33380838199E+02  0.60652069084E+02  0.00000000000E+00 0.  1.
         11    1    3    3    0    0  0.27644983200E+02  0.47249147237E+02  0.22753303312E+03  0.23402565708E+03  0.00000000000E+00 0. -1.
        -13    1    4    4    0    0 -0.48752744395E+02  0.13741203332E+01 -0.61235574066E+01  0.49155022612E+02  0.00000000000E+00 0. -1.
         13    1    4    4    0    0  0.57951710589E+01 -0.66852266996E+02 -0.48333871057E+02  0.82698081607E+02  0.00000000000E+00 0.  1.
          2    1    1    2  501    0  0.16830878209E+02 -0.32388072067E+02 -0.64225595730E+02  0.73872815165E+02  0.00000000000E+00 0. -1.
<scales pt_clust_5="13000.00000" pt_clust_6="13000.00000" pt_clust_7="13000.00000" pt_clust_8="13000.00000" pt_clust_9="36.50021"></scales>
<clustering>
<clus scale="   36.500">  2  9  1 -1</clus>
<clus scale="   91.032">  7  8 -1 -1</clus>
<clus scale="   92.187">  5  6 -1 -1</clus>
<clus scale="  133.195">  2  7  1 -1</clus>
<clus scale="   36.500">  2  5  1 -1</clus>
</clustering>
</event>
<event>
 9    1  0.1315259E-005  0.1041908E+03  0.7546771E-02  0.1274561E+00
         21   -1    0    0  501  502  0.00000000000E+00  0.00000000000E+00  0.79994140710E+02  0.79994140710E+02  0.00000000000E+00 0. -1.
          1   -1    0    0  502    0 -0.00000000000E+00 -0.00000000000E+00 -0.39379833415E+03  0.39379833415E+03  0.00000000000E+00 0. -1.
         23    2    1    2    0    0 -0.25046080652E+02 -0.51242440913E+02 -0.21939611443E+03  0.24614012233E+03  0.95902090107E+02 0.  0.
         23    2    1    2    0    0  0.46729313338E+02 -0.42846129819E+02 -0.41397035225E+02  0.11750248877E+03  0.89853774416E+02 0.  0.
        -11    1    4    4    0    0  0.26193286903E+02  0.26711472877E+02 -0.12751457461E+02  0.39524558561E+02  0.00000000000E+00 0.  1.
         11    1    4    4    0    0  0.20536026435E+02 -0.69557602696E+02 -0.28645577765E+02  0.77977930212E+02  0.00000000000E+00 0. -1.
        -13    1    3    3    0    0 -0.41547572503E+02 -0.65943206840E+02 -0.11172762228E+03  0.13622690223E+03  0.00000000000E+00 0. -1.
         13    1    3    3    0    0  0.16501491851E+02  0.14700765927E+02 -0.10766849215E+03  0.10991322011E+03  0.00000000000E+00 0.  1.
          1    1    1    2  501    0 -0.21683232686E+02  0.94088570732E+02 -0.53011043778E+02  0.11014986375E+03  0.00000000000E+00 0. -1.
<scales pt_clust_5="13000.00000" pt_clust_6="13000.00000" pt_clust_7="13000.00000" pt_clust_8="13000.00000" pt_clust_9="96.55476"></scales>
<clustering>
<clus scale="   89.854">  5  6 -1 -1</clus>
<clus scale="   95.902">  7  8 -1 -1</clus>
<clus scale="   96.555">  1  9  2 -1</clus>
<clus scale="   98.652">  1  5  2 -1</clus>
<clus scale="   96.555">  1  5  2 -1</clus>
</clustering>
</event>
<event>
 9    1  0.1315259E-005  0.1606292E+03  0.7546771E-02  0.1206108E+00
         21   -1    0    0  501  502  0.00000000000E+00  0.00000000000E+00  0.15068025411E+03  0.15068025411E+03  0.00000000000E+00 0.  1.
         -2   -1    0    0    0  501 -0.00000000000E+00 -0.00000000000E+00 -0.35029850438E+03  0.35029850438E+03  0.00000000000E+00 0.  1.
         23    2    1    2    0    0 -0.50851090971E+02  0.20379342405E+02  0.16377819671E+02  0.10938566534E+03  0.93251486610E+02 0.  0.
         23    2    1    2    0    0  0.79079704118E+02  0.11036129867E+03 -0.19764189432E+03  0.25658625781E+03  0.91328930027E+02 0.  0.
        -11    1    3    3    0    0 -0.75643012799E+02  0.40451148926E+01  0.57622004662E+00  0.75753286195E+02  0.00000000000E+00 0.  1.
         11    1    3    3    0    0  0.24791921827E+02  0.16334227513E+02  0.15801599624E+02  0.33632379146E+02  0.00000000000E+00 0. -1.
        -13    1    4    4    0    0  0.54760443844E+02  0.79090887033E+02 -0.60043063466E+02  0.11339860710E+03  0.00000000000E+00 0.  1.
         13    1    4    4    0    0  0.24319260273E+02  0.31270411633E+02 -0.13759883085E+03  0.14318765071E+03  0.00000000000E+00 0. -1.
         -2    1    1    2    0  502 -0.28228613147E+02 -0.13074064107E+03 -0.18354175626E+02  0.13500683535E+03  0.00000000000E+00 0.  1.
<scales pt_clust_5="13000.00000" pt_clust_6="13000.00000" pt_clust_7="13000.00000" pt_clust_8="13000.00000" pt_clust_9="132.13923"></scales>
<clustering>
<clus scale="   91.329">  7  8 -1 -1</clus>
<clus scale="   93.251">  5  6 -1 -1</clus>
<clus scale="  108.153">  2  5  1 -1</clus>
<clus scale="  132.139">  1  9  2 -1</clus>
<clus scale="  132.139">  1  5  2 -1</clus>
</clustering>
</event>
<event>
 9    1  0.1315259E-005  0.2701587E+03  0.7546771E-02  0.1101263E+00
          1   -1    0    0  502    0 -0.00000000000E+00  0.00000000000E+00  0.10739770635E+04  0.10739770635E+04  0.00000000000E+00 0. -1.
         21   -1    0    0  501  502  0.00000000000E+00 -0.00000000000E+00 -0.30341509958E+03  0.30341509958E+03  0.00000000000E+00 0.  1.
         23    2    1    2    0    0 -0.80760879632E+02 -0.24220840159E+03  0.98132486038E+03  0.10183140075E+04  0.93689416997E+02 0.  0.
         23    2    1    2    0    0  0.50125783184E+02  0.22574281665E+03 -0.15466602724E+03  0.29307449386E+03  0.92188207255E+02 0.  0.
        -11    1    4    4    0    0  0.85210504000E+01  0.46771337072E+02  0.73465346598E+01  0.48105486620E+02  0.00000000000E+00 0. -1.
         11    1    4    4    0    0  0.41604732784E+02  0.17897147958E+03 -0.16201256190E+03  0.24496900724E+03  0.00000000000E+00 0.  1.
        -13    1    3    3    0    0  0.16856559595E+02 -0.17351030672E+02  0.54646050937E+02  0.59761130761E+02  0.00000000000E+00 0.  1.
         13    1    3    3    0    0 -0.97617439227E+02 -0.22485737091E+03  0.92667880944E+03  0.95855287677E+03  0.00000000000E+00 0. -1.
          1    1    1    2  501    0  0.30635096448E+02  0.16465584932E+02 -0.56096869220E+02  0.66003661700E+02  0.00000000000E+00 0. -1.
<scales pt_clust_5="13000.00000" pt_clust_6="13000.00000" pt_clust_7="13000.00000" pt_clust_8="13000.00000" pt_clust_9="34.77966"></scales>
<clustering>
<clus scale="   34.780">  2  9  1 -1</clus>
<clus scale="   92.188">  5  6 -1 -1</clus>
<clus scale="   93.689">  7  8 -1 -1</clus>
<clus scale="  269.642">  2  5  1 -1</clus>
<clus scale="   34.780">  2  5  1 -1</clus>
</clustering>
</event>
<event>
 9    1  0.1315259E-005  0.1104725E+03  0.7546771E-02  0.1259939E+00
         -1   -1    0    0    0  501 -0.00000000000E+00  0.00000000000E+00  0.27118778698E+03  0.27118778698E+03  0.00000000000E+00 0.  1.
         21   -1    0    0  501  502  0.00000000000E+00 -0.00000000000E+00 -0.25261390766E+03  0.25261390766E+03  0.00000000000E+00 0.  1.
         23    2    1    2    0    0  0.64409526631E+02 -0.37909122814E+02  0.16787203839E+03  0.20457573987E+03  0.89913977540E+02 0.  0.
         23    2    1    2    0    0  0.20914272295E+02  0.75275905570E+02  0.24461224244E+02  0.12207436233E+03  0.90553463217E+02 0.  0.
        -13    1    3    3    0    0  0.52926348655E+02  0.19584968754E+02  0.10053606452E+03  0.11529210577E+03  0.00000000000E+00 0.  1.
         13    1    3    3    0    0  0.11483177977E+02 -0.57494091568E+02  0.67335973864E+02  0.89283634099E+02  0.00000000000E+00 0. -1.
        -13    1    4    4    0    0  0.43186091732E+02  0.48157023774E+02  0.47362283551E+02  0.80170589127E+02  0.00000000000E+00 0. -1.
         13    1    4    4    0    0 -0.22271819437E+02  0.27118881796E+02 -0.22901059306E+02  0.41903773199E+02  0.00000000000E+00 0.  1.
         -1    1    1    2    0  502 -0.85323798926E+02 -0.37366782756E+02 -0.17375938331E+03  0.19715159245E+03  0.00000000000E+00 0.  1.
<scales pt_clust_5="13000.00000" pt_clust_6="13000.00000" pt_clust_7="13000.00000" pt_clust_8="13000.00000" pt_clust_9="93.14734"></scales>
<clustering>
<clus scale="   89.914">  5  6 -1 -1</clus>
<clus scale="   90.553">  7  8 -1 -1</clus>
<clus scale="   93.147">  2  9  1 -1</clus>
<clus scale="  109.949">  1  5  2 -1</clus>
<clus scale="   93.147">  2  5  1 -1</clus>
</clustering>
</event>
<event>
 9    1  0.1315259E-005  0.8633720E+02  0.7546771E-02  0.1319048E+00
          1   -1    0    0  502    0 -0.00000000000E+00  0.00000000000E+00  0.51574524718E+03  0.51574524718E+03  0.00000000000E+00 0. -1.
         21   -1    0    0  501  502  0.00000000000E+00 -0.00000000000E+00 -0.42520454730E+02  0.42520454730E+02  0.00000000000E+00 0. -1.
         23    2    1    2    0    0 -0.33135367876E+02  0.16580340679E+02  0.29429182647E+03  0.30555732588E+03  0.73380787451E+02 0.  0.
         23    2    1    2    0    0 -0.57209834806E+01  0.27811508051E+02  0.17172126248E+03  0.19327386635E+03  0.84026101858E+02 0.  0.
        -11    1    3    3    0    0  0.15996421329E+02  0.23714083942E+02  0.15653742555E+03  0.15912953488E+03  0.00000000000E+00 0.  1.
         11    1    3    3    0    0 -0.49131789204E+02 -0.71337432627E+01  0.13775440093E+03  0.14642779100E+03  0.00000000000E+00 0. -1.
        -11    1    4    4    0    0  0.32117666413E+02 -0.41856648370E+01  0.10678953189E+03  0.11159331703E+03  0.00000000000E+00 0.  1.
         11    1    4    4    0    0 -0.37838649893E+02  0.31997172888E+02  0.64931730595E+02  0.81680549317E+02  0.00000000000E+00 0. -1.
          1    1    1    2  501    0  0.38856351356E+02 -0.44391848730E+02  0.72117034993E+01  0.59434509687E+02  0.00000000000E+00 0. -1.
<scales pt_clust_5="13000.00000" pt_clust_6="13000.00000" pt_clust_7="13000.00000" pt_clust_8="13000.00000" pt_clust_9="58.99536"></scales>
<clustering>
<clus scale="   58.995">  2  9  1 -1</clus>
<clus scale="   73.381">  5  6 -1 -1</clus>
<clus scale="   76.016">  1  5  2 -1</clus>
<clus scale="   84.026">  7  8 -1 -1</clus>
<clus scale="   58.995">  2  5  1 -1</clus>
</clustering>
</event>
<event>
 9    1  0.1315259E-005  0.1169381E+03  0.7546771E-02  0.1255064E+00
         21   -1    0    0  501  502  0.00000000000E+00  0.00000000000E+00  0.21695376801E+03  0.21695376801E+03  0.00000000000E+00 0. -1.
          1   -1    0    0  502    0 -0.00000000000E+00 -0.00000000000E+00 -0.11979629045E+03  0.11979629045E+03  0.00000000000E+00 0. -1.
         23    2    1    2    0    0 -0.25888162865E+02  0.25458953785E+02 -0.18483646609E+02  0.11478490084E+03  0.10731063770E+03 0.  0.
         23    2    1    2    0    0  0.24198766814E+02 -0.55613567462E+02  0.73055440417E+01  0.10949848387E+03  0.90874076583E+02 0.  0.
        -11    1    3    3    0    0 -0.58424608047E+02 -0.81011862357E+01 -0.30668026257E+02  0.66480011119E+02  0.00000000000E+00 0. -1.
         11    1    3    3    0    0  0.32536445182E+02  0.33560140021E+02  0.12184379648E+02  0.48304889718E+02  0.00000000000E+00 0.  1.
        -13    1    4    4    0    0 -0.18686397158E+02 -0.41061616144E+02 -0.27097466197E+02  0.52626138310E+02  0.00000000000E+00 0. -1.
         13    1    4    4    0    0  0.42885163971E+02 -0.14551951318E+02  0.34403010239E+02  0.56872345560E+02  0.00000000000E+00 0.  1.
          1    1    1    2  501    0  0.16893960515E+01  0.30154613678E+02  0.10833558013E+03  0.11246667376E+03  0.00000000000E+00 0. -1.
<scales pt_clust_5="13000.00000" pt_clust_6="13000.00000" pt_clust_7="13000.00000" pt_clust_8="13000.00000" pt_clust_9="30.20190"></scales>
<clustering>
<clus scale="   30.202">  1  9  2 -1</clus>
<clus scale="   90.874">  7  8 -1 -1</clus>
<clus scale="  102.064">  1  7  2 -1</clus>
<clus scale="  107.311">  5  6 -1 -1</clus>
<clus scale="   30.202">  1  5  2 -1</clus>
</clustering>
</event>
<event>
 9    1  0.1315259E-005  0.1036263E+03  0.7546771E-02  0.1273208E+00
         21   -1    0    0  501  502  0.00000000000E+00  0.00000000000E+00  0.49631744274E+02  0.49631744274E+02  0.00000000000E+00 0.  1.
          4   -1    0    0  502    0 -0.00000000000E+00 -0.00000000000E+00 -0.38723543835E+03  0.38723543835E+03  0.00000000000E+00 0. -1.
         23    2    1    2    0    0  0.39848324216E+02  0.33564775342E+02 -0.18798388699E+03  0.21592331119E+03  0.92576732839E+02 0.  0.
         23    2    1    2    0    0 -0.43907719481E+02 -0.66452782427E+01 -0.16169935774E+03  0.19116042707E+03  0.91780057913E+02 0.  0.
        -11    1    4    4    0    0 -0.15570657405E+02 -0.36262010014E+02 -0.13860311100E+03  0.14411176607E+03  0.00000000000E+00 0. -1.
         11    1    4    4    0    0 -0.28337062076E+02  0.29616731771E+02 -0.23096246741E+02  0.47048660995E+02  0.00000000000E+00 0.  1.
        -13    1    3    3    0    0  0.35707381072E+02  0.64898586315E+02 -0.14143835996E+03  0.15966105736E+03  0.00000000000E+00 0.  1.
         13    1    3    3    0    0  0.41409431438E+01 -0.31333810974E+02 -0.46545527025E+02  0.56262253832E+02  0.00000000000E+00 0. -1.
          4    1    1    2  501    0  0.40593952658E+01 -0.26919497099E+02  0.12079550653E+02  0.29783444360E+02  0.00000000000E+00 0. -1.
<scales pt_clust_5="13000.00000" pt_clust_6="13000.00000" pt_clust_7="13000.00000" pt_clust_8="13000.00000" pt_clust_9="27.22385"></scales>
<clustering>
<clus scale="   27.224">  1  9  2 -1</clus>
<clus scale="   91.780">  5  6 -1 -1</clus>
<clus scale="   92.577">  7  8 -1 -1</clus>
<clus scale="  102.915">  1  5  2 -1</clus>
<clus scale="   27.224">  1  5  2 -1</clus>
</clustering>
</event>
<event>
 9    1  0.1315259E-005  0.1095342E+03  0.7546771E-02  0.1261840E+00
          1   -1    0    0  502    0 -0.00000000000E+00  0.00000000000E+00  0.41369759341E+03  0.41369759341E+03  0.00000000000E+00 0. -1.
         21   -1    0    0  501  502  0.00000000000E+00 -0.00000000000E+00 -0.49145044824E+02  0.49145044824E+02  0.00000000000E+00 0. -1.
         23    2    1    2    0    0 -0.44410482522E+02 -0.36684023564E+02  0.24072215383E+03  0.26374049952E+03  0.91070781272E+02 0.  0.
         23    2    1    2    0    0  0.34432727792E+02  0.54160321906E+02  0.13540443046E+03  0.17588716735E+03  0.92103108744E+02 0.  0.
        -13    1    4    4    0    0  0.65206927723E+02  0.25500092351E+02  0.89485638273E+02  0.11362164226E+03  0.00000000000E+00 0.  1.
         13    1    4    4    0    0 -0.30774199931E+02  0.28660229554E+02  0.45918792185E+02  0.62265525094E+02  0.00000000000E+00 0. -1.
        -13    1    3    3    0    0  0.26259682785E+02 -0.11347228086E+02  0.10284069230E+03  0.10674520372E+03  0.00000000000E+00 0.  1.
         13    1    3    3    0    0 -0.70670165306E+02 -0.25336795478E+02  0.13788146153E+03  0.15699529580E+03  0.00000000000E+00 0. -1.
          1    1    1    2  501    0  0.99777547298E+01 -0.17476298341E+02 -0.11574035695E+02  0.23214971364E+02  0.00000000000E+00 0. -1.
<scales pt_clust_5="13000.00000" pt_clust_6="13000.00000" pt_clust_7="13000.00000" pt_clust_8="13000.00000" pt_clust_9="20.12403"></scales>
<clustering>
<clus scale="   20.124">  2  9  1 -1</clus>
<clus scale="   91.071">  7  8 -1 -1</clus>
<clus scale="   92.103">  5  6 -1 -1</clus>
<clus scale="  108.668">  1  7  2 -1</clus>
<clus scale="   20.124">  2  5  1 -1</clus>
</clustering>
</event>
<event>
 9    1  0.1315259E-005  0.1056193E+03  0.7546771E-02  0.1271352E+00
         21   -1    0    0  501  502  0.00000000000E+00  0.00000000000E+00  0.53349686817E+03  0.53349686817E+03  0.00000000000E+00 0.  1.
         -1   -1    0    0    0  501 -0.00000000000E+00 -0.00000000000E+00 -0.75513966994E+02  0.75513966994E+02  0.00000000000E+00 0.  1.
         23    2    1    2    0    0 -0.38358939169E+02  0.30228085352E+02 -0.22003450593E+02  0.10360709833E+03  0.88685588614E+02 0.  0.
         23    2    1    2    0    0  0.32996914786E+01 -0.56866421070E+02  0.28528496699E+03  0.30578564895E+03  0.94194866640E+02 0.  0.
        -11    1    3    3    0    0 -0.37313974405E+02  0.59575186117E+02 -0.23723047789E+02  0.74191094366E+02  0.00000000000E+00 0.  1.
         11    1    3    3    0    0 -0.10449647637E+01 -0.29347100765E+02  0.17195971962E+01  0.29416003963E+02  0.00000000000E+00 0. -1.
        -11    1    4    4    0    0  0.37362506533E+02 -0.62882025041E+02  0.16213923868E+03  0.17787422154E+03  0.00000000000E+00 0. -1.
         11    1    4    4    0    0 -0.34062815054E+02  0.60156039713E+01  0.12314572831E+03  0.12791142741E+03  0.00000000000E+00 0.  1.
         -1    1    1    2    0  502  0.35059247690E+02  0.26638335718E+02  0.19470138478E+03  0.19961808789E+03  0.00000000000E+00 0.  1.
<scales pt_clust_5="13000.00000" pt_clust_6="13000.00000" pt_clust_7="13000.00000" pt_clust_8="13000.00000" pt_clust_9="44.03126"></scales>
<clustering>
<clus scale="   44.031">  1  9  2 -1</clus>
<clus scale="   88.686">  5  6 -1 -1</clus>
<clus scale="   94.195">  7  8 -1 -1</clus>
<clus scale="  100.737">  2  5  1 -1</clus>
<clus scale="   44.031">  1  5  2 -1</clus>
</clustering>
</event>
<event>
 9    1  0.1315259E-005  0.9635770E+02  0.7546771E-02  0.1289127E+00
          1   -1    0    0  502    0 -0.00000000000E+00  0.00000000000E+00  0.75027850613E+02  0.75027850613E+02  0.00000000000E+00 0. -1.
         21   -1    0    0  501  502  0.00000000000E+00 -0.00000000000E+00 -0.32942062155E+03  0.32942062155E+03  0.00000000000E+00 0. -1.
         23    2    1    2    0    0 -0.24623252364E+02 -0.12590126928E+02  0.17362973611E+02  0.96841744117E+02  0.91170360853E+02 0.  0.
         23    2    1    2    0    0  0.23766343617E+02 -0.29766218277E+02 -0.20880254245E+03  0.23172590092E+03  0.92992067307E+02 0.  0.
        -11    1    3    3    0    0 -0.14774815057E+02 -0.50955507166E+02 -0.12681599614E+01  0.53069455436E+02  0.00000000000E+00 0.  1.
         11    1    3    3    0    0 -0.98484373072E+01  0.38365380238E+02  0.18631133573E+02  0.43772288682E+02  0.00000000000E+00 0. -1.
        -13    1    4    4    0    0  0.37093257666E+02  0.92072130068E+01 -0.17293826332E+03  0.17711105402E+03  0.00000000000E+00 0.  1.
         13    1    4    4    0    0 -0.13326914049E+02 -0.38973431284E+02 -0.35864279134E+02  0.54614846900E+02  0.00000000000E+00 0. -1.
          1    1    1    2  501    0  0.85690874746E+00  0.42356345205E+02 -0.62953202100E+02  0.75880827133E+02  0.00000000000E+00 0. -1.
<scales pt_clust_5="13000.00000" pt_clust_6="13000.00000" pt_clust_7="13000.00000" pt_clust_8="13000.00000" pt_clust_9="42.36501"></scales>
<clustering>
<clus scale="   42.365">  2  9  1 -1</clus>
<clus scale="   91.170">  5  6 -1 -1</clus>
<clus scale="   92.992">  7  8 -1 -1</clus>
<clus scale="   94.601">  1  5  2 -1</clus>
<clus scale="   42.365">  2  5  1 -1</clus>
</clustering>
</event>
<event>
 9    1  0.1315259E-005  0.1429107E+03  0.7546771E-02  0.1210806E+00
          3   -1    0    0  502    0 -0.00000000000E+00  0.00000000000E+00  0.73666402807E+03  0.73666402807E+03  0.00000000000E+00 0. -1.
         21   -1    0    0  501  502  0.00000000000E+00 -0.00000000000E+00 -0.59605871631E+02  0.59605871631E+02  0.00000000000E+00 0. -1.
         23    2    1    2    0    0  0.56942291928E+02 -0.11108559399E+03  0.49893901601E+03  0.52240713439E+03  0.91578592241E+02 0.  0.
         23    2    1    2    0    0  0.18948783706E+02  0.70055346534E+02  0.10909645389E+03  0.16337716523E+03  0.97587160460E+02 0.  0.
        -13    1    4    4    0    0 -0.29463042778E+02  0.11886292915E+02  0.14669856268E+01  0.31804196198E+02  0.00000000000E+00 0.  1.
         13    1    4    4    0    0  0.48411826484E+02  0.58169053619E+02  0.10762946826E+03  0.13157296903E+03  0.00000000000E+00 0. -1.
        -13    1    3    3    0    0  0.53481566407E+02 -0.26087160371E+02  0.11884206332E+03  0.13290693697E+03  0.00000000000E+00 0.  1.
         13    1    3    3    0    0  0.34607255215E+01 -0.84998433623E+02  0.38009695270E+03  0.38950019742E+03  0.00000000000E+00 0. -1.
          3    1    1    2  501    0 -0.75891075635E+02  0.41030247461E+02  0.69022686536E+02  0.11048560008E+03  0.00000000000E+00 0. -1.
<scales pt_clust_5="13000.00000" pt_clust_6="13000.00000" pt_clust_7="13000.00000" pt_clust_8="13000.00000" pt_clust_9="86.27246"></scales>
<clustering>
<clus scale="   86.272">  2  9  1 -1</clus>
<clus scale="   91.579">  7  8 -1 -1</clus>
<clus scale="   97.587">  5  6 -1 -1</clus>
<clus scale="  138.877">  1  7  2 -1</clus>
<clus scale="   86.272">  2  5  1 -1</clus>
</clustering>
</event>
<event>
 9    1  0.1315259E-005  0.9218620E+02  0.7546771E-02  0.1301824E+00
         -3   -1    0    0    0  501 -0.00000000000E+00  0.00000000000E+00  0.82182111163E+02  0.82182111163E+02  0.00000000000E+00 0.  1.
         21   -1    0    0  501  502  0.00000000000E+00 -0.00000000000E+00 -0.43638106893E+03  0.43638106893E+03  0.00000000000E+00 0. -1.
         23    2    1    2    0    0 -0.97315127658E+01 -0.88112093464E+01  0.22634938497E+02  0.95680751875E+02  0.92033287932E+02 0.  0.
         23    2    1    2    0    0 -0.66360218822E+02 -0.16514312072E+02 -0.18312091992E+03  0.21322544442E+03  0.85178739664E+02 0.  0.
        -11    1    4    4    0    0 -0.26225454172E+02 -0.97985521513E+01 -0.16720221285E+03  0.16952983824E+03  0.00000000000E+00 0. -1.
         11    1    4    4    0    0 -0.40134764650E+02 -0.67157599209E+01 -0.15918707067E+02  0.43695606181E+02  0.00000000000E+00 0.  1.
        -11    1    3    3    0    0 -0.29667417951E+02  0.90071703219E+01 -0.25813457776E+02  0.40343765410E+02  0.00000000000E+00 0. -1.
         11    1    3    3    0    0  0.19935905185E+02 -0.17818379668E+02  0.48448396273E+02  0.55336986465E+02  0.00000000000E+00 0.  1.
         -3    1    1    2    0  502  0.76091731588E+02  0.25325521419E+02 -0.19371297634E+03  0.20965698380E+03  0.00000000000E+00 0.  1.
<scales pt_clust_5="13000.00000" pt_clust_6="13000.00000" pt_clust_7="13000.00000" pt_clust_8="13000.00000" pt_clust_9="80.19560"></scales>
<clustering>
<clus scale="   80.196">  2  9  1 -1</clus>
<clus scale="   85.179">  5  6 -1 -1</clus>
<clus scale="   85.344">  2  5  1 -1</clus>
<clus scale="   92.033">  7  8 -1 -1</clus>
<clus scale="   80.196">  2  5  1 -1</clus>
</clustering>
</event>
<event>
 9    1  0.1315259E-005  0.9819629E+02  0.7546771E-02  0.1285551E+00
          2   -1    0    0  502    0 -0.00000000000E+00  0.00000000000E+00  0.70614351993E+02  0.70614351993E+02  0.00000000000E+00 0. -1.
         21   -1    0    0  501  502  0.00000000000E+00 -0.00000000000E+00 -0.22641481072E+03  0.22641481072E+03  0.00000000000E+00 0.  1.
         23    2    1    2    0    0 -0.18251857014E+02  0.20018577774E+02  0.98707600866E+00  0.98117034717E+02  0.94297955662E+02 0.  0.
         23    2    1    2    0    0  0.33595181919E+02 -0.41925752102E+01 -0.10937059762E+03  0.14662211077E+03  0.91596407175E+02 0.  0.
        -13    1    3    3    0    0  0.28955346649E+02  0.14966919008E+02 -0.27589373853E+02  0.42703563244E+02  0.00000000000E+00 0.  1.
         13    1    3    3    0    0 -0.47207203663E+02  0.50516587661E+01  0.28576449862E+02  0.55413471473E+02  0.00000000000E+00 0. -1.
        -13    1    4    4    0    0 -0.18876539767E+02  0.29420312163E+02 -0.33196992250E+02  0.48207041144E+02  0.00000000000E+00 0. -1.
         13    1    4    4    0    0  0.52471721686E+02 -0.33612887373E+02 -0.76173605372E+02  0.98415069627E+02  0.00000000000E+00 0.  1.
          2    1    1    2  501    0 -0.15343324905E+02 -0.15826002564E+02 -0.47416937108E+02  0.52290017222E+02  0.00000000000E+00 0. -1.
<scales pt_clust_5="13000.00000" pt_clust_6="13000.00000" pt_clust_7="13000.00000" pt_clust_8="13000.00000" pt_clust_9="22.04269"></scales>
<clustering>
<clus scale="   22.043">  2  9  1 -1</clus>
<clus scale="   91.596">  7  8 -1 -1</clus>
<clus scale="   94.298">  5  6 -1 -1</clus>
<clus scale="   95.605">  2  7  1 -1</clus>
<clus scale="   22.043">  2  5  1 -1</clus>
</clustering>
</event>
<event>
 9    1  0.1315259E-005  0.9605585E+02  0.7546771E-02  0.1290442E+00
         21   -1    0    0  501  502  0.00000000000E+00  0.00000000000E+00  0.49340850588E+02  0.49340850588E+02  0.00000000000E+00 0. -1.
          2   -1    0    0  502    0 -0.00000000000E+00 -0.00000000000E+00 -0.39518921687E+03  0.39518921687E+03  0.00000000000E+00 0. -1.
         23    2    1    2    0    0 -0.18085950792E+02 -0.31511885602E+01 -0.22274679406E+03  0.24150772595E+03  0.91503091881E+02 0.  0.
         23    2    1    2    0    0  0.49633287290E+02 -0.95264401503E+01 -0.13306415157E+03  0.16759340281E+03  0.88471825823E+02 0.  0.
        -11    1    3    3    0    0 -0.74201118928E+00  0.36716350155E+02 -0.42858859253E+02  0.56440435556E+02  0.00000000000E+00 0.  1.
         11    1    3    3    0    0 -0.17343939603E+02 -0.39867538715E+02 -0.17988793481E+03  0.18506729040E+03  0.00000000000E+00 0. -1.
        -13    1    4    4    0    0  0.67391198939E+01 -0.37930165301E+02 -0.98093331333E+02  0.10538697656E+03  0.00000000000E+00 0.  1.
         13    1    4    4    0    0  0.42894167396E+02  0.28403725151E+02 -0.34970820236E+02  0.62206426252E+02  0.00000000000E+00 0. -1.
          2    1    1    2  501    0 -0.31547336498E+02  0.12677628710E+02  0.99625793475E+01  0.35428938696E+02  0.00000000000E+00 0. -1.
<scales pt_clust_5="13000.00000" pt_clust_6="13000.00000" pt_clust_7="13000.00000" pt_clust_8="13000.00000" pt_clust_9="33.99936"></scales>
<clustering>
<clus scale="   33.999">  1  9  2 -1</clus>
<clus scale="   88.472">  7  8 -1 -1</clus>
<clus scale="   91.503">  5  6 -1 -1</clus>
<clus scale="   93.173">  1  7  2 -1</clus>
<clus scale="   33.999">  1  5  2 -1</clus>
</clustering>
</event>
<event>
 9    1  0.1315259E-005  0.2407893E+03  0.7546771E-02  0.1145825E+00
          2   -1    0    0  502    0 -0.00000000000E+00  0.00000000000E+00  0.42685204059E+03  0.42685204059E+03  0.00000000000E+00 0. -1.
         21   -1    0    0  501  502  0.00000000000E+00 -0.00000000000E+00 -0.22706729032E+03  0.22706729032E+03  0.00000000000E+00 0. -1.
         23    2    1    2    0    0  0.85335446792E+02 -0.19842210808E+02  0.38422685030E+01  0.12584753175E+03  0.90260658164E+02 0.  0.
         23    2    1    2    0    0 -0.24211741564E+03 -0.11144607828E+03  0.15138132810E+03  0.31878038265E+03  0.87541730316E+02 0.  0.
        -11    1    3    3    0    0  0.26242101395E+02  0.35898167703E+02 -0.88303201653E+00  0.44475904439E+02  0.00000000000E+00 0.  1.
         11    1    3    3    0    0  0.59093345397E+02 -0.55740378512E+02  0.47253005195E+01  0.81371627315E+02  0.00000000000E+00 0. -1.
        -13    1    4    4    0    0 -0.21757869605E+03 -0.68240220247E+02  0.14074382717E+03  0.26796649328E+03  0.00000000000E+00 0. -1.
         13    1    4    4    0    0 -0.24538719590E+02 -0.43205858030E+02  0.10637500935E+02  0.50813889375E+02  0.00000000000E+00 0.  1.
          2    1    1    2  501    0  0.15678196885E+03  0.13128828909E+03  0.44561153666E+02  0.20929141651E+03  0.00000000000E+00 0. -1.
<scales pt_clust_5="13000.00000" pt_clust_6="13000.00000" pt_clust_7="13000.00000" pt_clust_8="13000.00000" pt_clust_9="224.31216"></scales>
<clustering>
<clus scale="   87.542">  7  8 -1 -1</clus>
<clus scale="   90.261">  5  6 -1 -1</clus>
<clus scale="  125.789">  1  5  2 -1</clus>
<clus scale="  224.312">  2  9  1 -1</clus>
<clus scale="  224.312">  2  5  1 -1</clus>
</clustering>
</event>
<event>
 9    1  0.1315259E-005  0.9959661E+02  0.7546771E-02  0.1281353E+00
          2   -1    0    0  502    0 -0.00000000000E+00  0.00000000000E+00  0.17880989793E+03  0.17880989793E+03  0.00000000000E+00 0. -1.
         21   -1    0    0  501  502  0.00000000000E+00 -0.00000000000E+00 -0.12739033805E+03  0.12739033805E+03  0.00000000000E+00 0.  1.
         23    2    1    2    0    0 -0.28600405495E+02  0.57321386965E+02  0.83188315842E+02  0.13797637655E+03  0.89517931131E+02 0.  0.
         23    2    1    2    0    0 -0.10699118691E+02  0.18540990822E+01 -0.36830439713E+02  0.97007208346E+02  0.89084276713E+02 0.  0.
        -13    1    4    4    0    0 -0.45228352270E+00  0.30537699674E+02 -0.54002954974E+02  0.62040912370E+02  0.00000000000E+00 0.  1.
         13    1    4    4    0    0 -0.10246835168E+02 -0.28683600591E+02  0.17172515261E+02  0.34966295976E+02  0.00000000000E+00 0. -1.
        -13    1    3    3    0    0 -0.56015552330E+02  0.52708644658E+02  0.40213251074E+02  0.86793138475E+02  0.00000000000E+00 0.  1.
         13    1    3    3    0    0  0.27415146834E+02  0.46127423071E+01  0.42975064769E+02  0.51183238071E+02  0.00000000000E+00 0. -1.
          2    1    1    2  501    0  0.39299524186E+02 -0.59175486047E+02  0.50616837495E+01  0.71216651091E+02  0.00000000000E+00 0. -1.
<scales pt_clust_5="13000.00000" pt_clust_6="13000.00000" pt_clust_7="13000.00000" pt_clust_8="13000.00000" pt_clust_9="71.03655"></scales>
<clustering>
<clus scale="   71.037">  2  9  1 -1</clus>
<clus scale="   89.084">  5  6 -1 -1</clus>
<clus scale="   89.518">  7  8 -1 -1</clus>
<clus scale="   99.207">  2  5  1 -1</clus>
<clus scale="   71.037">  2  5  1 -1</clus>
</clustering>
</event>
<event>
 9    1  0.1315259E-005  0.1316970E+03  0.7546771E-02  0.1225048E+00
         21   -1    0    0  501  502  0.00000000000E+00  0.00000000000E+00  0.27111843066E+03  0.27111843066E+03  0.00000000000E+00 0. -1.
          1   -1    0    0  502    0 -0.00000000000E+00 -0.00000000000E+00 -0.13895257564E+03  0.13895257564E+03  0.00000000000E+00 0. -1.
         23    2    1    2    0    0  0.10633860599E+03  0.41982074062E+02 -0.47964610791E+02  0.15449206842E+03  0.92178097450E+02 0.  0.
         23    2    1    2    0    0 -0.50371752989E+02  0.88292335107E+01  0.10452270711E+03  0.14866490332E+03  0.92525608955E+02 0.  0.
        -11    1    4    4    0    0  0.35599878151E+01  0.42021392332E+02  0.37144231954E+02  0.56197552386E+02  0.00000000000E+00 0. -1.
         11    1    4    4    0    0 -0.53931740804E+02 -0.33192158821E+02  0.67378475157E+02  0.92467350929E+02  0.00000000000E+00 0.  1.
        -13    1    3    3    0    0  0.92989776172E+02  0.69413418879E+02 -0.33838320405E+02  0.12087329366E+03  0.00000000000E+00 0. -1.
         13    1    3    3    0    0  0.13348829816E+02 -0.27431344817E+02 -0.14126290386E+02  0.33618774755E+02  0.00000000000E+00 0.  1.
          1    1    1    2  501    0 -0.55966852998E+02 -0.50811307573E+02  0.75607758699E+02  0.10691403457E+03  0.00000000000E+00 0. -1.
<scales pt_clust_5="13000.00000" pt_clust_6="13000.00000" pt_clust_7="13000.00000" pt_clust_8="13000.00000" pt_clust_9="75.59152"></scales>
<clustering>
<clus scale="   75.592">  1  9  2 -1</clus>
<clus scale="   92.178">  7  8 -1 -1</clus>
<clus scale="   92.526">  5  6 -1 -1</clus>
<clus scale="  131.453">  2  7  1 -1</clus>
<clus scale="   75.592">  1  5  2 -1</clus>
</clustering>
</event>
<event>
 9    1  0.1315259E-005  0.1146205E+03  0.7546771E-02  0.1254350E+00
         21   -1    0    0  501  502  0.00000000000E+00  0.00000000000E+00  0.11588487962E+03  0.11588487962E+03  0.00000000000E+00 0. -1.
         -1   -1    0    0    0  501 -0.00000000000E+00 -0.00000000000E+00 -0.15307511436E+03  0.15307511436E+03  0.00000000000E+00 0.  1.
         23    2    1    2    0    0 -0.57770988023E+02  0.14269670643E+02 -0.51378719647E+02  0.11974049004E+03  0.90315566571E+02 0.  0.
         23    2    1    2    0    0  0.58724178990E+02 -0.38945309873E+02 -0.30503322728E+01  0.11910351878E+03  0.95974357514E+02 0.  0.
        -11    1    3    3    0    0 -0.23625076069E+02 -0.31153386875E+02  0.53291920568E+01  0.39459827940E+02  0.00000000000E+00 0.  1.
         11    1    3    3    0    0 -0.34145911954E+02  0.45423057518E+02 -0.56707911703E+02  0.80280662100E+02  0.00000000000E+00 0. -1.
        -11    1    4    4    0    0  0.36631574196E+02 -0.54169305161E+02 -0.37543967533E+02  0.75403815207E+02  0.00000000000E+00 0.  1.
         11    1    4    4    0    0  0.22092604794E+02  0.15223995288E+02  0.34493635260E+02  0.43699703575E+02  0.00000000000E+00 0. -1.
         -1    1    1    2    0  502 -0.95319096700E+00  0.24675639230E+02  0.17238817175E+02  0.30115985158E+02  0.00000000000E+00 0.  1.
<scales pt_clust_5="13000.00000" pt_clust_6="13000.00000" pt_clust_7="13000.00000" pt_clust_8="13000.00000" pt_clust_9="24.69404"></scales>
<clustering>
<clus scale="   24.694">  1  9  2 -1</clus>
<clus scale="   90.316">  5  6 -1 -1</clus>
<clus scale="   95.974">  7  8 -1 -1</clus>
<clus scale="  109.926">  2  5  1 -1</clus>
<clus scale="   24.694">  1  5  2 -1</clus>
</clustering>
</event>
<event>
 9    1  0.1315259E-005  0.1640282E+03  0.7546771E-02  0.1184611E+00
         -1   -1    0    0    0  501 -0.00000000000E+00  0.00000000000E+00  0.42151155384E+03  0.42151155384E+03  0.00000000000E+00 0.  1.
         21   -1    0    0  501  502  0.00000000000E+00 -0.00000000000E+00 -0.16619853647E+03  0.16619853647E+03  0.00000000000E+00 0.  1.
         23    2    1    2    0    0  0.10683976390E+03 -0.74359486986E+02  0.90441182678E+02  0.18181337388E+03  0.89064173164E+02 0.  0.
         23    2    1    2    0    0 -0.18053862338E+03 -0.61096358683E+02  0.61454571045E+02  0.22022243595E+03  0.91620398472E+02 0.  0.
        -11    1    4    4    0    0 -0.41808903728E+02 -0.56712216543E+02  0.58505700644E+01  0.70699993679E+02  0.00000000000E+00 0. -1.
         11    1    4    4    0    0 -0.13872971965E+03 -0.43841421400E+01  0.55604000981E+02  0.14952244227E+03  0.00000000000E+00 0.  1.
        -13    1    3    3    0    0  0.79781331701E+02 -0.17445073027E+01  0.52587104017E+02  0.95569386849E+02  0.00000000000E+00 0. -1.
         13    1    3    3    0    0  0.27058432203E+02 -0.72614979684E+02  0.37854078662E+02  0.86243987032E+02  0.00000000000E+00 0.  1.
         -1    1    1    2    0  502  0.73698859474E+02  0.13545584567E+03  0.10341726365E+03  0.18567428049E+03  0.00000000000E+00 0.  1.
<scales pt_clust_5="13000.00000" pt_clust_6="13000.00000" pt_clust_7="13000.00000" pt_clust_8="13000.00000" pt_clust_9="154.20711"></scales>
<clustering>
<clus scale="   89.064">  7  8 -1 -1</clus>
<clus scale="   91.620">  5  6 -1 -1</clus>
<clus scale="  154.207">  2  9  1 -1</clus>
<clus scale="  162.614">  1  7  2 -1</clus>
<clus scale="  154.207">  2  5  1 -1</clus>
</clustering>
</event>
<event>
 9    1  0.1439064E-005  0.1197790E+03  0.7546771E-02  0.1244294E+00
          2   -1    0    0  502    0 -0.00000000000E+00  0.00000000000E+00  0.62793239476E+03  0.62793239476E+03  0.00000000000E+00 0. -1.
         21   -1    0    0  501  502  0.00000000000E+00 -0.00000000000E+00 -0.91022341358E+02  0.91022341358E+02  0.00000000000E+00 0. -1.
         23    2    1    2    0    0  0.76691352439E+02 -0.18599613961E+02  0.55695122724E+03  0.57024894728E+03  0.93603862994E+02 0.  0.
         23    2    1    2    0    0 -0.43461126717E+02 -0.12360783300E+02 -0.94709378236E+01  0.10207399722E+03  0.91037046004E+02 0.  0.
        -11    1    4    4    0    0  0.27996912096E+02  0.41041020470E+01 -0.20939677356E+01  0.28373498927E+02  0.00000000000E+00 0. -1.
         11    1    4    4    0    0 -0.71458038812E+02 -0.16464885348E+02 -0.73769700880E+01  0.73700498289E+02  0.00000000000E+00 0.  1.
        -11    1    3    3    0    0  0.94279427764E+02 -0.28523266120E+02  0.50488371929E+03  0.51440233010E+03  0.00000000000E+00 0. -1.
         11    1    3    3    0    0 -0.17588075325E+02  0.99236521587E+01  0.52067507952E+02  0.55846617177E+02  0.00000000000E+00 0.  1.
          2    1    1    2  501    0 -0.33230225723E+02  0.30960397262E+02 -0.10570236020E+02  0.46631791620E+02  0.00000000000E+00 0. -1.
<scales pt_clust_5="13000.00000" pt_clust_6="13000.00000" pt_clust_7="13000.00000" pt_clust_8="13000.00000" pt_clust_9="45.41799"></scales>
<clustering>
<clus scale="   45.418">  2  9  1 -1</clus>
<clus scale="   91.037">  5  6 -1 -1</clus>
<clus scale="   93.604">  7  8 -1 -1</clus>
<clus scale="  117.784">  2  5  1 -1</clus>
<clus scale="   45.418">  2  5  1 -1</clus>
</clustering>
</event>
<event>
 9    1  0.1315259E-005  0.1600170E+03  0.7546771E-02  0.1189041E+00
         21   -1    0    0  501  502  0.00000000000E+00  0.00000000000E+00  0.55925901799E+02  0.55925901799E+02  0.00000000000E+00 0.  1.
         -1   -1    0    0    0  501 -0.00000000000E+00 -0.00000000000E+00 -0.74608871793E+03  0.74608871793E+03  0.00000000000E+00 0.  1.
         23    2    1    2    0    0 -0.65930786900E+02  0.13593560777E+03 -0.49042367220E+03  0.52116056081E+03  0.90926309591E+02 0.  0.
         23    2    1    2    0    0  0.48049620011E+02 -0.86428252768E+02 -0.17796673685E+03  0.22389133392E+03  0.93148060206E+02 0.  0.
        -11    1    4    4    0    0 -0.27555881846E+02 -0.19402198697E+02 -0.32830955823E+02  0.47049374054E+02  0.00000000000E+00 0.  1.
         11    1    4    4    0    0  0.75605501857E+02 -0.67026054071E+02 -0.14513578103E+03  0.17684195987E+03  0.00000000000E+00 0. -1.
        -13    1    3    3    0    0 -0.28782002002E+02 -0.60170415840E+01 -0.73093533201E+02  0.78786248955E+02  0.00000000000E+00 0. -1.
         13    1    3    3    0    0 -0.37148784898E+02  0.14195264935E+03 -0.41733013899E+03  0.44237431186E+03  0.00000000000E+00 0.  1.
         -1    1    1    2    0  502  0.17881166889E+02 -0.49507355001E+02 -0.21772407083E+02  0.56962724994E+02  0.00000000000E+00 0.  1.
<scales pt_clust_5="13000.00000" pt_clust_6="13000.00000" pt_clust_7="13000.00000" pt_clust_8="13000.00000" pt_clust_9="52.63758"></scales>
<clustering>
<clus scale="   52.638">  1  9  2 -1</clus>
<clus scale="   90.926">  7  8 -1 -1</clus>
<clus scale="   93.148">  5  6 -1 -1</clus>
<clus scale="  158.734">  2  7  1 -1</clus>
<clus scale="   52.638">  1  5  2 -1</clus>
</clustering>
</event>
<event>
 9    1  0.1315259E-005  0.9180458E+02  0.7546771E-02  0.1298586E+00
         -4   -1    0    0    0  501 -0.00000000000E+00  0.00000000000E+00  0.96590266021E+02  0.96590266021E+02  0.00000000000E+00 0.  1.
         21   -1    0    0  501  502  0.00000000000E+00 -0.00000000000E+00 -0.12698451846E+03  0.12698451846E+03  0.00000000000E+00 0. -1.
         23    2    1    2    0    0  0.60208535063E+01  0.12002432304E+02  0.21640512617E+02  0.94810935127E+02  0.91326297282E+02 0.  0.
         23    2    1    2    0    0  0.14652311943E+02 -0.35701017672E+01 -0.52662741632E+02  0.10642826513E+03  0.91247878831E+02 0.  0.
        -11    1    3    3    0    0 -0.22956565468E+02  0.42144661331E+02  0.58124724277E+00  0.47994939578E+02  0.00000000000E+00 0. -1.
         11    1    3    3    0    0  0.28977418975E+02 -0.30142229027E+02  0.21059265374E+02  0.46815995549E+02  0.00000000000E+00 0.  1.
        -11    1    4    4    0    0 -0.32573435165E+02 -0.71856717500E+01  0.28233668479E+01  0.33475871270E+02  0.00000000000E+00 0.  1.
         11    1    4    4    0    0  0.47225747108E+02  0.36155699827E+01 -0.55486108480E+02  0.72952393863E+02  0.00000000000E+00 0. -1.
         -4    1    1    2    0  502 -0.20673165450E+02 -0.84323305365E+01  0.62797657440E+00  0.22335584222E+02  0.00000000000E+00 0.  1.
<scales pt_clust_5="13000.00000" pt_clust_6="13000.00000" pt_clust_7="13000.00000" pt_clust_8="13000.00000" pt_clust_9="22.32677"></scales>
<clustering>
<clus scale="   22.327">  2  9  1 -1</clus>
<clus scale="   91.248">  7  8 -1 -1</clus>
<clus scale="   91.326">  5  6 -1 -1</clus>
<clus scale="   91.727">  2  7  1 -1</clus>
<clus scale="   22.327">  2  5  1 -1</clus>
</clustering>
</event>
<event>
 9    1  0.1315259E-005  0.1130218E+03  0.7546771E-02  0.1256277E+00
         21   -1    0    0  501  502  0.00000000000E+00  0.00000000000E+00  0.77409540751E+02  0.77409540751E+02  0.00000000000E+00 0. -1.
         -1   -1    0    0    0  501 -0.00000000000E+00 -0.00000000000E+00 -0.27906469201E+03  0.27906469201E+03  0.00000000000E+00 0.  1.
         23    2    1    2    0    0  0.58068874751E+02 -0.29895166220E+02 -0.16445961538E+03  0.19802369218E+03  0.88885895370E+02 0.  0.
         23    2    1    2    0    0 -0.83851834126E+02  0.19761802932E+02 -0.13711582849E+02  0.12213329818E+03  0.85480267190E+02 0.  0.
        -11    1    3    3    0    0  0.23234052342E+02 -0.26039153996E+02 -0.15871755916E+03  0.16250883765E+03  0.00000000000E+00 0.  1.
         11    1    3    3    0    0  0.34834822410E+02 -0.38560122234E+01 -0.57420562188E+01  0.35514854529E+02  0.00000000000E+00 0. -1.
        -13    1    4    4    0    0 -0.27669417790E+02 -0.53002662973E+01 -0.45018131173E+02  0.53106700500E+02  0.00000000000E+00 0.  1.
         13    1    4    4    0    0 -0.56182416335E+02  0.25062069230E+02  0.31306548324E+02  0.69026597680E+02  0.00000000000E+00 0. -1.
         -1    1    1    2    0  502  0.25782959374E+02  0.10133363287E+02 -0.23483953030E+02  0.36317242400E+02  0.00000000000E+00 0.  1.
<scales pt_clust_5="13000.00000" pt_clust_6="13000.00000" pt_clust_7="13000.00000" pt_clust_8="13000.00000" pt_clust_9="27.70283"></scales>
<clustering>
<clus scale="   27.703">  1  9  2 -1</clus>
<clus scale="   85.480">  7  8 -1 -1</clus>
<clus scale="   88.886">  5  6 -1 -1</clus>
<clus scale="  110.363">  1  7  2 -1</clus>
<clus scale="   27.703">  1  5  2 -1</clus>
</clustering>
</event>
<event>
 9    1  0.1315259E-005  0.1211549E+03  0.7546771E-02  0.1241928E+00
         -2   -1    0    0    0  501 -0.00000000000E+00  0.00000000000E+00  0.34296945789E+03  0.34296945789E+03  0.00000000000E+00 0.  1.
         21   -1    0    0  501  502  0.00000000000E+00 -0.00000000000E+00 -0.70003180627E+02  0.70003180627E+02  0.00000000000E+00 0. -1.
         23    2    1    2    0    0 -0.61467581451E+02  0.22381623004E+02  0.15375005585E+03  0.19041611745E+03  0.91323696239E+02 0.  0.
         23    2    1    2    0    0  0.93603637400E+02 -0.48239737911E+02  0.67013757742E+02  0.15602483379E+03  0.93617262204E+02 0.  0.
        -13    1    3    3    0    0 -0.15958994888E+02  0.49164862813E+02  0.11110801947E+03  0.12254331987E+03  0.00000000000E+00 0.  1.
         13    1    3    3    0    0 -0.45508586563E+02 -0.26783239809E+02  0.42642036374E+02  0.67872797583E+02  0.00000000000E+00 0. -1.
        -13    1    4    4    0    0  0.27015165923E+02  0.26412815302E+02  0.44654285705E+01  0.38044658683E+02  0.00000000000E+00 0.  1.
         13    1    4    4    0    0  0.66588471478E+02 -0.74652553213E+02  0.62548329172E+02  0.11798017510E+03  0.00000000000E+00 0. -1.
         -2    1    1    2    0  502 -0.32136055950E+02  0.25858114908E+02  0.52202463671E+02  0.66531687277E+02  0.00000000000E+00 0.  1.
<scales pt_clust_5="13000.00000" pt_clust_6="13000.00000" pt_clust_7="13000.00000" pt_clust_8="13000.00000" pt_clust_9="41.24767"></scales>
<clustering>
<clus scale="   41.248">  2  9  1 -1</clus>
<clus scale="   91.324">  5  6 -1 -1</clus>
<clus scale="   93.617">  7  8 -1 -1</clus>
<clus scale="  119.391">  1  5  2 -1</clus>
<clus scale="   41.248">  2  5  1 -1</clus>
</clustering>
</event>
<event>
 9    1  0.1315259E-005  0.1076167E+03  0.7546771E-02  0.1266625E+00
         -2   -1    0    0    0  501 -0.00000000000E+00  0.00000000000E+00  0.74563337159E+02  0.74563337159E+02  0.00000000000E+00 0.  1.
         21   -1    0    0  501  502  0.00000000000E+00 -0.00000000000E+00 -0.29782666102E+03  0.29782666102E+03  0.00000000000E+00 0. -1.
         23    2    1    2    0    0 -0.21042190455E+02  0.44679229431E+02  0.51316135587E+00  0.10663637405E+03  0.94509500128E+02 0.  0.
         23    2    1    2    0    0  0.44880154395E+02 -0.44601519061E+02 -0.21204755009E+03  0.23918630430E+03  0.90787669340E+02 0.  0.
        -11    1    3    3    0    0 -0.44779471931E+02  0.54114413708E+02  0.21629804165E+02  0.73494348800E+02  0.00000000000E+00 0.  1.
         11    1    3    3    0    0  0.23737281475E+02 -0.94351842766E+01 -0.21116642810E+02  0.33142025251E+02  0.00000000000E+00 0. -1.
        -13    1    4    4    0    0  0.32414062970E+02  0.89679427137E+01 -0.19367083808E+02  0.38809527309E+02  0.00000000000E+00 0.  1.
         13    1    4    4    0    0  0.12466091425E+02 -0.53569461775E+02 -0.19268046628E+03  0.20037677699E+03  0.00000000000E+00 0. -1.
         -2    1    1    2    0  502 -0.23837963940E+02 -0.77710369783E-01 -0.11728935129E+02  0.26567319830E+02  0.00000000000E+00 0.  1.
<scales pt_clust_5="13000.00000" pt_clust_6="13000.00000" pt_clust_7="13000.00000" pt_clust_8="13000.00000" pt_clust_9="23.83810"></scales>
<clustering>
<clus scale="   23.838">  2  9  1 -1</clus>
<clus scale="   90.788">  7  8 -1 -1</clus>
<clus scale="   94.510">  5  6 -1 -1</clus>
<clus scale="  104.363">  2  7  1 -1</clus>
<clus scale="   23.838">  2  5  1 -1</clus>
</clustering>
</event>
<event>
 9    1  0.1315259E-005  0.9590605E+02  0.7546771E-02  0.1290462E+00
         21   -1    0    0  501  502  0.00000000000E+00  0.00000000000E+00  0.19330740086E+03  0.19330740086E+03  0.00000000000E+00 0.  1.
         -3   -1    0    0    0  501 -0.00000000000E+00 -0.00000000000E+00 -0.10590299190E+03  0.10590299190E+03  0.00000000000E+00 0.  1.
         23    2    1    2    0    0  0.25070069863E+00 -0.25250615691E+02 -0.15935091543E+02  0.97680304925E+02  0.93004614854E+02 0.  0.
         23    2    1    2    0    0 -0.19581657482E+02  0.17206595525E+02 -0.18352874006E+01  0.94291437331E+02  0.90598005689E+02 0.  0.
        -11    1    4    4    0    0 -0.18062978105E+02  0.37305955162E+02 -0.35817800322E+02  0.54780656153E+02  0.00000000000E+00 0.  1.
         11    1    4    4    0    0 -0.15186793766E+01 -0.20099359637E+02  0.33982512922E+02  0.39510781179E+02  0.00000000000E+00 0. -1.
        -13    1    3    3    0    0 -0.20203054084E+02  0.30603515136E+02 -0.28840008941E+01  0.36783909447E+02  0.00000000000E+00 0.  1.
         13    1    3    3    0    0  0.20453754782E+02 -0.55854130827E+02 -0.13051090649E+02  0.60896395479E+02  0.00000000000E+00 0. -1.
         -3    1    1    2    0  502  0.19330956783E+02  0.80440201662E+01  0.10517478791E+03  0.10723865050E+03  0.00000000000E+00 0.  1.
<scales pt_clust_5="13000.00000" pt_clust_6="13000.00000" pt_clust_7="13000.00000" pt_clust_8="13000.00000" pt_clust_9="20.93782"></scales>
<clustering>
<clus scale="   20.938">  1  9  2 -1</clus>
<clus scale="   90.598">  5  6 -1 -1</clus>
<clus scale="   93.005">  7  8 -1 -1</clus>
<clus scale="   93.574">  1  5  2 -1</clus>
<clus scale="   20.938">  1  5  2 -1</clus>
</clustering>
</event>
<event>
 9    1  0.1315259E-005  0.1111176E+03  0.7546771E-02  0.1258610E+00
          3   -1    0    0  502    0 -0.00000000000E+00  0.00000000000E+00  0.38576794001E+03  0.38576794001E+03  0.00000000000E+00 0. -1.
         21   -1    0    0  501  502  0.00000000000E+00 -0.00000000000E+00 -0.41825243606E+02  0.41825243606E+02  0.00000000000E+00 0.  1.
         23    2    1    2    0    0  0.45900637445E+02 -0.49098158396E+02  0.17024466552E+03  0.20432255040E+03  0.90812778763E+02 0.  0.
         23    2    1    2    0    0 -0.22302740219E+02  0.57489053948E+02  0.11337445052E+03  0.15795446195E+03  0.91068339578E+02 0.  0.
        -13    1    3    3    0    0  0.13028980095E+02  0.15350240344E+02  0.88076687134E+00  0.20153410412E+02  0.00000000000E+00 0.  1.
         13    1    3    3    0    0  0.32871657350E+02 -0.64448398740E+02  0.16936389865E+03  0.18416913999E+03  0.00000000000E+00 0. -1.
        -13    1    4    4    0    0  0.21275802115E+02  0.59589899059E+02  0.84784303902E+02  0.10579222095E+03  0.00000000000E+00 0. -1.
         13    1    4    4    0    0 -0.43578542335E+02 -0.21008451107E+01  0.28590146614E+02  0.52162240995E+02  0.00000000000E+00 0.  1.
          3    1    1    2  501    0 -0.23597897225E+02 -0.83908955518E+01  0.60323580367E+02  0.65316171274E+02  0.00000000000E+00 0. -1.
<scales pt_clust_5="13000.00000" pt_clust_6="13000.00000" pt_clust_7="13000.00000" pt_clust_8="13000.00000" pt_clust_9="25.04533"></scales>
<clustering>
<clus scale="   25.045">  2  9  1 -1</clus>
<clus scale="   90.813">  5  6 -1 -1</clus>
<clus scale="   91.068">  7  8 -1 -1</clus>
<clus scale="  110.908">  1  5  2 -1</clus>
<clus scale="   25.045">  2  5  1 -1</clus>
</clustering>
</event>
<event>
 9    1  0.1315259E-005  0.1048023E+03  0.7546771E-02  0.1271093E+00
         21   -1    0    0  501  502  0.00000000000E+00  0.00000000000E+00  0.14032119103E+03  0.14032119103E+03  0.00000000000E+00 0. -1.
          3   -1    0    0  502    0 -0.00000000000E+00 -0.00000000000E+00 -0.35093734131E+03  0.35093734131E+03  0.00000000000E+00 0. -1.
         23    2    1    2    0    0  0.23119982821E+02  0.51805523158E+02 -0.20288421175E+03  0.22944111238E+03  0.90900356646E+02 0.  0.
         23    2    1    2    0    0 -0.57902209079E+02 -0.43875212556E+01 -0.10293441747E+03  0.14991665069E+03  0.92236607125E+02 0.  0.
        -11    1    4    4    0    0 -0.40796760343E+02 -0.46839149412E+02 -0.48558756361E+02  0.78843099834E+02  0.00000000000E+00 0. -1.
         11    1    4    4    0    0 -0.17105448736E+02  0.42451628156E+02 -0.54375661111E+02  0.71073550853E+02  0.00000000000E+00 0.  1.
        -13    1    3    3    0    0 -0.13124246868E+01  0.57193154344E+02 -0.19498532280E+03  0.20320446715E+03  0.00000000000E+00 0. -1.
         13    1    3    3    0    0  0.24432407508E+02 -0.53876311861E+01 -0.78988889517E+01  0.26236645233E+02  0.00000000000E+00 0.  1.
          3    1    1    2  501    0  0.34782226258E+02 -0.47418001902E+02  0.95202478938E+02  0.11190076927E+03  0.00000000000E+00 0. -1.
<scales pt_clust_5="13000.00000" pt_clust_6="13000.00000" pt_clust_7="13000.00000" pt_clust_8="13000.00000" pt_clust_9="58.80706"></scales>
<clustering>
<clus scale="   58.807">  1  9  2 -1</clus>
<clus scale="   90.900">  7  8 -1 -1</clus>
<clus scale="   92.237">  5  6 -1 -1</clus>
<clus scale="  103.628">  2  7  1 -1</clus>
<clus scale="   58.807">  1  5  2 -1</clus>
</clustering>
</event>
<event>
 9    1  0.1315259E-005  0.9483048E+02  0.7546771E-02  0.1291734E+00
          3   -1    0    0  502    0 -0.00000000000E+00  0.00000000000E+00  0.39845946405E+03  0.39845946405E+03  0.00000000000E+00 0. -1.
         21   -1    0    0  501  502  0.00000000000E+00 -0.00000000000E+00 -0.28561047332E+03  0.28561047332E+03  0.00000000000E+00 0. -1.
         23    2    1    2    0    0  0.14561050902E+02 -0.80295995790E+01  0.18947158741E+03  0.21114774077E+03  0.91691806204E+02 0.  0.
         23    2    1    2    0    0 -0.28068415950E+02 -0.31502999441E+02  0.18344525762E+03  0.20952029050E+03  0.92012578693E+02 0.  0.
        -13    1    3    3    0    0  0.19241341167E+02 -0.46280062965E+02  0.73672982744E+02  0.89105453393E+02  0.00000000000E+00 0.  1.
         13    1    3    3    0    0 -0.46802902645E+01  0.38250463386E+02  0.11579860467E+03  0.12204228738E+03  0.00000000000E+00 0. -1.
        -13    1    4    4    0    0 -0.43242620115E+01 -0.40560167767E+02  0.17916475038E+03  0.18374937886E+03  0.00000000000E+00 0. -1.
         13    1    4    4    0    0 -0.23744153939E+02  0.90571683258E+01  0.42805072380E+01  0.25770911636E+02  0.00000000000E+00 0.  1.
          3    1    1    2  501    0  0.13507365048E+02  0.39532599020E+02 -0.26006785430E+03  0.26340190610E+03  0.00000000000E+00 0. -1.
<scales pt_clust_5="13000.00000" pt_clust_6="13000.00000" pt_clust_7="13000.00000" pt_clust_8="13000.00000" pt_clust_9="41.77649"></scales>
<clustering>
<clus scale="   41.776">  2  9  1 -1</clus>
<clus scale="   91.692">  5  6 -1 -1</clus>
<clus scale="   92.013">  7  8 -1 -1</clus>
<clus scale="   94.519">  1  5  2 -1</clus>
<clus scale="   41.776">  2  5  1 -1</clus>
</clustering>
</event>
<event>
 9    1  0.1315259E-005  0.9605538E+02  0.7546771E-02  0.1288929E+00
          4   -1    0    0  502    0 -0.00000000000E+00  0.00000000000E+00  0.26135026594E+03  0.26135026594E+03  0.00000000000E+00 0. -1.
         21   -1    0    0  501  502  0.00000000000E+00 -0.00000000000E+00 -0.12185921219E+03  0.12185921219E+03  0.00000000000E+00 0.  1.
         23    2    1    2    0    0  0.42263303034E+02  0.47704179229E+02  0.15639361248E+03  0.19080841283E+03  0.88808855878E+02 0.  0.
         23    2    1    2    0    0  0.75704967740E+01  0.26755006631E+02  0.20193046590E+02  0.95428585209E+02  0.89026473272E+02 0.  0.
        -11    1    4    4    0    0  0.61646769754E+01  0.59175395631E+02  0.20641548680E+02  0.62974631577E+02  0.00000000000E+00 0.  1.
         11    1    4    4    0    0  0.14058197987E+01 -0.32420389000E+02 -0.44850209031E+00  0.32453953632E+02  0.00000000000E+00 0. -1.
        -13    1    3    3    0    0 -0.24708412983E+02  0.29220994797E+02  0.71624982252E+02  0.81206590199E+02  0.00000000000E+00 0. -1.
         13    1    3    3    0    0  0.66971716017E+02  0.18483184431E+02  0.84768630225E+02  0.10960182263E+03  0.00000000000E+00 0.  1.
          4    1    1    2  501    0 -0.49833799809E+02 -0.74459185859E+02 -0.37095605320E+02  0.96972480097E+02  0.00000000000E+00 0. -1.
<scales pt_clust_5="13000.00000" pt_clust_6="13000.00000" pt_clust_7="13000.00000" pt_clust_8="13000.00000" pt_clust_9="89.59675"></scales>
<clustering>
<clus scale="   88.809">  7  8 -1 -1</clus>
<clus scale="   89.026">  5  6 -1 -1</clus>
<clus scale="   89.597">  2  9  1 -1</clus>
<clus scale="   95.854">  1  7  2 -1</clus>
<clus scale="   89.597">  2  5  1 -1</clus>
</clustering>
</event>
<event>
 9    1  0.1315259E-005  0.9830141E+02  0.7546771E-02  0.1285570E+00
         21   -1    0    0  501  502  0.00000000000E+00  0.00000000000E+00  0.49077764028E+03  0.49077764028E+03  0.00000000000E+00 0. -1.
          1   -1    0    0  502    0 -0.00000000000E+00 -0.00000000000E+00 -0.24950373155E+03  0.24950373155E+03  0.00000000000E+00 0. -1.
         23    2    1    2    0    0 -0.23270428297E+02 -0.18142224550E+02 -0.22193977882E+03  0.24144260698E+03  0.90369319454E+02 0.  0.
         23    2    1    2    0    0  0.69667345424E+02 -0.17547163345E+02  0.23121461458E+03  0.25956909232E+03  0.93565344735E+02 0.  0.
        -11    1    3    3    0    0  0.26869376721E+02  0.10474252236E+02 -0.32735707823E+02  0.43626825829E+02  0.00000000000E+00 0.  1.
         11    1    3    3    0    0 -0.50139805018E+02 -0.28616476786E+02 -0.18920407100E+03  0.19781578115E+03  0.00000000000E+00 0. -1.
        -13    1    4    4    0    0  0.85924810240E+02 -0.12525304369E+01  0.13046423191E+03  0.15622278213E+03  0.00000000000E+00 0. -1.
         13    1    4    4    0    0 -0.16257464816E+02 -0.16294632908E+02  0.10075038266E+03  0.10334631019E+03  0.00000000000E+00 0.  1.
          1    1    1    2  501    0 -0.46396917127E+02  0.35689387895E+02  0.23199907297E+03  0.23926967252E+03  0.00000000000E+00 0. -1.
<scales pt_clust_5="13000.00000" pt_clust_6="13000.00000" pt_clust_7="13000.00000" pt_clust_8="13000.00000" pt_clust_9="58.53551"></scales>
<clustering>
<clus scale="   58.536">  1  9  2 -1</clus>
<clus scale="   90.369">  5  6 -1 -1</clus>
<clus scale="   93.565">  7  8 -1 -1</clus>
<clus scale="   95.264">  2  5  1 -1</clus>
<clus scale="   58.536">  1  5  2 -1</clus>
</clustering>
</event>
<event>
 9    1  0.1315259E-005  0.1657793E+03  0.7546771E-02  0.1200280E+00
         21   -1    0    0  501  502  0.00000000000E+00  0.00000000000E+00  0.83941757786E+02  0.83941757786E+02  0.00000000000E+00 0. -1.
          1   -1    0    0  502    0 -0.00000000000E+00 -0.00000000000E+00 -0.72162410250E+03  0.72162410250E+03  0.00000000000E+00 0. -1.
         23    2    1    2    0    0 -0.45202577320E+02 -0.77599482182E+02 -0.13061448080E+03  0.17178624664E+03  0.66222498517E+02 0.  0.
         23    2    1    2    0    0  0.17287197559E+03  0.89207328971E+02 -0.43883132198E+03  0.48855412340E+03  0.90936982868E+02 0.  0.
        -13    1    3    3    0    0 -0.13365640751E+01 -0.65884247094E+02 -0.83249665940E+02  0.10617451341E+03  0.00000000000E+00 0. -1.
         13    1    3    3    0    0 -0.43866013245E+02 -0.11715235088E+02 -0.47364814861E+02  0.65611733234E+02  0.00000000000E+00 0.  1.
        -13    1    4    4    0    0  0.61736353649E+02  0.46408636920E+02 -0.83248574327E+02  0.11355819684E+03  0.00000000000E+00 0.  1.
         13    1    4    4    0    0  0.11113562194E+03  0.42798692050E+02 -0.35558274765E+03  0.37499592656E+03  0.00000000000E+00 0. -1.
          1    1    1    2  501    0 -0.12766939827E+03 -0.11607846788E+02 -0.68236541936E+02  0.14522549025E+03  0.00000000000E+00 0. -1.
<scales pt_clust_5="13000.00000" pt_clust_6="13000.00000" pt_clust_7="13000.00000" pt_clust_8="13000.00000" pt_clust_9="138.61186"></scales>
<clustering>
<clus scale="   66.222">  5  6 -1 -1</clus>
<clus scale="   90.937">  7  8 -1 -1</clus>
<clus scale="  111.581">  2  5  1 -1</clus>
<clus scale="  138.612">  1  9  2 -1</clus>
<clus scale="  138.612">  1  5  2 -1</clus>
</clustering>
</event>
<event>
 9    1  0.1315259E-005  0.1924120E+03  0.7546771E-02  0.1156516E+00
         21   -1    0    0  501  502  0.00000000000E+00  0.00000000000E+00  0.39085788728E+03  0.39085788728E+03  0.00000000000E+00 0.  1.
         -1   -1    0    0    0  501 -0.00000000000E+00 -0.00000000000E+00 -0.20967425306E+03  0.20967425306E+03  0.00000000000E+00 0.  1.
         23    2    1    2    0    0 -0.17785246128E+03 -0.75954285469E+01 -0.77798038400E+02  0.21364843356E+03  0.88904048635E+02 0.  0.
         23    2    1    2    0    0  0.15364376011E+03 -0.21156967821E+02  0.67971143203E+02  0.19221017532E+03  0.90943129910E+02 0.  0.
        -11    1    4    4    0    0  0.84349558290E+02 -0.54184745909E+02  0.55030525185E+02  0.11436430114E+03  0.00000000000E+00 0.  1.
         11    1    4    4    0    0  0.69294201821E+02  0.33027778088E+02  0.12940618018E+02  0.77845874176E+02  0.00000000000E+00 0. -1.
        -13    1    3    3    0    0 -0.17068844290E+03 -0.31612616325E+02 -0.63819356469E+02  0.18495083755E+03  0.00000000000E+00 0.  1.
         13    1    3    3    0    0 -0.71640183858E+01  0.24017187778E+02 -0.13978681932E+02  0.28697596010E+02  0.00000000000E+00 0. -1.
         -1    1    1    2    0  502  0.24208701171E+02  0.28752396368E+02  0.19101052942E+03  0.19467353147E+03  0.00000000000E+00 0.  1.
<scales pt_clust_5="13000.00000" pt_clust_6="13000.00000" pt_clust_7="13000.00000" pt_clust_8="13000.00000" pt_clust_9="37.58672"></scales>
<clustering>
<clus scale="   37.587">  1  9  2 -1</clus>
<clus scale="   88.904">  7  8 -1 -1</clus>
<clus scale="   90.943">  5  6 -1 -1</clus>
<clus scale="  191.457">  2  7  1 -1</clus>
<clus scale="   37.587">  1  5  2 -1</clus>
</clustering>
</event>
<event>
 9    1  0.1315259E-005  0.9983193E+02  0.7546771E-02  0.1282983E+00
         21   -1    0    0  501  502  0.00000000000E+00  0.00000000000E+00  0.80258052925E+02  0.80258052925E+02  0.00000000000E+00 0.  1.
          2   -1    0    0  502    0 -0.00000000000E+00 -0.00000000000E+00 -0.20792985044E+03  0.20792985044E+03  0.00000000000E+00 0. -1.
         23    2    1    2    0    0  0.70967637070E+01 -0.22749999350E+02 -0.10372317774E+03  0.13963585188E+03  0.90397715693E+02 0.  0.
         23    2    1    2    0    0 -0.17624994134E+02  0.40131972827E+02 -0.49664245923E+02  0.11577599215E+03  0.94954343626E+02 0.  0.
        -11    1    3    3    0    0 -0.97371023546E+01  0.33079088247E+02 -0.30540918809E+02  0.46062837116E+02  0.00000000000E+00 0.  1.
         11    1    3    3    0    0  0.16833866062E+02 -0.55829087597E+02 -0.73182258934E+02  0.93573014760E+02  0.00000000000E+00 0. -1.
        -13    1    4    4    0    0 -0.55265627767E+02  0.37185453258E+02 -0.28097186580E+02  0.72294532575E+02  0.00000000000E+00 0.  1.
         13    1    4    4    0    0  0.37640633633E+02  0.29465195684E+01 -0.21567059343E+02  0.43481459572E+02  0.00000000000E+00 0. -1.
          2    1    1    2  501    0  0.10528230427E+02 -0.17381973477E+02  0.25715626149E+02  0.32776059344E+02  0.00000000000E+00 0. -1.
<scales pt_clust_5="13000.00000" pt_clust_6="13000.00000" pt_clust_7="13000.00000" pt_clust_8="13000.00000" pt_clust_9="20.32183"></scales>
<clustering>
<clus scale="   20.322">  1  9  2 -1</clus>
<clus scale="   90.398">  5  6 -1 -1</clus>
<clus scale="   94.954">  7  8 -1 -1</clus>
<clus scale="   95.508">  2  5  1 -1</clus>
<clus scale="   20.322">  1  5  2 -1</clus>
</clustering>
</event>
<event>
 9    1  0.1315259E-005  0.1261718E+03  0.7546771E-02  0.1233320E+00
         21   -1    0    0  501  502  0.00000000000E+00  0.00000000000E+00  0.35025793460E+03  0.35025793460E+03  0.00000000000E+00 0.  1.
         -4   -1    0    0    0  501 -0.00000000000E+00 -0.00000000000E+00 -0.13019918188E+03  0.13019918188E+03  0.00000000000E+00 0.  1.
         23    2    1    2    0    0 -0.37181800122E+02  0.50812234477E+02  0.37590770919E+01  0.11088845042E+03  0.91201690468E+02 0.  0.
         23    2    1    2    0    0  0.50253246805E+02 -0.11157749233E+03  0.85365412992E+01  0.15270742178E+03  0.90949208468E+02 0.  0.
        -11    1    4    4    0    0  0.46957742035E+02 -0.45871788514E+02 -0.34435058992E+02  0.74128427788E+02  0.00000000000E+00 0.  1.
         11    1    4    4    0    0  0.32955047695E+01 -0.65705703813E+02  0.42971600291E+02  0.78578993992E+02  0.00000000000E+00 0. -1.
        -13    1    3    3    0    0 -0.81723696135E+01  0.70693790132E+02 -0.12312195837E+02  0.72221809411E+02  0.00000000000E+00 0.  1.
         13    1    3    3    0    0 -0.29009430509E+02 -0.19881555655E+02  0.16071272929E+02  0.38666641014E+02  0.00000000000E+00 0. -1.
         -4    1    1    2    0  502 -0.13071446683E+02  0.60765257850E+02  0.20776313433E+03  0.21686124427E+03  0.00000000000E+00 0.  1.
<scales pt_clust_5="13000.00000" pt_clust_6="13000.00000" pt_clust_7="13000.00000" pt_clust_8="13000.00000" pt_clust_9="62.15528"></scales>
<clustering>
<clus scale="   62.155">  1  9  2 -1</clus>
<clus scale="   90.949">  5  6 -1 -1</clus>
<clus scale="   91.202">  7  8 -1 -1</clus>
<clus scale="  125.989">  1  5  2 -1</clus>
<clus scale="   62.155">  1  5  2 -1</clus>
</clustering>
</event>
<event>
 9    1  0.1315259E-005  0.1778472E+03  0.7546771E-02  0.1181693E+00
          2   -1    0    0  502    0 -0.00000000000E+00  0.00000000000E+00  0.35270433005E+03  0.35270433005E+03  0.00000000000E+00 0. -1.
         21   -1    0    0  501  502  0.00000000000E+00 -0.00000000000E+00 -0.18098114207E+03  0.18098114207E+03  0.00000000000E+00 0. -1.
         23    2    1    2    0    0  0.54920927514E+02  0.91131959285E+02  0.53212419921E+02  0.14620318790E+03  0.84985105962E+02 0.  0.
         23    2    1    2    0    0 -0.65797867103E+02  0.84458122807E+02  0.15274127536E+03  0.20825641451E+03  0.92619129578E+02 0.  0.
        -11    1    4    4    0    0 -0.22657931365E+02  0.72817584097E+02  0.14367942158E+03  0.16266394374E+03  0.00000000000E+00 0. -1.
         11    1    4    4    0    0 -0.43139935738E+02  0.11640538709E+02  0.90618537737E+01  0.45592470768E+02  0.00000000000E+00 0.  1.
        -13    1    3    3    0    0  0.23081602096E+02  0.88570011019E+02  0.94377791626E+01  0.92013471202E+02  0.00000000000E+00 0. -1.
         13    1    3    3    0    0  0.31839325418E+02  0.25619482663E+01  0.43774640758E+02  0.54189716695E+02  0.00000000000E+00 0.  1.
          2    1    1    2  501    0  0.10876939589E+02 -0.17559008209E+03 -0.34230507291E+02  0.17922586971E+03  0.00000000000E+00 0. -1.
<scales pt_clust_5="13000.00000" pt_clust_6="13000.00000" pt_clust_7="13000.00000" pt_clust_8="13000.00000" pt_clust_9="151.82663"></scales>
<clustering>
<clus scale="   84.985">  7  8 -1 -1</clus>
<clus scale="   92.619">  5  6 -1 -1</clus>
<clus scale="  136.176">  1  7  2 -1</clus>
<clus scale="  151.827">  2  9  1 -1</clus>
<clus scale="  151.827">  2  5  1 -1</clus>
</clustering>
</event>
<event>
 9    1  0.1315259E-005  0.1230890E+03  0.7546771E-02  0.1238480E+00
         -2   -1    0    0    0  501 -0.00000000000E+00  0.00000000000E+00  0.38135283287E+03  0.38135283287E+03  0.00000000000E+00 0.  1.
         21   -1    0    0  501  502  0.00000000000E+00 -0.00000000000E+00 -0.29863631893E+03  0.29863631893E+03  0.00000000000E+00 0.  1.
         23    2    1    2    0    0  0.85487657537E+02 -0.12686264083E+02  0.31318013333E+03  0.33767283461E+03  0.92043828894E+02 0.  0.
         23    2    1    2    0    0 -0.62142532519E+02 -0.25564513337E+02 -0.56080430496E+01  0.11303887161E+03  0.90725396983E+02 0.  0.
        -11    1    3    3    0    0  0.68348361087E+02  0.29925673948E+02  0.14164092285E+03  0.16009120978E+03  0.00000000000E+00 0.  1.
         11    1    3    3    0    0  0.17139296450E+02 -0.42611938031E+02  0.17153921048E+03  0.17758162483E+03  0.00000000000E+00 0. -1.
        -13    1    4    4    0    0 -0.55481453576E+01  0.31814934501E+02 -0.23181382807E+01  0.32378167634E+02  0.00000000000E+00 0.  1.
         13    1    4    4    0    0 -0.56594387162E+02 -0.57379447838E+02 -0.32899047688E+01  0.80660703976E+02  0.00000000000E+00 0. -1.
         -2    1    1    2    0  502 -0.23345125018E+02  0.38250777420E+02 -0.22485557634E+03  0.22927744557E+03  0.00000000000E+00 0.  1.
<scales pt_clust_5="13000.00000" pt_clust_6="13000.00000" pt_clust_7="13000.00000" pt_clust_8="13000.00000" pt_clust_9="44.81202"></scales>
<clustering>
<clus scale="   44.812">  2  9  1 -1</clus>
<clus scale="   90.725">  7  8 -1 -1</clus>
<clus scale="   92.044">  5  6 -1 -1</clus>
<clus scale="  122.106">  2  7  1 -1</clus>
<clus scale="   44.812">  2  5  1 -1</clus>
</clustering>
</event>
<event>
 9    1  0.1315259E-005  0.3245324E+03  0.7546771E-02  0.1093634E+00
         21   -1    0    0  501  502  0.00000000000E+00  0.00000000000E+00  0.99346394394E+02  0.99346394394E+02  0.00000000000E+00 0.  1.
          3   -1    0    0  502    0 -0.00000000000E+00 -0.00000000000E+00 -0.18832348389E+04  0.18832348389E+04  0.00000000000E+00 0. -1.
         23    2    1    2    0    0  0.11523745879E+03  0.11268129768E+03 -0.59531803588E+03  0.62483585403E+03  0.10019747441E+03 0.  0.
         23    2    1    2    0    0 -0.35893619245E+03 -0.13532234964E+03 -0.57492724208E+03  0.69709446853E+03  0.90840716634E+02 0.  0.
        -11    1    4    4    0    0 -0.17290602538E+03 -0.90866625959E+02 -0.35852134438E+03  0.40827783641E+03  0.00000000000E+00 0. -1.
         11    1    4    4    0    0 -0.18603016707E+03 -0.44455723682E+02 -0.21640589770E+03  0.28881663212E+03  0.00000000000E+00 0.  1.
        -13    1    3    3    0    0 -0.14229990352E+01  0.45334501129E+02 -0.77626403230E+02  0.89906064296E+02  0.00000000000E+00 0.  1.
         13    1    3    3    0    0  0.11666045783E+03  0.67346796556E+02 -0.51769163265E+03  0.53492978973E+03  0.00000000000E+00 0. -1.
          3    1    1    2  501    0  0.24369873365E+03  0.22641051956E+02 -0.61364316657E+03  0.66065091077E+03  0.00000000000E+00 0. -1.
<scales pt_clust_5="13000.00000" pt_clust_6="13000.00000" pt_clust_7="13000.00000" pt_clust_8="13000.00000" pt_clust_9="311.55955"></scales>
<clustering>
<clus scale="   90.841">  5  6 -1 -1</clus>
<clus scale="  100.197">  7  8 -1 -1</clus>
<clus scale="  189.780">  2  7  1 -1</clus>
<clus scale="  311.560">  1  9  2 -1</clus>
<clus scale="  311.560">  1  5  2 -1</clus>
</clustering>
</event>
<event>
 9    1  0.1315259E-005  0.1092321E+03  0.7546771E-02  0.1262010E+00
         21   -1    0    0  501  502  0.00000000000E+00  0.00000000000E+00  0.84965012405E+02  0.84965012405E+02  0.00000000000E+00 0. -1.
          2   -1    0    0  502    0 -0.00000000000E+00 -0.00000000000E+00 -0.38333830210E+03  0.38333830210E+03  0.00000000000E+00 0. -1.
         23    2    1    2    0    0 -0.53922923823E+02 -0.30074820492E+02 -0.28386210127E+03  0.30424955888E+03  0.90431880450E+02 0.  0.
         23    2    1    2    0    0  0.26825486460E+02  0.67001738011E+02 -0.21686079953E+02  0.11769270065E+03  0.90401582415E+02 0.  0.
        -11    1    4    4    0    0  0.15891871436E+02 -0.20801427713E+02  0.15118990399E+01  0.26220923159E+02  0.00000000000E+00 0.  1.
         11    1    4    4    0    0  0.10933615024E+02  0.87803165724E+02 -0.23197978993E+02  0.91471777494E+02  0.00000000000E+00 0. -1.
        -13    1    3    3    0    0 -0.22199116065E+02 -0.57943686882E+02 -0.21205353323E+03  0.22094563258E+03  0.00000000000E+00 0. -1.
         13    1    3    3    0    0 -0.31723807758E+02  0.27868866390E+02 -0.71808568045E+02  0.83303926302E+02  0.00000000000E+00 0.  1.
          2    1    1    2  501    0  0.27097437363E+02 -0.36926917519E+02  0.71748915299E+01  0.46361054966E+02  0.00000000000E+00 0. -1.
<scales pt_clust_5="13000.00000" pt_clust_6="13000.00000" pt_clust_7="13000.00000" pt_clust_8="13000.00000" pt_clust_9="45.80249"></scales>
<clustering>
<clus scale="   45.802">  1  9  2 -1</clus>
<clus scale="   90.402">  5  6 -1 -1</clus>
<clus scale="   90.432">  7  8 -1 -1</clus>
<clus scale="  109.207">  1  5  2 -1</clus>
<clus scale="   45.802">  1  5  2 -1</clus>
</clustering>
</event>
<event>
 9    1  0.1315259E-005  0.1097383E+03  0.7546771E-02  0.1265844E+00
          1   -1    0    0  502    0 -0.00000000000E+00  0.00000000000E+00  0.36815190825E+02  0.36815190825E+02  0.00000000000E+00 0. -1.
         21   -1    0    0  501  502  0.00000000000E+00 -0.00000000000E+00 -0.59080299423E+03  0.59080299423E+03  0.00000000000E+00 0.  1.
         23    2    1    2    0    0  0.11103163436E+02  0.41423419498E+02 -0.11268736405E+03  0.15795489766E+03  0.10203983417E+03 0.  0.
         23    2    1    2    0    0 -0.39200018315E+02 -0.19909139926E+02 -0.41018520603E+03  0.42254158088E+03  0.91413724574E+02 0.  0.
        -13    1    4    4    0    0  0.25972287003E+02  0.60980847956E+01 -0.64379248779E+02  0.69688119531E+02  0.00000000000E+00 0. -1.
         13    1    4    4    0    0 -0.65172305318E+02 -0.26007224721E+02 -0.34580595725E+03  0.35285346135E+03  0.00000000000E+00 0.  1.
        -13    1    3    3    0    0  0.43092043726E+02 -0.14868974418E+02 -0.52835480098E+02  0.69782509197E+02  0.00000000000E+00 0. -1.
         13    1    3    3    0    0 -0.31988880289E+02  0.56292393916E+02 -0.59851883953E+02  0.88172388465E+02  0.00000000000E+00 0.  1.
          1    1    1    2  501    0  0.28096854879E+02 -0.21514279572E+02 -0.31115233326E+02  0.47121706511E+02  0.00000000000E+00 0. -1.
<scales pt_clust_5="13000.00000" pt_clust_6="13000.00000" pt_clust_7="13000.00000" pt_clust_8="13000.00000" pt_clust_9="35.38783"></scales>
<clustering>
<clus scale="   35.388">  2  9  1 -1</clus>
<clus scale="   91.414">  5  6 -1 -1</clus>
<clus scale="   99.934">  2  5  1 -1</clus>
<clus scale="  102.040">  7  8 -1 -1</clus>
<clus scale="   35.388">  2  5  1 -1</clus>
</clustering>
</event>
<event>
 9    1  0.1315259E-005  0.1313095E+03  0.7546771E-02  0.1225779E+00
          2   -1    0    0  502    0 -0.00000000000E+00  0.00000000000E+00  0.10448969870E+03  0.10448969870E+03  0.00000000000E+00 0. -1.
         21   -1    0    0  501  502  0.00000000000E+00 -0.00000000000E+00 -0.34481135980E+03  0.34481135980E+03  0.00000000000E+00 0.  1.
         23    2    1    2    0    0 -0.12015696143E+03 -0.52473961890E+02 -0.29518809753E+02  0.16210815198E+03  0.90644805445E+02 0.  0.
         23    2    1    2    0    0  0.53576608170E+02  0.23338388436E+02 -0.67508864830E+02  0.12652246227E+03  0.89640132258E+02 0.  0.
        -11    1    4    4    0    0  0.65438660054E+02 -0.14777108970E+02 -0.42690225479E+02  0.79517523419E+02  0.00000000000E+00 0. -1.
         11    1    4    4    0    0 -0.11862051884E+02  0.38115497407E+02 -0.24818639352E+02  0.47004938855E+02  0.00000000000E+00 0.  1.
        -11    1    3    3    0    0 -0.35052047915E+02 -0.53193810747E+02  0.15873118792E+02  0.65651987518E+02  0.00000000000E+00 0. -1.
         11    1    3    3    0    0 -0.85104913510E+02  0.71984885744E+00 -0.45391928545E+02  0.96456164463E+02  0.00000000000E+00 0.  1.
          2    1    1    2  501    0  0.66580353255E+02  0.29135573453E+02 -0.14329398652E+03  0.16067044424E+03  0.00000000000E+00 0. -1.
<scales pt_clust_5="13000.00000" pt_clust_6="13000.00000" pt_clust_7="13000.00000" pt_clust_8="13000.00000" pt_clust_9="72.67617"></scales>
<clustering>
<clus scale="   72.676">  2  9  1 -1</clus>
<clus scale="   89.640">  5  6 -1 -1</clus>
<clus scale="   90.645">  7  8 -1 -1</clus>
<clus scale="  130.618">  2  5  1 -1</clus>
<clus scale="   72.676">  2  5  1 -1</clus>
</clustering>
</event>
<event>
 9    1  0.1315259E-005  0.1104362E+03  0.7546771E-02  0.1263380E+00
          1   -1    0    0  502    0 -0.00000000000E+00  0.00000000000E+00  0.15094887400E+03  0.15094887400E+03  0.00000000000E+00 0. -1.
         21   -1    0    0  501  502  0.00000000000E+00 -0.00000000000E+00 -0.15247624687E+03  0.15247624687E+03  0.00000000000E+00 0.  1.
         23    2    1    2    0    0  0.28977972198E+02 -0.14299954792E+02  0.23776722694E+02  0.10011173181E+03  0.91721397312E+02 0.  0.
         23    2    1    2    0    0 -0.74247802768E+02  0.39240041183E+02 -0.57121373848E+02  0.14261985838E+03  0.10012519965E+03 0.  0.
        -11    1    3    3    0    0  0.42121133137E+02 -0.35104233127E+02  0.42349123022E+02  0.69281637256E+02  0.00000000000E+00 0.  1.
         11    1    3    3    0    0 -0.13143160939E+02  0.20804278335E+02 -0.18572400327E+02  0.30830094558E+02  0.00000000000E+00 0. -1.
        -13    1    4    4    0    0 -0.27695428325E+02  0.15558228153E+02 -0.79640623971E+02  0.85742196145E+02  0.00000000000E+00 0.  1.
         13    1    4    4    0    0 -0.46552374443E+02  0.23681813029E+02  0.22519250123E+02  0.56877662230E+02  0.00000000000E+00 0. -1.
          1    1    1    2  501    0  0.45269830570E+02 -0.24940086390E+02  0.31817278285E+02  0.60693530680E+02  0.00000000000E+00 0. -1.
<scales pt_clust_5="13000.00000" pt_clust_6="13000.00000" pt_clust_7="13000.00000" pt_clust_8="13000.00000" pt_clust_9="51.68528"></scales>
<clustering>
<clus scale="   51.685">  2  9  1 -1</clus>
<clus scale="   91.721">  5  6 -1 -1</clus>
<clus scale="  100.125">  7  8 -1 -1</clus>
<clus scale="  102.878">  1  5  2 -1</clus>
<clus scale="   51.685">  2  5  1 -1</clus>
</clustering>
</event>
<event>
 9    1  0.1315259E-005  0.3072844E+03  0.7546771E-02  0.1081971E+00
         21   -1    0    0  501  502  0.00000000000E+00  0.00000000000E+00  0.90409498452E+03  0.90409498452E+03  0.00000000000E+00 0.  1.
          1   -1    0    0  502    0 -0.00000000000E+00 -0.00000000000E+00 -0.16291723275E+03  0.16291723275E+03  0.00000000000E+00 0. -1.
         23    2    1    2    0    0  0.11198292560E+03  0.26514102018E+03  0.11577910428E+03  0.32572306159E+03  0.99251073823E+02 0.  0.
         23    2    1    2    0    0 -0.83116775513E+02 -0.28611723272E+03  0.37113583154E+03  0.48453472888E+03  0.90888001454E+02 0.  0.
        -11    1    3    3    0    0 -0.25209899221E+01  0.11684298941E+03  0.50547769884E+02  0.12733309313E+03  0.00000000000E+00 0.  1.
         11    1    3    3    0    0  0.11450391552E+03  0.14829803077E+03  0.65231334395E+02  0.19838996846E+03  0.00000000000E+00 0. -1.
        -13    1    4    4    0    0 -0.50911925368E+02 -0.75834491528E+02  0.66547974886E+02  0.11301118180E+03  0.00000000000E+00 0. -1.
         13    1    4    4    0    0 -0.32204850144E+02 -0.21028274119E+03  0.30458785666E+03  0.37152354708E+03  0.00000000000E+00 0.  1.
          1    1    1    2  501    0 -0.28866150086E+02  0.20976212536E+02  0.25426281594E+03  0.25675442680E+03  0.00000000000E+00 0. -1.
<scales pt_clust_5="13000.00000" pt_clust_6="13000.00000" pt_clust_7="13000.00000" pt_clust_8="13000.00000" pt_clust_9="35.68271"></scales>
<clustering>
<clus scale="   35.683">  1  9  2 -1</clus>
<clus scale="   90.888">  7  8 -1 -1</clus>
<clus scale="   99.251">  5  6 -1 -1</clus>
<clus scale="  304.686">  1  7  2 -1</clus>
<clus scale="   35.683">  1  5  2 -1</clus>
</clustering>
</event>
<event>
 9    1  0.1315259E-005  0.9831891E+02  0.7546771E-02  0.1284160E+00
         -1   -1    0    0    0  501 -0.00000000000E+00  0.00000000000E+00  0.58644746907E+03  0.58644746907E+03  0.00000000000E+00 0.  1.
         21   -1    0    0  501  502  0.00000000000E+00 -0.00000000000E+00 -0.20723583133E+02  0.20723583133E+02  0.00000000000E+00 0. -1.
         23    2    1    2    0    0  0.37821813544E+02  0.67894318697E+01  0.28510888984E+03  0.30202445178E+03  0.91951641871E+02 0.  0.
         23    2    1    2    0    0 -0.24131861507E+02 -0.23738147896E+02  0.21618513939E+03  0.23713277685E+03  0.91378843057E+02 0.  0.
        -13    1    3    3    0    0  0.37007801464E+02 -0.35890383584E+02  0.20346324392E+03  0.20989280271E+03  0.00000000000E+00 0.  1.
         13    1    3    3    0    0  0.81401207985E+00  0.42679815453E+02  0.81645645924E+02  0.92131649074E+02  0.00000000000E+00 0. -1.
        -13    1    4    4    0    0  0.27655295171E+02 -0.59077717010E+01  0.14273746048E+03  0.14551185430E+03  0.00000000000E+00 0.  1.
         13    1    4    4    0    0 -0.51787156677E+02 -0.17830376195E+02  0.73447678918E+02  0.91620922558E+02  0.00000000000E+00 0. -1.
         -1    1    1    2    0  502 -0.13689952038E+02  0.16948716026E+02  0.64429856701E+02  0.68013823568E+02  0.00000000000E+00 0.  1.
<scales pt_clust_5="13000.00000" pt_clust_6="13000.00000" pt_clust_7="13000.00000" pt_clust_8="13000.00000" pt_clust_9="21.78702"></scales>
<clustering>
<clus scale="   21.787">  2  9  1 -1</clus>
<clus scale="   91.379">  7  8 -1 -1</clus>
<clus scale="   91.952">  5  6 -1 -1</clus>
<clus scale="   97.783">  2  7  1 -1</clus>
<clus scale="   21.787">  2  5  1 -1</clus>
</clustering>
</event>
<event>
 9    1  0.1315259E-005  0.1066234E+03  0.7546771E-02  0.1267251E+00
         21   -1    0    0  501  502  0.00000000000E+00  0.00000000000E+00  0.12798919860E+03  0.12798919860E+03  0.00000000000E+00 0.  1.
          1   -1    0    0  502    0 -0.00000000000E+00 -0.00000000000E+00 -0.17082685252E+03  0.17082685252E+03  0.00000000000E+00 0. -1.
         23    2    1    2    0    0 -0.85070283279E+01  0.53187800402E+02 -0.89733987374E+02  0.14070891860E+03  0.94050516425E+02 0.  0.
         23    2    1    2    0    0 -0.15023100103E+02 -0.44189162039E+02 -0.56687008048E+00  0.10437261730E+03  0.93353876843E+02 0.  0.
        -11    1    3    3    0    0  0.34028207534E+02  0.51138128889E+02 -0.71833684115E+02  0.94515106241E+02  0.00000000000E+00 0. -1.
         11    1    3    3    0    0 -0.42535235862E+02  0.20496715129E+01 -0.17900303259E+02  0.46193812355E+02  0.00000000000E+00 0.  1.
        -13    1    4    4    0    0 -0.47741674858E+02 -0.80665506012E+01  0.18783593167E+02  0.51934190368E+02  0.00000000000E+00 0.  1.
         13    1    4    4    0    0  0.32718574755E+02 -0.36122611438E+02 -0.19350463248E+02  0.52438426931E+02  0.00000000000E+00 0. -1.
          1    1    1    2  501    0  0.23530128431E+02 -0.89986383632E+01  0.47463203532E+02  0.53734515220E+02  0.00000000000E+00 0. -1.
<scales pt_clust_5="13000.00000" pt_clust_6="13000.00000" pt_clust_7="13000.00000" pt_clust_8="13000.00000" pt_clust_9="25.19211"></scales>
<clustering>
<clus scale="   25.192">  1  9  2 -1</clus>
<clus scale="   93.354">  7  8 -1 -1</clus>
<clus scale="   94.051">  5  6 -1 -1</clus>
<clus scale="  106.009">  1  7  2 -1</clus>
<clus scale="   25.192">  1  5  2 -1</clus>
</clustering>
</event>
<event>
 9    1  0.1315259E-005  0.1986515E+03  0.7546771E-02  0.1151923E+00
         21   -1    0    0  501  502  0.00000000000E+00  0.00000000000E+00  0.24746392249E+03  0.24746392249E+03  0.00000000000E+00 0.  1.
          2   -1    0    0  502    0 -0.00000000000E+00 -0.00000000000E+00 -0.33852165704E+03  0.33852165704E+03  0.00000000000E+00 0. -1.
         23    2    1    2    0    0  0.83013295459E+02 -0.14530583387E+03 -0.20132000465E+03  0.27402575274E+03  0.80965278431E+02 0.  0.
         23    2    1    2    0    0 -0.83454262739E+02  0.20062038353E+03  0.81494685547E+02  0.24961026563E+03  0.91927953738E+02 0.  0.
        -11    1    3    3    0    0  0.51340034447E+02 -0.12315799727E+03 -0.19276780436E+03  0.23444214175E+03  0.00000000000E+00 0. -1.
         11    1    3    3    0    0  0.31673261012E+02 -0.22147836599E+02 -0.85522002870E+01  0.39583610989E+02  0.00000000000E+00 0.  1.
        -13    1    4    4    0    0 -0.12503128197E+02  0.14552114301E+03  0.48180633158E+02  0.15379890991E+03  0.00000000000E+00 0.  1.
         13    1    4    4    0    0 -0.70951134542E+02  0.55099240522E+02  0.33314052389E+02  0.95811355723E+02  0.00000000000E+00 0. -1.
          2    1    1    2  501    0  0.44096728023E+00 -0.55314549660E+02  0.28767584556E+02  0.62349561165E+02  0.00000000000E+00 0. -1.
<scales pt_clust_5="13000.00000" pt_clust_6="13000.00000" pt_clust_7="13000.00000" pt_clust_8="13000.00000" pt_clust_9="55.31631"></scales>
<clustering>
<clus scale="   55.316">  1  9  2 -1</clus>
<clus scale="   80.965">  5  6 -1 -1</clus>
<clus scale="   91.928">  7  8 -1 -1</clus>
<clus scale="  193.822">  2  5  1 -1</clus>
<clus scale="   55.316">  1  5  2 -1</clus>
</clustering>
</event>
<event>
 9    1  0.1315259E-005  0.1174505E+03  0.7546771E-02  0.1273567E+00
          3   -1    0    0  502    0 -0.00000000000E+00  0.00000000000E+00  0.20015574854E+03  0.20015574854E+03  0.00000000000E+00 0. -1.
         21   -1    0    0  501  502  0.00000000000E+00 -0.00000000000E+00 -0.16450985187E+03  0.16450985187E+03  0.00000000000E+00 0. -1.
         23    2    1    2    0    0 -0.14020585673E+02  0.22422855211E+02  0.95551976022E+02  0.11856623515E+03  0.65026231145E+02 0.  0.
         23    2    1    2    0    0  0.50804413938E+01  0.54652413097E+02  0.45217760399E+02  0.11544124324E+03  0.90935898538E+02 0.  0.
        -11    1    4    4    0    0  0.20263175050E+02  0.39716770199E+01 -0.21820106718E+02  0.30041430369E+02  0.00000000000E+00 0.  1.
         11    1    4    4    0    0 -0.15182733656E+02  0.50680736077E+02  0.67037867117E+02  0.85399812870E+02  0.00000000000E+00 0. -1.
        -11    1    3    3    0    0 -0.20490901200E+02 -0.18557373713E+02  0.28411954291E+02  0.39642052138E+02  0.00000000000E+00 0.  1.
         11    1    3    3    0    0  0.64703155271E+01  0.40980228923E+02  0.67140021732E+02  0.78924183010E+02  0.00000000000E+00 0. -1.
          3    1    1    2  501    0  0.89401442792E+01 -0.77075268307E+02 -0.10512383976E+03  0.13065812202E+03  0.00000000000E+00 0. -1.
<scales pt_clust_5="13000.00000" pt_clust_6="13000.00000" pt_clust_7="13000.00000" pt_clust_8="13000.00000" pt_clust_9="74.33221"></scales>
<clustering>
<clus scale="   65.026">  7  8 -1 -1</clus>
<clus scale="   70.198">  1  7  2 -1</clus>
<clus scale="   74.332">  2  9  1 -1</clus>
<clus scale="   90.936">  5  6 -1 -1</clus>
<clus scale="   74.332">  2  5  1 -1</clus>
</clustering>
</event>
<event>
 9    1  0.1315259E-005  0.1321643E+03  0.7546771E-02  0.1228433E+00
         21   -1    0    0  501  502  0.00000000000E+00  0.00000000000E+00  0.39742228019E+02  0.39742228019E+02  0.00000000000E+00 0. -1.
          1   -1    0    0  502    0 -0.00000000000E+00 -0.00000000000E+00 -0.10086307292E+04  0.10086307292E+04  0.00000000000E+00 0. -1.
         23    2    1    2    0    0  0.53826245467E+02  0.80715318337E+02 -0.52331477949E+03  0.54011104812E+03  0.91920392470E+02 0.  0.
         23    2    1    2    0    0 -0.16552570366E+02 -0.95688942176E+02 -0.45125037525E+03  0.46769393329E+03  0.75368115485E+02 0.  0.
        -11    1    3    3    0    0  0.67396562762E+02  0.29934923944E+02 -0.38799863254E+03  0.39494472423E+03  0.00000000000E+00 0. -1.
         11    1    3    3    0    0 -0.13570317295E+02  0.50780394393E+02 -0.13531614695E+03  0.14516632389E+03  0.00000000000E+00 0.  1.
        -13    1    4    4    0    0  0.24588111013E+02 -0.70500144571E+02 -0.26985416045E+03  0.27999305973E+03  0.00000000000E+00 0. -1.
         13    1    4    4    0    0 -0.41140681379E+02 -0.25188797605E+02 -0.18139621481E+03  0.18770087356E+03  0.00000000000E+00 0.  1.
          1    1    1    2  501    0 -0.37273675101E+02  0.14973623839E+02  0.56766535520E+01  0.40567975818E+02  0.00000000000E+00 0. -1.
<scales pt_clust_5="13000.00000" pt_clust_6="13000.00000" pt_clust_7="13000.00000" pt_clust_8="13000.00000" pt_clust_9="40.16885"></scales>
<clustering>
<clus scale="   40.169">  1  9  2 -1</clus>
<clus scale="   75.368">  7  8 -1 -1</clus>
<clus scale="   91.920">  5  6 -1 -1</clus>
<clus scale="  121.237">  1  7  2 -1</clus>
<clus scale="   40.169">  1  5  2 -1</clus>
</clustering>
</event>
<event>
 9    1  0.1315259E-005  0.1618310E+03  0.7546771E-02  0.1186871E+00
         21   -1    0    0  501  502  0.00000000000E+00  0.00000000000E+00  0.41438706249E+03  0.41438706249E+03  0.00000000000E+00 0.  1.
         -3   -1    0    0    0  501 -0.00000000000E+00 -0.00000000000E+00 -0.93884083289E+02  0.93884083289E+02  0.00000000000E+00 0.  1.
         23    2    1    2    0    0  0.98905974670E+02 -0.10140462098E+03  0.57978348751E+02  0.17870975851E+03  0.92251828597E+02 0.  0.
         23    2    1    2    0    0 -0.73944237576E+02  0.95068326310E+02  0.14494960719E+03  0.20919892201E+03  0.90818849408E+02 0.  0.
        -11    1    4    4    0    0 -0.84841706769E+02  0.54974129965E+02  0.13078358481E+03  0.16530159173E+03  0.00000000000E+00 0.  1.
         11    1    4    4    0    0  0.10897469193E+02  0.40094196345E+02  0.14166022373E+02  0.43897330275E+02  0.00000000000E+00 0. -1.
        -13    1    3    3    0    0  0.32644222565E+02  0.79291779055E+01  0.35550681777E+02  0.48911840120E+02  0.00000000000E+00 0. -1.
         13    1    3    3    0    0  0.66261752106E+02 -0.10933379889E+03  0.22427666974E+02  0.12979791839E+03  0.00000000000E+00 0.  1.
         -3    1    1    2    0  502 -0.24961737094E+02  0.63362946742E+01  0.11757502326E+03  0.12036246526E+03  0.00000000000E+00 0.  1.
<scales pt_clust_5="13000.00000" pt_clust_6="13000.00000" pt_clust_7="13000.00000" pt_clust_8="13000.00000" pt_clust_9="25.75339"></scales>
<clustering>
<clus scale="   25.753">  1  9  2 -1</clus>
<clus scale="   90.819">  5  6 -1 -1</clus>
<clus scale="   92.252">  7  8 -1 -1</clus>
<clus scale="  161.018">  1  5  2 -1</clus>
<clus scale="   25.753">  1  5  2 -1</clus>
</clustering>
</event>
<event>
 9    1  0.1315259E-005  0.1024365E+03  0.7546771E-02  0.1277987E+00
         -1   -1    0    0    0  501 -0.00000000000E+00  0.00000000000E+00  0.44806956004E+02  0.44806956004E+02  0.00000000000E+00 0.  1.
         21   -1    0    0  501  502  0.00000000000E+00 -0.00000000000E+00 -0.40637720521E+03  0.40637720521E+03  0.00000000000E+00 0. -1.
         23    2    1    2    0    0 -0.21844081582E+01  0.28080948891E+02 -0.56605197887E+02  0.11614066004E+03  0.97422754818E+02 0.  0.
         23    2    1    2    0    0  0.26780279410E+02 -0.39287455286E+02 -0.27895373482E+03  0.29753175296E+03  0.91919912657E+02 0.  0.
        -11    1    4    4    0    0 -0.20119118134E+02  0.73633725795E+01 -0.16985076159E+02  0.27340281315E+02  0.00000000000E+00 0.  1.
         11    1    4    4    0    0  0.46899397545E+02 -0.46650827866E+02 -0.26196865866E+03  0.27019147164E+03  0.00000000000E+00 0. -1.
        -11    1    3    3    0    0 -0.38934748671E+02 -0.10978157607E+02 -0.33991805003E+01  0.40595431105E+02  0.00000000000E+00 0.  1.
         11    1    3    3    0    0  0.36750340513E+02  0.39059106498E+02 -0.53206017386E+02  0.75545228932E+02  0.00000000000E+00 0. -1.
         -1    1    1    2    0  502 -0.24595871252E+02  0.11206506395E+02 -0.26011316505E+02  0.37511748221E+02  0.00000000000E+00 0.  1.
<scales pt_clust_5="13000.00000" pt_clust_6="13000.00000" pt_clust_7="13000.00000" pt_clust_8="13000.00000" pt_clust_9="27.02857"></scales>
<clustering>
<clus scale="   27.029">  2  9  1 -1</clus>
<clus scale="   91.920">  5  6 -1 -1</clus>
<clus scale="   97.218">  2  5  1 -1</clus>
<clus scale="   97.423">  7  8 -1 -1</clus>
<clus scale="   27.029">  2  5  1 -1</clus>
</clustering>
</event>
<event>
 9    1  0.1315259E-005  0.1088352E+03  0.7546771E-02  0.1271505E+00
         21   -1    0    0  501  502  0.00000000000E+00  0.00000000000E+00  0.28167153452E+03  0.28167153452E+03  0.00000000000E+00 0.  1.
          1   -1    0    0  502    0 -0.00000000000E+00 -0.00000000000E+00 -0.49045023436E+02  0.49045023436E+02  0.00000000000E+00 0. -1.
         23    2    1    2    0    0 -0.49442758568E+02 -0.10692794913E+02  0.81775326837E+02  0.13228596740E+03  0.90848504956E+02 0.  0.
         23    2    1    2    0    0  0.63935551211E+02  0.30953337740E+02  0.96020187706E+02  0.13820626976E+03  0.69535837723E+02 0.  0.
        -11    1    4    4    0    0  0.54531855934E+02  0.51173840038E+02  0.85373227647E+02  0.11349481581E+03  0.00000000000E+00 0.  1.
         11    1    4    4    0    0  0.94036952772E+01 -0.20220502298E+02  0.10646960059E+02  0.24711453955E+02  0.00000000000E+00 0. -1.
        -13    1    3    3    0    0 -0.50509880863E+02 -0.45279235101E+02  0.42994427255E+02  0.80311754875E+02  0.00000000000E+00 0. -1.
         13    1    3    3    0    0  0.10671222942E+01  0.34586440188E+02  0.38780899582E+02  0.51974212522E+02  0.00000000000E+00 0.  1.
          1    1    1    2  501    0 -0.14492792643E+02 -0.20260542828E+02  0.54830996540E+02  0.60224320800E+02  0.00000000000E+00 0. -1.
<scales pt_clust_5="13000.00000" pt_clust_6="13000.00000" pt_clust_7="13000.00000" pt_clust_8="13000.00000" pt_clust_9="24.91045"></scales>
<clustering>
<clus scale="   24.910">  1  9  2 -1</clus>
<clus scale="   69.536">  5  6 -1 -1</clus>
<clus scale="   90.849">  7  8 -1 -1</clus>
<clus scale="   91.798">  1  5  2 -1</clus>
<clus scale="   24.910">  1  5  2 -1</clus>
</clustering>
</event>
<event>
 9    1  0.1315259E-005  0.1045783E+03  0.7546771E-02  0.1272723E+00
         21   -1    0    0  501  502  0.00000000000E+00  0.00000000000E+00  0.24858110995E+03  0.24858110995E+03  0.00000000000E+00 0. -1.
         -1   -1    0    0    0  501 -0.00000000000E+00 -0.00000000000E+00 -0.25111166933E+03  0.25111166933E+03  0.00000000000E+00 0.  1.
         23    2    1    2    0    0 -0.16906415994E+02 -0.24558241370E+02 -0.10375080203E+03  0.14398359052E+03  0.95279123087E+02 0.  0.
         23    2    1    2    0    0 -0.29958450691E+02  0.69615145083E+02 -0.93044265364E+02  0.15085524230E+03  0.91412754142E+02 0.  0.
        -13    1    4    4    0    0 -0.55804050966E+02  0.73808334566E+02 -0.71094147475E+02  0.11668821775E+03  0.00000000000E+00 0. -1.
         13    1    4    4    0    0  0.25845600275E+02 -0.41931894832E+01 -0.21950117889E+02  0.34167024555E+02  0.00000000000E+00 0.  1.
        -13    1    3    3    0    0 -0.28108124695E+02  0.19370746636E+02 -0.39443427078E+01  0.34363503001E+02  0.00000000000E+00 0.  1.
         13    1    3    3    0    0  0.11201708701E+02 -0.43928988005E+02 -0.99806459325E+02  0.10962008752E+03  0.00000000000E+00 0. -1.
         -1    1    1    2    0  502  0.46864866685E+02 -0.45056903713E+02  0.19426450802E+03  0.20485394646E+03  0.00000000000E+00 0.  1.
<scales pt_clust_5="13000.00000" pt_clust_6="13000.00000" pt_clust_7="13000.00000" pt_clust_8="13000.00000" pt_clust_9="65.01108"></scales>
<clustering>
<clus scale="   65.011">  1  9  2 -1</clus>
<clus scale="   91.413">  5  6 -1 -1</clus>
<clus scale="   95.279">  7  8 -1 -1</clus>
<clus scale="  101.068">  1  5  2 -1</clus>
<clus scale="   65.011">  1  5  2 -1</clus>
</clustering>
</event>
<event>
 9    1  0.1315259E-005  0.9223903E+02  0.7546771E-02  0.1299739E+00
          1   -1    0    0  502    0 -0.00000000000E+00  0.00000000000E+00  0.27582178020E+03  0.27582178020E+03  0.00000000000E+00 0. -1.
         21   -1    0    0  501  502  0.00000000000E+00 -0.00000000000E+00 -0.99152579677E+02  0.99152579677E+02  0.00000000000E+00 0. -1.
         23    2    1    2    0    0  0.78882759532E+01 -0.54022234755E+00  0.19573021820E+03  0.21638160662E+03  0.91913897907E+02 0.  0.
         23    2    1    2    0    0  0.24267087044E+01 -0.24298305658E+02  0.35188223756E+02  0.98042513145E+02  0.88191987843E+02 0.  0.
        -11    1    4    4    0    0  0.11526164728E+02  0.26647414654E+02  0.36044708894E+02  0.46283455147E+02  0.00000000000E+00 0.  1.
         11    1    4    4    0    0 -0.90994560231E+01 -0.50945720312E+02 -0.85648513823E+00  0.51759057998E+02  0.00000000000E+00 0. -1.
        -11    1    3    3    0    0 -0.27127794360E+02  0.24972907910E+02  0.38571099146E+02  0.53360032287E+02  0.00000000000E+00 0.  1.
         11    1    3    3    0    0  0.35016070313E+02 -0.25513130258E+02  0.15715911905E+03  0.16302157433E+03  0.00000000000E+00 0. -1.
          1    1    1    2  501    0 -0.10314984658E+02  0.24838528005E+02 -0.54249241432E+02  0.60550240114E+02  0.00000000000E+00 0. -1.
<scales pt_clust_5="13000.00000" pt_clust_6="13000.00000" pt_clust_7="13000.00000" pt_clust_8="13000.00000" pt_clust_9="26.89519"></scales>
<clustering>
<clus scale="   26.895">  2  9  1 -1</clus>
<clus scale="   88.192">  5  6 -1 -1</clus>
<clus scale="   88.531">  2  5  1 -1</clus>
<clus scale="   91.914">  7  8 -1 -1</clus>
<clus scale="   26.895">  2  5  1 -1</clus>
</clustering>
</event>
<event>
 9    1  0.1315259E-005  0.2047038E+03  0.7546771E-02  0.1146309E+00
          1   -1    0    0  502    0 -0.00000000000E+00  0.00000000000E+00  0.10990713849E+04  0.10990713849E+04  0.00000000000E+00 0. -1.
         21   -1    0    0  501  502  0.00000000000E+00 -0.00000000000E+00 -0.12904362063E+03  0.12904362063E+03  0.00000000000E+00 0. -1.
         23    2    1    2    0    0  0.38655483421E+02  0.19210100976E+03  0.70831640817E+03  0.74106270828E+03  0.95209028843E+02 0.  0.
         23    2    1    2    0    0  0.76651750764E+02 -0.92308201951E+02 -0.28882318918E+02  0.15887696804E+03  0.10005702166E+03 0.  0.
        -11    1    4    4    0    0  0.32017126466E+02  0.15320759098E+02  0.85230412466E+01  0.36502935205E+02  0.00000000000E+00 0.  1.
         11    1    4    4    0    0  0.44634624298E+02 -0.10762896105E+03 -0.37405360165E+02  0.12237403283E+03  0.00000000000E+00 0. -1.
        -13    1    3    3    0    0 -0.14863761973E+02  0.13691692689E+03  0.51293162152E+03  0.53109888405E+03  0.00000000000E+00 0.  1.
         13    1    3    3    0    0  0.53519245393E+02  0.55184082871E+02  0.19538478665E+03  0.20996382423E+03  0.00000000000E+00 0. -1.
          1    1    1    2  501    0 -0.11530723419E+03 -0.99792807811E+02  0.29059367504E+03  0.32817532924E+03  0.00000000000E+00 0. -1.
<scales pt_clust_5="13000.00000" pt_clust_6="13000.00000" pt_clust_7="13000.00000" pt_clust_8="13000.00000" pt_clust_9="152.49389"></scales>
<clustering>
<clus scale="   95.209">  7  8 -1 -1</clus>
<clus scale="  100.057">  5  6 -1 -1</clus>
<clus scale="  152.494">  2  9  1 -1</clus>
<clus scale="  202.378">  1  7  2 -1</clus>
<clus scale="  152.494">  2  5  1 -1</clus>
</clustering>
</event>
<event>
 9    1  0.1315259E-005  0.9745221E+02  0.7546771E-02  0.1287155E+00
         21   -1    0    0  501  502  0.00000000000E+00  0.00000000000E+00  0.23816100412E+03  0.23816100412E+03  0.00000000000E+00 0.  1.
          2   -1    0    0  502    0 -0.00000000000E+00 -0.00000000000E+00 -0.67830636167E+02  0.67830636167E+02  0.00000000000E+00 0. -1.
         23    2    1    2    0    0  0.10833981163E+02  0.43424420275E+02  0.18910242309E+02  0.10342647734E+03  0.91303797989E+02 0.  0.
         23    2    1    2    0    0  0.16060739502E+02 -0.18868993920E+02  0.77953575326E+02  0.12056742530E+03  0.88576282676E+02 0.  0.
        -13    1    4    4    0    0  0.40031822585E+02 -0.11043199518E+02  0.84813962357E+02  0.94434672052E+02  0.00000000000E+00 0.  1.
         13    1    4    4    0    0 -0.23971083082E+02 -0.78257944019E+01 -0.68603870301E+01  0.26132753249E+02  0.00000000000E+00 0. -1.
        -13    1    3    3    0    0  0.41395384993E+02  0.51893708647E+02 -0.23534959566E+00  0.66382153365E+02  0.00000000000E+00 0.  1.
         13    1    3    3    0    0 -0.30561403830E+02 -0.84692883727E+01  0.19145591905E+02  0.37044323978E+02  0.00000000000E+00 0. -1.
          2    1    1    2  501    0 -0.26894720665E+02 -0.24555426354E+02  0.73466550321E+02  0.81997737646E+02  0.00000000000E+00 0. -1.
<scales pt_clust_5="13000.00000" pt_clust_6="13000.00000" pt_clust_7="13000.00000" pt_clust_8="13000.00000" pt_clust_9="36.41833"></scales>
<clustering>
<clus scale="   36.418">  1  9  2 -1</clus>
<clus scale="   88.576">  5  6 -1 -1</clus>
<clus scale="   91.304">  7  8 -1 -1</clus>
<clus scale="   94.902">  1  5  2 -1</clus>
<clus scale="   36.418">  1  5  2 -1</clus>
</clustering>
</event>
<event>
 9    1  0.1315259E-005  0.1401563E+03  0.7546771E-02  0.1237681E+00
         21   -1    0    0  501  502  0.00000000000E+00  0.00000000000E+00  0.14845091187E+03  0.14845091187E+03  0.00000000000E+00 0.  1.
         -2   -1    0    0    0  501 -0.00000000000E+00 -0.00000000000E+00 -0.52325511384E+03  0.52325511384E+03  0.00000000000E+00 0.  1.
         23    2    1    2    0    0  0.12105636836E+02  0.16943135084E+02 -0.10829721638E+03  0.13709697436E+03  0.81447388117E+02 0.  0.
         23    2    1    2    0    0 -0.30477407844E+02 -0.11901754112E+03 -0.36211200271E+03  0.39355223430E+03  0.93081744374E+02 0.  0.
        -11    1    4    4    0    0 -0.26651560200E+02  0.18981176597E+00 -0.27395354264E+02  0.38221029877E+02  0.00000000000E+00 0. -1.
         11    1    4    4    0    0 -0.38258476433E+01 -0.11920735289E+03 -0.33471664844E+03  0.35533120442E+03  0.00000000000E+00 0.  1.
        -13    1    3    3    0    0  0.41586353728E+02  0.10023293242E+02 -0.94678149518E+02  0.10389342241E+03  0.00000000000E+00 0.  1.
         13    1    3    3    0    0 -0.29480716891E+02  0.69198418423E+01 -0.13619066867E+02  0.33203551947E+02  0.00000000000E+00 0. -1.
         -2    1    1    2    0  502  0.18371771007E+02  0.10207440604E+03  0.95605017116E+02  0.14105681705E+03  0.00000000000E+00 0.  1.
<scales pt_clust_5="13000.00000" pt_clust_6="13000.00000" pt_clust_7="13000.00000" pt_clust_8="13000.00000" pt_clust_9="104.78350"></scales>
<clustering>
<clus scale="   81.447">  7  8 -1 -1</clus>
<clus scale="   84.067">  2  7  1 -1</clus>
<clus scale="   93.082">  5  6 -1 -1</clus>
<clus scale="  104.784">  1  9  2 -1</clus>
<clus scale="  104.784">  1  5  2 -1</clus>
</clustering>
</event>
<event>
 9    1  0.1315259E-005  0.1256465E+03  0.7546771E-02  0.1235329E+00
          3   -1    0    0  502    0 -0.00000000000E+00  0.00000000000E+00  0.27146224861E+03  0.27146224861E+03  0.00000000000E+00 0. -1.
         21   -1    0    0  501  502  0.00000000000E+00 -0.00000000000E+00 -0.21120362437E+03  0.21120362437E+03  0.00000000000E+00 0. -1.
         23    2    1    2    0    0 -0.45672778129E+02  0.47834164194E+02  0.10565170525E+03  0.15564305790E+03  0.93211419499E+02 0.  0.
         23    2    1    2    0    0  0.14905829031E+03 -0.18185129563E+02  0.51869246184E+02  0.18201388545E+03  0.88823211763E+02 0.  0.
        -11    1    3    3    0    0  0.21214690546E+02 -0.76681161526E+01  0.58593376123E+01  0.23306542805E+02  0.00000000000E+00 0. -1.
         11    1    3    3    0    0 -0.66887468674E+02  0.55502280347E+02  0.99792367637E+02  0.13233651510E+03  0.00000000000E+00 0.  1.
        -13    1    4    4    0    0  0.21844434715E+02 -0.39772554023E+02  0.15555912985E+02  0.47968967159E+02  0.00000000000E+00 0.  1.
         13    1    4    4    0    0  0.12721385560E+03  0.21587424460E+02  0.36313333200E+02  0.13404491829E+03  0.00000000000E+00 0. -1.
          3    1    1    2  501    0 -0.10338551218E+03 -0.29649034631E+02 -0.97262327192E+02  0.14500892964E+03  0.00000000000E+00 0. -1.
<scales pt_clust_5="13000.00000" pt_clust_6="13000.00000" pt_clust_7="13000.00000" pt_clust_8="13000.00000" pt_clust_9="107.55291"></scales>
<clustering>
<clus scale="   88.823">  7  8 -1 -1</clus>
<clus scale="   93.211">  5  6 -1 -1</clus>
<clus scale="  107.553">  2  9  1 -1</clus>
<clus scale="  122.427">  2  7  1 -1</clus>
<clus scale="  107.553">  2  5  1 -1</clus>
</clustering>
</event>
<event>
 9    1  0.1315259E-005  0.9328429E+02  0.7546771E-02  0.1295109E+00
          2   -1    0    0  502    0 -0.00000000000E+00  0.00000000000E+00  0.83516898232E+02  0.83516898232E+02  0.00000000000E+00 0. -1.
         21   -1    0    0  501  502  0.00000000000E+00 -0.00000000000E+00 -0.44274772266E+03  0.44274772266E+03  0.00000000000E+00 0.  1.
         23    2    1    2    0    0 -0.49877844532E+01  0.15426987162E+02  0.36207546206E+02  0.10018153130E+03  0.91991754435E+02 0.  0.
         23    2    1    2    0    0  0.47260895298E+02  0.17374843085E+02 -0.27310378192E+03  0.29255883126E+03  0.92029976927E+02 0.  0.
        -11    1    4    4    0    0 -0.84316481252E+00  0.42990803079E+02 -0.68976550983E+02  0.81281514884E+02  0.00000000000E+00 0.  1.
         11    1    4    4    0    0  0.48104060111E+02 -0.25615959995E+02 -0.20412723094E+03  0.21127731638E+03  0.00000000000E+00 0. -1.
        -13    1    3    3    0    0  0.24369419121E+02 -0.21797938329E+02  0.41103026822E+02  0.52521210169E+02  0.00000000000E+00 0. -1.
         13    1    3    3    0    0 -0.29357203574E+02  0.37224925491E+02 -0.48954806162E+01  0.47660321127E+02  0.00000000000E+00 0.  1.
          2    1    1    2  501    0 -0.42273110845E+02 -0.32801830247E+02 -0.12233458871E+03  0.13352425833E+03  0.00000000000E+00 0. -1.
<scales pt_clust_5="13000.00000" pt_clust_6="13000.00000" pt_clust_7="13000.00000" pt_clust_8="13000.00000" pt_clust_9="53.50678"></scales>
<clustering>
<clus scale="   53.507">  2  9  1 -1</clus>
<clus scale="   91.992">  7  8 -1 -1</clus>
<clus scale="   92.030">  5  6 -1 -1</clus>
<clus scale="   93.247">  1  7  2 -1</clus>
<clus scale="   53.507">  2  5  1 -1</clus>
</clustering>
</event>
<event>
 9    1  0.1315259E-005  0.1027114E+03  0.7546771E-02  0.1276206E+00
          2   -1    0    0  502    0 -0.00000000000E+00  0.00000000000E+00  0.35245132986E+03  0.35245132986E+03  0.00000000000E+00 0. -1.
         21   -1    0    0  501  502  0.00000000000E+00 -0.00000000000E+00 -0.74334867812E+02  0.74334867812E+02  0.00000000000E+00 0. -1.
         23    2    1    2    0    0  0.56556730464E+02 -0.51420939146E+02  0.19331256694E+03  0.22686796810E+03  0.90865558220E+02 0.  0.
         23    2    1    2    0    0 -0.10159275027E+02  0.17906026583E+02  0.10588921609E+03  0.13892180348E+03  0.87538018829E+02 0.  0.
        -11    1    3    3    0    0  0.38602430236E+02  0.11797090053E+02  0.28432237431E+02  0.49373181781E+02  0.00000000000E+00 0.  1.
         11    1    3    3    0    0  0.17954300228E+02 -0.63218029199E+02  0.16488032951E+03  0.17749478632E+03  0.00000000000E+00 0. -1.
        -11    1    4    4    0    0 -0.25231432248E+02  0.33544100627E+02  0.10916549102E+03  0.11695698478E+03  0.00000000000E+00 0.  1.
         11    1    4    4    0    0  0.15072157221E+02 -0.15638074044E+02 -0.32762749249E+01  0.21964818699E+02  0.00000000000E+00 0. -1.
          2    1    1    2  501    0 -0.46397455437E+02  0.33514912563E+02 -0.21085320980E+02  0.60996426092E+02  0.00000000000E+00 0. -1.
<scales pt_clust_5="13000.00000" pt_clust_6="13000.00000" pt_clust_7="13000.00000" pt_clust_8="13000.00000" pt_clust_9="57.23612"></scales>
<clustering>
<clus scale="   57.236">  2  9  1 -1</clus>
<clus scale="   87.538">  7  8 -1 -1</clus>
<clus scale="   90.866">  5  6 -1 -1</clus>
<clus scale="   99.780">  2  7  1 -1</clus>
<clus scale="   57.236">  2  5  1 -1</clus>
</clustering>
</event>
<event>
 9    1  0.1315259E-005  0.1137965E+03  0.7546771E-02  0.1256955E+00
         21   -1    0    0  501  502  0.00000000000E+00  0.00000000000E+00  0.39656390446E+02  0.39656390446E+02  0.00000000000E+00 0. -1.
         -3   -1    0    0    0  501 -0.00000000000E+00 -0.00000000000E+00 -0.44475850150E+03  0.44475850150E+03  0.00000000000E+00 0.  1.
         23    2    1    2    0    0  0.58175329948E+02 -0.17840728613E+02 -0.23556257745E+03  0.26293057178E+03  0.99700035464E+02 0.  0.
         23    2    1    2    0    0 -0.50530807998E+02 -0.86909495415E+01 -0.16177816547E+03  0.19280318530E+03  0.91498624461E+02 0.  0.
        -11    1    4    4    0    0  0.11498168093E+02 -0.17920873198E+02 -0.22737495161E+01  0.21413442100E+02  0.00000000000E+00 0. -1.
         11    1    4    4    0    0 -0.62028976091E+02  0.92299236568E+01 -0.15950441596E+03  0.17138974320E+03  0.00000000000E+00 0.  1.
        -13    1    3    3    0    0  0.19217955225E+02 -0.47184496600E+02 -0.18809352022E+03  0.19487144191E+03  0.00000000000E+00 0.  1.
         13    1    3    3    0    0  0.38957374723E+02  0.29343767988E+02 -0.47469057226E+02  0.68059129872E+02  0.00000000000E+00 0. -1.
         -3    1    1    2    0  502 -0.76445219502E+01  0.26531678154E+02 -0.77613681293E+01  0.28681134858E+02  0.00000000000E+00 0.  1.
<scales pt_clust_5="13000.00000" pt_clust_6="13000.00000" pt_clust_7="13000.00000" pt_clust_8="13000.00000" pt_clust_9="27.61102"></scales>
<clustering>
<clus scale="   27.611">  1  9  2 -1</clus>
<clus scale="   91.499">  5  6 -1 -1</clus>
<clus scale="   99.700">  7  8 -1 -1</clus>
<clus scale="  106.684">  1  5  2 -1</clus>
<clus scale="   27.611">  1  5  2 -1</clus>
</clustering>
</event>
<event>
 9    1  0.1315259E-005  0.1269342E+03  0.7546771E-02  0.1232287E+00
         21   -1    0    0  501  502  0.00000000000E+00  0.00000000000E+00  0.30552594192E+02  0.30552594192E+02  0.00000000000E+00 0. -1.
         -4   -1    0    0    0  501 -0.00000000000E+00 -0.00000000000E+00 -0.71008666188E+03  0.71008666188E+03  0.00000000000E+00 0.  1.
         23    2    1    2    0    0  0.86254761643E+02  0.43800752705E+02 -0.34703881728E+03  0.37032239552E+03  0.85699160320E+02 0.  0.
         23    2    1    2    0    0 -0.92700322865E+02 -0.92121467426E+01 -0.23491282045E+03  0.26658524744E+03  0.84884907000E+02 0.  0.
        -13    1    4    4    0    0 -0.26877582539E+02  0.32846692845E+02 -0.12293134457E+03  0.13005162495E+03  0.00000000000E+00 0.  1.
         13    1    4    4    0    0 -0.65822740327E+02 -0.42058839587E+02 -0.11198147587E+03  0.13653362249E+03  0.00000000000E+00 0. -1.
        -13    1    3    3    0    0  0.82037373055E+02  0.20313133375E+02 -0.33087970573E+03  0.34150275787E+03  0.00000000000E+00 0.  1.
         13    1    3    3    0    0  0.42173885877E+01  0.23487619330E+02 -0.16159111546E+02  0.28819637649E+02  0.00000000000E+00 0. -1.
         -4    1    1    2    0  502  0.64455612228E+01 -0.34588605962E+02 -0.97582429961E+02  0.10373161311E+03  0.00000000000E+00 0.  1.
<scales pt_clust_5="13000.00000" pt_clust_6="13000.00000" pt_clust_7="13000.00000" pt_clust_8="13000.00000" pt_clust_9="35.18406"></scales>
<clustering>
<clus scale="   35.184">  1  9  2 -1</clus>
<clus scale="   84.885">  5  6 -1 -1</clus>
<clus scale="   85.699">  7  8 -1 -1</clus>
<clus scale="  126.386">  1  5  2 -1</clus>
<clus scale="   35.184">  1  5  2 -1</clus>
</clustering>
</event>
<event>
 9    1  0.1315259E-005  0.3894160E+03  0.7546771E-02  0.1047575E+00
          2   -1    0    0  502    0 -0.00000000000E+00  0.00000000000E+00  0.13897306003E+04  0.13897306003E+04  0.00000000000E+00 0. -1.
         21   -1    0    0  501  502  0.00000000000E+00 -0.00000000000E+00 -0.17133133409E+03  0.17133133409E+03  0.00000000000E+00 0. -1.
         23    2    1    2    0    0  0.37654197415E+03  0.45150554156E+02  0.10402700613E+04  0.11109156549E+04  0.90273811932E+02 0.  0.
         23    2    1    2    0    0 -0.36883954140E+03 -0.63706445737E+02  0.18634776732E+03  0.42843929094E+03  0.93453823389E+02 0.  0.
        -11    1    4    4    0    0 -0.25503380368E+03 -0.37874899543E+00  0.11277077282E+03  0.27885414049E+03  0.00000000000E+00 0.  1.
         11    1    4    4    0    0 -0.11380573772E+03 -0.63327696741E+02  0.73576994509E+02  0.14958515044E+03  0.00000000000E+00 0. -1.
        -13    1    3    3    0    0  0.33471407655E+03  0.44630386909E+02  0.98711682177E+03  0.10432760921E+04  0.00000000000E+00 0. -1.
         13    1    3    3    0    0  0.41827897599E+02  0.52016724698E+00  0.53153239501E+02  0.67639562839E+02  0.00000000000E+00 0.  1.
          2    1    1    2  501    0 -0.77024327584E+01  0.18555891581E+02 -0.82185623977E+01  0.21706988521E+02  0.00000000000E+00 0. -1.
<scales pt_clust_5="13000.00000" pt_clust_6="13000.00000" pt_clust_7="13000.00000" pt_clust_8="13000.00000" pt_clust_9="20.09101"></scales>
<clustering>
<clus scale="   20.091">  2  9  1 -1</clus>
<clus scale="   90.274">  7  8 -1 -1</clus>
<clus scale="   93.454">  5  6 -1 -1</clus>
<clus scale="  388.665">  1  7  2 -1</clus>
<clus scale="   20.091">  2  5  1 -1</clus>
</clustering>
</event>
<event>
 9    1  0.1315259E-005  0.1118661E+03  0.7546771E-02  0.1259472E+00
         -3   -1    0    0    0  501 -0.00000000000E+00  0.00000000000E+00  0.82225565480E+02  0.82225565480E+02  0.00000000000E+00 0.  1.
         21   -1    0    0  501  502  0.00000000000E+00 -0.00000000000E+00 -0.29602618421E+03  0.29602618421E+03  0.00000000000E+00 0. -1.
         23    2    1    2    0    0 -0.22848772528E+02 -0.85474076772E+02 -0.88607487278E+02  0.15080042395E+03  0.84033308022E+02 0.  0.
         23    2    1    2    0    0 -0.37793604950E+02  0.44306789950E+02 -0.10761535675E+03  0.15207744688E+03  0.90305241429E+02 0.  0.
        -11    1    3    3    0    0  0.31021446862E+02 -0.27805657697E+02 -0.19909443805E+02  0.46172185545E+02  0.00000000000E+00 0.  1.
         11    1    3    3    0    0 -0.53870219390E+02 -0.57668419075E+02 -0.68698043473E+02  0.10462823841E+03  0.00000000000E+00 0. -1.
        -13    1    4    4    0    0  0.27762327995E+02  0.19990421431E+02 -0.18780366628E+02  0.39026477875E+02  0.00000000000E+00 0.  1.
         13    1    4    4    0    0 -0.65555932945E+02  0.24316368519E+02 -0.88834990126E+02  0.11305096901E+03  0.00000000000E+00 0. -1.
         -3    1    1    2    0  502  0.60642377478E+02  0.41167286822E+02 -0.17577774701E+02  0.75373878857E+02  0.00000000000E+00 0.  1.
<scales pt_clust_5="13000.00000" pt_clust_6="13000.00000" pt_clust_7="13000.00000" pt_clust_8="13000.00000" pt_clust_9="73.29563"></scales>
<clustering>
<clus scale="   73.296">  2  9  1 -1</clus>
<clus scale="   84.033">  5  6 -1 -1</clus>
<clus scale="   90.305">  7  8 -1 -1</clus>
<clus scale="  106.867">  1  5  2 -1</clus>
<clus scale="   73.296">  2  5  1 -1</clus>
</clustering>
</event>
<event>
 9    1  0.1315259E-005  0.1210557E+03  0.7546771E-02  0.1242580E+00
         21   -1    0    0  501  502  0.00000000000E+00  0.00000000000E+00  0.27158106987E+03  0.27158106987E+03  0.00000000000E+00 0. -1.
          2   -1    0    0  502    0 -0.00000000000E+00 -0.00000000000E+00 -0.59844741122E+03  0.59844741122E+03  0.00000000000E+00 0. -1.
         23    2    1    2    0    0 -0.65109740359E+02 -0.45006406685E+02 -0.56292389605E+03  0.57612591122E+03  0.93663749095E+02 0.  0.
         23    2    1    2    0    0  0.35175708095E+02  0.24015621609E+02  0.64533110010E+02  0.11852499300E+03  0.89830791812E+02 0.  0.
        -11    1    4    4    0    0  0.12594292568E+01  0.39739479663E+02 -0.45061989889E+01  0.40013975500E+02  0.00000000000E+00 0. -1.
         11    1    4    4    0    0  0.33916278838E+02 -0.15723858054E+02  0.69039308999E+02  0.78511017504E+02  0.00000000000E+00 0.  1.
        -13    1    3    3    0    0  0.82405059399E+01  0.19897561199E+02 -0.59860113098E+02  0.63616444571E+02  0.00000000000E+00 0.  1.
         13    1    3    3    0    0 -0.73350246299E+02 -0.64903967883E+02 -0.50306378295E+03  0.51250946664E+03  0.00000000000E+00 0. -1.
          2    1    1    2  501    0  0.29934032264E+02  0.20990785076E+02  0.17152444469E+03  0.17537757688E+03  0.00000000000E+00 0. -1.
<scales pt_clust_5="13000.00000" pt_clust_6="13000.00000" pt_clust_7="13000.00000" pt_clust_8="13000.00000" pt_clust_9="36.56035"></scales>
<clustering>
<clus scale="   36.560">  1  9  2 -1</clus>
<clus scale="   89.831">  5  6 -1 -1</clus>
<clus scale="   93.664">  7  8 -1 -1</clus>
<clus scale="  118.115">  1  5  2 -1</clus>
<clus scale="   36.560">  1  5  2 -1</clus>
</clustering>
</event>
<event>
 9    1  0.1315259E-005  0.1002717E+03  0.7546771E-02  0.1279759E+00
         -2   -1    0    0    0  501 -0.00000000000E+00  0.00000000000E+00  0.21923752403E+03  0.21923752403E+03  0.00000000000E+00 0.  1.
         21   -1    0    0  501  502  0.00000000000E+00 -0.00000000000E+00 -0.38333430946E+03  0.38333430946E+03  0.00000000000E+00 0.  1.
         23    2    1    2    0    0  0.10204766744E+01  0.44973595828E+02  0.17537638017E+03  0.20210821870E+03  0.89817546454E+02 0.  0.
         23    2    1    2    0    0  0.18079607162E+02 -0.29687021906E+02 -0.35737950306E+03  0.37014646674E+03  0.89889410778E+02 0.  0.
        -13    1    3    3    0    0 -0.22459385695E+01 -0.27084020527E+02  0.62496995948E+02  0.68150296481E+02  0.00000000000E+00 0. -1.
         13    1    3    3    0    0  0.32664152440E+01  0.72057616355E+02  0.11287938422E+03  0.13395792222E+03  0.00000000000E+00 0.  1.
        -13    1    4    4    0    0  0.18003456256E+02  0.29324059876E+02 -0.90503690278E+02  0.96824288681E+02  0.00000000000E+00 0.  1.
         13    1    4    4    0    0  0.76150906232E-01 -0.59011081782E+02 -0.26687581278E+03  0.27332217806E+03  0.00000000000E+00 0. -1.
         -2    1    1    2    0  502 -0.19100083836E+02 -0.15286573922E+02  0.17906337464E+02  0.30317148055E+02  0.00000000000E+00 0.  1.
<scales pt_clust_5="13000.00000" pt_clust_6="13000.00000" pt_clust_7="13000.00000" pt_clust_8="13000.00000" pt_clust_9="24.46412"></scales>
<clustering>
<clus scale="   24.464">  2  9  1 -1</clus>
<clus scale="   89.818">  5  6 -1 -1</clus>
<clus scale="   89.889">  7  8 -1 -1</clus>
<clus scale="  100.207">  1  5  2 -1</clus>
<clus scale="   24.464">  2  5  1 -1</clus>
</clustering>
</event>
<event>
 9    1  0.1315259E-005  0.9815735E+02  0.7546771E-02  0.1284884E+00
          3   -1    0    0  502    0 -0.00000000000E+00  0.00000000000E+00  0.31329539446E+03  0.31329539446E+03  0.00000000000E+00 0. -1.
         21   -1    0    0  501  502  0.00000000000E+00 -0.00000000000E+00 -0.61889935602E+02  0.61889935602E+02  0.00000000000E+00 0. -1.
         23    2    1    2    0    0 -0.93786519594E+01 -0.19889646204E+02  0.20841567828E+03  0.22930059005E+03  0.93048957582E+02 0.  0.
         23    2    1    2    0    0  0.40365071598E+02  0.29760307368E+02  0.34727689024E+02  0.11233104706E+03  0.94325165508E+02 0.  0.
        -13    1    3    3    0    0  0.29357527850E+02  0.22732656372E+02  0.66887997538E+02  0.76502564152E+02  0.00000000000E+00 0.  1.
         13    1    3    3    0    0 -0.38736179809E+02 -0.42622302576E+02  0.14152768074E+03  0.15279802590E+03  0.00000000000E+00 0. -1.
        -13    1    4    4    0    0  0.63620812129E+02  0.91309168658E+00  0.39621538623E+02  0.74955372024E+02  0.00000000000E+00 0. -1.
         13    1    4    4    0    0 -0.23255740531E+02  0.28847215681E+02 -0.48938495992E+01  0.37375675032E+02  0.00000000000E+00 0.  1.
          3    1    1    2  501    0 -0.30986419638E+02 -0.98706611639E+01  0.82620915518E+01  0.33553692951E+02  0.00000000000E+00 0. -1.
<scales pt_clust_5="13000.00000" pt_clust_6="13000.00000" pt_clust_7="13000.00000" pt_clust_8="13000.00000" pt_clust_9="32.52058"></scales>
<clustering>
<clus scale="   32.521">  2  9  1 -1</clus>
<clus scale="   93.049">  5  6 -1 -1</clus>
<clus scale="   94.325">  7  8 -1 -1</clus>
<clus scale="   96.932">  1  5  2 -1</clus>
<clus scale="   32.521">  2  5  1 -1</clus>
</clustering>
</event>
<event>
 9    1  0.1315259E-005  0.3521182E+03  0.7546771E-02  0.1061923E+00
         21   -1    0    0  501  502  0.00000000000E+00  0.00000000000E+00  0.29542873851E+03  0.29542873851E+03  0.00000000000E+00 0.  1.
          2   -1    0    0  502    0 -0.00000000000E+00 -0.00000000000E+00 -0.70604483413E+03  0.70604483413E+03  0.00000000000E+00 0. -1.
         23    2    1    2    0    0 -0.21681030168E+01 -0.34451293329E+03 -0.32084981904E+03  0.47944679275E+03  0.90723529636E+02 0.  0.
         23    2    1    2    0    0 -0.17580383710E+02  0.33085315223E+03 -0.20686759354E+03  0.40248887468E+03  0.97109292800E+02 0.  0.
        -13    1    4    4    0    0  0.96430558446E+01  0.34062936137E+02 -0.61334928470E+02  0.70818398702E+02  0.00000000000E+00 0.  1.
         13    1    4    4    0    0 -0.27223439555E+02  0.29679021609E+03 -0.14553266507E+03  0.33167047597E+03  0.00000000000E+00 0. -1.
        -13    1    3    3    0    0 -0.15591613925E+01 -0.20999265631E+03 -0.25295092506E+03  0.32876057729E+03  0.00000000000E+00 0.  1.
         13    1    3    3    0    0 -0.60894162428E+00 -0.13452027698E+03 -0.67898893980E+02  0.15068621547E+03  0.00000000000E+00 0. -1.
          2    1    1    2  501    0  0.19748486727E+02  0.13659781062E+02  0.11710131696E+03  0.11953790520E+03  0.00000000000E+00 0. -1.
<scales pt_clust_5="13000.00000" pt_clust_6="13000.00000" pt_clust_7="13000.00000" pt_clust_8="13000.00000" pt_clust_9="24.01234"></scales>
<clustering>
<clus scale="   24.012">  1  9  2 -1</clus>
<clus scale="   90.724">  7  8 -1 -1</clus>
<clus scale="   97.109">  5  6 -1 -1</clus>
<clus scale="  350.411">  2  7  1 -1</clus>
<clus scale="   24.012">  1  5  2 -1</clus>
</clustering>
</event>
<event>
 9    1  0.1315259E-005  0.1107954E+03  0.7546771E-02  0.1259879E+00
         21   -1    0    0  501  502  0.00000000000E+00  0.00000000000E+00  0.17167398796E+03  0.17167398796E+03  0.00000000000E+00 0.  1.
          1   -1    0    0  502    0 -0.00000000000E+00 -0.00000000000E+00 -0.16582249036E+03  0.16582249036E+03  0.00000000000E+00 0. -1.
         23    2    1    2    0    0  0.36437987709E+02  0.34536589802E+02 -0.80525429575E+02  0.13209415834E+03  0.91891342771E+02 0.  0.
         23    2    1    2    0    0 -0.72676880695E+02 -0.66041992224E+02  0.78017269884E+02  0.15666084260E+03  0.93874658347E+02 0.  0.
        -11    1    4    4    0    0 -0.43264081651E+01 -0.34036212530E+02 -0.14513547075E+02  0.37253518219E+02  0.00000000000E+00 0. -1.
         11    1    4    4    0    0 -0.68350472530E+02 -0.32005779693E+02  0.92530816959E+02  0.11940732438E+03  0.00000000000E+00 0.  1.
        -11    1    3    3    0    0 -0.30194669634E+02  0.20352303449E+02 -0.31701474550E+02  0.48279579728E+02  0.00000000000E+00 0.  1.
         11    1    3    3    0    0  0.66632657343E+02  0.14184286353E+02 -0.48823955025E+02  0.83814578614E+02  0.00000000000E+00 0. -1.
          1    1    1    2  501    0  0.36238892986E+02  0.31505402421E+02  0.83596572964E+01  0.48741477375E+02  0.00000000000E+00 0. -1.
<scales pt_clust_5="13000.00000" pt_clust_6="13000.00000" pt_clust_7="13000.00000" pt_clust_8="13000.00000" pt_clust_9="48.01924"></scales>
<clustering>
<clus scale="   48.019">  1  9  2 -1</clus>
<clus scale="   91.891">  7  8 -1 -1</clus>
<clus scale="   93.875">  5  6 -1 -1</clus>
<clus scale="  109.120">  2  7  1 -1</clus>
<clus scale="   48.019">  1  5  2 -1</clus>
</clustering>
</event>
<event>
 9    1  0.1315259E-005  0.1113768E+03  0.7546771E-02  0.1267138E+00
          2   -1    0    0  502    0 -0.00000000000E+00  0.00000000000E+00  0.17656785166E+03  0.17656785166E+03  0.00000000000E+00 0. -1.
         21   -1    0    0  501  502  0.00000000000E+00 -0.00000000000E+00 -0.28837881579E+03  0.28837881579E+03  0.00000000000E+00 0. -1.
         23    2    1    2    0    0  0.11123925278E+02 -0.11800744355E+02  0.14376019413E+03  0.18204359536E+03  0.11049831635E+03 0.  0.
         23    2    1    2    0    0 -0.99818761707E+00 -0.13456013252E+02 -0.18175707356E+03  0.20423317017E+03  0.92160150476E+02 0.  0.
        -11    1    4    4    0    0  0.16481320162E+02  0.20213086503E+02 -0.15650021642E+03  0.15865850282E+03  0.00000000000E+00 0.  1.
         11    1    4    4    0    0 -0.17479507779E+02 -0.33669099755E+02 -0.25256857145E+02  0.45574667342E+02  0.00000000000E+00 0. -1.
        -11    1    3    3    0    0 -0.46790097748E+02  0.13100032243E+02  0.59819933143E+02  0.77067168712E+02  0.00000000000E+00 0.  1.
         11    1    3    3    0    0  0.57914023026E+02 -0.24900776598E+02  0.83940260987E+02  0.10497642665E+03  0.00000000000E+00 0. -1.
          2    1    1    2  501    0 -0.10125737661E+02  0.25256757607E+02 -0.73814084700E+02  0.78669901919E+02  0.00000000000E+00 0. -1.
<scales pt_clust_5="13000.00000" pt_clust_6="13000.00000" pt_clust_7="13000.00000" pt_clust_8="13000.00000" pt_clust_9="27.21092"></scales>
<clustering>
<clus scale="   27.211">  2  9  1 -1</clus>
<clus scale="   92.160">  5  6 -1 -1</clus>
<clus scale="   93.212">  2  5  1 -1</clus>
<clus scale="  110.498">  7  8 -1 -1</clus>
<clus scale="   27.211">  2  5  1 -1</clus>
</clustering>
</event>
<event>
 9    1  0.1315259E-005  0.9217195E+02  0.7546771E-02  0.1299446E+00
          1   -1    0    0  502    0 -0.00000000000E+00  0.00000000000E+00  0.23250429770E+03  0.23250429770E+03  0.00000000000E+00 0. -1.
         21   -1    0    0  501  502  0.00000000000E+00 -0.00000000000E+00 -0.10287126147E+03  0.10287126147E+03  0.00000000000E+00 0. -1.
         23    2    1    2    0    0  0.10605448239E+02  0.10292031395E+02  0.14171110173E+03  0.16782989964E+03  0.88692938933E+02 0.  0.
         23    2    1    2    0    0 -0.67829394307E+01  0.18612450620E+02  0.44563480704E+02  0.10384051523E+03  0.91676153966E+02 0.  0.
        -11    1    4    4    0    0 -0.16081254291E+02 -0.16773559163E+02 -0.19321435394E+02  0.30220471410E+02  0.00000000000E+00 0. -1.
         11    1    4    4    0    0  0.92983148600E+01  0.35386009783E+02  0.63884916099E+02  0.73620043823E+02  0.00000000000E+00 0.  1.
        -13    1    3    3    0    0 -0.33735261710E+02 -0.14438734094E+02  0.79278425272E+02  0.87359107358E+02  0.00000000000E+00 0.  1.
         13    1    3    3    0    0  0.44340709949E+02  0.24730765489E+02  0.62432676461E+02  0.80470792282E+02  0.00000000000E+00 0. -1.
          1    1    1    2  501    0 -0.38225088085E+01 -0.28904482015E+02 -0.56641546201E+02  0.63705144299E+02  0.00000000000E+00 0. -1.
<scales pt_clust_5="13000.00000" pt_clust_6="13000.00000" pt_clust_7="13000.00000" pt_clust_8="13000.00000" pt_clust_9="29.15614"></scales>
<clustering>
<clus scale="   29.156">  2  9  1 -1</clus>
<clus scale="   88.693">  7  8 -1 -1</clus>
<clus scale="   89.205">  1  7  2 -1</clus>
<clus scale="   91.676">  5  6 -1 -1</clus>
<clus scale="   29.156">  2  5  1 -1</clus>
</clustering>
</event>
<event>
 9    1  0.1315259E-005  0.9758336E+02  0.7546771E-02  0.1287320E+00
         21   -1    0    0  501  502  0.00000000000E+00  0.00000000000E+00  0.12176949080E+03  0.12176949080E+03  0.00000000000E+00 0.  1.
          1   -1    0    0  502    0 -0.00000000000E+00 -0.00000000000E+00 -0.27994468753E+03  0.27994468753E+03  0.00000000000E+00 0. -1.
         23    2    1    2    0    0 -0.10037679651E+02  0.13855227796E+02 -0.21266742272E+03  0.23383142506E+03  0.95692112036E+02 0.  0.
         23    2    1    2    0    0 -0.22200386593E+01 -0.32668403376E+02 -0.11122008260E+02  0.98532807566E+02  0.92265171914E+02 0.  0.
        -11    1    4    4    0    0  0.89326461736E+01 -0.59535499188E+02 -0.26329365800E+02  0.65707711379E+02  0.00000000000E+00 0.  1.
         11    1    4    4    0    0 -0.11152684833E+02  0.26867095812E+02  0.15207357540E+02  0.32825096187E+02  0.00000000000E+00 0. -1.
        -13    1    3    3    0    0 -0.51911862041E+02  0.90594725990E+01 -0.14307393327E+03  0.15246988505E+03  0.00000000000E+00 0. -1.
         13    1    3    3    0    0  0.41874182389E+02  0.47957551968E+01 -0.69593489451E+02  0.81361540009E+02  0.00000000000E+00 0.  1.
          1    1    1    2  501    0  0.12257718311E+02  0.18813175580E+02  0.65614234250E+02  0.69349945709E+02  0.00000000000E+00 0. -1.
<scales pt_clust_5="13000.00000" pt_clust_6="13000.00000" pt_clust_7="13000.00000" pt_clust_8="13000.00000" pt_clust_9="22.45411"></scales>
<clustering>
<clus scale="   22.454">  1  9  2 -1</clus>
<clus scale="   92.265">  5  6 -1 -1</clus>
<clus scale="   94.225">  1  5  2 -1</clus>
<clus scale="   95.692">  7  8 -1 -1</clus>
<clus scale="   22.454">  1  5  2 -1</clus>
</clustering>
</event>
<event>
 9    1  0.1315259E-005  0.9729135E+02  0.7546771E-02  0.1287815E+00
          2   -1    0    0  502    0 -0.00000000000E+00  0.00000000000E+00  0.23742093641E+03  0.23742093641E+03  0.00000000000E+00 0. -1.
         21   -1    0    0  501  502  0.00000000000E+00 -0.00000000000E+00 -0.12495430581E+03  0.12495430581E+03  0.00000000000E+00 0.  1.
         23    2    1    2    0    0 -0.30716398370E+02 -0.27254858283E+02  0.18873966987E+03  0.21329639609E+03  0.90478534313E+02 0.  0.
         23    2    1    2    0    0  0.78608425425E+01  0.54986089917E+01 -0.29189850321E+02  0.92399595095E+02  0.87141323525E+02 0.  0.
        -11    1    4    4    0    0 -0.11748385606E+02 -0.19462065229E+02 -0.49669235495E+02  0.54624440519E+02  0.00000000000E+00 0.  1.
         11    1    4    4    0    0  0.19609228148E+02  0.24960674221E+02  0.20479385174E+02  0.37775154576E+02  0.00000000000E+00 0. -1.
        -11    1    3    3    0    0  0.10514869817E+02  0.28071405172E+02  0.48821890634E+02  0.57289992849E+02  0.00000000000E+00 0.  1.
         11    1    3    3    0    0 -0.41231268187E+02 -0.55326263455E+02  0.13991777924E+03  0.15600640324E+03  0.00000000000E+00 0. -1.
          2    1    1    2  501    0  0.22855555827E+02  0.21756249291E+02 -0.47083188954E+02  0.56679251031E+02  0.00000000000E+00 0. -1.
<scales pt_clust_5="13000.00000" pt_clust_6="13000.00000" pt_clust_7="13000.00000" pt_clust_8="13000.00000" pt_clust_9="31.55489"></scales>
<clustering>
<clus scale="   31.555">  2  9  1 -1</clus>
<clus scale="   87.141">  5  6 -1 -1</clus>
<clus scale="   90.479">  7  8 -1 -1</clus>
<clus scale="   94.196">  2  5  1 -1</clus>
<clus scale="   31.555">  2  5  1 -1</clus>
</clustering>
</event>
<event>
 9    1  0.1315259E-005  0.1031289E+03  0.7546771E-02  0.1284296E+00
         21   -1    0    0  501  502  0.00000000000E+00  0.00000000000E+00  0.19416459853E+03  0.19416459853E+03  0.00000000000E+00 0. -1.
          1   -1    0    0  502    0 -0.00000000000E+00 -0.00000000000E+00 -0.20502294925E+03  0.20502294925E+03  0.00000000000E+00 0. -1.
         23    2    1    2    0    0  0.38517882319E+01 -0.29328197784E+01 -0.77485969893E+02  0.11414376056E+03  0.83673680694E+02 0.  0.
         23    2    1    2    0    0  0.18914925030E+02  0.21370601172E+02 -0.81540498140E+02  0.13400714927E+03  0.10244308779E+03 0.  0.
        -11    1    3    3    0    0 -0.26172290643E+02  0.45285261443E+01 -0.78822680375E+02  0.83177588857E+02  0.00000000000E+00 0. -1.
         11    1    3    3    0    0  0.30024078875E+02 -0.74613459227E+01  0.13367104812E+01  0.30966171707E+02  0.00000000000E+00 0.  1.
        -11    1    4    4    0    0 -0.70027067697E+00 -0.34389998724E+02 -0.63478809765E+02  0.72199180608E+02  0.00000000000E+00 0.  1.
         11    1    4    4    0    0  0.19615195706E+02  0.55760599896E+02 -0.18061688375E+02  0.61807968663E+02  0.00000000000E+00 0. -1.
          1    1    1    2  501    0 -0.22766713261E+02 -0.18437781393E+02  0.14816811731E+03  0.15103663795E+03  0.00000000000E+00 0. -1.
<scales pt_clust_5="13000.00000" pt_clust_6="13000.00000" pt_clust_7="13000.00000" pt_clust_8="13000.00000" pt_clust_9="29.29633"></scales>
<clustering>
<clus scale="   29.296">  1  9  2 -1</clus>
<clus scale="   83.674">  5  6 -1 -1</clus>
<clus scale="   84.512">  2  5  1 -1</clus>
<clus scale="  102.443">  7  8 -1 -1</clus>
<clus scale="   29.296">  1  5  2 -1</clus>
</clustering>
</event>
<event>
 9    1  0.1315259E-005  0.1101530E+03  0.7546771E-02  0.1260686E+00
         -3   -1    0    0    0  501 -0.00000000000E+00  0.00000000000E+00  0.12409922564E+03  0.12409922564E+03  0.00000000000E+00 0.  1.
         21   -1    0    0  501  502  0.00000000000E+00 -0.00000000000E+00 -0.21712301886E+03  0.21712301886E+03  0.00000000000E+00 0.  1.
         23    2    1    2    0    0  0.41366936243E+02  0.21983165030E+02  0.22152807012E+02  0.10396748655E+03  0.90133281544E+02 0.  0.
         23    2    1    2    0    0 -0.74938152321E+02 -0.44996839762E+02 -0.12641480234E+02  0.12693655181E+03  0.91173674391E+02 0.  0.
        -11    1    3    3    0    0  0.11232055453E+02 -0.35131449150E+02  0.10487177272E+02  0.38345256242E+02  0.00000000000E+00 0. -1.
         11    1    3    3    0    0  0.30134880790E+02  0.57114614181E+02  0.11665629740E+02  0.65622230307E+02  0.00000000000E+00 0.  1.
        -13    1    4    4    0    0 -0.56350008385E+02 -0.55886708380E+02  0.25305510102E+02  0.83300759061E+02  0.00000000000E+00 0.  1.
         13    1    4    4    0    0 -0.18588143936E+02  0.10889868619E+02 -0.37946990336E+02  0.43635792752E+02  0.00000000000E+00 0. -1.
         -3    1    1    2    0  502  0.33571216078E+02  0.23013674731E+02 -0.10253511999E+03  0.11031820614E+03  0.00000000000E+00 0.  1.
<scales pt_clust_5="13000.00000" pt_clust_6="13000.00000" pt_clust_7="13000.00000" pt_clust_8="13000.00000" pt_clust_9="40.70204"></scales>
<clustering>
<clus scale="   40.702">  2  9  1 -1</clus>
<clus scale="   90.133">  5  6 -1 -1</clus>
<clus scale="   91.174">  7  8 -1 -1</clus>
<clus scale="  109.293">  1  5  2 -1</clus>
<clus scale="   40.702">  2  5  1 -1</clus>
</clustering>
</event>
<event>
 9    1  0.1315259E-005  0.9923323E+02  0.7546771E-02  0.1281976E+00
          1   -1    0    0  502    0 -0.00000000000E+00  0.00000000000E+00  0.41555274294E+03  0.41555274294E+03  0.00000000000E+00 0. -1.
         21   -1    0    0  501  502  0.00000000000E+00 -0.00000000000E+00 -0.21382180044E+03  0.21382180044E+03  0.00000000000E+00 0. -1.
         23    2    1    2    0    0 -0.47258664963E+02 -0.20136803557E+01  0.36765399290E+03  0.38153627405E+03  0.90349507997E+02 0.  0.
         23    2    1    2    0    0 -0.32535281827E+02 -0.30960911336E+01 -0.53463106431E+02  0.10985123116E+03  0.90226708317E+02 0.  0.
        -13    1    3    3    0    0 -0.57125839763E+01  0.41452709739E+02  0.14824736609E+03  0.15403974264E+03  0.00000000000E+00 0.  1.
         13    1    3    3    0    0 -0.41546080987E+02 -0.43466390095E+02  0.21940662681E+03  0.22749653140E+03  0.00000000000E+00 0. -1.
        -13    1    4    4    0    0 -0.42681477243E+02 -0.20574851069E+02  0.53307811525E+01  0.47680711234E+02  0.00000000000E+00 0. -1.
         13    1    4    4    0    0  0.10146195416E+02  0.17478759936E+02 -0.58793887583E+02  0.62170519923E+02  0.00000000000E+00 0.  1.
          1    1    1    2  501    0  0.79793946790E+02  0.51097714892E+01 -0.11245994397E+03  0.13798703818E+03  0.00000000000E+00 0. -1.
<scales pt_clust_5="13000.00000" pt_clust_6="13000.00000" pt_clust_7="13000.00000" pt_clust_8="13000.00000" pt_clust_9="79.95739"></scales>
<clustering>
<clus scale="   79.957">  2  9  1 -1</clus>
<clus scale="   90.227">  7  8 -1 -1</clus>
<clus scale="   90.350">  5  6 -1 -1</clus>
<clus scale="   99.121">  2  7  1 -1</clus>
<clus scale="   79.957">  2  5  1 -1</clus>
</clustering>
</event>
<event>
 9    1  0.1315259E-005  0.1761678E+03  0.7546771E-02  0.1171568E+00
         21   -1    0    0  501  502  0.00000000000E+00  0.00000000000E+00  0.60868696471E+02  0.60868696471E+02  0.00000000000E+00 0.  1.
          2   -1    0    0  502    0 -0.00000000000E+00 -0.00000000000E+00 -0.60157118650E+03  0.60157118650E+03  0.00000000000E+00 0. -1.
         23    2    1    2    0    0 -0.12379408557E+03  0.60669165928E+02 -0.21069365763E+03  0.26750572778E+03  0.90342535453E+02 0.  0.
         23    2    1    2    0    0  0.14471066625E+03 -0.79324717346E+02 -0.27488509891E+03  0.33309437075E+03  0.90313091594E+02 0.  0.
        -11    1    4    4    0    0  0.13948774329E+03 -0.37443782049E+02 -0.19396467468E+03  0.24182878730E+03  0.00000000000E+00 0.  1.
         11    1    4    4    0    0  0.52229229667E+01 -0.41880935297E+02 -0.80920424229E+02  0.91265583453E+02  0.00000000000E+00 0. -1.
        -13    1    3    3    0    0 -0.33901553321E+02  0.66086833549E+02 -0.84981027152E+02  0.11286522875E+03  0.00000000000E+00 0.  1.
         13    1    3    3    0    0 -0.89892532246E+02 -0.54176676201E+01 -0.12571263048E+03  0.15464049903E+03  0.00000000000E+00 0. -1.
          2    1    1    2  501    0 -0.20916580686E+02  0.18655551417E+02 -0.55123733485E+02  0.61839784440E+02  0.00000000000E+00 0. -1.
<scales pt_clust_5="13000.00000" pt_clust_6="13000.00000" pt_clust_7="13000.00000" pt_clust_8="13000.00000" pt_clust_9="28.02737"></scales>
<clustering>
<clus scale="   28.027">  1  9  2 -1</clus>
<clus scale="   90.313">  5  6 -1 -1</clus>
<clus scale="   90.343">  7  8 -1 -1</clus>
<clus scale="  176.153">  1  5  2 -1</clus>
<clus scale="   28.027">  1  5  2 -1</clus>
</clustering>
</event>
<event>
 9    1  0.1315259E-005  0.1181901E+03  0.7546771E-02  0.1246513E+00
          1   -1    0    0  502    0 -0.00000000000E+00  0.00000000000E+00  0.38260614541E+03  0.38260614541E+03  0.00000000000E+00 0. -1.
         21   -1    0    0  501  502  0.00000000000E+00 -0.00000000000E+00 -0.46075314617E+02  0.46075314617E+02  0.00000000000E+00 0.  1.
         23    2    1    2    0    0 -0.61117523901E+02 -0.51837218118E+02  0.19209221021E+03  0.22759603024E+03  0.92076527132E+02 0.  0.
         23    2    1    2    0    0  0.59419848161E+02  0.25604453432E+02  0.12009252585E+03  0.16525566039E+03  0.93278679960E+02 0.  0.
        -11    1    3    3    0    0 -0.17290978387E+02  0.20485901326E+02  0.95617178940E+02  0.99304053267E+02  0.00000000000E+00 0. -1.
         11    1    3    3    0    0 -0.43826545514E+02 -0.72323119444E+02  0.96475031272E+02  0.12829197698E+03  0.00000000000E+00 0.  1.
        -13    1    4    4    0    0  0.57352149430E+02 -0.17823992176E+02  0.34521025856E+02  0.69272396865E+02  0.00000000000E+00 0. -1.
         13    1    4    4    0    0  0.20676987317E+01  0.43428445608E+02  0.85571499990E+02  0.95983263523E+02  0.00000000000E+00 0.  1.
          1    1    1    2  501    0  0.16976757398E+01  0.26232764686E+02  0.24346094733E+02  0.35829769393E+02  0.00000000000E+00 0. -1.
<scales pt_clust_5="13000.00000" pt_clust_6="13000.00000" pt_clust_7="13000.00000" pt_clust_8="13000.00000" pt_clust_9="26.28764"></scales>
<clustering>
<clus scale="   26.288">  2  9  1 -1</clus>
<clus scale="   92.077">  5  6 -1 -1</clus>
<clus scale="   93.279">  7  8 -1 -1</clus>
<clus scale="  117.244">  1  5  2 -1</clus>
<clus scale="   26.288">  2  5  1 -1</clus>
</clustering>
</event>
<event>
 9    1  0.1315259E-005  0.9352065E+02  0.7546771E-02  0.1295932E+00
         21   -1    0    0  501  502  0.00000000000E+00  0.00000000000E+00  0.62050417698E+02  0.62050417698E+02  0.00000000000E+00 0.  1.
         -1   -1    0    0    0  501 -0.00000000000E+00 -0.00000000000E+00 -0.31367051402E+03  0.31367051402E+03  0.00000000000E+00 0.  1.
         23    2    1    2    0    0  0.20420416991E+02 -0.11255476433E+02 -0.19002678129E+03  0.21178271198E+03  0.90543140597E+02 0.  0.
         23    2    1    2    0    0  0.28976868958E+02  0.11588466541E+00 -0.57662427962E+02  0.11314811994E+03  0.92940137095E+02 0.  0.
        -13    1    3    3    0    0  0.40306695963E+02 -0.40452780952E+02 -0.10139275677E+03  0.11636815866E+03  0.00000000000E+00 0.  1.
         13    1    3    3    0    0 -0.19886278972E+02  0.29197304519E+02 -0.88634024519E+02  0.95414553318E+02  0.00000000000E+00 0. -1.
        -13    1    4    4    0    0 -0.34017794590E+02 -0.33129407995E+01 -0.18006791870E+02  0.38631987769E+02  0.00000000000E+00 0. -1.
         13    1    4    4    0    0  0.62994663548E+02  0.34288254649E+01 -0.39655636092E+02  0.74516132169E+02  0.00000000000E+00 0.  1.
         -1    1    1    2    0  502 -0.49397285948E+02  0.11139591768E+02 -0.39308870706E+01  0.50790099793E+02  0.00000000000E+00 0.  1.
<scales pt_clust_5="13000.00000" pt_clust_6="13000.00000" pt_clust_7="13000.00000" pt_clust_8="13000.00000" pt_clust_9="50.63776"></scales>
<clustering>
<clus scale="   50.638">  1  9  2 -1</clus>
<clus scale="   90.543">  5  6 -1 -1</clus>
<clus scale="   91.139">  2  5  1 -1</clus>
<clus scale="   92.940">  7  8 -1 -1</clus>
<clus scale="   50.638">  1  5  2 -1</clus>
</clustering>
</event>
<event>
 9    1  0.1315259E-005  0.1062824E+03  0.7546771E-02  0.1267640E+00
         -1   -1    0    0    0  501 -0.00000000000E+00  0.00000000000E+00  0.17264096709E+03  0.17264096709E+03  0.00000000000E+00 0.  1.
         21   -1    0    0  501  502  0.00000000000E+00 -0.00000000000E+00 -0.33248392757E+03  0.33248392757E+03  0.00000000000E+00 0. -1.
         23    2    1    2    0    0  0.15193119599E+02 -0.52322375321E+02  0.13908284052E+03  0.17469489035E+03  0.90585905890E+02 0.  0.
         23    2    1    2    0    0 -0.36574446640E+02  0.63315945056E+02 -0.23774024457E+03  0.26469042692E+03  0.90520711270E+02 0.  0.
        -11    1    4    4    0    0 -0.65285939137E+02  0.42537925111E+02 -0.18895019121E+03  0.20438665240E+03  0.00000000000E+00 0.  1.
         11    1    4    4    0    0  0.28711492496E+02  0.20778019944E+02 -0.48790053365E+02  0.60303774521E+02  0.00000000000E+00 0. -1.
        -13    1    3    3    0    0 -0.12087326624E+02 -0.23260159621E+02  0.13154104081E+03  0.13412749124E+03  0.00000000000E+00 0.  1.
         13    1    3    3    0    0  0.27280446224E+02 -0.29062215700E+02  0.75417997108E+01  0.40567399108E+02  0.00000000000E+00 0. -1.
         -1    1    1    2    0  502  0.21381327041E+02 -0.10993569735E+02 -0.61185556415E+02  0.65739577390E+02  0.00000000000E+00 0.  1.
<scales pt_clust_5="13000.00000" pt_clust_6="13000.00000" pt_clust_7="13000.00000" pt_clust_8="13000.00000" pt_clust_9="24.04204"></scales>
<clustering>
<clus scale="   24.042">  2  9  1 -1</clus>
<clus scale="   90.521">  5  6 -1 -1</clus>
<clus scale="   90.586">  7  8 -1 -1</clus>
<clus scale="  106.227">  2  5  1 -1</clus>
<clus scale="   24.042">  2  5  1 -1</clus>
</clustering>
</event>
<event>
 9    1  0.1315259E-005  0.1180965E+03  0.7546771E-02  0.1247302E+00
          1   -1    0    0  502    0 -0.00000000000E+00  0.00000000000E+00  0.44920091989E+03  0.44920091989E+03  0.00000000000E+00 0. -1.
         21   -1    0    0  501  502  0.00000000000E+00 -0.00000000000E+00 -0.18532331452E+03  0.18532331452E+03  0.00000000000E+00 0. -1.
         23    2    1    2    0    0  0.23902242690E+02  0.69564907887E+02  0.36054558434E+03  0.37803193465E+03  0.86628122551E+02 0.  0.
         23    2    1    2    0    0  0.12874196438E+02 -0.10976762636E+03  0.34949113031E+01  0.14246875116E+03  0.89835705163E+02 0.  0.
        -13    1    3    3    0    0 -0.28782012653E+02  0.64715988347E+01  0.12897371254E+03  0.13230458938E+03  0.00000000000E+00 0.  1.
         13    1    3    3    0    0  0.52684255343E+02  0.63093309053E+02  0.23157187179E+03  0.24572734527E+03  0.00000000000E+00 0. -1.
        -13    1    4    4    0    0  0.33804382904E+02 -0.63946646192E+02 -0.33751975118E+02  0.79819206255E+02  0.00000000000E+00 0.  1.
         13    1    4    4    0    0 -0.20930186466E+02 -0.45820980170E+02  0.37246886421E+02  0.62649544909E+02  0.00000000000E+00 0. -1.
          1    1    1    2  501    0 -0.36776439128E+02  0.40202718475E+02 -0.10016289027E+03  0.11402354860E+03  0.00000000000E+00 0. -1.
<scales pt_clust_5="13000.00000" pt_clust_6="13000.00000" pt_clust_7="13000.00000" pt_clust_8="13000.00000" pt_clust_9="54.48637"></scales>
<clustering>
<clus scale="   54.486">  2  9  1 -1</clus>
<clus scale="   86.628">  5  6 -1 -1</clus>
<clus scale="   89.836">  7  8 -1 -1</clus>
<clus scale="  115.675">  1  5  2 -1</clus>
<clus scale="   54.486">  2  5  1 -1</clus>
</clustering>
</event>
<event>
 9    1  0.1315259E-005  0.1507141E+03  0.7546771E-02  0.1220048E+00
         -1   -1    0    0    0  501 -0.00000000000E+00  0.00000000000E+00  0.60969591574E+03  0.60969591574E+03  0.00000000000E+00 0.  1.
         21   -1    0    0  501  502  0.00000000000E+00 -0.00000000000E+00 -0.71634983502E+02  0.71634983502E+02  0.00000000000E+00 0. -1.
         23    2    1    2    0    0 -0.18738235883E+02 -0.44795771479E+02  0.18675311978E+03  0.21061418865E+03  0.84402761122E+02 0.  0.
         23    2    1    2    0    0  0.32775744655E+02  0.15424946605E+03  0.29580751846E+03  0.34719567780E+03  0.90419043865E+02 0.  0.
        -11    1    3    3    0    0  0.99142020732E+01 -0.20167825557E+02  0.25972926739E+01  0.22622522399E+02  0.00000000000E+00 0. -1.
         11    1    3    3    0    0 -0.28652437957E+02 -0.24627945921E+02  0.18415582711E+03  0.18799166625E+03  0.00000000000E+00 0.  1.
        -11    1    4    4    0    0 -0.26608325777E+02  0.16310978015E+02  0.59889723856E+02  0.67533917612E+02  0.00000000000E+00 0.  1.
         11    1    4    4    0    0  0.59384070432E+02  0.13793848804E+03  0.23591779460E+03  0.27966176019E+03  0.00000000000E+00 0. -1.
         -1    1    1    2    0  502 -0.14037508772E+02 -0.10945369457E+03  0.55500293997E+02  0.12352103279E+03  0.00000000000E+00 0.  1.
<scales pt_clust_5="13000.00000" pt_clust_6="13000.00000" pt_clust_7="13000.00000" pt_clust_8="13000.00000" pt_clust_9="120.57838"></scales>
<clustering>
<clus scale="   84.403">  5  6 -1 -1</clus>
<clus scale="   90.419">  7  8 -1 -1</clus>
<clus scale="   97.374">  1  5  2 -1</clus>
<clus scale="  120.578">  2  9  1 -1</clus>
<clus scale="  120.578">  2  5  1 -1</clus>
</clustering>
</event>
<event>
 9    1  0.1315259E-005  0.9676424E+02  0.7546771E-02  0.1287556E+00
         21   -1    0    0  501  502  0.00000000000E+00  0.00000000000E+00  0.30963684928E+03  0.30963684928E+03  0.00000000000E+00 0.  1.
          3   -1    0    0  502    0 -0.00000000000E+00 -0.00000000000E+00 -0.80985123049E+02  0.80985123049E+02  0.00000000000E+00 0. -1.
         23    2    1    2    0    0 -0.62919956467E+01  0.51203771411E+02  0.13135978769E+02  0.10560385621E+03  0.91204194483E+02 0.  0.
         23    2    1    2    0    0 -0.37581509980E+02  0.19813296061E+02  0.14237805424E+03  0.17403419595E+03  0.90617075854E+02 0.  0.
        -11    1    4    4    0    0  0.12302950336E+02  0.26352590921E+02  0.74364278179E+01  0.30018695739E+02  0.00000000000E+00 0. -1.
         11    1    4    4    0    0 -0.49884460316E+02 -0.65392948597E+01  0.13494162643E+03  0.14401550021E+03  0.00000000000E+00 0.  1.
        -11    1    3    3    0    0  0.20663103974E+02  0.27965792531E+02 -0.32592524882E+02  0.47658389565E+02  0.00000000000E+00 0. -1.
         11    1    3    3    0    0 -0.26955099620E+02  0.23237978880E+02  0.45728503651E+02  0.57945466640E+02  0.00000000000E+00 0.  1.
          3    1    1    2  501    0  0.43873505627E+02 -0.71017067472E+02  0.73137693222E+02  0.11098392018E+03  0.00000000000E+00 0. -1.
<scales pt_clust_5="13000.00000" pt_clust_6="13000.00000" pt_clust_7="13000.00000" pt_clust_8="13000.00000" pt_clust_9="83.47639"></scales>
<clustering>
<clus scale="   83.476">  1  9  2 -1</clus>
<clus scale="   90.617">  5  6 -1 -1</clus>
<clus scale="   91.204">  7  8 -1 -1</clus>
<clus scale="   96.211">  1  5  2 -1</clus>
<clus scale="   83.476">  1  5  2 -1</clus>
</clustering>
</event>
<event>
 9    1  0.1393724E-005  0.1289912E+03  0.7546771E-02  0.1229692E+00
          3   -1    0    0  502    0 -0.00000000000E+00  0.00000000000E+00  0.24319696675E+03  0.24319696675E+03  0.00000000000E+00 0. -1.
         21   -1    0    0  501  502  0.00000000000E+00 -0.00000000000E+00 -0.22634705254E+03  0.22634705254E+03  0.00000000000E+00 0. -1.
         23    2    1    2    0    0  0.73240322052E+02 -0.50992292975E+02  0.16938838798E+03  0.21188253654E+03  0.90760258873E+02 0.  0.
         23    2    1    2    0    0 -0.97479815228E+02  0.81931811130E+01 -0.15819163504E+03  0.20815112790E+03  0.93449751497E+02 0.  0.
        -11    1    3    3    0    0  0.92747649343E+02 -0.41789319698E+02  0.15680085483E+03  0.18690902004E+03  0.00000000000E+00 0. -1.
         11    1    3    3    0    0 -0.19507327291E+02 -0.92029732774E+01  0.12587533151E+02  0.24973516493E+02  0.00000000000E+00 0.  1.
        -11    1    4    4    0    0 -0.96499067010E+02 -0.21960071653E+02 -0.14420305020E+03  0.17489663910E+03  0.00000000000E+00 0. -1.
         11    1    4    4    0    0 -0.98074821828E+00  0.30153252766E+02 -0.13988584837E+02  0.33254488798E+02  0.00000000000E+00 0.  1.
          3    1    1    2  501    0  0.24239493176E+02  0.42799111862E+02  0.56531612772E+01  0.49510354857E+02  0.00000000000E+00 0. -1.
<scales pt_clust_5="13000.00000" pt_clust_6="13000.00000" pt_clust_7="13000.00000" pt_clust_8="13000.00000" pt_clust_9="49.18658"></scales>
<clustering>
<clus scale="   49.187">  2  9  1 -1</clus>
<clus scale="   90.760">  5  6 -1 -1</clus>
<clus scale="   93.450">  7  8 -1 -1</clus>
<clus scale="  127.056">  1  5  2 -1</clus>
<clus scale="   49.187">  2  5  1 -1</clus>
</clustering>
</event>
<event>
 9    1  0.1315259E-005  0.1063041E+03  0.7546771E-02  0.1268624E+00
         21   -1    0    0  501  502  0.00000000000E+00  0.00000000000E+00  0.24561445692E+03  0.24561445692E+03  0.00000000000E+00 0. -1.
         -3   -1    0    0    0  501 -0.00000000000E+00 -0.00000000000E+00 -0.63228275225E+02  0.63228275225E+02  0.00000000000E+00 0.  1.
         23    2    1    2    0    0 -0.47324458189E+02  0.22945419445E+02  0.46098805556E+02  0.11584569875E+03  0.92352744566E+02 0.  0.
         23    2    1    2    0    0  0.32855556824E+02 -0.46285559016E+02  0.90482813613E+02  0.13959132986E+03  0.89870791836E+02 0.  0.
        -11    1    3    3    0    0 -0.20151345534E+02 -0.29368582068E+02  0.44333915394E+02  0.56869028422E+02  0.00000000000E+00 0. -1.
         11    1    3    3    0    0 -0.27173112655E+02  0.52314001513E+02  0.17648901618E+01  0.58976670328E+02  0.00000000000E+00 0.  1.
        -13    1    4    4    0    0  0.25077095368E+02  0.99111969106E+01  0.76567988783E+02  0.81177271712E+02  0.00000000000E+00 0.  1.
         13    1    4    4    0    0  0.77784614559E+01 -0.56196755927E+02  0.13914824829E+02  0.58414058148E+02  0.00000000000E+00 0. -1.
         -3    1    1    2    0  502  0.14468901365E+02  0.23340139571E+02  0.45804562527E+02  0.53405703536E+02  0.00000000000E+00 0.  1.
<scales pt_clust_5="13000.00000" pt_clust_6="13000.00000" pt_clust_7="13000.00000" pt_clust_8="13000.00000" pt_clust_9="27.46109"></scales>
<clustering>
<clus scale="   27.461">  1  9  2 -1</clus>
<clus scale="   89.871">  7  8 -1 -1</clus>
<clus scale="   92.353">  5  6 -1 -1</clus>
<clus scale="  104.155">  1  7  2 -1</clus>
<clus scale="   27.461">  1  5  2 -1</clus>
</clustering>
</event>
<event>
 9    1  0.1315259E-005  0.1008367E+03  0.7546771E-02  0.1280998E+00
         -1   -1    0    0    0  501 -0.00000000000E+00  0.00000000000E+00  0.27773223633E+03  0.27773223633E+03  0.00000000000E+00 0.  1.
         21   -1    0    0  501  502  0.00000000000E+00 -0.00000000000E+00 -0.59648464624E+02  0.59648464624E+02  0.00000000000E+00 0. -1.
         23    2    1    2    0    0  0.12093911518E+01  0.46862293063E+02  0.13513131402E+03  0.16955931849E+03  0.91062359504E+02 0.  0.
         23    2    1    2    0    0  0.57674856753E+01 -0.11975718876E+01  0.37898059913E+02  0.10329354097E+03  0.95909303984E+02 0.  0.
        -11    1    3    3    0    0 -0.31400648424E+02  0.38877652842E+01  0.98199361835E+01  0.33129240664E+02  0.00000000000E+00 0.  1.
         11    1    3    3    0    0  0.32610039576E+02  0.42974527779E+02  0.12531137784E+03  0.13643007782E+03  0.00000000000E+00 0. -1.
        -11    1    4    4    0    0  0.43383458786E+02 -0.12222417753E+02 -0.48047871662E+01  0.45327673354E+02  0.00000000000E+00 0. -1.
         11    1    4    4    0    0 -0.37615973111E+02  0.11024845865E+02  0.42702847079E+02  0.57965867613E+02  0.00000000000E+00 0.  1.
         -1    1    1    2    0  502 -0.69768768271E+01 -0.45664721176E+02  0.45054397775E+02  0.64527841504E+02  0.00000000000E+00 0.  1.
<scales pt_clust_5="13000.00000" pt_clust_6="13000.00000" pt_clust_7="13000.00000" pt_clust_8="13000.00000" pt_clust_9="46.19465"></scales>
<clustering>
<clus scale="   46.195">  2  9  1 -1</clus>
<clus scale="   91.062">  5  6 -1 -1</clus>
<clus scale="   95.909">  7  8 -1 -1</clus>
<clus scale="   96.238">  1  5  2 -1</clus>
<clus scale="   46.195">  2  5  1 -1</clus>
</clustering>
</event>
<event>
 9    1  0.1315259E-005  0.1009461E+03  0.7546771E-02  0.1280820E+00
         -1   -1    0    0    0  501 -0.00000000000E+00  0.00000000000E+00  0.45021367406E+03  0.45021367406E+03  0.00000000000E+00 0.  1.
         21   -1    0    0  501  502  0.00000000000E+00 -0.00000000000E+00 -0.90631133901E+02  0.90631133901E+02  0.00000000000E+00 0.  1.
         23    2    1    2    0    0  0.29273198481E+02 -0.50874304145E+02  0.29288834046E+03  0.31241072249E+03  0.91497347378E+02 0.  0.
         23    2    1    2    0    0 -0.44314441485E+02 -0.29609662031E+02  0.97755444331E+02  0.14086292172E+03  0.86288666743E+02 0.  0.
        -11    1    3    3    0    0 -0.31363723012E+02 -0.34791064874E+01  0.93711200730E+02  0.98881628452E+02  0.00000000000E+00 0. -1.
         11    1    3    3    0    0  0.60636921493E+02 -0.47395197657E+02  0.19917713973E+03  0.21352909404E+03  0.00000000000E+00 0.  1.
        -13    1    4    4    0    0  0.18298805157E+02 -0.27029401537E+02  0.12275742984E+02  0.34873036625E+02  0.00000000000E+00 0. -1.
         13    1    4    4    0    0 -0.62613246642E+02 -0.25802604938E+01  0.85479701347E+02  0.10598988509E+03  0.00000000000E+00 0.  1.
         -1    1    1    2    0  502  0.15041243003E+02  0.80483966176E+02 -0.31061244636E+02  0.87571163752E+02  0.00000000000E+00 0.  1.
<scales pt_clust_5="13000.00000" pt_clust_6="13000.00000" pt_clust_7="13000.00000" pt_clust_8="13000.00000" pt_clust_9="81.87739"></scales>
<clustering>
<clus scale="   81.877">  2  9  1 -1</clus>
<clus scale="   86.289">  7  8 -1 -1</clus>
<clus scale="   91.497">  5  6 -1 -1</clus>
<clus scale="   96.250">  2  7  1 -1</clus>
<clus scale="   81.877">  2  5  1 -1</clus>
</clustering>
</event>
<event>
 9    1  0.1315259E-005  0.1206366E+03  0.7546771E-02  0.1247654E+00
         -1   -1    0    0    0  501 -0.00000000000E+00  0.00000000000E+00  0.29189272361E+03  0.29189272361E+03  0.00000000000E+00 0.  1.
         21   -1    0    0  501  502  0.00000000000E+00 -0.00000000000E+00 -0.80725301713E+02  0.80725301713E+02  0.00000000000E+00 0. -1.
         23    2    1    2    0    0 -0.41057037663E+02 -0.39969297808E+02  0.19310471833E+03  0.22631089663E+03  0.10316959137E+03 0.  0.
         23    2    1    2    0    0  0.66037505819E+02  0.42718097882E+02  0.24490629177E+02  0.12036685269E+03  0.87764458909E+02 0.  0.
        -11    1    4    4    0    0  0.47330653346E+02 -0.20683968101E+02  0.83861379293E+01  0.52329194451E+02  0.00000000000E+00 0.  1.
         11    1    4    4    0    0  0.18706852473E+02  0.63402065982E+02  0.16104491247E+02  0.68037658239E+02  0.00000000000E+00 0. -1.
        -13    1    3    3    0    0 -0.28903432959E+01 -0.68745510066E+02  0.13068316738E+03  0.14769018070E+03  0.00000000000E+00 0.  1.
         13    1    3    3    0    0 -0.38166694367E+02  0.28776212257E+02  0.62421550955E+02  0.78620715937E+02  0.00000000000E+00 0. -1.
         -1    1    1    2    0  502 -0.24980468156E+02 -0.27488000734E+01 -0.64279256147E+01  0.25940275998E+02  0.00000000000E+00 0.  1.
<scales pt_clust_5="13000.00000" pt_clust_6="13000.00000" pt_clust_7="13000.00000" pt_clust_8="13000.00000" pt_clust_9="25.13125"></scales>
<clustering>
<clus scale="   25.131">  2  9  1 -1</clus>
<clus scale="   87.764">  5  6 -1 -1</clus>
<clus scale="  103.170">  7  8 -1 -1</clus>
<clus scale="  107.758">  2  5  1 -1</clus>
<clus scale="   25.131">  2  5  1 -1</clus>
</clustering>
</event>
<event>
 9    1  0.1315259E-005  0.1100132E+03  0.7546771E-02  0.1263213E+00
         21   -1    0    0  501  502  0.00000000000E+00  0.00000000000E+00  0.89328032386E+02  0.89328032386E+02  0.00000000000E+00 0.  1.
          2   -1    0    0  502    0 -0.00000000000E+00 -0.00000000000E+00 -0.17143667693E+03  0.17143667693E+03  0.00000000000E+00 0. -1.
         23    2    1    2    0    0 -0.77187690687E+01 -0.42955386639E+02 -0.62986136643E+02  0.12411272647E+03  0.97631812567E+02 0.  0.
         23    2    1    2    0    0  0.24241845295E+02  0.58590234410E+02 -0.82551709428E+01  0.11144167691E+03  0.91272213048E+02 0.  0.
        -11    1    4    4    0    0  0.12325469948E+02 -0.17722429812E+02  0.19774847801E+02  0.29275353686E+02  0.00000000000E+00 0.  1.
         11    1    4    4    0    0  0.11916375347E+02  0.76312664222E+02 -0.28030018743E+02  0.82166323228E+02  0.00000000000E+00 0. -1.
        -11    1    3    3    0    0  0.15813375913E+02 -0.50964170358E+02  0.31554197001E+01  0.53454337444E+02  0.00000000000E+00 0.  1.
         11    1    3    3    0    0 -0.23532144981E+02  0.80087837198E+01 -0.66141556343E+02  0.70658389025E+02  0.00000000000E+00 0. -1.
          2    1    1    2  501    0 -0.16523076227E+02 -0.15634847771E+02 -0.10867336962E+02  0.25210305937E+02  0.00000000000E+00 0. -1.
<scales pt_clust_5="13000.00000" pt_clust_6="13000.00000" pt_clust_7="13000.00000" pt_clust_8="13000.00000" pt_clust_9="22.74777"></scales>
<clustering>
<clus scale="   22.748">  1  9  2 -1</clus>
<clus scale="   91.272">  5  6 -1 -1</clus>
<clus scale="   97.632">  7  8 -1 -1</clus>
<clus scale="  104.411">  1  5  2 -1</clus>
<clus scale="   22.748">  1  5  2 -1</clus>
</clustering>
</event>
<event>
 9    1  0.1315259E-005  0.1188778E+03  0.7546771E-02  0.1246628E+00
         21   -1    0    0  501  502  0.00000000000E+00  0.00000000000E+00  0.28473560857E+03  0.28473560857E+03  0.00000000000E+00 0. -1.
          2   -1    0    0  502    0 -0.00000000000E+00 -0.00000000000E+00 -0.16965829901E+03  0.16965829901E+03  0.00000000000E+00 0. -1.
         23    2    1    2    0    0 -0.19543843665E+02  0.84488991886E+02 -0.78288534349E+02  0.14548512760E+03  0.86697613392E+02 0.  0.
         23    2    1    2    0    0  0.18340731928E+02 -0.55264580060E+02 -0.45578988826E+01  0.10883548920E+03  0.91835902621E+02 0.  0.
        -11    1    4    4    0    0  0.31843718179E+02  0.16396937401E+02 -0.14396109817E+01  0.35846260940E+02  0.00000000000E+00 0. -1.
         11    1    4    4    0    0 -0.13502986251E+02 -0.71661517461E+02 -0.31182879009E+01  0.72989228259E+02  0.00000000000E+00 0.  1.
        -11    1    3    3    0    0 -0.48811717362E+02  0.78901141886E+02 -0.61006853139E+02  0.11103967792E+03  0.00000000000E+00 0. -1.
         11    1    3    3    0    0  0.29267873697E+02  0.55878499995E+01 -0.17281681210E+02  0.34445449682E+02  0.00000000000E+00 0.  1.
          2    1    1    2  501    0  0.12031117370E+01 -0.29224411826E+02  0.19792374279E+03  0.20007329079E+03  0.00000000000E+00 0. -1.
<scales pt_clust_5="13000.00000" pt_clust_6="13000.00000" pt_clust_7="13000.00000" pt_clust_8="13000.00000" pt_clust_9="29.24917"></scales>
<clustering>
<clus scale="   29.249">  1  9  2 -1</clus>
<clus scale="   86.698">  7  8 -1 -1</clus>
<clus scale="   91.836">  5  6 -1 -1</clus>
<clus scale="  114.955">  2  7  1 -1</clus>
<clus scale="   29.249">  1  5  2 -1</clus>
</clustering>
</event>
<event>
 9    1  0.1315259E-005  0.1486644E+03  0.7546771E-02  0.1202164E+00
          2   -1    0    0  502    0 -0.00000000000E+00  0.00000000000E+00  0.38251795155E+03  0.38251795155E+03  0.00000000000E+00 0. -1.
         21   -1    0    0  501  502  0.00000000000E+00 -0.00000000000E+00 -0.25846267235E+03  0.25846267235E+03  0.00000000000E+00 0.  1.
         23    2    1    2    0    0  0.32114373698E+02 -0.11990307506E+03  0.27999868972E+03  0.31973826878E+03  0.91788963761E+02 0.  0.
         23    2    1    2    0    0 -0.34450740623E+02  0.91189501025E+02  0.26657846458E+02  0.13638255151E+03  0.91581553551E+02 0.  0.
        -13    1    4    4    0    0 -0.58296508713E+02  0.92130878234E+02  0.27720783168E+02  0.11249454863E+03  0.00000000000E+00 0.  1.
         13    1    4    4    0    0  0.23845768091E+02 -0.94137720900E+00 -0.10629367096E+01  0.23888002874E+02  0.00000000000E+00 0. -1.
        -13    1    3    3    0    0  0.15112531415E+01 -0.47024912820E+02  0.26064466151E+02  0.53786454685E+02  0.00000000000E+00 0.  1.
         13    1    3    3    0    0  0.30603120556E+02 -0.72878162244E+02  0.25393422357E+03  0.26595181409E+03  0.00000000000E+00 0. -1.
          2    1    1    2  501    0  0.23363669249E+01  0.28713574039E+02 -0.18260125698E+03  0.18485980362E+03  0.00000000000E+00 0. -1.
<scales pt_clust_5="13000.00000" pt_clust_6="13000.00000" pt_clust_7="13000.00000" pt_clust_8="13000.00000" pt_clust_9="28.80847"></scales>
<clustering>
<clus scale="   28.808">  2  9  1 -1</clus>
<clus scale="   91.582">  5  6 -1 -1</clus>
<clus scale="   91.789">  7  8 -1 -1</clus>
<clus scale="  148.536">  2  5  1 -1</clus>
<clus scale="   28.808">  2  5  1 -1</clus>
</clustering>
</event>
<event>
 9    1  0.1315259E-005  0.1023510E+03  0.7546771E-02  0.1277504E+00
         21   -1    0    0  501  502  0.00000000000E+00  0.00000000000E+00  0.56825024991E+02  0.56825024991E+02  0.00000000000E+00 0.  1.
         -1   -1    0    0    0  501 -0.00000000000E+00 -0.00000000000E+00 -0.33534883579E+03  0.33534883579E+03  0.00000000000E+00 0.  1.
         23    2    1    2    0    0  0.62593085071E+02  0.22184126813E+02 -0.16939768032E+03  0.20205081409E+03  0.87857427676E+02 0.  0.
         23    2    1    2    0    0 -0.70088818429E+01 -0.23318963126E+02 -0.90372802939E+02  0.13144955356E+03  0.92297579350E+02 0.  0.
        -11    1    3    3    0    0  0.75290854362E+02  0.40704824880E+02 -0.11629753637E+03  0.14439775789E+03  0.00000000000E+00 0.  1.
         11    1    3    3    0    0 -0.12697769291E+02 -0.18520698067E+02 -0.53100143952E+02  0.57653056203E+02  0.00000000000E+00 0. -1.
        -11    1    4    4    0    0 -0.26797322653E+02 -0.51738386891E+02 -0.41429437176E+02  0.71493744091E+02  0.00000000000E+00 0.  1.
         11    1    4    4    0    0  0.19788440810E+02  0.28419423765E+02 -0.48943365764E+02  0.59955809469E+02  0.00000000000E+00 0. -1.
         -1    1    1    2    0  502 -0.55584203228E+02  0.11348363129E+01 -0.18753327542E+02  0.58673493128E+02  0.00000000000E+00 0.  1.
<scales pt_clust_5="13000.00000" pt_clust_6="13000.00000" pt_clust_7="13000.00000" pt_clust_8="13000.00000" pt_clust_9="55.59579"></scales>
<clustering>
<clus scale="   55.596">  1  9  2 -1</clus>
<clus scale="   87.857">  5  6 -1 -1</clus>
<clus scale="   92.298">  7  8 -1 -1</clus>
<clus scale="   98.366">  2  5  1 -1</clus>
<clus scale="   55.596">  1  5  2 -1</clus>
</clustering>
</event>
<event>
 9    1  0.1315259E-005  0.9187625E+02  0.7546771E-02  0.1298816E+00
         21   -1    0    0  501  502  0.00000000000E+00  0.00000000000E+00  0.15899960082E+03  0.15899960082E+03  0.00000000000E+00 0.  1.
          4   -1    0    0  502    0 -0.00000000000E+00 -0.00000000000E+00 -0.12810343014E+03  0.12810343014E+03  0.00000000000E+00 0. -1.
         23    2    1    2    0    0  0.13223179999E+02 -0.20017084385E+02 -0.69844271590E+02  0.11600526780E+03  0.89462079830E+02 0.  0.
         23    2    1    2    0    0 -0.95183015224E+01 -0.96746287680E+01  0.32975117378E+02  0.97020349519E+02  0.90229670004E+02 0.  0.
        -13    1    4    4    0    0 -0.19365521096E+02 -0.40576934076E+02  0.43858343253E+02  0.62809754491E+02  0.00000000000E+00 0.  1.
         13    1    4    4    0    0  0.98472195737E+01  0.30902305308E+02 -0.10883225875E+02  0.34210595027E+02  0.00000000000E+00 0. -1.
        -13    1    3    3    0    0  0.40184268544E+02  0.18564446857E+02 -0.43519379116E+02  0.62075361329E+02  0.00000000000E+00 0. -1.
         13    1    3    3    0    0 -0.26961088545E+02 -0.38581531242E+02 -0.26324892474E+02  0.53929906474E+02  0.00000000000E+00 0.  1.
          4    1    1    2  501    0 -0.37048784766E+01  0.29691713153E+02  0.67765324893E+02  0.74077413645E+02  0.00000000000E+00 0. -1.
<scales pt_clust_5="13000.00000" pt_clust_6="13000.00000" pt_clust_7="13000.00000" pt_clust_8="13000.00000" pt_clust_9="29.92196"></scales>
<clustering>
<clus scale="   29.922">  1  9  2 -1</clus>
<clus scale="   89.462">  7  8 -1 -1</clus>
<clus scale="   90.230">  5  6 -1 -1</clus>
<clus scale="   91.123">  2  7  1 -1</clus>
<clus scale="   29.922">  1  5  2 -1</clus>
</clustering>
</event>
<event>
 9    1  0.1857005E-005  0.9299569E+02  0.7546771E-02  0.1299918E+00
         -1   -1    0    0    0  501 -0.00000000000E+00  0.00000000000E+00  0.23917916788E+03  0.23917916788E+03  0.00000000000E+00 0.  1.
         21   -1    0    0  501  502  0.00000000000E+00 -0.00000000000E+00 -0.15361680052E+03  0.15361680052E+03  0.00000000000E+00 0. -1.
         23    2    1    2    0    0  0.62690542911E+01  0.22403598847E+02  0.20495512429E+03  0.22243051484E+03  0.83231656695E+02 0.  0.
         23    2    1    2    0    0 -0.20843849211E+02 -0.24171081390E+01 -0.73929148782E+02  0.11860809540E+03  0.90344080014E+02 0.  0.
        -11    1    3    3    0    0  0.34836200357E+02  0.35714162827E+02  0.15948361008E+03  0.16710500940E+03  0.00000000000E+00 0.  1.
         11    1    3    3    0    0 -0.28567146065E+02 -0.13310563980E+02  0.45471514205E+02  0.55325505437E+02  0.00000000000E+00 0. -1.
        -13    1    4    4    0    0 -0.10791299567E+02  0.43224500862E+02 -0.25621834886E+02  0.51393463048E+02  0.00000000000E+00 0.  1.
         13    1    4    4    0    0 -0.10052549644E+02 -0.45641609001E+02 -0.48307313897E+02  0.67214632354E+02  0.00000000000E+00 0. -1.
         -1    1    1    2    0  502  0.14574794920E+02 -0.19986490708E+02 -0.45463608146E+02  0.51757358157E+02  0.00000000000E+00 0.  1.
<scales pt_clust_5="13000.00000" pt_clust_6="13000.00000" pt_clust_7="13000.00000" pt_clust_8="13000.00000" pt_clust_9="24.73630"></scales>
<clustering>
<clus scale="   24.736">  2  9  1 -1</clus>
<clus scale="   83.232">  5  6 -1 -1</clus>
<clus scale="   86.103">  1  5  2 -1</clus>
<clus scale="   90.344">  7  8 -1 -1</clus>
<clus scale="   24.736">  2  5  1 -1</clus>
</clustering>
</event>
<event>
 9    1  0.1315259E-005  0.1144886E+03  0.7546771E-02  0.1252779E+00
          1   -1    0    0  502    0 -0.00000000000E+00  0.00000000000E+00  0.75316598956E+03  0.75316598956E+03  0.00000000000E+00 0. -1.
         21   -1    0    0  501  502  0.00000000000E+00 -0.00000000000E+00 -0.36587733205E+02  0.36587733205E+02  0.00000000000E+00 0.  1.
         23    2    1    2    0    0  0.34720602113E+02 -0.50216456876E+02  0.52571657997E+03  0.53729692226E+03  0.92643658513E+02 0.  0.
         23    2    1    2    0    0 -0.38044846949E+02  0.73376836689E+02  0.19204986684E+03  0.22902891982E+03  0.93485422490E+02 0.  0.
        -11    1    4    4    0    0  0.86489218740E+01  0.72458532215E+02  0.14711643399E+03  0.16422024202E+03  0.00000000000E+00 0. -1.
         11    1    4    4    0    0 -0.46693768823E+02  0.91830447419E+00  0.44933432856E+02  0.64808677800E+02  0.00000000000E+00 0.  1.
        -13    1    3    3    0    0 -0.46301177629E+00  0.26106840564E+02  0.99177738529E+02  0.10255732701E+03  0.00000000000E+00 0.  1.
         13    1    3    3    0    0  0.35183613889E+02 -0.76323297441E+02  0.42653884144E+03  0.43473959525E+03  0.00000000000E+00 0. -1.
          1    1    1    2  501    0  0.33242448365E+01 -0.23160379813E+02 -0.11881904578E+01  0.23427880684E+02  0.00000000000E+00 0. -1.
<scales pt_clust_5="13000.00000" pt_clust_6="13000.00000" pt_clust_7="13000.00000" pt_clust_8="13000.00000" pt_clust_9="23.39773"></scales>
<clustering>
<clus scale="   23.398">  2  9  1 -1</clus>
<clus scale="   92.644">  7  8 -1 -1</clus>
<clus scale="   93.485">  5  6 -1 -1</clus>
<clus scale="  113.802">  1  7  2 -1</clus>
<clus scale="   23.398">  2  5  1 -1</clus>
</clustering>
</event>
<event>
 9    1  0.1315259E-005  0.9563916E+02  0.7546771E-02  0.1291964E+00
          1   -1    0    0  502    0 -0.00000000000E+00  0.00000000000E+00  0.19687197044E+03  0.19687197044E+03  0.00000000000E+00 0. -1.
         21   -1    0    0  501  502  0.00000000000E+00 -0.00000000000E+00 -0.56878877141E+02  0.56878877141E+02  0.00000000000E+00 0.  1.
         23    2    1    2    0    0  0.11863682305E+02  0.12997550458E+02  0.71727304557E+02  0.11470518036E+03  0.87765533705E+02 0.  0.
         23    2    1    2    0    0 -0.27039986900E+02 -0.27620610667E+02  0.60643166374E+02  0.11663454314E+03  0.91825726243E+02 0.  0.
        -11    1    3    3    0    0 -0.17340743136E+02  0.42933080588E+02  0.47679935544E+02  0.66462974916E+02  0.00000000000E+00 0. -1.
         11    1    3    3    0    0  0.29204425441E+02 -0.29935530130E+02  0.24047369013E+02  0.48242205443E+02  0.00000000000E+00 0.  1.
        -13    1    4    4    0    0 -0.34745960566E+01 -0.54663224211E+02  0.59320241594E+02  0.80740522426E+02  0.00000000000E+00 0.  1.
         13    1    4    4    0    0 -0.23565390844E+02  0.27042613544E+02  0.13229247802E+01  0.35894020712E+02  0.00000000000E+00 0. -1.
          1    1    1    2  501    0  0.15176304596E+02  0.14623060209E+02  0.76226223713E+01  0.22411124088E+02  0.00000000000E+00 0. -1.
<scales pt_clust_5="13000.00000" pt_clust_6="13000.00000" pt_clust_7="13000.00000" pt_clust_8="13000.00000" pt_clust_9="21.07496"></scales>
<clustering>
<clus scale="   21.075">  2  9  1 -1</clus>
<clus scale="   87.766">  5  6 -1 -1</clus>
<clus scale="   91.748">  1  5  2 -1</clus>
<clus scale="   91.826">  7  8 -1 -1</clus>
<clus scale="   21.075">  2  5  1 -1</clus>
</clustering>
</event>
<event>
 9    1  0.1315259E-005  0.9186694E+02  0.7546771E-02  0.1302735E+00
         21   -1    0    0  501  502  0.00000000000E+00  0.00000000000E+00  0.14167705770E+03  0.14167705770E+03  0.00000000000E+00 0. -1.
          4   -1    0    0  502    0 -0.00000000000E+00 -0.00000000000E+00 -0.17373605723E+03  0.17373605723E+03  0.00000000000E+00 0. -1.
         23    2    1    2    0    0  0.80754864680E+01 -0.19096706568E+02 -0.64762794297E+02  0.11347920880E+03  0.90848300040E+02 0.  0.
         23    2    1    2    0    0 -0.18991085602E+02 -0.24395435841E+02 -0.54017586588E+02  0.10430545363E+03  0.83701429937E+02 0.  0.
        -11    1    3    3    0    0  0.49145875243E+01  0.36775958749E+02 -0.28648177838E+02  0.46875818989E+02  0.00000000000E+00 0. -1.
         11    1    3    3    0    0  0.31608989437E+01 -0.55872665317E+02 -0.36114616459E+02  0.66603389806E+02  0.00000000000E+00 0.  1.
        -11    1    4    4    0    0  0.66286099932E+01 -0.44466836283E+02 -0.46812032812E+01  0.45201235200E+02  0.00000000000E+00 0.  1.
         11    1    4    4    0    0 -0.25619695595E+02  0.20071400442E+02 -0.49336383307E+02  0.59104218427E+02  0.00000000000E+00 0. -1.
          4    1    1    2  501    0  0.10915599134E+02  0.43492142409E+02  0.86721381356E+02  0.97628452513E+02  0.00000000000E+00 0. -1.
<scales pt_clust_5="13000.00000" pt_clust_6="13000.00000" pt_clust_7="13000.00000" pt_clust_8="13000.00000" pt_clust_9="44.84102"></scales>
<clustering>
<clus scale="   44.841">  1  9  2 -1</clus>
<clus scale="   83.701">  7  8 -1 -1</clus>
<clus scale="   84.806">  1  7  2 -1</clus>
<clus scale="   90.848">  5  6 -1 -1</clus>
<clus scale="   44.841">  1  5  2 -1</clus>
</clustering>
</event>
<event>
 9    1  0.1315259E-005  0.9587891E+02  0.7546771E-02  0.1300904E+00
         21   -1    0    0  501  502  0.00000000000E+00  0.00000000000E+00  0.10293331820E+03  0.10293331820E+03  0.00000000000E+00 0.  1.
         -1   -1    0    0    0  501 -0.00000000000E+00 -0.00000000000E+00 -0.11919549269E+03  0.11919549269E+03  0.00000000000E+00 0.  1.
         23    2    1    2    0    0 -0.11071731086E+02  0.39880511859E+02 -0.84071589001E+01  0.84962117919E+02  0.73721385670E+02 0.  0.
         23    2    1    2    0    0  0.43170179106E+01  0.21084165386E+01  0.28639814603E+01  0.93307906440E+02  0.93140114614E+02 0.  0.
        -11    1    4    4    0    0 -0.29076424773E+01  0.35818529385E+02  0.32038659717E+02  0.48144544328E+02  0.00000000000E+00 0.  1.
         11    1    4    4    0    0  0.72246603880E+01 -0.33710112846E+02 -0.29174678257E+02  0.45163362112E+02  0.00000000000E+00 0. -1.
        -11    1    3    3    0    0  0.24026851365E+02  0.31944298288E+02  0.14253434522E+02  0.42436872827E+02  0.00000000000E+00 0.  1.
         11    1    3    3    0    0 -0.35098582451E+02  0.79362135713E+01 -0.22660593422E+02  0.42525245093E+02  0.00000000000E+00 0. -1.
         -1    1    1    2    0  502  0.67547131753E+01 -0.41988928398E+02 -0.10718997051E+02  0.43858786530E+02  0.00000000000E+00 0.  1.
<scales pt_clust_5="13000.00000" pt_clust_6="13000.00000" pt_clust_7="13000.00000" pt_clust_8="13000.00000" pt_clust_9="42.52879"></scales>
<clustering>
<clus scale="   42.529">  1  9  2 -1</clus>
<clus scale="   73.721">  7  8 -1 -1</clus>
<clus scale="   77.153">  2  7  1 -1</clus>
<clus scale="   93.140">  5  6 -1 -1</clus>
<clus scale="   42.529">  1  5  2 -1</clus>
</clustering>
</event>
<event>
 9    1  0.1315259E-005  0.1777727E+03  0.7546771E-02  0.1170202E+00
         21   -1    0    0  501  502  0.00000000000E+00  0.00000000000E+00  0.19739231193E+03  0.19739231193E+03  0.00000000000E+00 0.  1.
          2   -1    0    0  502    0 -0.00000000000E+00 -0.00000000000E+00 -0.37725908188E+03  0.37725908188E+03  0.00000000000E+00 0. -1.
         23    2    1    2    0    0 -0.15317682293E+03 -0.24333562928E+01 -0.29690587246E+03  0.34661284068E+03  0.92294658105E+02 0.  0.
         23    2    1    2    0    0  0.14430784533E+03 -0.20007144721E+02  0.10451886648E+03  0.20085416129E+03  0.90516079205E+02 0.  0.
        -11    1    3    3    0    0 -0.39343909641E+02 -0.34238075937E+02 -0.47177032905E+02  0.70326819232E+02  0.00000000000E+00 0.  1.
         11    1    3    3    0    0 -0.11383291329E+03  0.31804719644E+02 -0.24972883956E+03  0.27628602145E+03  0.00000000000E+00 0. -1.
        -11    1    4    4    0    0  0.42752308042E+02 -0.86197699036E+01 -0.12622241646E+02  0.45402436722E+02  0.00000000000E+00 0. -1.
         11    1    4    4    0    0  0.10155553729E+03 -0.11387374818E+02  0.11714110813E+03  0.15545172457E+03  0.00000000000E+00 0.  1.
          2    1    1    2  501    0  0.88689776048E+01  0.22440501014E+02  0.12520236028E+02  0.27184391840E+02  0.00000000000E+00 0. -1.
<scales pt_clust_5="13000.00000" pt_clust_6="13000.00000" pt_clust_7="13000.00000" pt_clust_8="13000.00000" pt_clust_9="24.12954"></scales>
<clustering>
<clus scale="   24.130">  1  9  2 -1</clus>
<clus scale="   90.516">  7  8 -1 -1</clus>
<clus scale="   92.295">  5  6 -1 -1</clus>
<clus scale="  176.856">  1  7  2 -1</clus>
<clus scale="   24.130">  1  5  2 -1</clus>
</clustering>
</event>
<event>
 9    1  0.1315259E-005  0.1063856E+03  0.7546771E-02  0.1270412E+00
         21   -1    0    0  501  502  0.00000000000E+00  0.00000000000E+00  0.17102113666E+03  0.17102113666E+03  0.00000000000E+00 0.  1.
          3   -1    0    0  502    0 -0.00000000000E+00 -0.00000000000E+00 -0.11812544535E+03  0.11812544535E+03  0.00000000000E+00 0. -1.
         23    2    1    2    0    0 -0.12837549298E+02 -0.49813762409E+02 -0.54073858290E+02  0.11236559581E+03  0.83998996267E+02 0.  0.
         23    2    1    2    0    0  0.21244346397E+01  0.71195094281E+02  0.96771171827E+02  0.15078215762E+03  0.91089761703E+02 0.  0.
        -11    1    3    3    0    0 -0.33086720711E+02 -0.40373753008E+02  0.17586821234E+01  0.52228957315E+02  0.00000000000E+00 0.  1.
         11    1    3    3    0    0  0.20249171412E+02 -0.94400094006E+01 -0.55832540414E+02  0.60136638494E+02  0.00000000000E+00 0. -1.
        -11    1    4    4    0    0 -0.13103713205E+02  0.49621649704E+02  0.88921556199E+00  0.51330362588E+02  0.00000000000E+00 0. -1.
         11    1    4    4    0    0  0.15228147845E+02  0.21573444578E+02  0.95881956265E+02  0.99451795031E+02  0.00000000000E+00 0.  1.
          3    1    1    2  501    0  0.10713114659E+02 -0.21381331873E+02  0.10198377780E+02  0.25998828583E+02  0.00000000000E+00 0. -1.
<scales pt_clust_5="13000.00000" pt_clust_6="13000.00000" pt_clust_7="13000.00000" pt_clust_8="13000.00000" pt_clust_9="23.91510"></scales>
<clustering>
<clus scale="   23.915">  1  9  2 -1</clus>
<clus scale="   83.999">  5  6 -1 -1</clus>
<clus scale="   91.090">  7  8 -1 -1</clus>
<clus scale="  100.381">  2  5  1 -1</clus>
<clus scale="   23.915">  1  5  2 -1</clus>
</clustering>
</event>
<event>
 9    1  0.1315259E-005  0.9856622E+02  0.7546771E-02  0.1285193E+00
         21   -1    0    0  501  502  0.00000000000E+00  0.00000000000E+00  0.38168002822E+02  0.38168002822E+02  0.00000000000E+00 0. -1.
          1   -1    0    0  502    0 -0.00000000000E+00 -0.00000000000E+00 -0.50796636820E+03  0.50796636820E+03  0.00000000000E+00 0. -1.
         23    2    1    2    0    0 -0.32612150623E+02  0.38428662185E+02 -0.32970054051E+03  0.34589690982E+03  0.91661940663E+02 0.  0.
         23    2    1    2    0    0 -0.97592681877E+01 -0.18159526219E+02 -0.11713944092E+03  0.14795684913E+03  0.88003232198E+02 0.  0.
        -11    1    3    3    0    0  0.31751763702E+02  0.17960066959E+02 -0.13362514411E+03  0.13851504482E+03  0.00000000000E+00 0.  1.
         11    1    3    3    0    0 -0.64363914325E+02  0.20468595226E+02 -0.19607539640E+03  0.20738186500E+03  0.00000000000E+00 0. -1.
        -13    1    4    4    0    0  0.12042730196E+02 -0.25129305402E+02 -0.12150142661E+03  0.12465595055E+03  0.00000000000E+00 0.  1.
         13    1    4    4    0    0 -0.21801998384E+02  0.69697791832E+01  0.43619856868E+01  0.23300898577E+02  0.00000000000E+00 0. -1.
          1    1    1    2  501    0  0.42371418810E+02 -0.20269135966E+02 -0.22958383943E+02  0.52280612067E+02  0.00000000000E+00 0. -1.
<scales pt_clust_5="13000.00000" pt_clust_6="13000.00000" pt_clust_7="13000.00000" pt_clust_8="13000.00000" pt_clust_9="46.96994"></scales>
<clustering>
<clus scale="   46.970">  1  9  2 -1</clus>
<clus scale="   88.003">  7  8 -1 -1</clus>
<clus scale="   91.662">  5  6 -1 -1</clus>
<clus scale="   95.173">  1  7  2 -1</clus>
<clus scale="   46.970">  1  5  2 -1</clus>
</clustering>
</event>
<event>
 9    1  0.1315259E-005  0.1361113E+03  0.7546771E-02  0.1219121E+00
         21   -1    0    0  501  502  0.00000000000E+00  0.00000000000E+00  0.25982960411E+03  0.25982960411E+03  0.00000000000E+00 0.  1.
          2   -1    0    0  502    0 -0.00000000000E+00 -0.00000000000E+00 -0.13932016888E+03  0.13932016888E+03  0.00000000000E+00 0. -1.
         23    2    1    2    0    0 -0.29826142694E+01  0.92492865146E+02 -0.38985619813E+02  0.13610954514E+03  0.91880920949E+02 0.  0.
         23    2    1    2    0    0 -0.37431268019E+02 -0.12002447858E+03  0.14048411703E+03  0.21057416850E+03  0.93801481963E+02 0.  0.
        -11    1    4    4    0    0 -0.22529014298E+02 -0.71892910861E+02  0.14135684396E+03  0.16018084921E+03  0.00000000000E+00 0.  1.
         11    1    4    4    0    0 -0.14902253721E+02 -0.48131567716E+02 -0.87272693725E+00  0.50393319290E+02  0.00000000000E+00 0. -1.
        -13    1    3    3    0    0 -0.40828534371E+02  0.80802694510E+02 -0.23100639047E+02  0.93432778956E+02  0.00000000000E+00 0.  1.
         13    1    3    3    0    0  0.37845920101E+02  0.11690170635E+02 -0.15884980766E+02  0.42676766182E+02  0.00000000000E+00 0. -1.
          2    1    1    2  501    0  0.40413882288E+02  0.27531613431E+02  0.19010938013E+02  0.52466059352E+02  0.00000000000E+00 0. -1.
<scales pt_clust_5="13000.00000" pt_clust_6="13000.00000" pt_clust_7="13000.00000" pt_clust_8="13000.00000" pt_clust_9="48.90063"></scales>
<clustering>
<clus scale="   48.901">  1  9  2 -1</clus>
<clus scale="   91.881">  7  8 -1 -1</clus>
<clus scale="   93.801">  5  6 -1 -1</clus>
<clus scale="  134.795">  2  7  1 -1</clus>
<clus scale="   48.901">  1  5  2 -1</clus>
</clustering>
</event>
<event>
 9    1  0.1315259E-005  0.1395671E+03  0.7546771E-02  0.1214044E+00
          2   -1    0    0  502    0 -0.00000000000E+00  0.00000000000E+00  0.99729246810E+03  0.99729246810E+03  0.00000000000E+00 0. -1.
         21   -1    0    0  501  502  0.00000000000E+00 -0.00000000000E+00 -0.48122841006E+02  0.48122841006E+02  0.00000000000E+00 0.  1.
         23    2    1    2    0    0  0.19755475397E+02 -0.78349366191E+02  0.35868949022E+03  0.37876111669E+03  0.90955654781E+02 0.  0.
         23    2    1    2    0    0  0.57029903607E+02  0.15624485193E+03  0.45150886415E+03  0.48980194964E+03  0.91546883127E+02 0.  0.
        -13    1    4    4    0    0  0.38629968422E+02  0.22474130530E+02  0.54633497824E+02  0.70584559840E+02  0.00000000000E+00 0.  1.
         13    1    4    4    0    0  0.18399935185E+02  0.13377072141E+03  0.39687536632E+03  0.41921738980E+03  0.00000000000E+00 0. -1.
        -13    1    3    3    0    0  0.54662210649E+02 -0.35791434023E+02  0.16702864557E+03  0.17935315013E+03  0.00000000000E+00 0.  1.
         13    1    3    3    0    0 -0.34906735252E+02 -0.42557932168E+02  0.19166084465E+03  0.19940796656E+03  0.00000000000E+00 0. -1.
          2    1    1    2  501    0 -0.76785379004E+02 -0.77895485744E+02  0.13897127273E+03  0.17685224277E+03  0.00000000000E+00 0. -1.
<scales pt_clust_5="13000.00000" pt_clust_6="13000.00000" pt_clust_7="13000.00000" pt_clust_8="13000.00000" pt_clust_9="109.37871"></scales>
<clustering>
<clus scale="   90.956">  7  8 -1 -1</clus>
<clus scale="   91.547">  5  6 -1 -1</clus>
<clus scale="  109.379">  2  9  1 -1</clus>
<clus scale="  139.180">  1  7  2 -1</clus>
<clus scale="  109.379">  2  5  1 -1</clus>
</clustering>
</event>
<event>
 9    1  0.1315259E-005  0.1067741E+03  0.7546771E-02  0.1267463E+00
         21   -1    0    0  501  502  0.00000000000E+00  0.00000000000E+00  0.21260391098E+03  0.21260391098E+03  0.00000000000E+00 0.  1.
          1   -1    0    0  502    0 -0.00000000000E+00 -0.00000000000E+00 -0.84291831816E+02  0.84291831816E+02  0.00000000000E+00 0. -1.
         23    2    1    2    0    0 -0.34480439483E+02 -0.52107970983E+02 -0.40528386483E+01  0.10933412769E+03  0.89629150552E+02 0.  0.
         23    2    1    2    0    0  0.23728094238E+02  0.25875511093E+02  0.12383457057E+03  0.15795550587E+03  0.91555318999E+02 0.  0.
        -11    1    3    3    0    0  0.28572822976E+02 -0.23361231723E+01  0.22541968512E+01  0.28756652930E+02  0.00000000000E+00 0.  1.
         11    1    3    3    0    0 -0.63053262459E+02 -0.49771847811E+02 -0.63070354994E+01  0.80577474756E+02  0.00000000000E+00 0. -1.
        -13    1    4    4    0    0  0.51365558215E+02 -0.88873332342E+01  0.52921606283E+02  0.74283926083E+02  0.00000000000E+00 0. -1.
         13    1    4    4    0    0 -0.27637463977E+02  0.34762844327E+02  0.70912964282E+02  0.83671579787E+02  0.00000000000E+00 0.  1.
          1    1    1    2  501    0  0.10752345245E+02  0.26232459891E+02  0.85303472456E+01  0.29606109240E+02  0.00000000000E+00 0. -1.
<scales pt_clust_5="13000.00000" pt_clust_6="13000.00000" pt_clust_7="13000.00000" pt_clust_8="13000.00000" pt_clust_9="28.35059"></scales>
<clustering>
<clus scale="   28.351">  1  9  2 -1</clus>
<clus scale="   89.629">  5  6 -1 -1</clus>
<clus scale="   91.555">  7  8 -1 -1</clus>
<clus scale="  105.127">  2  5  1 -1</clus>
<clus scale="   28.351">  1  5  2 -1</clus>
</clustering>
</event>
<event>
 9    1  0.1315259E-005  0.2279250E+03  0.7546771E-02  0.1159905E+00
          3   -1    0    0  502    0 -0.00000000000E+00  0.00000000000E+00  0.11022993257E+03  0.11022993257E+03  0.00000000000E+00 0. -1.
         21   -1    0    0  501  502  0.00000000000E+00 -0.00000000000E+00 -0.13304248136E+04  0.13304248136E+04  0.00000000000E+00 0. -1.
         23    2    1    2    0    0 -0.52397995158E+02 -0.56371493110E+01 -0.17983170373E+03  0.20896114291E+03  0.92455341808E+02 0.  0.
         23    2    1    2    0    0 -0.14331891417E+03  0.87248314321E+02 -0.25510436565E+02  0.19492382351E+03  0.95874579987E+02 0.  0.
        -11    1    3    3    0    0  0.11816717445E+02 -0.33602818614E+02 -0.72839468431E+02  0.81082503608E+02  0.00000000000E+00 0.  1.
         11    1    3    3    0    0 -0.64214712602E+02  0.27965669303E+02 -0.10699223530E+03  0.12787863930E+03  0.00000000000E+00 0. -1.
        -13    1    4    4    0    0 -0.11375835327E+03  0.10688832534E+03 -0.30609289639E+02  0.15906918509E+03  0.00000000000E+00 0. -1.
         13    1    4    4    0    0 -0.29560560899E+02 -0.19640011021E+02  0.50988530742E+01  0.35854638420E+02  0.00000000000E+00 0.  1.
          3    1    1    2  501    0  0.19571690932E+03 -0.81611165010E+02 -0.10148527408E+04  0.10367697798E+04  0.00000000000E+00 0. -1.
<scales pt_clust_5="13000.00000" pt_clust_6="13000.00000" pt_clust_7="13000.00000" pt_clust_8="13000.00000" pt_clust_9="206.77973"></scales>
<clustering>
<clus scale="   92.455">  5  6 -1 -1</clus>
<clus scale="   95.875">  7  8 -1 -1</clus>
<clus scale="  106.421">  1  5  2 -1</clus>
<clus scale="  206.780">  2  9  1 -1</clus>
<clus scale="  206.780">  2  5  1 -1</clus>
</clustering>
</event>
<event>
 9    1  0.1315259E-005  0.1468978E+03  0.7546771E-02  0.1204812E+00
          1   -1    0    0  502    0 -0.00000000000E+00  0.00000000000E+00  0.11134330580E+03  0.11134330580E+03  0.00000000000E+00 0. -1.
         21   -1    0    0  501  502  0.00000000000E+00 -0.00000000000E+00 -0.26651052741E+03  0.26651052741E+03  0.00000000000E+00 0. -1.
         23    2    1    2    0    0  0.88686175318E+02  0.50802159877E+02 -0.34623653860E+02  0.14149488536E+03  0.91519987076E+02 0.  0.
         23    2    1    2    0    0 -0.11176503517E+03 -0.59691055276E+02 -0.56168701108E+02  0.16739685907E+03  0.93874066045E+02 0.  0.
        -11    1    3    3    0    0 -0.69802174411E+01  0.38310116050E+02 -0.20439942115E+02  0.43979309464E+02  0.00000000000E+00 0.  1.
         11    1    3    3    0    0  0.95666392759E+02  0.12492043828E+02 -0.14183711744E+02  0.97515575891E+02  0.00000000000E+00 0. -1.
        -11    1    4    4    0    0 -0.26880885765E+02 -0.32240885856E+01  0.25176803120E+02  0.36970909943E+02  0.00000000000E+00 0.  1.
         11    1    4    4    0    0 -0.84884149409E+02 -0.56466966690E+02 -0.81345504228E+02  0.13042594913E+03  0.00000000000E+00 0. -1.
          1    1    1    2  501    0  0.23078859856E+02  0.88888953985E+01 -0.64374866643E+02  0.68962088781E+02  0.00000000000E+00 0. -1.
<scales pt_clust_5="13000.00000" pt_clust_6="13000.00000" pt_clust_7="13000.00000" pt_clust_8="13000.00000" pt_clust_9="24.73148"></scales>
<clustering>
<clus scale="   24.731">  2  9  1 -1</clus>
<clus scale="   91.520">  5  6 -1 -1</clus>
<clus scale="   93.874">  7  8 -1 -1</clus>
<clus scale="  145.405">  1  5  2 -1</clus>
<clus scale="   24.731">  2  5  1 -1</clus>
</clustering>
</event>
<event>
 9    1  0.1315259E-005  0.1125800E+03  0.7546771E-02  0.1263384E+00
          2   -1    0    0  502    0 -0.00000000000E+00  0.00000000000E+00  0.31410915274E+03  0.31410915274E+03  0.00000000000E+00 0. -1.
         21   -1    0    0  501  502  0.00000000000E+00 -0.00000000000E+00 -0.11236794302E+03  0.11236794302E+03  0.00000000000E+00 0. -1.
         23    2    1    2    0    0 -0.17876498461E+02  0.17898048776E+02  0.17436043268E+03  0.19795520120E+03  0.90248500550E+02 0.  0.
         23    2    1    2    0    0  0.96125214209E+02 -0.32393950068E+02  0.15305929108E+02  0.14803093467E+03  0.10672141934E+03 0.  0.
        -11    1    4    4    0    0  0.84785919148E+02  0.20551205649E+02  0.29433425360E+02  0.92072420778E+02  0.00000000000E+00 0. -1.
         11    1    4    4    0    0  0.11339295061E+02 -0.52945155718E+02 -0.14127496251E+02  0.55958513890E+02  0.00000000000E+00 0.  1.
        -13    1    3    3    0    0 -0.48733302200E+02  0.77587459418E+01  0.14835589747E+03  0.15634770608E+03  0.00000000000E+00 0. -1.
         13    1    3    3    0    0  0.30856803740E+02  0.10139302835E+02  0.26004535210E+02  0.41607495124E+02  0.00000000000E+00 0.  1.
          2    1    1    2  501    0 -0.78248715748E+02  0.14495901292E+02  0.12074847937E+02  0.80490959885E+02  0.00000000000E+00 0. -1.
<scales pt_clust_5="13000.00000" pt_clust_6="13000.00000" pt_clust_7="13000.00000" pt_clust_8="13000.00000" pt_clust_9="79.58010"></scales>
<clustering>
<clus scale="   79.580">  2  9  1 -1</clus>
<clus scale="   90.249">  7  8 -1 -1</clus>
<clus scale="   97.106">  1  7  2 -1</clus>
<clus scale="  106.721">  5  6 -1 -1</clus>
<clus scale="   79.580">  2  5  1 -1</clus>
</clustering>
</event>
<event>
 9    1  0.1315259E-005  0.3081208E+03  0.7546771E-02  0.1081255E+00
         21   -1    0    0  501  502  0.00000000000E+00  0.00000000000E+00  0.21071438525E+03  0.21071438525E+03  0.00000000000E+00 0.  1.
          2   -1    0    0  502    0 -0.00000000000E+00 -0.00000000000E+00 -0.11560244786E+04  0.11560244786E+04  0.00000000000E+00 0. -1.
         23    2    1    2    0    0  0.14330927631E+03  0.25581626397E+03 -0.92812764842E+03  0.97761207947E+03  0.91241090424E+02 0.  0.
         23    2    1    2    0    0 -0.16355759689E+03 -0.25135965129E+03 -0.79519344833E+02  0.32343245457E+03  0.91391819500E+02 0.  0.
        -13    1    4    4    0    0 -0.84484817203E+02 -0.62427961859E+02 -0.50568081678E+02  0.11658501466E+03  0.00000000000E+00 0. -1.
         13    1    4    4    0    0 -0.79072779688E+02 -0.18893168943E+03 -0.28951263156E+02  0.20684743991E+03  0.00000000000E+00 0.  1.
        -13    1    3    3    0    0 -0.92113048175E+00  0.43523501472E+02 -0.75039411765E+02  0.86752849981E+02  0.00000000000E+00 0.  1.
         13    1    3    3    0    0  0.14423040679E+03  0.21229276250E+03 -0.85308823665E+03  0.89085922949E+03  0.00000000000E+00 0. -1.
          2    1    1    2  501    0  0.20248320585E+02 -0.44566126786E+01  0.62336899890E+02  0.65694329823E+02  0.00000000000E+00 0. -1.
<scales pt_clust_5="13000.00000" pt_clust_6="13000.00000" pt_clust_7="13000.00000" pt_clust_8="13000.00000" pt_clust_9="20.73297"></scales>
<clustering>
<clus scale="   20.733">  1  9  2 -1</clus>
<clus scale="   91.241">  7  8 -1 -1</clus>
<clus scale="   91.392">  5  6 -1 -1</clus>
<clus scale="  308.076">  2  7  1 -1</clus>
<clus scale="   20.733">  1  5  2 -1</clus>
</clustering>
</event>
<event>
 9    1  0.1315259E-005  0.1858721E+03  0.7546771E-02  0.1162361E+00
          2   -1    0    0  502    0 -0.00000000000E+00  0.00000000000E+00  0.16140723545E+04  0.16140723545E+04  0.00000000000E+00 0. -1.
         21   -1    0    0  501  502  0.00000000000E+00 -0.00000000000E+00 -0.35270245743E+02  0.35270245743E+02  0.00000000000E+00 0. -1.
         23    2    1    2    0    0 -0.67762079729E+02 -0.14287263404E+03  0.83591590893E+03  0.85566463944E+03  0.91663948100E+02 0.  0.
         23    2    1    2    0    0  0.10964290642E+02  0.17779047350E+03  0.43574452248E+03  0.47938310828E+03  0.90582600405E+02 0.  0.
        -13    1    3    3    0    0 -0.60449363960E+02 -0.29501729090E+02  0.25351063130E+03  0.26228251524E+03  0.00000000000E+00 0. -1.
         13    1    3    3    0    0 -0.73127157684E+01 -0.11337090495E+03  0.58240527763E+03  0.59338212420E+03  0.00000000000E+00 0.  1.
        -13    1    4    4    0    0 -0.12170109987E+02  0.55709401310E+02  0.24637939369E+03  0.25289217981E+03  0.00000000000E+00 0. -1.
         13    1    4    4    0    0  0.23134400629E+02  0.12208107219E+03  0.18936512879E+03  0.22649092848E+03  0.00000000000E+00 0.  1.
          2    1    1    2  501    0  0.56797789087E+02 -0.34917839460E+02  0.30714167736E+03  0.31429485253E+03  0.00000000000E+00 0. -1.
<scales pt_clust_5="13000.00000" pt_clust_6="13000.00000" pt_clust_7="13000.00000" pt_clust_8="13000.00000" pt_clust_9="66.67270"></scales>
<clustering>
<clus scale="   66.673">  2  9  1 -1</clus>
<clus scale="   90.583">  7  8 -1 -1</clus>
<clus scale="   91.664">  5  6 -1 -1</clus>
<clus scale="  185.341">  2  7  1 -1</clus>
<clus scale="   66.673">  2  5  1 -1</clus>
</clustering>
</event>
<event>
 9    1  0.1315259E-005  0.9210743E+02  0.7546771E-02  0.1299915E+00
         21   -1    0    0  501  502  0.00000000000E+00  0.00000000000E+00  0.26675277612E+03  0.26675277612E+03  0.00000000000E+00 0. -1.
          3   -1    0    0  502    0 -0.00000000000E+00 -0.00000000000E+00 -0.64840760434E+02  0.64840760434E+02  0.00000000000E+00 0. -1.
         23    2    1    2    0    0  0.14794950530E+02 -0.16881204191E+02  0.15548067346E+02  0.94654358671E+02  0.90630235578E+02 0.  0.
         23    2    1    2    0    0 -0.14245954430E+02 -0.59883415097E+01  0.56226665437E+02  0.10480655542E+03  0.87087132814E+02 0.  0.
        -11    1    4    4    0    0  0.31185571521E+02 -0.21410200588E+02  0.37612435092E+02  0.53344463948E+02  0.00000000000E+00 0. -1.
         11    1    4    4    0    0 -0.45431525951E+02  0.15421859078E+02  0.18614230345E+02  0.51462091475E+02  0.00000000000E+00 0.  1.
        -13    1    3    3    0    0  0.11939146049E+02 -0.46116025191E+02  0.35271300505E+02  0.59273059876E+02  0.00000000000E+00 0.  1.
         13    1    3    3    0    0  0.28558044817E+01  0.29234821000E+02 -0.19723233159E+02  0.35381298794E+02  0.00000000000E+00 0. -1.
          3    1    1    2  501    0 -0.54899610025E+00  0.22869545700E+02  0.13013728291E+03  0.13213262247E+03  0.00000000000E+00 0. -1.
<scales pt_clust_5="13000.00000" pt_clust_6="13000.00000" pt_clust_7="13000.00000" pt_clust_8="13000.00000" pt_clust_9="22.87613"></scales>
<clustering>
<clus scale="   22.876">  1  9  2 -1</clus>
<clus scale="   87.087">  5  6 -1 -1</clus>
<clus scale="   88.623">  1  5  2 -1</clus>
<clus scale="   90.630">  7  8 -1 -1</clus>
<clus scale="   22.876">  1  5  2 -1</clus>
</clustering>
</event>
<event>
 9    1  0.1315259E-005  0.1486355E+03  0.7546771E-02  0.1202283E+00
         -1   -1    0    0    0  501 -0.00000000000E+00  0.00000000000E+00  0.53974838234E+03  0.53974838234E+03  0.00000000000E+00 0.  1.
         21   -1    0    0  501  502  0.00000000000E+00 -0.00000000000E+00 -0.13428602956E+03  0.13428602956E+03  0.00000000000E+00 0. -1.
         23    2    1    2    0    0  0.10419603387E+02 -0.12562016252E+03  0.29944939756E+03  0.33708659828E+03  0.89824493734E+02 0.  0.
         23    2    1    2    0    0 -0.88456081147E+02  0.87133953664E+02  0.16985521888E+03  0.22902786753E+03  0.90477425648E+02 0.  0.
        -11    1    4    4    0    0  0.14116216600E+02  0.35881101243E+02  0.50232258298E+02  0.63324566885E+02  0.00000000000E+00 0.  1.
         11    1    4    4    0    0 -0.10257229775E+03  0.51252852421E+02  0.11962296059E+03  0.16570330065E+03  0.00000000000E+00 0. -1.
        -13    1    3    3    0    0 -0.26085050422E+02 -0.58287579218E+01  0.80898390685E+02  0.85199494657E+02  0.00000000000E+00 0. -1.
         13    1    3    3    0    0  0.36504653809E+02 -0.11979140460E+03  0.21855100688E+03  0.25188710363E+03  0.00000000000E+00 0.  1.
         -1    1    1    2    0  502  0.78036477761E+02  0.38486208857E+02 -0.63842263668E+02  0.10791994609E+03  0.00000000000E+00 0.  1.
<scales pt_clust_5="13000.00000" pt_clust_6="13000.00000" pt_clust_7="13000.00000" pt_clust_8="13000.00000" pt_clust_9="87.01080"></scales>
<clustering>
<clus scale="   87.011">  2  9  1 -1</clus>
<clus scale="   89.824">  7  8 -1 -1</clus>
<clus scale="   90.477">  5  6 -1 -1</clus>
<clus scale="  148.239">  1  7  2 -1</clus>
<clus scale="   87.011">  2  5  1 -1</clus>
</clustering>
</event>
<event>
 9    1  0.1315259E-005  0.1029413E+03  0.7546771E-02  0.1274815E+00
          1   -1    0    0  502    0 -0.00000000000E+00  0.00000000000E+00  0.53807355825E+03  0.53807355825E+03  0.00000000000E+00 0. -1.
         21   -1    0    0  501  502  0.00000000000E+00 -0.00000000000E+00 -0.42862413346E+02  0.42862413346E+02  0.00000000000E+00 0. -1.
         23    2    1    2    0    0  0.15589423618E+02 -0.36004344123E+02  0.26582254527E+03  0.28319238766E+03  0.89425722989E+02 0.  0.
         23    2    1    2    0    0  0.23707174810E+02  0.83915571291E+02  0.13251522438E+03  0.18274723977E+03  0.90732660656E+02 0.  0.
        -11    1    3    3    0    0  0.36393269822E+02  0.13630271741E+02  0.15767917261E+03  0.16239758579E+03  0.00000000000E+00 0.  1.
         11    1    3    3    0    0 -0.20803846205E+02 -0.49634615864E+02  0.10814337266E+03  0.12079480187E+03  0.00000000000E+00 0. -1.
        -13    1    4    4    0    0  0.56562443581E+02  0.66573772406E+02  0.80247465949E+02  0.11862138503E+03  0.00000000000E+00 0. -1.
         13    1    4    4    0    0 -0.32855268772E+02  0.17341798886E+02  0.52267758430E+02  0.64125854738E+02  0.00000000000E+00 0.  1.
          1    1    1    2  501    0 -0.39296598427E+02 -0.47911227168E+02  0.96873375255E+02  0.11499634416E+03  0.00000000000E+00 0. -1.
<scales pt_clust_5="13000.00000" pt_clust_6="13000.00000" pt_clust_7="13000.00000" pt_clust_8="13000.00000" pt_clust_9="61.96538"></scales>
<clustering>
<clus scale="   61.965">  2  9  1 -1</clus>
<clus scale="   89.426">  5  6 -1 -1</clus>
<clus scale="   90.733">  7  8 -1 -1</clus>
<clus scale="  101.791">  1  5  2 -1</clus>
<clus scale="   61.965">  2  5  1 -1</clus>
</clustering>
</event>
<event>
 9    1  0.1315259E-005  0.2013991E+03  0.7546771E-02  0.1148856E+00
         21   -1    0    0  501  502  0.00000000000E+00  0.00000000000E+00  0.21058333847E+03  0.21058333847E+03  0.00000000000E+00 0. -1.
          2   -1    0    0  502    0 -0.00000000000E+00 -0.00000000000E+00 -0.15604297422E+04  0.15604297422E+04  0.00000000000E+00 0. -1.
         23    2    1    2    0    0 -0.15808087205E+03 -0.27437184764E+02 -0.89633467127E+03  0.91515710144E+03  0.91401948483E+02 0.  0.
         23    2    1    2    0    0  0.20781559489E+03  0.78454754530E+02 -0.62509192261E+03  0.67007089713E+03  0.94406702526E+02 0.  0.
        -11    1    3    3    0    0 -0.11933162466E+03  0.17367518147E+02 -0.69122176136E+03  0.70166173524E+03  0.00000000000E+00 0.  1.
         11    1    3    3    0    0 -0.38749247388E+02 -0.44804702911E+02 -0.20511290991E+03  0.21349536620E+03  0.00000000000E+00 0. -1.
        -13    1    4    4    0    0  0.11441189969E+03  0.15932469019E+02 -0.20609920920E+03  0.23626428082E+03  0.00000000000E+00 0.  1.
         13    1    4    4    0    0  0.93403695201E+02  0.62522285511E+02 -0.41899271341E+03  0.43380661631E+03  0.00000000000E+00 0. -1.
          2    1    1    2  501    0 -0.49734722843E+02 -0.51017569766E+02  0.17158019015E+03  0.18578508210E+03  0.00000000000E+00 0. -1.
<scales pt_clust_5="13000.00000" pt_clust_6="13000.00000" pt_clust_7="13000.00000" pt_clust_8="13000.00000" pt_clust_9="71.24840"></scales>
<clustering>
<clus scale="   71.248">  1  9  2 -1</clus>
<clus scale="   91.402">  5  6 -1 -1</clus>
<clus scale="   94.407">  7  8 -1 -1</clus>
<clus scale="  200.008">  2  5  1 -1</clus>
<clus scale="   71.248">  1  5  2 -1</clus>
</clustering>
</event>
<event>
 9    1  0.1315259E-005  0.1289171E+03  0.7546771E-02  0.1230227E+00
         21   -1    0    0  501  502  0.00000000000E+00  0.00000000000E+00  0.91734107131E+02  0.91734107131E+02  0.00000000000E+00 0. -1.
         -4   -1    0    0    0  501 -0.00000000000E+00 -0.00000000000E+00 -0.23762884539E+03  0.23762884539E+03  0.00000000000E+00 0.  1.
         23    2    1    2    0    0  0.24768178163E+02 -0.72402541207E+02 -0.59835627395E+02  0.13075012231E+03  0.87519720955E+02 0.  0.
         23    2    1    2    0    0 -0.50441125437E+02  0.93881802020E+02 -0.86472204906E+02  0.16513702532E+03  0.91840595724E+02 0.  0.
        -11    1    4    4    0    0 -0.20647688926E+02  0.67804757163E+01 -0.67811421076E+02  0.71208782725E+02  0.00000000000E+00 0.  1.
         11    1    4    4    0    0 -0.29793436511E+02  0.87101326303E+02 -0.18660783830E+02  0.93928242590E+02  0.00000000000E+00 0. -1.
        -13    1    3    3    0    0  0.20146113533E+02  0.13830207802E+02 -0.31492573562E+02  0.39861293606E+02  0.00000000000E+00 0. -1.
         13    1    3    3    0    0  0.46220646303E+01 -0.86232749009E+02 -0.28343053833E+02  0.90888828706E+02  0.00000000000E+00 0.  1.
         -4    1    1    2    0  502  0.25672947273E+02 -0.21479260813E+02  0.41309403976E+00  0.33475804896E+02  0.00000000000E+00 0.  1.
<scales pt_clust_5="13000.00000" pt_clust_6="13000.00000" pt_clust_7="13000.00000" pt_clust_8="13000.00000" pt_clust_9="33.47326"></scales>
<clustering>
<clus scale="   33.473">  1  9  2 -1</clus>
<clus scale="   87.520">  7  8 -1 -1</clus>
<clus scale="   91.841">  5  6 -1 -1</clus>
<clus scale="  125.875">  2  7  1 -1</clus>
<clus scale="   33.473">  1  5  2 -1</clus>
</clustering>
</event>
<event>
 9    1  0.1315259E-005  0.1167677E+03  0.7546771E-02  0.1248742E+00
         21   -1    0    0  501  502  0.00000000000E+00  0.00000000000E+00  0.32468759878E+03  0.32468759878E+03  0.00000000000E+00 0.  1.
          2   -1    0    0  502    0 -0.00000000000E+00 -0.00000000000E+00 -0.76543582520E+02  0.76543582520E+02  0.00000000000E+00 0. -1.
         23    2    1    2    0    0  0.46030466797E+02 -0.49684075597E+02  0.29529503717E+02  0.11706896293E+03  0.90806603557E+02 0.  0.
         23    2    1    2    0    0 -0.87558094875E+02  0.38161658633E+02  0.19474275117E+03  0.23489589136E+03  0.90158795888E+02 0.  0.
        -11    1    4    4    0    0 -0.76939704245E+01  0.49196163389E+02  0.61135327798E+02  0.78847878717E+02  0.00000000000E+00 0. -1.
         11    1    4    4    0    0 -0.79864124450E+02 -0.11034504756E+02  0.13360742338E+03  0.15604801264E+03  0.00000000000E+00 0.  1.
        -11    1    3    3    0    0 -0.20138298349E+02 -0.18047730924E+02 -0.15339703652E+02  0.31089840141E+02  0.00000000000E+00 0.  1.
         11    1    3    3    0    0  0.66168765146E+02 -0.31636344673E+02  0.44869207369E+02  0.85979122786E+02  0.00000000000E+00 0. -1.
          2    1    1    2  501    0  0.41527628077E+02  0.11522416964E+02  0.23871761374E+02  0.49266327015E+02  0.00000000000E+00 0. -1.
<scales pt_clust_5="13000.00000" pt_clust_6="13000.00000" pt_clust_7="13000.00000" pt_clust_8="13000.00000" pt_clust_9="43.09654"></scales>
<clustering>
<clus scale="   43.097">  1  9  2 -1</clus>
<clus scale="   90.159">  5  6 -1 -1</clus>
<clus scale="   90.807">  7  8 -1 -1</clus>
<clus scale="  116.265">  1  5  2 -1</clus>
<clus scale="   43.097">  1  5  2 -1</clus>
</clustering>
</event>
<event>
 9    1  0.1315259E-005  0.1092649E+03  0.7546771E-02  0.1262285E+00
         21   -1    0    0  501  502  0.00000000000E+00  0.00000000000E+00  0.19861101217E+03  0.19861101217E+03  0.00000000000E+00 0.  1.
         -2   -1    0    0    0  501 -0.00000000000E+00 -0.00000000000E+00 -0.29612175324E+03  0.29612175324E+03  0.00000000000E+00 0.  1.
         23    2    1    2    0    0 -0.42393264422E+02  0.33990851112E+02 -0.22096336572E+03  0.24514791097E+03  0.91214705136E+02 0.  0.
         23    2    1    2    0    0  0.63914018435E+02 -0.74644832582E+02  0.18186124072E+02  0.13470698361E+03  0.90323770626E+02 0.  0.
        -11    1    4    4    0    0  0.73604417679E+02 -0.34980136851E+02 -0.14035221320E+02  0.82693456291E+02  0.00000000000E+00 0.  1.
         11    1    4    4    0    0 -0.96903992435E+01 -0.39664695732E+02  0.32221345392E+02  0.52013527316E+02  0.00000000000E+00 0. -1.
        -11    1    3    3    0    0 -0.68798201450E+02  0.82757744020E+01 -0.14190023250E+03  0.15791566404E+03  0.00000000000E+00 0.  1.
         11    1    3    3    0    0  0.26404937028E+02  0.25715076710E+02 -0.79063133221E+02  0.87232246929E+02  0.00000000000E+00 0. -1.
         -2    1    1    2    0  502 -0.21520754013E+02  0.40653981471E+02  0.10526650058E+03  0.11487787083E+03  0.00000000000E+00 0.  1.
<scales pt_clust_5="13000.00000" pt_clust_6="13000.00000" pt_clust_7="13000.00000" pt_clust_8="13000.00000" pt_clust_9="45.99879"></scales>
<clustering>
<clus scale="   45.999">  1  9  2 -1</clus>
<clus scale="   90.324">  5  6 -1 -1</clus>
<clus scale="   91.215">  7  8 -1 -1</clus>
<clus scale="  108.522">  1  5  2 -1</clus>
<clus scale="   45.999">  1  5  2 -1</clus>
</clustering>
</event>
<event>
 9    1  0.1315259E-005  0.3697713E+03  0.7546771E-02  0.1054854E+00
          2   -1    0    0  502    0 -0.00000000000E+00  0.00000000000E+00  0.53277565388E+03  0.53277565388E+03  0.00000000000E+00 0. -1.
         21   -1    0    0  501  502  0.00000000000E+00 -0.00000000000E+00 -0.58544814755E+03  0.58544814755E+03  0.00000000000E+00 0.  1.
         23    2    1    2    0    0 -0.22164167762E+03  0.26642381686E+03  0.27156527057E+03  0.45013706011E+03  0.93642902854E+02 0.  0.
         23    2    1    2    0    0  0.25425020011E+03 -0.29138573916E+03 -0.61205862219E+02  0.40186841967E+03  0.90571827407E+02 0.  0.
        -11    1    4    4    0    0  0.19604292601E+03 -0.16836805039E+03 -0.62082072824E+02  0.26577210726E+03  0.00000000000E+00 0.  1.
         11    1    4    4    0    0  0.58207274096E+02 -0.12301768876E+03  0.87621060484E+00  0.13609631241E+03  0.00000000000E+00 0. -1.
        -11    1    3    3    0    0 -0.19434226249E+03  0.17374132315E+03  0.17813343029E+03  0.31573166035E+03  0.00000000000E+00 0. -1.
         11    1    3    3    0    0 -0.27299415133E+02  0.92682493710E+02  0.93431840276E+02  0.13440539976E+03  0.00000000000E+00 0.  1.
          2    1    1    2  501    0 -0.32608522481E+02  0.24961922298E+02 -0.26303190202E+03  0.26621832166E+03  0.00000000000E+00 0. -1.
<scales pt_clust_5="13000.00000" pt_clust_6="13000.00000" pt_clust_7="13000.00000" pt_clust_8="13000.00000" pt_clust_9="41.06596"></scales>
<clustering>
<clus scale="   41.066">  2  9  1 -1</clus>
<clus scale="   90.572">  5  6 -1 -1</clus>
<clus scale="   93.643">  7  8 -1 -1</clus>
<clus scale="  369.005">  2  5  1 -1</clus>
<clus scale="   41.066">  2  5  1 -1</clus>
</clustering>
</event>
<event>
 9    1  0.1315259E-005  0.1861626E+03  0.7546771E-02  0.1163082E+00
          1   -1    0    0  502    0 -0.00000000000E+00  0.00000000000E+00  0.76305776573E+02  0.76305776573E+02  0.00000000000E+00 0. -1.
         21   -1    0    0  501  502  0.00000000000E+00 -0.00000000000E+00 -0.57351562285E+03  0.57351562285E+03  0.00000000000E+00 0. -1.
         23    2    1    2    0    0 -0.13458261636E+03 -0.46847352081E+02 -0.18046232176E+03  0.24990475434E+03  0.97870228569E+02 0.  0.
         23    2    1    2    0    0  0.16773983935E+03  0.69654421564E+02 -0.28092377435E+03  0.34603803216E+03  0.88519831433E+02 0.  0.
        -11    1    4    4    0    0  0.72315362826E+02  0.69717875259E+02 -0.18628607181E+03  0.21164261003E+03  0.00000000000E+00 0. -1.
         11    1    4    4    0    0  0.95424476528E+02 -0.63453694360E-01 -0.94637702542E+02  0.13439542213E+03  0.00000000000E+00 0.  1.
        -11    1    3    3    0    0 -0.10972888194E+03 -0.13683139916E+02 -0.67434850779E+02  0.12951878223E+03  0.00000000000E+00 0. -1.
         11    1    3    3    0    0 -0.24853734417E+02 -0.33164212165E+02 -0.11302747098E+03  0.12038597211E+03  0.00000000000E+00 0.  1.
          1    1    1    2  501    0 -0.33157222993E+02 -0.22807069483E+02 -0.35823750163E+02  0.53878612925E+02  0.00000000000E+00 0. -1.
<scales pt_clust_5="13000.00000" pt_clust_6="13000.00000" pt_clust_7="13000.00000" pt_clust_8="13000.00000" pt_clust_9="40.24383"></scales>
<clustering>
<clus scale="   40.244">  2  9  1 -1</clus>
<clus scale="   88.520">  5  6 -1 -1</clus>
<clus scale="   97.870">  7  8 -1 -1</clus>
<clus scale="  181.421">  2  5  1 -1</clus>
<clus scale="   40.244">  2  5  1 -1</clus>
</clustering>
</event>
<event>
 9    1  0.1315259E-005  0.1218202E+03  0.7546771E-02  0.1240691E+00
          4   -1    0    0  502    0 -0.00000000000E+00  0.00000000000E+00  0.38855107590E+03  0.38855107590E+03  0.00000000000E+00 0. -1.
         21   -1    0    0  501  502  0.00000000000E+00 -0.00000000000E+00 -0.80277948157E+02  0.80277948157E+02  0.00000000000E+00 0.  1.
         23    2    1    2    0    0  0.77916893978E+02  0.68568238185E+02  0.23945085577E+03  0.27741963342E+03  0.94086635725E+02 0.  0.
         23    2    1    2    0    0 -0.42705283559E+02 -0.45690433430E+01  0.59161516239E+02  0.11772706813E+03  0.92276541790E+02 0.  0.
        -11    1    3    3    0    0  0.11367098075E+02  0.69215418545E+02  0.15305475160E+03  0.16836193771E+03  0.00000000000E+00 0. -1.
         11    1    3    3    0    0  0.66549795903E+02 -0.64718035947E+00  0.86396104178E+02  0.10905769571E+03  0.00000000000E+00 0.  1.
        -13    1    4    4    0    0 -0.79102487953E+01 -0.42848331720E+02  0.47961236324E+02  0.64798393166E+02  0.00000000000E+00 0. -1.
         13    1    4    4    0    0 -0.34795034764E+02  0.38279288377E+02  0.11200279916E+02  0.52928674960E+02  0.00000000000E+00 0.  1.
          4    1    1    2  501    0 -0.35211610419E+02 -0.63999194842E+02  0.96607557273E+01  0.73682322506E+02  0.00000000000E+00 0. -1.
<scales pt_clust_5="13000.00000" pt_clust_6="13000.00000" pt_clust_7="13000.00000" pt_clust_8="13000.00000" pt_clust_9="73.04625"></scales>
<clustering>
<clus scale="   73.046">  2  9  1 -1</clus>
<clus scale="   92.277">  7  8 -1 -1</clus>
<clus scale="   94.087">  5  6 -1 -1</clus>
<clus scale="  120.428">  2  7  1 -1</clus>
<clus scale="   73.046">  2  5  1 -1</clus>
</clustering>
</event>
<event>
 9    1  0.1315259E-005  0.9087601E+02  0.7546771E-02  0.1300852E+00
         -3   -1    0    0    0  501 -0.00000000000E+00  0.00000000000E+00  0.37176982634E+02  0.37176982634E+02  0.00000000000E+00 0.  1.
         21   -1    0    0  501  502  0.00000000000E+00 -0.00000000000E+00 -0.31355067157E+03  0.31355067157E+03  0.00000000000E+00 0. -1.
         23    2    1    2    0    0  0.21835301921E+01 -0.10055908325E+02 -0.73872879154E+02  0.11747921594E+03  0.90764942609E+02 0.  0.
         23    2    1    2    0    0 -0.73177888926E+01 -0.12878566861E+02 -0.16913823483E+03  0.19243897647E+03  0.90584820279E+02 0.  0.
        -11    1    4    4    0    0 -0.34602253853E+02 -0.28003213666E+02 -0.40866353081E+02  0.60428095795E+02  0.00000000000E+00 0. -1.
         11    1    4    4    0    0  0.27284464960E+02  0.15124646804E+02 -0.12827188175E+03  0.13201088068E+03  0.00000000000E+00 0.  1.
        -13    1    3    3    0    0 -0.92841831869E+01  0.36244194624E+02 -0.11871275020E+02  0.39252577903E+02  0.00000000000E+00 0.  1.
         13    1    3    3    0    0  0.11467713379E+02 -0.46300102949E+02 -0.62001604135E+02  0.78226638037E+02  0.00000000000E+00 0. -1.
         -3    1    1    2    0  502  0.51342587005E+01  0.22934475186E+02 -0.33362574948E+02  0.40809461791E+02  0.00000000000E+00 0.  1.
<scales pt_clust_5="13000.00000" pt_clust_6="13000.00000" pt_clust_7="13000.00000" pt_clust_8="13000.00000" pt_clust_9="23.50214"></scales>
<clustering>
<clus scale="   23.502">  2  9  1 -1</clus>
<clus scale="   90.585">  5  6 -1 -1</clus>
<clus scale="   90.696">  2  5  1 -1</clus>
<clus scale="   90.765">  7  8 -1 -1</clus>
<clus scale="   23.502">  2  5  1 -1</clus>
</clustering>
</event>
<event>
 9    1  0.1315259E-005  0.1204424E+03  0.7546771E-02  0.1247622E+00
          2   -1    0    0  502    0 -0.00000000000E+00  0.00000000000E+00  0.72633551505E+03  0.72633551505E+03  0.00000000000E+00 0. -1.
         21   -1    0    0  501  502  0.00000000000E+00 -0.00000000000E+00 -0.49371679075E+02  0.49371679075E+02  0.00000000000E+00 0. -1.
         23    2    1    2    0    0  0.61632672680E+02  0.10391779882E+02  0.28863395561E+03  0.30508338848E+03  0.76548926609E+02 0.  0.
         23    2    1    2    0    0 -0.90648187767E+02 -0.29617023880E+02  0.40901634853E+03  0.43013380580E+03  0.92878713811E+02 0.  0.
        -11    1    3    3    0    0 -0.12238499914E+02  0.17794687192E+02  0.10125908122E+03  0.10353662783E+03  0.00000000000E+00 0.  1.
         11    1    3    3    0    0  0.73871172594E+02 -0.74029073092E+01  0.18737487439E+03  0.20154676065E+03  0.00000000000E+00 0. -1.
        -13    1    4    4    0    0 -0.89922089500E+02  0.12593985218E+02  0.27124234062E+03  0.28603670741E+03  0.00000000000E+00 0. -1.
         13    1    4    4    0    0 -0.72609826749E+00 -0.42211009098E+02  0.13777400792E+03  0.14409709839E+03  0.00000000000E+00 0.  1.
          2    1    1    2  501    0  0.29015515088E+02  0.19225243998E+02 -0.20686468161E+02  0.40489999846E+02  0.00000000000E+00 0. -1.
<scales pt_clust_5="13000.00000" pt_clust_6="13000.00000" pt_clust_7="13000.00000" pt_clust_8="13000.00000" pt_clust_9="34.80675"></scales>
<clustering>
<clus scale="   34.807">  2  9  1 -1</clus>
<clus scale="   76.549">  5  6 -1 -1</clus>
<clus scale="   92.879">  7  8 -1 -1</clus>
<clus scale="  108.350">  1  5  2 -1</clus>
<clus scale="   34.807">  2  5  1 -1</clus>
</clustering>
</event>
<event>
 9    1  0.1315259E-005  0.1110102E+03  0.7546771E-02  0.1260070E+00
         -4   -1    0    0    0  501 -0.00000000000E+00  0.00000000000E+00  0.36313780367E+03  0.36313780367E+03  0.00000000000E+00 0.  1.
         21   -1    0    0  501  502  0.00000000000E+00 -0.00000000000E+00 -0.66428002993E+02  0.66428002993E+02  0.00000000000E+00 0.  1.
         23    2    1    2    0    0  0.19455359511E+02  0.54220319900E+02  0.21018807024E+03  0.23650553167E+03  0.91855797505E+02 0.  0.
         23    2    1    2    0    0  0.20879941688E+02 -0.81413839860E+02  0.74808465972E+02  0.14302404197E+03  0.88291475886E+02 0.  0.
        -11    1    3    3    0    0  0.41963952992E+02  0.41308327775E+01  0.14632327267E+03  0.15227782916E+03  0.00000000000E+00 0.  1.
         11    1    3    3    0    0 -0.22508593481E+02  0.50089487123E+02  0.63864797574E+02  0.84227702509E+02  0.00000000000E+00 0. -1.
        -13    1    4    4    0    0  0.52415997677E+02 -0.71417675263E+02  0.50503791203E+02  0.10197330081E+03  0.00000000000E+00 0.  1.
         13    1    4    4    0    0 -0.31536055988E+02 -0.99961645976E+01  0.24304674769E+02  0.41050741157E+02  0.00000000000E+00 0. -1.
         -4    1    1    2    0  502 -0.40335301199E+02  0.27193519960E+02  0.11713264460E+02  0.50036233021E+02  0.00000000000E+00 0.  1.
<scales pt_clust_5="13000.00000" pt_clust_6="13000.00000" pt_clust_7="13000.00000" pt_clust_8="13000.00000" pt_clust_9="48.64590"></scales>
<clustering>
<clus scale="   48.646">  2  9  1 -1</clus>
<clus scale="   88.291">  7  8 -1 -1</clus>
<clus scale="   91.856">  5  6 -1 -1</clus>
<clus scale="  108.079">  2  7  1 -1</clus>
<clus scale="   48.646">  2  5  1 -1</clus>
</clustering>
</event>
<event>
 9    1  0.1315259E-005  0.1218741E+03  0.7546771E-02  0.1240354E+00
         21   -1    0    0  501  502  0.00000000000E+00  0.00000000000E+00  0.30518772774E+03  0.30518772774E+03  0.00000000000E+00 0.  1.
         -2   -1    0    0    0  501 -0.00000000000E+00 -0.00000000000E+00 -0.10023678247E+03  0.10023678247E+03  0.00000000000E+00 0.  1.
         23    2    1    2    0    0 -0.62944075379E+02 -0.41550207276E+02 -0.28407215041E+02  0.12241779502E+03  0.92145376012E+02 0.  0.
         23    2    1    2    0    0  0.86723676938E+02  0.48640549303E+02  0.18905116985E+03  0.23222431859E+03  0.91109220981E+02 0.  0.
        -11    1    3    3    0    0 -0.64317395301E+02 -0.21300863096E+02 -0.56183019282E+02  0.88016962925E+02  0.00000000000E+00 0.  1.
         11    1    3    3    0    0  0.13733199217E+01 -0.20249344181E+02  0.27775804241E+02  0.34400832092E+02  0.00000000000E+00 0. -1.
        -13    1    4    4    0    0  0.77961524377E+02 -0.62735342315E+01  0.96059787682E+02  0.12387428839E+03  0.00000000000E+00 0.  1.
         13    1    4    4    0    0  0.87621525610E+01  0.54914083534E+02  0.92991382165E+02  0.10835003020E+03  0.00000000000E+00 0. -1.
         -2    1    1    2    0  502 -0.23779601559E+02 -0.70903420261E+01  0.44306990464E+02  0.50782396599E+02  0.00000000000E+00 0.  1.
<scales pt_clust_5="13000.00000" pt_clust_6="13000.00000" pt_clust_7="13000.00000" pt_clust_8="13000.00000" pt_clust_9="24.81416"></scales>
<clustering>
<clus scale="   24.814">  1  9  2 -1</clus>
<clus scale="   91.109">  7  8 -1 -1</clus>
<clus scale="   92.145">  5  6 -1 -1</clus>
<clus scale="  121.093">  1  7  2 -1</clus>
<clus scale="   24.814">  1  5  2 -1</clus>
</clustering>
</event>
<event>
 9    1  0.1315259E-005  0.1051420E+03  0.7546771E-02  0.1271624E+00
          4   -1    0    0  502    0 -0.00000000000E+00  0.00000000000E+00  0.14448662751E+03  0.14448662751E+03  0.00000000000E+00 0. -1.
         21   -1    0    0  501  502  0.00000000000E+00 -0.00000000000E+00 -0.27557811738E+03  0.27557811738E+03  0.00000000000E+00 0. -1.
         23    2    1    2    0    0 -0.31699265303E+02 -0.21260016690E+02  0.31366524202E+02  0.10688836515E+03  0.94786243903E+02 0.  0.
         23    2    1    2    0    0  0.55515619671E+02  0.50882338580E+01  0.36121541293E+02  0.11252099081E+03  0.90820336250E+02 0.  0.
        -11    1    3    3    0    0 -0.22112249910E+02  0.24826914515E+00 -0.32221643937E+02  0.39080014991E+02  0.00000000000E+00 0.  1.
         11    1    3    3    0    0 -0.95870153921E+01 -0.21508285835E+02  0.63588168140E+02  0.67808350158E+02  0.00000000000E+00 0. -1.
        -13    1    4    4    0    0 -0.22657982518E+02  0.51415836029E+01  0.24016413138E+02  0.33415687240E+02  0.00000000000E+00 0.  1.
         13    1    4    4    0    0  0.78173602189E+02 -0.53349744885E-01  0.12105128155E+02  0.79105303571E+02  0.00000000000E+00 0. -1.
          4    1    1    2  501    0 -0.23816354368E+02  0.16171782832E+02 -0.19857955537E+03  0.20065538893E+03  0.00000000000E+00 0. -1.
<scales pt_clust_5="13000.00000" pt_clust_6="13000.00000" pt_clust_7="13000.00000" pt_clust_8="13000.00000" pt_clust_9="28.78794"></scales>
<clustering>
<clus scale="   28.788">  2  9  1 -1</clus>
<clus scale="   90.820">  7  8 -1 -1</clus>
<clus scale="   94.786">  5  6 -1 -1</clus>
<clus scale="  101.581">  2  7  1 -1</clus>
<clus scale="   28.788">  2  5  1 -1</clus>
</clustering>
</event>
<event>
 9    1  0.1315259E-005  0.1461126E+03  0.7546771E-02  0.1205661E+00
          2   -1    0    0  502    0 -0.00000000000E+00  0.00000000000E+00  0.70671803019E+03  0.70671803019E+03  0.00000000000E+00 0. -1.
         21   -1    0    0  501  502  0.00000000000E+00 -0.00000000000E+00 -0.48837229339E+02  0.48837229339E+02  0.00000000000E+00 0. -1.
         23    2    1    2    0    0  0.12516548083E+03  0.21549878840E+01  0.45133034844E+03  0.47721099527E+03  0.91434178587E+02 0.  0.
         23    2    1    2    0    0 -0.93797158748E+02 -0.30946816416E+02  0.19099324596E+03  0.23301251276E+03  0.89781950685E+02 0.  0.
        -11    1    4    4    0    0 -0.84131520881E+02 -0.55946055614E+02  0.17421164180E+03  0.20138959775E+03  0.00000000000E+00 0. -1.
         11    1    4    4    0    0 -0.96656378671E+01  0.24999239197E+02  0.16781604156E+02  0.31622915012E+02  0.00000000000E+00 0.  1.
        -13    1    3    3    0    0  0.10692272464E+03  0.35460964037E+02  0.28184775896E+03  0.30352612449E+03  0.00000000000E+00 0.  1.
         13    1    3    3    0    0  0.18242756198E+02 -0.33305976153E+02  0.16948258948E+03  0.17368487078E+03  0.00000000000E+00 0. -1.
          2    1    1    2  501    0 -0.31368322086E+02  0.28791828532E+02  0.15557206448E+02  0.45331751490E+02  0.00000000000E+00 0. -1.
<scales pt_clust_5="13000.00000" pt_clust_6="13000.00000" pt_clust_7="13000.00000" pt_clust_8="13000.00000" pt_clust_9="42.57865"></scales>
<clustering>
<clus scale="   42.579">  2  9  1 -1</clus>
<clus scale="   89.782">  5  6 -1 -1</clus>
<clus scale="   91.434">  7  8 -1 -1</clus>
<clus scale="  145.084">  2  5  1 -1</clus>
<clus scale="   42.579">  2  5  1 -1</clus>
</clustering>
</event>
<event>
 9    1  0.1315259E-005  0.1030505E+03  0.7546771E-02  0.1274361E+00
          1   -1    0    0  502    0 -0.00000000000E+00  0.00000000000E+00  0.73502992789E+03  0.73502992789E+03  0.00000000000E+00 0. -1.
         21   -1    0    0  501  502  0.00000000000E+00 -0.00000000000E+00 -0.28927174668E+02  0.28927174668E+02  0.00000000000E+00 0.  1.
         23    2    1    2    0    0  0.13098651866E+02  0.36731177963E+02  0.44529846970E+03  0.45623759932E+03  0.91330530517E+02 0.  0.
         23    2    1    2    0    0 -0.51681792466E+02 -0.57401862010E+02  0.20128624910E+03  0.23383897577E+03  0.90545740240E+02 0.  0.
        -11    1    4    4    0    0 -0.47043781343E+01 -0.36577234141E+02  0.16939063846E+03  0.17335862721E+03  0.00000000000E+00 0. -1.
         11    1    4    4    0    0 -0.46977414331E+02 -0.20824627869E+02  0.31895610643E+02  0.60480348556E+02  0.00000000000E+00 0.  1.
        -11    1    3    3    0    0  0.35467475740E+02 -0.17720236164E+02  0.20812913709E+03  0.21187186295E+03  0.00000000000E+00 0.  1.
         11    1    3    3    0    0 -0.22368823873E+02  0.54451414127E+02  0.23716933261E+03  0.24436573638E+03  0.00000000000E+00 0. -1.
          1    1    1    2  501    0  0.38583140600E+02  0.20670684047E+02  0.59518034415E+02  0.73880527462E+02  0.00000000000E+00 0. -1.
<scales pt_clust_5="13000.00000" pt_clust_6="13000.00000" pt_clust_7="13000.00000" pt_clust_8="13000.00000" pt_clust_9="43.77141"></scales>
<clustering>
<clus scale="   43.771">  2  9  1 -1</clus>
<clus scale="   90.546">  5  6 -1 -1</clus>
<clus scale="   91.331">  7  8 -1 -1</clus>
<clus scale="  102.356">  2  5  1 -1</clus>
<clus scale="   43.771">  2  5  1 -1</clus>
</clustering>
</event>
<event>
 9    1  0.1315259E-005  0.8779996E+02  0.7546771E-02  0.1313440E+00
         -2   -1    0    0    0  501 -0.00000000000E+00  0.00000000000E+00  0.60822709102E+03  0.60822709102E+03  0.00000000000E+00 0.  1.
         21   -1    0    0  501  502  0.00000000000E+00 -0.00000000000E+00 -0.24930652136E+02  0.24930652136E+02  0.00000000000E+00 0. -1.
         23    2    1    2    0    0 -0.29125576782E+01  0.18047865042E+02  0.35842454753E+03  0.36755804763E+03  0.79350826592E+02 0.  0.
         23    2    1    2    0    0 -0.11737841321E+02  0.21008395703E+02  0.10475165218E+03  0.13844271557E+03  0.87260227190E+02 0.  0.
        -13    1    4    4    0    0 -0.18950682195E+02  0.44740631653E+02  0.24442147779E+02  0.54389990480E+02  0.00000000000E+00 0. -1.
         13    1    4    4    0    0  0.72128408741E+01 -0.23732235950E+02  0.80309504405E+02  0.84052725086E+02  0.00000000000E+00 0.  1.
        -13    1    3    3    0    0 -0.37540399952E+02 -0.34975466676E+01  0.12375084704E+03  0.12936686826E+03  0.00000000000E+00 0.  1.
         13    1    3    3    0    0  0.34627842274E+02  0.21545411710E+02  0.23467370049E+03  0.23819117937E+03  0.00000000000E+00 0. -1.
         -2    1    1    2    0  502  0.14650398999E+02 -0.39056260746E+02  0.12012023917E+03  0.12715697996E+03  0.00000000000E+00 0.  1.
<scales pt_clust_5="13000.00000" pt_clust_6="13000.00000" pt_clust_7="13000.00000" pt_clust_8="13000.00000" pt_clust_9="41.71364"></scales>
<clustering>
<clus scale="   41.714">  2  9  1 -1</clus>
<clus scale="   79.351">  7  8 -1 -1</clus>
<clus scale="   79.944">  1  7  2 -1</clus>
<clus scale="   87.260">  5  6 -1 -1</clus>
<clus scale="   41.714">  2  5  1 -1</clus>
</clustering>
</event>
<event>
 9    1  0.1315259E-005  0.1086100E+03  0.7546771E-02  0.1264192E+00
         21   -1    0    0  501  502  0.00000000000E+00  0.00000000000E+00  0.33650420970E+03  0.33650420970E+03  0.00000000000E+00 0. -1.
          3   -1    0    0  502    0 -0.00000000000E+00 -0.00000000000E+00 -0.52114834110E+02  0.52114834110E+02  0.00000000000E+00 0. -1.
         23    2    1    2    0    0 -0.10374502656E+02  0.48719371055E+02  0.67388907114E+02  0.12243950211E+03  0.89269028524E+02 0.  0.
         23    2    1    2    0    0  0.63553025070E+01 -0.70363577323E+02  0.12036411748E+03  0.16706743361E+03  0.91829100585E+02 0.  0.
        -11    1    3    3    0    0 -0.30137272200E+02  0.36333848500E+02  0.82214555409E+02  0.94803147857E+02  0.00000000000E+00 0. -1.
         11    1    3    3    0    0  0.19762769544E+02  0.12385522555E+02 -0.14825648295E+02  0.27636354253E+02  0.00000000000E+00 0.  1.
        -13    1    4    4    0    0 -0.28709373531E+02 -0.23158420380E+02  0.97028144668E+02  0.10380270430E+03  0.00000000000E+00 0.  1.
         13    1    4    4    0    0  0.35064676038E+02 -0.47205156943E+02  0.23335972809E+02  0.63264729309E+02  0.00000000000E+00 0. -1.
          3    1    1    2  501    0  0.40192001486E+01  0.21644206268E+02  0.96636350999E+02  0.99112108086E+02  0.00000000000E+00 0. -1.
<scales pt_clust_5="13000.00000" pt_clust_6="13000.00000" pt_clust_7="13000.00000" pt_clust_8="13000.00000" pt_clust_9="22.01421"></scales>
<clustering>
<clus scale="   22.014">  1  9  2 -1</clus>
<clus scale="   89.269">  5  6 -1 -1</clus>
<clus scale="   91.829">  7  8 -1 -1</clus>
<clus scale="  106.454">  2  5  1 -1</clus>
<clus scale="   22.014">  1  5  2 -1</clus>
</clustering>
</event>
<event>
 9    1  0.1315259E-005  0.1035928E+03  0.7546771E-02  0.1273988E+00
          3   -1    0    0  502    0 -0.00000000000E+00  0.00000000000E+00  0.14975360789E+03  0.14975360789E+03  0.00000000000E+00 0. -1.
         21   -1    0    0  501  502  0.00000000000E+00 -0.00000000000E+00 -0.26227651385E+03  0.26227651385E+03  0.00000000000E+00 0. -1.
         23    2    1    2    0    0  0.50701564613E+02 -0.64103427165E+01  0.98633745838E+02  0.14223772260E+03  0.88832498354E+02 0.  0.
         23    2    1    2    0    0 -0.41974653551E+02 -0.17928526339E+02 -0.64106551618E+02  0.12048643312E+03  0.91236105839E+02 0.  0.
        -11    1    4    4    0    0 -0.67095656305E+02 -0.39738764005E+01 -0.24470530089E+02  0.71529194260E+02  0.00000000000E+00 0.  1.
         11    1    4    4    0    0  0.25121002755E+02 -0.13954649939E+02 -0.39636021529E+02  0.48957238862E+02  0.00000000000E+00 0. -1.
        -11    1    3    3    0    0 -0.21573851092E+02 -0.48528195300E+01  0.29412270087E+01  0.22307660671E+02  0.00000000000E+00 0.  1.
         11    1    3    3    0    0  0.72275415704E+02 -0.15575231866E+01  0.95692518829E+02  0.11993006193E+03  0.00000000000E+00 0. -1.
          3    1    1    2  501    0 -0.87269110623E+01  0.24338869056E+02 -0.14705010019E+03  0.14930596602E+03  0.00000000000E+00 0. -1.
<scales pt_clust_5="13000.00000" pt_clust_6="13000.00000" pt_clust_7="13000.00000" pt_clust_8="13000.00000" pt_clust_9="25.85613"></scales>
<clustering>
<clus scale="   25.856">  2  9  1 -1</clus>
<clus scale="   88.832">  7  8 -1 -1</clus>
<clus scale="   91.236">  5  6 -1 -1</clus>
<clus scale="  101.482">  1  7  2 -1</clus>
<clus scale="   25.856">  2  5  1 -1</clus>
</clustering>
</event>
<event>
 9    1  0.1315259E-005  0.1110776E+03  0.7546771E-02  0.1259875E+00
          1   -1    0    0  502    0 -0.00000000000E+00  0.00000000000E+00  0.35389294508E+03  0.35389294508E+03  0.00000000000E+00 0. -1.
         21   -1    0    0  501  502  0.00000000000E+00 -0.00000000000E+00 -0.46661000511E+02  0.46661000511E+02  0.00000000000E+00 0. -1.
         23    2    1    2    0    0  0.27130977273E+01  0.63768686459E+02  0.15711297016E+03  0.19126140556E+03  0.88445653314E+02 0.  0.
         23    2    1    2    0    0 -0.33771807300E+02 -0.55904060492E+02  0.12698122171E+03  0.16977227458E+03  0.91829165308E+02 0.  0.
        -11    1    4    4    0    0  0.21222711519E+02 -0.19565606803E+02  0.25721233653E+01  0.28979859772E+02  0.00000000000E+00 0.  1.
         11    1    4    4    0    0 -0.54994518818E+02 -0.36338453689E+02  0.12440909834E+03  0.14079241480E+03  0.00000000000E+00 0. -1.
        -13    1    3    3    0    0 -0.14641583733E+02 -0.16239516365E+02  0.12780626413E+02  0.25326710752E+02  0.00000000000E+00 0.  1.
         13    1    3    3    0    0  0.17354681460E+02  0.80008202825E+02  0.14433234375E+03  0.16593469481E+03  0.00000000000E+00 0. -1.
          1    1    1    2  501    0  0.31058709572E+02 -0.78646259669E+01  0.23137752704E+02  0.39520265461E+02  0.00000000000E+00 0. -1.
<scales pt_clust_5="13000.00000" pt_clust_6="13000.00000" pt_clust_7="13000.00000" pt_clust_8="13000.00000" pt_clust_9="32.03897"></scales>
<clustering>
<clus scale="   32.039">  2  9  1 -1</clus>
<clus scale="   88.446">  7  8 -1 -1</clus>
<clus scale="   91.829">  5  6 -1 -1</clus>
<clus scale="  108.297">  1  7  2 -1</clus>
<clus scale="   32.039">  2  5  1 -1</clus>
</clustering>
</event>
<event>
 9    1  0.1315259E-005  0.1182497E+03  0.7546771E-02  0.1247551E+00
         -3   -1    0    0    0  501 -0.00000000000E+00  0.00000000000E+00  0.21134722375E+03  0.21134722375E+03  0.00000000000E+00 0.  1.
         21   -1    0    0  501  502  0.00000000000E+00 -0.00000000000E+00 -0.14587818991E+03  0.14587818991E+03  0.00000000000E+00 0.  1.
         23    2    1    2    0    0  0.71404546625E+02 -0.40960377202E+02  0.12506506462E+03  0.17565672567E+03  0.91856698746E+02 0.  0.
         23    2    1    2    0    0 -0.45534991934E+02  0.39725363669E+02  0.10741299339E+02  0.10661470793E+03  0.87176719516E+02 0.  0.
        -11    1    3    3    0    0  0.76305936532E+02 -0.63029479256E+02  0.11232535342E+03  0.14970736865E+03  0.00000000000E+00 0. -1.
         11    1    3    3    0    0 -0.49013899074E+01  0.22069102053E+02  0.12739711200E+02  0.25949357023E+02  0.00000000000E+00 0.  1.
        -11    1    4    4    0    0  0.18408779207E+02  0.25008687783E+02  0.24521402817E+02  0.39567876019E+02  0.00000000000E+00 0. -1.
         11    1    4    4    0    0 -0.63943771141E+02  0.14716675886E+02 -0.13780103478E+02  0.67046831907E+02  0.00000000000E+00 0.  1.
         -3    1    1    2    0  502 -0.25869554691E+02  0.12350135329E+01 -0.70337330126E+02  0.74953980065E+02  0.00000000000E+00 0.  1.
<scales pt_clust_5="13000.00000" pt_clust_6="13000.00000" pt_clust_7="13000.00000" pt_clust_8="13000.00000" pt_clust_9="25.89902"></scales>
<clustering>
<clus scale="   25.899">  2  9  1 -1</clus>
<clus scale="   87.177">  7  8 -1 -1</clus>
<clus scale="   91.857">  5  6 -1 -1</clus>
<clus scale="  114.652">  2  7  1 -1</clus>
<clus scale="   25.899">  2  5  1 -1</clus>
</clustering>
</event>
<event>
 9    1  0.1315259E-005  0.9194029E+02  0.7546771E-02  0.1298433E+00
          3   -1    0    0  502    0 -0.00000000000E+00  0.00000000000E+00  0.24352975001E+03  0.24352975001E+03  0.00000000000E+00 0. -1.
         21   -1    0    0  501  502  0.00000000000E+00 -0.00000000000E+00 -0.62554303752E+02  0.62554303752E+02  0.00000000000E+00 0.  1.
         23    2    1    2    0    0 -0.33068827069E+01 -0.92927237062E+01  0.16410322886E+03  0.18793538536E+03  0.91063434814E+02 0.  0.
         23    2    1    2    0    0  0.25378224744E+02  0.10307227920E+02  0.15579825478E+02  0.96016256989E+02  0.90697835728E+02 0.  0.
        -13    1    3    3    0    0  0.31881622305E+02  0.10609937424E+02  0.21924798440E+02  0.40121134076E+02  0.00000000000E+00 0.  1.
         13    1    3    3    0    0 -0.35188505012E+02 -0.19902661130E+02  0.14217843042E+03  0.14781425128E+03  0.00000000000E+00 0. -1.
        -13    1    4    4    0    0 -0.18833901505E+02 -0.26075512852E+02 -0.94523721436E+01  0.33526042945E+02  0.00000000000E+00 0.  1.
         13    1    4    4    0    0  0.44212126249E+02  0.36382740771E+02  0.25032197622E+02  0.62490214044E+02  0.00000000000E+00 0. -1.
          3    1    1    2  501    0 -0.22071342037E+02 -0.10145042134E+01  0.12923919188E+01  0.22132411414E+02  0.00000000000E+00 0. -1.
<scales pt_clust_5="13000.00000" pt_clust_6="13000.00000" pt_clust_7="13000.00000" pt_clust_8="13000.00000" pt_clust_9="22.09465"></scales>
<clustering>
<clus scale="   22.095">  2  9  1 -1</clus>
<clus scale="   90.698">  7  8 -1 -1</clus>
<clus scale="   91.063">  5  6 -1 -1</clus>
<clus scale="   91.578">  2  7  1 -1</clus>
<clus scale="   22.095">  2  5  1 -1</clus>
</clustering>
</event>
<event>
 9    1  0.1315259E-005  0.1205943E+03  0.7546771E-02  0.1246646E+00
         21   -1    0    0  501  502  0.00000000000E+00  0.00000000000E+00  0.96460168142E+02  0.96460168142E+02  0.00000000000E+00 0.  1.
          2   -1    0    0  502    0 -0.00000000000E+00 -0.00000000000E+00 -0.24106424978E+03  0.24106424978E+03  0.00000000000E+00 0. -1.
         23    2    1    2    0    0 -0.39608552792E+01  0.45709978345E+02 -0.93436151210E+02  0.14800709843E+03  0.10521737660E+03 0.  0.
         23    2    1    2    0    0 -0.24010900411E+01 -0.73747353167E+02 -0.84347672575E+02  0.14561442637E+03  0.92976308630E+02 0.  0.
        -11    1    4    4    0    0  0.43860883353E+02 -0.32067491275E+02 -0.52993543221E+02  0.75897409101E+02  0.00000000000E+00 0.  1.
         11    1    4    4    0    0 -0.46261973394E+02 -0.41679861892E+02 -0.31354129354E+02  0.69717017271E+02  0.00000000000E+00 0. -1.
        -11    1    3    3    0    0 -0.27326656647E+02 -0.16996424543E+02 -0.70104677633E+02  0.77138125702E+02  0.00000000000E+00 0. -1.
         11    1    3    3    0    0  0.23365801368E+02  0.62706402887E+02 -0.23331473577E+02  0.70868972731E+02  0.00000000000E+00 0.  1.
          2    1    1    2  501    0  0.63619453203E+01  0.28037374822E+02  0.33179742147E+02  0.43902893118E+02  0.00000000000E+00 0. -1.
<scales pt_clust_5="13000.00000" pt_clust_6="13000.00000" pt_clust_7="13000.00000" pt_clust_8="13000.00000" pt_clust_9="28.75011"></scales>
<clustering>
<clus scale="   28.750">  1  9  2 -1</clus>
<clus scale="   92.976">  5  6 -1 -1</clus>
<clus scale="  105.217">  7  8 -1 -1</clus>
<clus scale="  110.077">  1  5  2 -1</clus>
<clus scale="   28.750">  1  5  2 -1</clus>
</clustering>
</event>
<event>
 9    1  0.1315259E-005  0.1176493E+03  0.7546771E-02  0.1247588E+00
         21   -1    0    0  501  502  0.00000000000E+00  0.00000000000E+00  0.48260095007E+02  0.48260095007E+02  0.00000000000E+00 0. -1.
          1   -1    0    0  502    0 -0.00000000000E+00 -0.00000000000E+00 -0.42382956446E+03  0.42382956446E+03  0.00000000000E+00 0. -1.
         23    2    1    2    0    0  0.15194401889E+02  0.64775018548E+02 -0.25397295661E+03  0.27837090252E+03  0.92527962292E+02 0.  0.
         23    2    1    2    0    0 -0.10092506175E+02 -0.86286955099E+02 -0.11569310452E+03  0.17083551015E+03  0.90843710806E+02 0.  0.
        -11    1    3    3    0    0  0.54101537052E+02  0.44274460591E+02 -0.15081147519E+03  0.16622666820E+03  0.00000000000E+00 0. -1.
         11    1    3    3    0    0 -0.38907135163E+02  0.20500557957E+02 -0.10316148142E+03  0.11214423432E+03  0.00000000000E+00 0.  1.
        -13    1    4    4    0    0  0.32417652167E+02 -0.16681356579E+02 -0.10917098804E+02  0.38057257858E+02  0.00000000000E+00 0.  1.
         13    1    4    4    0    0 -0.42510158342E+02 -0.69605598519E+02 -0.10477600572E+03  0.13277825229E+03  0.00000000000E+00 0. -1.
          1    1    1    2  501    0 -0.51018957143E+01  0.21511936551E+02 -0.59034083208E+01  0.22883246794E+02  0.00000000000E+00 0. -1.
<scales pt_clust_5="13000.00000" pt_clust_6="13000.00000" pt_clust_7="13000.00000" pt_clust_8="13000.00000" pt_clust_9="22.10866"></scales>
<clustering>
<clus scale="   22.109">  1  9  2 -1</clus>
<clus scale="   90.844">  7  8 -1 -1</clus>
<clus scale="   92.528">  5  6 -1 -1</clus>
<clus scale="  116.329">  1  7  2 -1</clus>
<clus scale="   22.109">  1  5  2 -1</clus>
</clustering>
</event>
<event>
 9    1  0.1315259E-005  0.1116497E+03  0.7546771E-02  0.1259095E+00
         21   -1    0    0  501  502  0.00000000000E+00  0.00000000000E+00  0.50812696500E+03  0.50812696500E+03  0.00000000000E+00 0. -1.
          2   -1    0    0  502    0 -0.00000000000E+00 -0.00000000000E+00 -0.82388340551E+02  0.82388340551E+02  0.00000000000E+00 0. -1.
         23    2    1    2    0    0  0.54962817432E+02 -0.27171901419E+02 -0.26010432677E+02  0.11200860276E+03  0.90056432077E+02 0.  0.
         23    2    1    2    0    0 -0.62515809933E+02 -0.12470909674E+02  0.28217371428E+03  0.30419549526E+03  0.94069890123E+02 0.  0.
        -11    1    4    4    0    0 -0.22165314842E+02 -0.52223262396E+02  0.15147345317E+03  0.16174911849E+03  0.00000000000E+00 0. -1.
         11    1    4    4    0    0 -0.40350495091E+02  0.39752352723E+02  0.13070026111E+03  0.14244637677E+03  0.00000000000E+00 0.  1.
        -11    1    3    3    0    0  0.50681659101E+02  0.16999554195E+02  0.10576551421E+02  0.54492924789E+02  0.00000000000E+00 0.  1.
         11    1    3    3    0    0  0.42811583310E+01 -0.44171455613E+02 -0.36586984098E+02  0.57515677976E+02  0.00000000000E+00 0. -1.
          2    1    1    2  501    0  0.75529925007E+01  0.39642811092E+02  0.16957534285E+03  0.17431120753E+03  0.00000000000E+00 0. -1.
<scales pt_clust_5="13000.00000" pt_clust_6="13000.00000" pt_clust_7="13000.00000" pt_clust_8="13000.00000" pt_clust_9="40.35592"></scales>
<clustering>
<clus scale="   40.356">  1  9  2 -1</clus>
<clus scale="   90.056">  7  8 -1 -1</clus>
<clus scale="   94.070">  5  6 -1 -1</clus>
<clus scale="  108.290">  2  7  1 -1</clus>
<clus scale="   40.356">  1  5  2 -1</clus>
</clustering>
</event>
<event>
 9    1  0.1315259E-005  0.9734812E+02  0.7546771E-02  0.1292150E+00
         -2   -1    0    0    0  501 -0.00000000000E+00  0.00000000000E+00  0.12212223523E+03  0.12212223523E+03  0.00000000000E+00 0.  1.
         21   -1    0    0  501  502  0.00000000000E+00 -0.00000000000E+00 -0.10598836380E+03  0.10598836380E+03  0.00000000000E+00 0.  1.
         23    2    1    2    0    0 -0.48099433037E+01 -0.31655704356E+02  0.30754983919E+02  0.91239835387E+02  0.79709593856E+02 0.  0.
         23    2    1    2    0    0  0.34539944500E+02  0.27334872190E+02  0.43248794114E+01  0.10135325852E+03  0.91178810185E+02 0.  0.
        -13    1    3    3    0    0  0.29180521683E+00  0.26826791209E+02  0.57828041383E+01  0.27444538629E+02  0.00000000000E+00 0. -1.
         13    1    3    3    0    0 -0.51017485205E+01 -0.58482495565E+02  0.24972179781E+02  0.63795296758E+02  0.00000000000E+00 0.  1.
        -13    1    4    4    0    0  0.64034518420E+02  0.53307614364E+01  0.58624760841E+01  0.64522904403E+02  0.00000000000E+00 0.  1.
         13    1    4    4    0    0 -0.29494573920E+02  0.22004110753E+02 -0.15375966727E+01  0.36830354116E+02  0.00000000000E+00 0. -1.
         -2    1    1    2    0  502 -0.29730001197E+02  0.43208321663E+01 -0.18945991899E+02  0.35517505132E+02  0.00000000000E+00 0.  1.
<scales pt_clust_5="13000.00000" pt_clust_6="13000.00000" pt_clust_7="13000.00000" pt_clust_8="13000.00000" pt_clust_9="30.04235"></scales>
<clustering>
<clus scale="   30.042">  2  9  1 -1</clus>
<clus scale="   79.710">  5  6 -1 -1</clus>
<clus scale="   86.699">  1  5  2 -1</clus>
<clus scale="   91.179">  7  8 -1 -1</clus>
<clus scale="   30.042">  2  5  1 -1</clus>
</clustering>
</event>
<event>
 9    1  0.1315259E-005  0.9906336E+02  0.7546771E-02  0.1282329E+00
         -3   -1    0    0    0  501 -0.00000000000E+00  0.00000000000E+00  0.65137540974E+02  0.65137540974E+02  0.00000000000E+00 0.  1.
         21   -1    0    0  501  502  0.00000000000E+00 -0.00000000000E+00 -0.30990257604E+03  0.30990257604E+03  0.00000000000E+00 0.  1.
         23    2    1    2    0    0  0.91229731744E+01  0.85247192764E+01 -0.59436969976E+02  0.11046309412E+03  0.92268316799E+02 0.  0.
         23    2    1    2    0    0 -0.63231909201E+02 -0.79678394282E+01 -0.57887123372E+02  0.12612385139E+03  0.92165861526E+02 0.  0.
        -13    1    3    3    0    0 -0.42203660411E+01 -0.37853199545E+02 -0.61671195100E+01  0.38583799299E+02  0.00000000000E+00 0.  1.
         13    1    3    3    0    0  0.13343339216E+02  0.46377918821E+02 -0.53269850466E+02  0.71879294823E+02  0.00000000000E+00 0. -1.
        -13    1    4    4    0    0 -0.59018430406E+01 -0.40451131888E+02 -0.41438244932E+02  0.58208710391E+02  0.00000000000E+00 0. -1.
         13    1    4    4    0    0 -0.57330066160E+02  0.32483292460E+02 -0.16448878439E+02  0.67915140999E+02  0.00000000000E+00 0.  1.
         -3    1    1    2    0  502  0.54108936027E+02 -0.55687984821E+00 -0.12744094172E+03  0.13845317150E+03  0.00000000000E+00 0.  1.
<scales pt_clust_5="13000.00000" pt_clust_6="13000.00000" pt_clust_7="13000.00000" pt_clust_8="13000.00000" pt_clust_9="54.11180"></scales>
<clustering>
<clus scale="   54.112">  2  9  1 -1</clus>
<clus scale="   92.166">  7  8 -1 -1</clus>
<clus scale="   92.268">  5  6 -1 -1</clus>
<clus scale="   98.968">  2  7  1 -1</clus>
<clus scale="   54.112">  2  5  1 -1</clus>
</clustering>
</event>
<event>
 9    1  0.1315259E-005  0.1063280E+03  0.7546771E-02  0.1270551E+00
          2   -1    0    0  502    0 -0.00000000000E+00  0.00000000000E+00  0.11050592675E+03  0.11050592675E+03  0.00000000000E+00 0. -1.
         21   -1    0    0  501  502  0.00000000000E+00 -0.00000000000E+00 -0.37091778141E+03  0.37091778141E+03  0.00000000000E+00 0.  1.
         23    2    1    2    0    0  0.70274722676E+01 -0.49356210652E+02  0.57198414308E+02  0.11428188953E+03  0.85459176097E+02 0.  0.
         23    2    1    2    0    0  0.22774272721E+02  0.68264671000E+02 -0.12506468476E+03  0.17138820852E+03  0.92487890234E+02 0.  0.
        -13    1    4    4    0    0  0.55529747950E+02  0.38535975484E+02 -0.49317405844E+02  0.83670668893E+02  0.00000000000E+00 0. -1.
         13    1    4    4    0    0 -0.32755475229E+02  0.29728695517E+02 -0.75747278913E+02  0.87717539622E+02  0.00000000000E+00 0.  1.
        -13    1    3    3    0    0  0.11999904765E+02  0.22951047196E+02  0.98504777268E+01  0.27708846840E+02  0.00000000000E+00 0.  1.
         13    1    3    3    0    0 -0.49724324974E+01 -0.72307257848E+02  0.47347936581E+02  0.86573042692E+02  0.00000000000E+00 0. -1.
          2    1    1    2  501    0 -0.29801744988E+02 -0.18908460348E+02 -0.19254558421E+03  0.19575361012E+03  0.00000000000E+00 0. -1.
<scales pt_clust_5="13000.00000" pt_clust_6="13000.00000" pt_clust_7="13000.00000" pt_clust_8="13000.00000" pt_clust_9="35.29411"></scales>
<clustering>
<clus scale="   35.294">  2  9  1 -1</clus>
<clus scale="   85.459">  7  8 -1 -1</clus>
<clus scale="   92.488">  5  6 -1 -1</clus>
<clus scale="  100.274">  1  7  2 -1</clus>
<clus scale="   35.294">  2  5  1 -1</clus>
</clustering>
</event>
<event>
 9    1  0.1315259E-005  0.1051225E+03  0.7546771E-02  0.1276336E+00
          2   -1    0    0  502    0 -0.00000000000E+00  0.00000000000E+00  0.11370999907E+03  0.11370999907E+03  0.00000000000E+00 0. -1.
         21   -1    0    0  501  502  0.00000000000E+00 -0.00000000000E+00 -0.38784385251E+03  0.38784385251E+03  0.00000000000E+00 0.  1.
         23    2    1    2    0    0 -0.22826101761E+02  0.59830286457E+01  0.75743823863E+02  0.12977914020E+03  0.10270672239E+03 0.  0.
         23    2    1    2    0    0  0.46600690182E+01 -0.25597651618E+02 -0.21963710037E+03  0.23881853041E+03  0.90093721180E+02 0.  0.
        -11    1    4    4    0    0 -0.34153831844E+02 -0.35355359270E+02 -0.15674200215E+03  0.16426971997E+03  0.00000000000E+00 0.  1.
         11    1    4    4    0    0  0.38813900862E+02  0.97577076515E+01 -0.62895098219E+02  0.74548810444E+02  0.00000000000E+00 0. -1.
        -11    1    3    3    0    0 -0.57517741275E+01 -0.44479354397E+02  0.58646016073E+02  0.73829879279E+02  0.00000000000E+00 0.  1.
         11    1    3    3    0    0 -0.17074327634E+02  0.50462383043E+02  0.17097807790E+02  0.55949260922E+02  0.00000000000E+00 0. -1.
          2    1    1    2  501    0  0.18166032743E+02  0.19614622972E+02 -0.13024057693E+03  0.13295618097E+03  0.00000000000E+00 0. -1.
<scales pt_clust_5="13000.00000" pt_clust_6="13000.00000" pt_clust_7="13000.00000" pt_clust_8="13000.00000" pt_clust_9="26.73459"></scales>
<clustering>
<clus scale="   26.735">  2  9  1 -1</clus>
<clus scale="   90.094">  5  6 -1 -1</clus>
<clus scale="   92.838">  2  5  1 -1</clus>
<clus scale="  102.707">  7  8 -1 -1</clus>
<clus scale="   26.735">  2  5  1 -1</clus>
</clustering>
</event>
<event>
 9    1  0.1315259E-005  0.9612702E+02  0.7546771E-02  0.1290018E+00
         21   -1    0    0  501  502  0.00000000000E+00  0.00000000000E+00  0.66839726441E+02  0.66839726441E+02  0.00000000000E+00 0. -1.
          4   -1    0    0  502    0 -0.00000000000E+00 -0.00000000000E+00 -0.25372843509E+03  0.25372843509E+03  0.00000000000E+00 0. -1.
         23    2    1    2    0    0  0.25065583674E+02 -0.14275630331E+01 -0.11026784643E+03  0.14529179733E+03  0.91216155332E+02 0.  0.
         23    2    1    2    0    0 -0.12958459835E+02 -0.21238502792E+02 -0.10089695737E+03  0.13992580857E+03  0.93701868789E+02 0.  0.
        -13    1    3    3    0    0 -0.30547979484E+02 -0.17676642244E+02 -0.54114081424E+02  0.64606319660E+02  0.00000000000E+00 0.  1.
         13    1    3    3    0    0  0.55613563158E+02  0.16249079211E+02 -0.56153765005E+02  0.80685477668E+02  0.00000000000E+00 0. -1.
        -13    1    4    4    0    0 -0.53061875730E+02 -0.45449824379E+01 -0.60572008659E+02  0.80654744153E+02  0.00000000000E+00 0.  1.
         13    1    4    4    0    0  0.40103415895E+02 -0.16693520354E+02 -0.40324948713E+02  0.59271064415E+02  0.00000000000E+00 0. -1.
          4    1    1    2  501    0 -0.12107123839E+02  0.22666065825E+02  0.24276095153E+02  0.35350555633E+02  0.00000000000E+00 0. -1.
<scales pt_clust_5="13000.00000" pt_clust_6="13000.00000" pt_clust_7="13000.00000" pt_clust_8="13000.00000" pt_clust_9="25.69695"></scales>
<clustering>
<clus scale="   25.697">  1  9  2 -1</clus>
<clus scale="   91.216">  5  6 -1 -1</clus>
<clus scale="   93.702">  7  8 -1 -1</clus>
<clus scale="   93.706">  2  5  1 -1</clus>
<clus scale="   25.697">  1  5  2 -1</clus>
</clustering>
</event>
<event>
 9    1  0.1315259E-005  0.1055247E+03  0.7546771E-02  0.1269153E+00
         21   -1    0    0  501  502  0.00000000000E+00  0.00000000000E+00  0.54188264155E+02  0.54188264155E+02  0.00000000000E+00 0. -1.
         -1   -1    0    0    0  501 -0.00000000000E+00 -0.00000000000E+00 -0.51451204500E+03  0.51451204500E+03  0.00000000000E+00 0.  1.
         23    2    1    2    0    0 -0.18466408164E+02 -0.25049996262E+02 -0.16359063955E+03  0.18950527163E+03  0.90453524449E+02 0.  0.
         23    2    1    2    0    0 -0.34899216709E+02  0.99349593166E+02 -0.21800761600E+03  0.25850523534E+03  0.90605403116E+02 0.  0.
        -11    1    4    4    0    0 -0.53653560661E+02  0.27993750488E+02 -0.13184660318E+03  0.14507198699E+03  0.00000000000E+00 0.  1.
         11    1    4    4    0    0  0.18754343952E+02  0.71355842678E+02 -0.86161012818E+02  0.11343324835E+03  0.00000000000E+00 0. -1.
        -13    1    3    3    0    0 -0.28339467787E+02  0.10900078479E+02 -0.14443263018E+03  0.14758970766E+03  0.00000000000E+00 0. -1.
         13    1    3    3    0    0  0.98730596221E+01 -0.35950074742E+02 -0.19158009363E+02  0.41915563971E+02  0.00000000000E+00 0.  1.
         -1    1    1    2    0  502  0.53365624873E+02 -0.74299596904E+02 -0.78725525297E+02  0.12068980218E+03  0.00000000000E+00 0.  1.
<scales pt_clust_5="13000.00000" pt_clust_6="13000.00000" pt_clust_7="13000.00000" pt_clust_8="13000.00000" pt_clust_9="91.47852"></scales>
<clustering>
<clus scale="   90.454">  7  8 -1 -1</clus>
<clus scale="   90.605">  5  6 -1 -1</clus>
<clus scale="   91.479">  1  9  2 -1</clus>
<clus scale="  105.394">  2  7  1 -1</clus>
<clus scale="   91.479">  1  5  2 -1</clus>
</clustering>
</event>
<event>
 9    1  0.1315259E-005  0.1077532E+03  0.7546771E-02  0.1271413E+00
         21   -1    0    0  501  502  0.00000000000E+00  0.00000000000E+00  0.12102436262E+03  0.12102436262E+03  0.00000000000E+00 0. -1.
          1   -1    0    0  502    0 -0.00000000000E+00 -0.00000000000E+00 -0.26932121749E+03  0.26932121749E+03  0.00000000000E+00 0. -1.
         23    2    1    2    0    0 -0.10253369420E+02 -0.74790624258E+01 -0.10382518953E+03  0.13846999252E+03  0.90736987441E+02 0.  0.
         23    2    1    2    0    0  0.24395103539E+02  0.40775228813E+02 -0.12137045062E+03  0.16689296279E+03  0.10423403659E+03 0.  0.
        -11    1    3    3    0    0 -0.35475866729E+02  0.29953081958E+02 -0.55011598670E+02  0.71986111349E+02  0.00000000000E+00 0.  1.
         11    1    3    3    0    0  0.25222497309E+02 -0.37432144384E+02 -0.48813590857E+02  0.66483881175E+02  0.00000000000E+00 0. -1.
        -13    1    4    4    0    0 -0.29199391141E+02  0.84715024795E+00 -0.10183462508E+01  0.29229422431E+02  0.00000000000E+00 0. -1.
         13    1    4    4    0    0  0.53594494681E+02  0.39928078565E+02 -0.12035210437E+03  0.13766354036E+03  0.00000000000E+00 0.  1.
          1    1    1    2  501    0 -0.14141734120E+02 -0.33296166387E+02  0.76898785282E+02  0.84982624799E+02  0.00000000000E+00 0. -1.
<scales pt_clust_5="13000.00000" pt_clust_6="13000.00000" pt_clust_7="13000.00000" pt_clust_8="13000.00000" pt_clust_9="36.17490"></scales>
<clustering>
<clus scale="   36.175">  1  9  2 -1</clus>
<clus scale="   90.737">  5  6 -1 -1</clus>
<clus scale="   94.759">  2  5  1 -1</clus>
<clus scale="  104.234">  7  8 -1 -1</clus>
<clus scale="   36.175">  1  5  2 -1</clus>
</clustering>
</event>
<event>
 9    1  0.1315259E-005  0.2180560E+03  0.7546771E-02  0.1136357E+00
          2   -1    0    0  502    0 -0.00000000000E+00  0.00000000000E+00  0.17196356178E+04  0.17196356178E+04  0.00000000000E+00 0. -1.
         21   -1    0    0  501  502  0.00000000000E+00 -0.00000000000E+00 -0.54494965277E+02  0.54494965277E+02  0.00000000000E+00 0. -1.
         23    2    1    2    0    0  0.15528264932E+03 -0.13644657435E+03  0.10850498507E+04  0.11077607089E+04  0.84084725142E+02 0.  0.
         23    2    1    2    0    0 -0.13946357538E+03  0.11190454267E+03  0.59833971824E+03  0.63193766008E+03  0.96757802135E+02 0.  0.
        -11    1    4    4    0    0 -0.10669223664E+03  0.24705760870E+02  0.29818711571E+03  0.31766202787E+03  0.00000000000E+00 0.  1.
         11    1    4    4    0    0 -0.32771338742E+02  0.87198781800E+02  0.30015260253E+03  0.31427563220E+03  0.00000000000E+00 0. -1.
        -11    1    3    3    0    0  0.33179665502E+02 -0.82019943444E+02  0.48439624788E+03  0.49241028248E+03  0.00000000000E+00 0. -1.
         11    1    3    3    0    0  0.12210298381E+03 -0.54426630906E+02  0.60065360278E+03  0.61535042646E+03  0.00000000000E+00 0.  1.
          2    1    1    2  501    0 -0.15819073933E+02  0.24542031681E+02 -0.18248916353E+02  0.34432214091E+02  0.00000000000E+00 0. -1.
<scales pt_clust_5="13000.00000" pt_clust_6="13000.00000" pt_clust_7="13000.00000" pt_clust_8="13000.00000" pt_clust_9="29.19853"></scales>
<clustering>
<clus scale="   29.199">  2  9  1 -1</clus>
<clus scale="   84.085">  7  8 -1 -1</clus>
<clus scale="   96.758">  5  6 -1 -1</clus>
<clus scale="  212.736">  1  7  2 -1</clus>
<clus scale="   29.199">  2  5  1 -1</clus>
</clustering>
</event>
<event>
 9    1  0.1315259E-005  0.1456689E+03  0.7546771E-02  0.1206523E+00
         21   -1    0    0  501  502  0.00000000000E+00  0.00000000000E+00  0.41724399541E+02  0.41724399541E+02  0.00000000000E+00 0. -1.
         -1   -1    0    0    0  501 -0.00000000000E+00 -0.00000000000E+00 -0.92565592704E+03  0.92565592704E+03  0.00000000000E+00 0.  1.
         23    2    1    2    0    0 -0.68307928226E+01 -0.91009510258E+02 -0.39829720061E+03  0.41864452704E+03  0.91066949645E+02 0.  0.
         23    2    1    2    0    0  0.21145931018E+02  0.14889490243E+03 -0.44127239245E+03  0.47441471885E+03  0.87927008089E+02 0.  0.
        -11    1    3    3    0    0 -0.29749182085E+02 -0.29269156730E+02 -0.54751473902E+02  0.68843454771E+02  0.00000000000E+00 0. -1.
         11    1    3    3    0    0  0.22918389262E+02 -0.61740353528E+02 -0.34354572671E+03  0.34980107227E+03  0.00000000000E+00 0.  1.
        -11    1    4    4    0    0  0.21282745460E+02  0.21183814395E+01 -0.11033094649E+03  0.11238487686E+03  0.00000000000E+00 0.  1.
         11    1    4    4    0    0 -0.13681444273E+00  0.14677652099E+03 -0.33094144596E+03  0.36202984199E+03  0.00000000000E+00 0. -1.
         -1    1    1    2    0  502 -0.14315138195E+02 -0.57885392173E+02 -0.44361934436E+02  0.74321080693E+02  0.00000000000E+00 0.  1.
<scales pt_clust_5="13000.00000" pt_clust_6="13000.00000" pt_clust_7="13000.00000" pt_clust_8="13000.00000" pt_clust_9="59.62920"></scales>
<clustering>
<clus scale="   59.629">  1  9  2 -1</clus>
<clus scale="   87.927">  7  8 -1 -1</clus>
<clus scale="   91.067">  5  6 -1 -1</clus>
<clus scale="  143.727">  1  7  2 -1</clus>
<clus scale="   59.629">  1  5  2 -1</clus>
</clustering>
</event>
<event>
 9    1  0.1315259E-005  0.1038060E+03  0.7546771E-02  0.1273734E+00
         21   -1    0    0  501  502  0.00000000000E+00  0.00000000000E+00  0.16422561287E+03  0.16422561287E+03  0.00000000000E+00 0. -1.
          1   -1    0    0  502    0 -0.00000000000E+00 -0.00000000000E+00 -0.17446396384E+03  0.17446396384E+03  0.00000000000E+00 0. -1.
         23    2    1    2    0    0 -0.34554197539E+02  0.35148590881E+02 -0.86801570978E+02  0.13594002123E+03  0.92280879057E+02 0.  0.
         23    2    1    2    0    0  0.33326734829E+02 -0.60411129615E+01 -0.19209692675E+02  0.10264359792E+03  0.94971204058E+02 0.  0.
        -11    1    4    4    0    0  0.58034149285E+02 -0.30616754901E+02 -0.16687591314E+02  0.67703942779E+02  0.00000000000E+00 0.  1.
         11    1    4    4    0    0 -0.24707414456E+02  0.24575641940E+02 -0.25221013610E+01  0.34939655137E+02  0.00000000000E+00 0. -1.
        -13    1    3    3    0    0  0.21270721402E+02  0.35340009858E+02 -0.62888882926E+02  0.75208852414E+02  0.00000000000E+00 0.  1.
         13    1    3    3    0    0 -0.55824918941E+02 -0.19141897673E+00 -0.23912688052E+02  0.60731168817E+02  0.00000000000E+00 0. -1.
          1    1    1    2  501    0  0.12274627095E+01 -0.29107477920E+02  0.95772912681E+02  0.10010595756E+03  0.00000000000E+00 0. -1.
<scales pt_clust_5="13000.00000" pt_clust_6="13000.00000" pt_clust_7="13000.00000" pt_clust_8="13000.00000" pt_clust_9="29.13335"></scales>
<clustering>
<clus scale="   29.133">  1  9  2 -1</clus>
<clus scale="   92.281">  7  8 -1 -1</clus>
<clus scale="   94.971">  5  6 -1 -1</clus>
<clus scale="  101.350">  2  7  1 -1</clus>
<clus scale="   29.133">  1  5  2 -1</clus>
</clustering>
</event>
<event>
 9    1  0.1315259E-005  0.9557708E+02  0.7546771E-02  0.1290980E+00
         21   -1    0    0  501  502  0.00000000000E+00  0.00000000000E+00  0.30119108821E+03  0.30119108821E+03  0.00000000000E+00 0.  1.
          1   -1    0    0  502    0 -0.00000000000E+00 -0.00000000000E+00 -0.63123137538E+02  0.63123137538E+02  0.00000000000E+00 0. -1.
         23    2    1    2    0    0 -0.20608877927E+01  0.24593858195E+02  0.26695066363E+02  0.95886054982E+02  0.88726567907E+02 0.  0.
         23    2    1    2    0    0  0.50385056446E+02 -0.21315787121E+02  0.94819733142E+02  0.14221165809E+03  0.90776413284E+02 0.  0.
        -11    1    3    3    0    0  0.19419245412E+02  0.51279940402E+02  0.43937124822E+01  0.55009490903E+02  0.00000000000E+00 0.  1.
         11    1    3    3    0    0 -0.21480133205E+02 -0.26686082207E+02  0.22301353880E+02  0.40876564080E+02  0.00000000000E+00 0. -1.
        -13    1    4    4    0    0 -0.25413052496E+02 -0.53565539021E+01  0.38501242633E+02  0.46442023978E+02  0.00000000000E+00 0. -1.
         13    1    4    4    0    0  0.75798108941E+02 -0.15959233219E+02  0.56318490509E+02  0.95769634108E+02  0.00000000000E+00 0.  1.
          1    1    1    2  501    0 -0.48324168653E+02 -0.32780710739E+01  0.11655315117E+03  0.12621651268E+03  0.00000000000E+00 0. -1.
<scales pt_clust_5="13000.00000" pt_clust_6="13000.00000" pt_clust_7="13000.00000" pt_clust_8="13000.00000" pt_clust_9="48.43523"></scales>
<clustering>
<clus scale="   48.435">  1  9  2 -1</clus>
<clus scale="   88.727">  5  6 -1 -1</clus>
<clus scale="   90.776">  7  8 -1 -1</clus>
<clus scale="   93.632">  2  5  1 -1</clus>
<clus scale="   48.435">  1  5  2 -1</clus>
</clustering>
</event>
<event>
 9    1  0.1315259E-005  0.9993676E+02  0.7546771E-02  0.1282959E+00
         21   -1    0    0  501  502  0.00000000000E+00  0.00000000000E+00  0.18075776451E+03  0.18075776451E+03  0.00000000000E+00 0.  1.
         -1   -1    0    0    0  501 -0.00000000000E+00 -0.00000000000E+00 -0.12958124109E+03  0.12958124109E+03  0.00000000000E+00 0.  1.
         23    2    1    2    0    0 -0.21398797351E+02  0.59767461792E+01 -0.31955439916E+02  0.10432112064E+03  0.96789028559E+02 0.  0.
         23    2    1    2    0    0  0.15290324624E+02 -0.28322888533E+02 -0.20736831216E+02  0.99597069336E+02  0.91943352177E+02 0.  0.
        -11    1    4    4    0    0 -0.18458490214E+02  0.26937436576E+02 -0.63300911597E+01  0.33262763030E+02  0.00000000000E+00 0. -1.
         11    1    4    4    0    0  0.33748814838E+02 -0.55260325109E+02 -0.14406740056E+02  0.66334306306E+02  0.00000000000E+00 0.  1.
        -11    1    3    3    0    0 -0.80252297671E+01  0.49719642239E+02 -0.29820873200E+02  0.58529749834E+02  0.00000000000E+00 0. -1.
         11    1    3    3    0    0 -0.13373567584E+02 -0.43742896060E+02 -0.21345667161E+01  0.45791370811E+02  0.00000000000E+00 0.  1.
         -1    1    1    2    0  502  0.61084727277E+01  0.22346142353E+02  0.10386879455E+03  0.10642081562E+03  0.00000000000E+00 0.  1.
<scales pt_clust_5="13000.00000" pt_clust_6="13000.00000" pt_clust_7="13000.00000" pt_clust_8="13000.00000" pt_clust_9="23.16600"></scales>
<clustering>
<clus scale="   23.166">  1  9  2 -1</clus>
<clus scale="   91.943">  5  6 -1 -1</clus>
<clus scale="   95.251">  1  5  2 -1</clus>
<clus scale="   96.789">  7  8 -1 -1</clus>
<clus scale="   23.166">  1  5  2 -1</clus>
</clustering>
</event>
<event>
 9    1  0.1315259E-005  0.1017992E+03  0.7546771E-02  0.1280316E+00
          1   -1    0    0  502    0 -0.00000000000E+00  0.00000000000E+00  0.94634276032E+02  0.94634276032E+02  0.00000000000E+00 0. -1.
         21   -1    0    0  501  502  0.00000000000E+00 -0.00000000000E+00 -0.33596593605E+03  0.33596593605E+03  0.00000000000E+00 0. -1.
         23    2    1    2    0    0  0.46209786615E+01 -0.22141355309E+02  0.40676420494E+02  0.10253204245E+03  0.91360032211E+02 0.  0.
         23    2    1    2    0    0  0.12995085833E+02  0.37281273937E+02 -0.10444450924E+03  0.14899174822E+03  0.98646438783E+02 0.  0.
        -13    1    4    4    0    0 -0.28731448734E+02  0.33090222086E+02 -0.96945219976E+02  0.10639001184E+03  0.00000000000E+00 0.  1.
         13    1    4    4    0    0  0.41726534567E+02  0.41910518516E+01 -0.74992892643E+01  0.42601736374E+02  0.00000000000E+00 0. -1.
        -13    1    3    3    0    0  0.26665749561E+02  0.17674163314E+02 -0.10853237472E+02  0.33782110830E+02  0.00000000000E+00 0.  1.
         13    1    3    3    0    0 -0.22044770899E+02 -0.39815518624E+02  0.51529657967E+02  0.68749931618E+02  0.00000000000E+00 0. -1.
          1    1    1    2  501    0 -0.17616064495E+02 -0.15139918628E+02 -0.17756357127E+03  0.17907642142E+03  0.00000000000E+00 0. -1.
<scales pt_clust_5="13000.00000" pt_clust_6="13000.00000" pt_clust_7="13000.00000" pt_clust_8="13000.00000" pt_clust_9="23.22806"></scales>
<clustering>
<clus scale="   23.228">  2  9  1 -1</clus>
<clus scale="   91.360">  7  8 -1 -1</clus>
<clus scale="   94.755">  1  7  2 -1</clus>
<clus scale="   98.646">  5  6 -1 -1</clus>
<clus scale="   23.228">  2  5  1 -1</clus>
</clustering>
</event>
<event>
 9    1  0.1315259E-005  0.1869426E+03  0.7546771E-02  0.1161635E+00
         21   -1    0    0  501  502  0.00000000000E+00  0.00000000000E+00  0.45007076890E+03  0.45007076890E+03  0.00000000000E+00 0. -1.
          4   -1    0    0  502    0 -0.00000000000E+00 -0.00000000000E+00 -0.11685411662E+03  0.11685411662E+03  0.00000000000E+00 0. -1.
         23    2    1    2    0    0 -0.10919984736E+03 -0.88997587013E+02  0.84219873141E+02  0.18831866837E+03  0.92335024048E+02 0.  0.
         23    2    1    2    0    0  0.14636515310E+03  0.12546796190E+03  0.13056059749E+03  0.24922894977E+03  0.88904624638E+02 0.  0.
        -13    1    4    4    0    0  0.73261579156E+02  0.10725757586E+03  0.50682609810E+02  0.13942802264E+03  0.00000000000E+00 0. -1.
         13    1    4    4    0    0  0.73103573940E+02  0.18210386038E+02  0.79877987683E+02  0.10980092713E+03  0.00000000000E+00 0.  1.
        -13    1    3    3    0    0 -0.27931624846E+02  0.14024594113E+02  0.37991811766E+02  0.49195961906E+02  0.00000000000E+00 0.  1.
         13    1    3    3    0    0 -0.81268222513E+02 -0.10302218113E+03  0.46228061375E+02  0.13912270646E+03  0.00000000000E+00 0. -1.
          4    1    1    2  501    0 -0.37165305737E+02 -0.36470374888E+02  0.11843618164E+03  0.12937726739E+03  0.00000000000E+00 0. -1.
<scales pt_clust_5="13000.00000" pt_clust_6="13000.00000" pt_clust_7="13000.00000" pt_clust_8="13000.00000" pt_clust_9="52.07061"></scales>
<clustering>
<clus scale="   52.071">  1  9  2 -1</clus>
<clus scale="   88.905">  5  6 -1 -1</clus>
<clus scale="   92.335">  7  8 -1 -1</clus>
<clus scale="  185.272">  1  5  2 -1</clus>
<clus scale="   52.071">  1  5  2 -1</clus>
</clustering>
</event>
<event>
 9    1  0.1315259E-005  0.1665962E+03  0.7546771E-02  0.1181646E+00
         21   -1    0    0  501  502  0.00000000000E+00  0.00000000000E+00  0.15785277859E+03  0.15785277859E+03  0.00000000000E+00 0. -1.
          1   -1    0    0  502    0 -0.00000000000E+00 -0.00000000000E+00 -0.53147506790E+03  0.53147506790E+03  0.00000000000E+00 0. -1.
         23    2    1    2    0    0  0.16259727643E+02  0.12829320363E+03 -0.30387685019E+03  0.34244783065E+03  0.90586156729E+02 0.  0.
         23    2    1    2    0    0 -0.12651618136E+03 -0.15538504237E+03 -0.75926899535E+02  0.23317573375E+03  0.91952015749E+02 0.  0.
        -11    1    3    3    0    0  0.47225933669E+02  0.36654938320E+02 -0.94736355225E+02  0.11202165110E+03  0.00000000000E+00 0.  1.
         11    1    3    3    0    0 -0.30966206025E+02  0.91638265306E+02 -0.20914049497E+03  0.23042617955E+03  0.00000000000E+00 0. -1.
        -13    1    4    4    0    0 -0.47754007914E+02 -0.78755900168E+02 -0.81725771764E+02  0.12313423104E+03  0.00000000000E+00 0. -1.
         13    1    4    4    0    0 -0.78762173448E+02 -0.76629142199E+02  0.57988722291E+01  0.11004150271E+03  0.00000000000E+00 0.  1.
          1    1    1    2  501    0  0.11025645372E+03  0.27091838741E+02  0.61814604259E+01  0.11370428209E+03  0.00000000000E+00 0. -1.
<scales pt_clust_5="13000.00000" pt_clust_6="13000.00000" pt_clust_7="13000.00000" pt_clust_8="13000.00000" pt_clust_9="113.53613"></scales>
<clustering>
<clus scale="   90.586">  5  6 -1 -1</clus>
<clus scale="   91.952">  7  8 -1 -1</clus>
<clus scale="  113.536">  1  9  2 -1</clus>
<clus scale="  165.846">  2  5  1 -1</clus>
<clus scale="  113.536">  1  5  2 -1</clus>
</clustering>
</event>
<event>
 9    1  0.1315259E-005  0.9666165E+02  0.7546771E-02  0.1288009E+00
         21   -1    0    0  501  502  0.00000000000E+00  0.00000000000E+00  0.63023789795E+02  0.63023789795E+02  0.00000000000E+00 0. -1.
          1   -1    0    0  502    0 -0.00000000000E+00 -0.00000000000E+00 -0.32022955452E+03  0.32022955452E+03  0.00000000000E+00 0. -1.
         23    2    1    2    0    0  0.30508746034E+02 -0.48608180913E+01 -0.24464118460E+03  0.26341035662E+03  0.92635282862E+02 0.  0.
         23    2    1    2    0    0 -0.15628512358E+02 -0.12691000423E+02 -0.19476666232E+02  0.95816655855E+02  0.91630666927E+02 0.  0.
        -11    1    4    4    0    0 -0.40705085499E+02 -0.44774356008E+01  0.22130140182E+02  0.46547765999E+02  0.00000000000E+00 0.  1.
         11    1    4    4    0    0  0.25076573141E+02 -0.82135648224E+01 -0.41606806414E+02  0.49268889856E+02  0.00000000000E+00 0. -1.
        -11    1    3    3    0    0 -0.19194963270E+02  0.30923171717E+02 -0.92987263842E+02  0.99856499042E+02  0.00000000000E+00 0.  1.
         11    1    3    3    0    0  0.49703709303E+02 -0.35783989808E+02 -0.15165392076E+03  0.16355385757E+03  0.00000000000E+00 0. -1.
          1    1    1    2  501    0 -0.14880233676E+02  0.17551818514E+02  0.69120861125E+01  0.24026331843E+02  0.00000000000E+00 0. -1.
<scales pt_clust_5="13000.00000" pt_clust_6="13000.00000" pt_clust_7="13000.00000" pt_clust_8="13000.00000" pt_clust_9="23.01060"></scales>
<clustering>
<clus scale="   23.011">  1  9  2 -1</clus>
<clus scale="   91.631">  5  6 -1 -1</clus>
<clus scale="   92.635">  7  8 -1 -1</clus>
<clus scale="   95.699">  1  5  2 -1</clus>
<clus scale="   23.011">  1  5  2 -1</clus>
</clustering>
</event>
<event>
 9    1  0.1315259E-005  0.9979358E+02  0.7546771E-02  0.1281090E+00
          1   -1    0    0  502    0 -0.00000000000E+00  0.00000000000E+00  0.13915669695E+03  0.13915669695E+03  0.00000000000E+00 0. -1.
         21   -1    0    0  501  502  0.00000000000E+00 -0.00000000000E+00 -0.10569317003E+03  0.10569317003E+03  0.00000000000E+00 0.  1.
         23    2    1    2    0    0 -0.11676883990E+02 -0.42084704948E+02  0.49441755475E+02  0.11271790760E+03  0.91396758692E+02 0.  0.
         23    2    1    2    0    0  0.29469361376E+02  0.25461135977E+02  0.66516695040E+01  0.98890004217E+02  0.90654704907E+02 0.  0.
        -11    1    3    3    0    0 -0.34746276913E+02  0.16126392371E+02  0.23506585931E+02  0.44943563191E+02  0.00000000000E+00 0. -1.
         11    1    3    3    0    0  0.23069392922E+02 -0.58211097320E+02  0.25935169544E+02  0.67774344410E+02  0.00000000000E+00 0.  1.
        -11    1    4    4    0    0  0.40811783342E+02  0.54079189676E+02  0.22041745895E+01  0.67786568000E+02  0.00000000000E+00 0. -1.
         11    1    4    4    0    0 -0.11342421965E+02 -0.28618053699E+02  0.44474949145E+01  0.31103436218E+02  0.00000000000E+00 0.  1.
          1    1    1    2  501    0 -0.17792477386E+02  0.16623568971E+02 -0.22629898062E+02  0.33241955165E+02  0.00000000000E+00 0. -1.
<scales pt_clust_5="13000.00000" pt_clust_6="13000.00000" pt_clust_7="13000.00000" pt_clust_8="13000.00000" pt_clust_9="24.34985"></scales>
<clustering>
<clus scale="   24.350">  2  9  1 -1</clus>
<clus scale="   90.655">  7  8 -1 -1</clus>
<clus scale="   91.397">  5  6 -1 -1</clus>
<clus scale="   99.114">  2  7  1 -1</clus>
<clus scale="   24.350">  2  5  1 -1</clus>
</clustering>
</event>
<event>
 9    1  0.1315259E-005  0.1122295E+03  0.7546771E-02  0.1257187E+00
         -1   -1    0    0    0  501 -0.00000000000E+00  0.00000000000E+00  0.25174540702E+03  0.25174540702E+03  0.00000000000E+00 0.  1.
         21   -1    0    0  501  502  0.00000000000E+00 -0.00000000000E+00 -0.24033725819E+03  0.24033725819E+03  0.00000000000E+00 0. -1.
         23    2    1    2    0    0  0.57928313300E+02  0.19090302931E+02  0.98152616135E+02  0.14706765331E+03  0.90966089547E+02 0.  0.
         23    2    1    2    0    0 -0.49806138714E+02 -0.47067024101E+02  0.10202512257E+03  0.15401075879E+03  0.92812886917E+02 0.  0.
        -13    1    4    4    0    0 -0.62020984396E+02 -0.22560784148E+02  0.10744740802E+03  0.12609733136E+03  0.00000000000E+00 0. -1.
         13    1    4    4    0    0  0.12214845681E+02 -0.24506239953E+02 -0.54222854474E+01  0.27913427434E+02  0.00000000000E+00 0.  1.
        -13    1    3    3    0    0  0.22243517746E+02  0.38410411643E+02  0.96771127797E+02  0.10646494719E+03  0.00000000000E+00 0.  1.
         13    1    3    3    0    0  0.35684795554E+02 -0.19320108712E+02  0.13814883387E+01  0.40602706122E+02  0.00000000000E+00 0. -1.
         -1    1    1    2    0  502 -0.81221745855E+01  0.27976721170E+02 -0.18876958987E+03  0.19100425311E+03  0.00000000000E+00 0.  1.
<scales pt_clust_5="13000.00000" pt_clust_6="13000.00000" pt_clust_7="13000.00000" pt_clust_8="13000.00000" pt_clust_9="29.13188"></scales>
<clustering>
<clus scale="   29.132">  2  9  1 -1</clus>
<clus scale="   90.966">  7  8 -1 -1</clus>
<clus scale="   92.813">  5  6 -1 -1</clus>
<clus scale="  110.707">  1  7  2 -1</clus>
<clus scale="   29.132">  2  5  1 -1</clus>
</clustering>
</event>
<event>
 9    1  0.1315259E-005  0.1350788E+03  0.7546771E-02  0.1220925E+00
         21   -1    0    0  501  502  0.00000000000E+00  0.00000000000E+00  0.36554280464E+03  0.36554280464E+03  0.00000000000E+00 0.  1.
         -4   -1    0    0    0  501 -0.00000000000E+00 -0.00000000000E+00 -0.59095591551E+02  0.59095591551E+02  0.00000000000E+00 0.  1.
         23    2    1    2    0    0  0.70824011980E+02  0.84970806156E+02  0.12601847286E+03  0.19094761725E+03  0.91346912702E+02 0.  0.
         23    2    1    2    0    0 -0.60992779061E+02 -0.63249557862E+02  0.14498482661E+03  0.19097384107E+03  0.87919180839E+02 0.  0.
        -11    1    3    3    0    0  0.20289197225E+02  0.89002291695E+02  0.67544683918E+02  0.11355766719E+03  0.00000000000E+00 0.  1.
         11    1    3    3    0    0  0.50534814755E+02 -0.40314855390E+01  0.58473788940E+02  0.77389950065E+02  0.00000000000E+00 0. -1.
        -13    1    4    4    0    0 -0.50335966407E+02 -0.85730687541E+02  0.11664569691E+03  0.15326342978E+03  0.00000000000E+00 0.  1.
         13    1    4    4    0    0 -0.10656812654E+02  0.22481129680E+02  0.28339129697E+02  0.37710411289E+02  0.00000000000E+00 0. -1.
         -4    1    1    2    0  502 -0.98312329192E+01 -0.21721248294E+02  0.35443913622E+02  0.42716937870E+02  0.00000000000E+00 0.  1.
<scales pt_clust_5="13000.00000" pt_clust_6="13000.00000" pt_clust_7="13000.00000" pt_clust_8="13000.00000" pt_clust_9="23.84252"></scales>
<clustering>
<clus scale="   23.843">  1  9  2 -1</clus>
<clus scale="   87.919">  7  8 -1 -1</clus>
<clus scale="   91.347">  5  6 -1 -1</clus>
<clus scale="  132.785">  1  7  2 -1</clus>
<clus scale="   23.843">  1  5  2 -1</clus>
</clustering>
</event>
<event>
 9    1  0.1315259E-005  0.1267161E+03  0.7546771E-02  0.1232878E+00
         21   -1    0    0  501  502  0.00000000000E+00  0.00000000000E+00  0.83060219601E+02  0.83060219601E+02  0.00000000000E+00 0.  1.
          1   -1    0    0  502    0 -0.00000000000E+00 -0.00000000000E+00 -0.26464897856E+03  0.26464897856E+03  0.00000000000E+00 0. -1.
         23    2    1    2    0    0 -0.61860532328E+02 -0.49138178710E+02 -0.13050407469E+03  0.17812874990E+03  0.91963318575E+02 0.  0.
         23    2    1    2    0    0  0.86266947344E+02  0.48492262097E+02 -0.50115714611E+02  0.14514626719E+03  0.93607522893E+02 0.  0.
        -13    1    3    3    0    0 -0.77518799270E+02 -0.15000302606E+02 -0.63527951711E+02  0.10134088004E+03  0.00000000000E+00 0. -1.
         13    1    3    3    0    0  0.15658266942E+02 -0.34137876104E+02 -0.66976122978E+02  0.76787869860E+02  0.00000000000E+00 0.  1.
        -13    1    4    4    0    0 -0.14704459099E+02  0.30040785914E+02 -0.96119523307E+01  0.34800281081E+02  0.00000000000E+00 0. -1.
         13    1    4    4    0    0  0.10097140644E+03  0.18451476183E+02 -0.40503762280E+02  0.11034598611E+03  0.00000000000E+00 0.  1.
          1    1    1    2  501    0 -0.24406415016E+02  0.64591661293E+00 -0.96896965853E+00  0.24434181066E+02  0.00000000000E+00 0. -1.
<scales pt_clust_5="13000.00000" pt_clust_6="13000.00000" pt_clust_7="13000.00000" pt_clust_8="13000.00000" pt_clust_9="24.41496"></scales>
<clustering>
<clus scale="   24.415">  1  9  2 -1</clus>
<clus scale="   91.963">  5  6 -1 -1</clus>
<clus scale="   93.608">  7  8 -1 -1</clus>
<clus scale="  125.506">  2  5  1 -1</clus>
<clus scale="   24.415">  1  5  2 -1</clus>
</clustering>
</event>
<event>
 9    1  0.1315259E-005  0.1220470E+03  0.7546771E-02  0.1240026E+00
         21   -1    0    0  501  502  0.00000000000E+00  0.00000000000E+00  0.38430902901E+03  0.38430902901E+03  0.00000000000E+00 0. -1.
         -1   -1    0    0    0  501 -0.00000000000E+00 -0.00000000000E+00 -0.12569113894E+03  0.12569113894E+03  0.00000000000E+00 0.  1.
         23    2    1    2    0    0  0.72917793767E+02 -0.19892355597E+01 -0.49844427408E+02  0.12621401671E+03  0.90136282175E+02 0.  0.
         23    2    1    2    0    0 -0.11746292874E+03  0.33339293240E+02  0.14048545667E+03  0.20719815354E+03  0.91026716927E+02 0.  0.
        -11    1    3    3    0    0  0.66998988039E+02 -0.29226945214E+02 -0.48137217876E+01  0.73254697066E+02  0.00000000000E+00 0.  1.
         11    1    3    3    0    0  0.59188057290E+01  0.27237709654E+02 -0.45030705621E+02  0.52959319644E+02  0.00000000000E+00 0. -1.
        -11    1    4    4    0    0 -0.36923549197E+02  0.50362887108E+02  0.29630122409E+02  0.69121002866E+02  0.00000000000E+00 0.  1.
         11    1    4    4    0    0 -0.80539379539E+02 -0.17023593868E+02  0.11085533426E+03  0.13807715068E+03  0.00000000000E+00 0. -1.
         -1    1    1    2    0  502  0.44545134968E+02 -0.31350057680E+02  0.16797686080E+03  0.17658799770E+03  0.00000000000E+00 0.  1.
<scales pt_clust_5="13000.00000" pt_clust_6="13000.00000" pt_clust_7="13000.00000" pt_clust_8="13000.00000" pt_clust_9="54.47105"></scales>
<clustering>
<clus scale="   54.471">  1  9  2 -1</clus>
<clus scale="   90.136">  5  6 -1 -1</clus>
<clus scale="   91.027">  7  8 -1 -1</clus>
<clus scale="  121.384">  2  5  1 -1</clus>
<clus scale="   54.471">  1  5  2 -1</clus>
</clustering>
</event>
<event>
 9    1  0.2542733E-005  0.1356299E+03  0.7546771E-02  0.1237170E+00
          2   -1    0    0  502    0 -0.00000000000E+00  0.00000000000E+00  0.31395487674E+03  0.31395487674E+03  0.00000000000E+00 0. -1.
         21   -1    0    0  501  502  0.00000000000E+00 -0.00000000000E+00 -0.35549668675E+03  0.35549668675E+03  0.00000000000E+00 0. -1.
         23    2    1    2    0    0  0.18359815101E+02  0.80346035656E+01 -0.78813307880E+01  0.94070051690E+02  0.91571947587E+02 0.  0.
         23    2    1    2    0    0  0.73934026770E+02 -0.43868895665E+02  0.24707433730E+03  0.27769999249E+03  0.93171011350E+02 0.  0.
        -11    1    4    4    0    0  0.10448664980E+02 -0.22487863625E+02  0.34525398413E+01  0.25035946989E+02  0.00000000000E+00 0.  1.
         11    1    4    4    0    0  0.63485361790E+02 -0.21381032040E+02  0.24362179746E+03  0.25266404550E+03  0.00000000000E+00 0. -1.
        -11    1    3    3    0    0 -0.14047892315E+02 -0.26076850141E+02 -0.29929813580E+02  0.42108658643E+02  0.00000000000E+00 0.  1.
         11    1    3    3    0    0  0.32407707416E+02  0.34111453707E+02  0.22048482792E+02  0.51961393047E+02  0.00000000000E+00 0. -1.
          2    1    1    2  501    0 -0.92293841872E+02  0.35834292100E+02 -0.28073481652E+03  0.29768151932E+03  0.00000000000E+00 0. -1.
<scales pt_clust_5="13000.00000" pt_clust_6="13000.00000" pt_clust_7="13000.00000" pt_clust_8="13000.00000" pt_clust_9="98.56286"></scales>
<clustering>
<clus scale="   91.572">  7  8 -1 -1</clus>
<clus scale="   93.171">  5  6 -1 -1</clus>
<clus scale="   93.739">  1  7  2 -1</clus>
<clus scale="   98.563">  2  9  1 -1</clus>
<clus scale="   98.563">  2  5  1 -1</clus>
</clustering>
</event>
<event>
 9    1  0.1315259E-005  0.1188228E+03  0.7546771E-02  0.1246902E+00
         21   -1    0    0  501  502  0.00000000000E+00  0.00000000000E+00  0.33058421434E+03  0.33058421434E+03  0.00000000000E+00 0. -1.
          1   -1    0    0  502    0 -0.00000000000E+00 -0.00000000000E+00 -0.11707789832E+03  0.11707789832E+03  0.00000000000E+00 0. -1.
         23    2    1    2    0    0 -0.57181871592E+02 -0.29924793740E+02 -0.37461352493E+02  0.11604646964E+03  0.88871651644E+02 0.  0.
         23    2    1    2    0    0  0.82944622752E+02  0.44835289277E+02  0.74811183242E+02  0.15296192902E+03  0.94396106828E+02 0.  0.
        -11    1    3    3    0    0 -0.30561055396E+02  0.23685762343E+02 -0.40654633884E+02  0.56105193173E+02  0.00000000000E+00 0. -1.
         11    1    3    3    0    0 -0.26620816195E+02 -0.53610556082E+02  0.31932813913E+01  0.59941276466E+02  0.00000000000E+00 0.  1.
        -11    1    4    4    0    0  0.55084642935E+02 -0.20104244128E+02  0.52914054165E+02  0.78983515035E+02  0.00000000000E+00 0.  1.
         11    1    4    4    0    0  0.27859979818E+02  0.64939533405E+02  0.21897129078E+02  0.73978413988E+02  0.00000000000E+00 0. -1.
          1    1    1    2  501    0 -0.25762751161E+02 -0.14910495538E+02  0.17615648527E+03  0.17865371400E+03  0.00000000000E+00 0. -1.
<scales pt_clust_5="13000.00000" pt_clust_6="13000.00000" pt_clust_7="13000.00000" pt_clust_8="13000.00000" pt_clust_9="29.76646"></scales>
<clustering>
<clus scale="   29.766">  1  9  2 -1</clus>
<clus scale="   88.872">  5  6 -1 -1</clus>
<clus scale="   94.396">  7  8 -1 -1</clus>
<clus scale="  114.483">  2  5  1 -1</clus>
<clus scale="   29.766">  1  5  2 -1</clus>
</clustering>
</event>
<event>
 9    1  0.1315259E-005  0.9591673E+02  0.7546771E-02  0.1291061E+00
          3   -1    0    0  502    0 -0.00000000000E+00  0.00000000000E+00  0.11391711986E+03  0.11391711986E+03  0.00000000000E+00 0. -1.
         21   -1    0    0  501  502  0.00000000000E+00 -0.00000000000E+00 -0.17322822945E+03  0.17322822945E+03  0.00000000000E+00 0. -1.
         23    2    1    2    0    0  0.31143007299E+01 -0.19067058191E+02  0.61129766258E+02  0.11291151786E+03  0.92945742049E+02 0.  0.
         23    2    1    2    0    0  0.28511101469E+01  0.41362198011E+02 -0.77114366290E+02  0.12514365099E+03  0.89416707847E+02 0.  0.
        -13    1    3    3    0    0 -0.10914572478E+02 -0.52444310658E+02  0.17803662957E+02  0.56449127783E+02  0.00000000000E+00 0.  1.
         13    1    3    3    0    0  0.14028873208E+02  0.33377252467E+02  0.43326103301E+02  0.56462390074E+02  0.00000000000E+00 0. -1.
        -13    1    4    4    0    0  0.39462558494E+02  0.28830705790E+02 -0.70656394870E+02  0.85911752719E+02  0.00000000000E+00 0.  1.
         13    1    4    4    0    0 -0.36611448347E+02  0.12531492222E+02 -0.64579714200E+01  0.39231898275E+02  0.00000000000E+00 0. -1.
          3    1    1    2  501    0 -0.59654108768E+01 -0.22295139820E+02 -0.43326509562E+02  0.49090180458E+02  0.00000000000E+00 0. -1.
<scales pt_clust_5="13000.00000" pt_clust_6="13000.00000" pt_clust_7="13000.00000" pt_clust_8="13000.00000" pt_clust_9="23.07941"></scales>
<clustering>
<clus scale="   23.079">  2  9  1 -1</clus>
<clus scale="   89.417">  7  8 -1 -1</clus>
<clus scale="   92.501">  2  7  1 -1</clus>
<clus scale="   92.946">  5  6 -1 -1</clus>
<clus scale="   23.079">  2  5  1 -1</clus>
</clustering>
</event>
<event>
 9    1  0.1315259E-005  0.2352613E+03  0.7546771E-02  0.1123219E+00
         21   -1    0    0  501  502  0.00000000000E+00  0.00000000000E+00  0.39318501024E+03  0.39318501024E+03  0.00000000000E+00 0.  1.
          4   -1    0    0  502    0 -0.00000000000E+00 -0.00000000000E+00 -0.22024752761E+03  0.22024752761E+03  0.00000000000E+00 0. -1.
         23    2    1    2    0    0  0.10459398603E+03 -0.15069336991E+03  0.54542838808E+02  0.21240351752E+03  0.92151719150E+02 0.  0.
         23    2    1    2    0    0 -0.18782875534E+03  0.19456796980E+03  0.11473997577E+03  0.30686764854E+03  0.88691349485E+02 0.  0.
        -11    1    3    3    0    0  0.57868118116E+02 -0.85566480613E+02 -0.17333907579E+02  0.10474161566E+03  0.00000000000E+00 0. -1.
         11    1    3    3    0    0  0.46725867919E+02 -0.65126889295E+02  0.71876746387E+02  0.10766190187E+03  0.00000000000E+00 0.  1.
        -13    1    4    4    0    0 -0.49378667205E+02  0.10838441693E+03  0.28838273167E+02  0.12254419859E+03  0.00000000000E+00 0.  1.
         13    1    4    4    0    0 -0.13845008814E+03  0.86183552867E+02  0.85901702607E+02  0.18432344995E+03  0.00000000000E+00 0. -1.
          4    1    1    2  501    0  0.83234769310E+02 -0.43874599890E+02  0.36546680467E+01  0.94161371783E+02  0.00000000000E+00 0. -1.
<scales pt_clust_5="13000.00000" pt_clust_6="13000.00000" pt_clust_7="13000.00000" pt_clust_8="13000.00000" pt_clust_9="94.09047"></scales>
<clustering>
<clus scale="   88.691">  7  8 -1 -1</clus>
<clus scale="   92.152">  5  6 -1 -1</clus>
<clus scale="   94.090">  1  9  2 -1</clus>
<clus scale="  233.928">  1  7  2 -1</clus>
<clus scale="   94.090">  1  5  2 -1</clus>
</clustering>
</event>
<event>
 9    1  0.1315259E-005  0.1375539E+03  0.7546771E-02  0.1217268E+00
          1   -1    0    0  502    0 -0.00000000000E+00  0.00000000000E+00  0.93170107157E+03  0.93170107157E+03  0.00000000000E+00 0. -1.
         21   -1    0    0  501  502  0.00000000000E+00 -0.00000000000E+00 -0.43031868351E+02  0.43031868351E+02  0.00000000000E+00 0. -1.
         23    2    1    2    0    0 -0.82075397706E+02  0.19303831758E+02  0.44949044147E+03  0.46707226555E+03  0.94899080319E+02 0.  0.
         23    2    1    2    0    0  0.10593840241E+03 -0.84108534721E+02  0.38967233351E+03  0.42269021505E+03  0.92332549407E+02 0.  0.
        -11    1    4    4    0    0  0.99515080348E+02 -0.47957142898E+02  0.35644394469E+03  0.37316943133E+03  0.00000000000E+00 0. -1.
         11    1    4    4    0    0  0.64233220625E+01 -0.36151391823E+02  0.33228388817E+02  0.49520783722E+02  0.00000000000E+00 0.  1.
        -13    1    3    3    0    0  0.21692245156E+02  0.28705333536E+01  0.78494966466E+02  0.81487748909E+02  0.00000000000E+00 0.  1.
         13    1    3    3    0    0 -0.10376764286E+03  0.16433298405E+02  0.37099547500E+03  0.38558451664E+03  0.00000000000E+00 0. -1.
          1    1    1    2  501    0 -0.23863004704E+02  0.64804702963E+02  0.49506428242E+02  0.84970459319E+02  0.00000000000E+00 0. -1.
<scales pt_clust_5="13000.00000" pt_clust_6="13000.00000" pt_clust_7="13000.00000" pt_clust_8="13000.00000" pt_clust_9="69.05862"></scales>
<clustering>
<clus scale="   69.059">  2  9  1 -1</clus>
<clus scale="   92.333">  5  6 -1 -1</clus>
<clus scale="   94.899">  7  8 -1 -1</clus>
<clus scale="  135.796">  2  5  1 -1</clus>
<clus scale="   69.059">  2  5  1 -1</clus>
</clustering>
</event>
<event>
 9    1  0.1315259E-005  0.9516464E+02  0.7546771E-02  0.1310735E+00
         21   -1    0    0  501  502  0.00000000000E+00  0.00000000000E+00  0.14853086993E+03  0.14853086993E+03  0.00000000000E+00 0. -1.
         -4   -1    0    0    0  501 -0.00000000000E+00 -0.00000000000E+00 -0.10692975610E+03  0.10692975610E+03  0.00000000000E+00 0.  1.
         23    2    1    2    0    0  0.10790915898E+02 -0.28117346369E+02 -0.42592149252E+02  0.78506470614E+02  0.58669802434E+02 0.  0.
         23    2    1    2    0    0  0.35628061306E+02  0.37989415292E+02  0.38611087297E+02  0.11115207384E+03  0.90285176137E+02 0.  0.
        -13    1    4    4    0    0 -0.69480056844E+01 -0.23677099222E+02 -0.39236085774E+01  0.24985486083E+02  0.00000000000E+00 0.  1.
         13    1    4    4    0    0  0.42576066990E+02  0.61666514513E+02  0.42534695874E+02  0.86166587757E+02  0.00000000000E+00 0. -1.
        -13    1    3    3    0    0 -0.20525434284E+02 -0.11690382856E+02 -0.62881410457E+00  0.23629513559E+02  0.00000000000E+00 0.  1.
         13    1    3    3    0    0  0.31316350182E+02 -0.16426963513E+02 -0.41963335147E+02  0.54876957055E+02  0.00000000000E+00 0. -1.
         -4    1    1    2    0  502 -0.46418977204E+02 -0.98720689222E+01  0.45582175788E+02  0.65802081570E+02  0.00000000000E+00 0.  1.
<scales pt_clust_5="13000.00000" pt_clust_6="13000.00000" pt_clust_7="13000.00000" pt_clust_8="13000.00000" pt_clust_9="47.45713"></scales>
<clustering>
<clus scale="   47.457">  1  9  2 -1</clus>
<clus scale="   58.670">  7  8 -1 -1</clus>
<clus scale="   65.932">  2  7  1 -1</clus>
<clus scale="   90.285">  5  6 -1 -1</clus>
<clus scale="   47.457">  1  5  2 -1</clus>
</clustering>
</event>
<event>
 9    1  0.1315259E-005  0.2144553E+03  0.7546771E-02  0.1138583E+00
         21   -1    0    0  501  502  0.00000000000E+00  0.00000000000E+00  0.49426085515E+03  0.49426085515E+03  0.00000000000E+00 0. -1.
          4   -1    0    0  502    0 -0.00000000000E+00 -0.00000000000E+00 -0.16959856751E+03  0.16959856751E+03  0.00000000000E+00 0. -1.
         23    2    1    2    0    0 -0.35224566259E+02  0.21892150323E+03  0.28773787077E+01  0.23918698011E+03  0.89636697288E+02 0.  0.
         23    2    1    2    0    0  0.16237400716E+02 -0.15608946741E+03  0.12502542896E+03  0.21725337366E+03  0.83307235358E+02 0.  0.
        -13    1    3    3    0    0 -0.64352108181E+02  0.16516928421E+03 -0.62480371190E+01  0.17737283964E+03  0.00000000000E+00 0. -1.
         13    1    3    3    0    0  0.29127541922E+02  0.53752219017E+02  0.91254158268E+01  0.61814140467E+02  0.00000000000E+00 0.  1.
        -13    1    4    4    0    0  0.50427375319E+02 -0.86143357116E+02  0.70304125859E+02  0.12209122929E+03  0.00000000000E+00 0.  1.
         13    1    4    4    0    0 -0.34189974603E+02 -0.69946110294E+02  0.54721303099E+02  0.95162144371E+02  0.00000000000E+00 0. -1.
          4    1    1    2  501    0  0.18987165543E+02 -0.62832035819E+02  0.19675947998E+03  0.20741906890E+03  0.00000000000E+00 0. -1.
<scales pt_clust_5="13000.00000" pt_clust_6="13000.00000" pt_clust_7="13000.00000" pt_clust_8="13000.00000" pt_clust_9="65.63823"></scales>
<clustering>
<clus scale="   65.638">  1  9  2 -1</clus>
<clus scale="   83.307">  7  8 -1 -1</clus>
<clus scale="   89.637">  5  6 -1 -1</clus>
<clus scale="  211.888">  1  7  2 -1</clus>
<clus scale="   65.638">  1  5  2 -1</clus>
</clustering>
</event>
<event>
 9    1  0.1315259E-005  0.1092828E+03  0.7546771E-02  0.1263154E+00
          1   -1    0    0  502    0 -0.00000000000E+00  0.00000000000E+00  0.12822532836E+03  0.12822532836E+03  0.00000000000E+00 0. -1.
         21   -1    0    0  501  502  0.00000000000E+00 -0.00000000000E+00 -0.21562446107E+03  0.21562446107E+03  0.00000000000E+00 0.  1.
         23    2    1    2    0    0  0.52460632731E+02  0.79797966033E+01  0.24919249575E+02  0.10747787622E+03  0.90081794703E+02 0.  0.
         23    2    1    2    0    0 -0.56902643673E+02 -0.72090288386E+02 -0.26495679510E+02  0.12915520309E+03  0.86856922103E+02 0.  0.
        -11    1    3    3    0    0  0.75771003809E+02 -0.74916301338E+01  0.13848121380E+02  0.77389534215E+02  0.00000000000E+00 0. -1.
         11    1    3    3    0    0 -0.23310371078E+02  0.15471426737E+02  0.11071128194E+02  0.30088342004E+02  0.00000000000E+00 0.  1.
        -13    1    4    4    0    0 -0.26463580547E+02 -0.47373199809E+02  0.28749710006E+02  0.61409176684E+02  0.00000000000E+00 0. -1.
         13    1    4    4    0    0 -0.30439063126E+02 -0.24717088576E+02 -0.55245389516E+02  0.67746026410E+02  0.00000000000E+00 0.  1.
          1    1    1    2  501    0  0.44420109422E+01  0.64110491782E+02 -0.85822702770E+02  0.10721671012E+03  0.00000000000E+00 0. -1.
<scales pt_clust_5="13000.00000" pt_clust_6="13000.00000" pt_clust_7="13000.00000" pt_clust_8="13000.00000" pt_clust_9="64.26419"></scales>
<clustering>
<clus scale="   64.264">  2  9  1 -1</clus>
<clus scale="   86.857">  7  8 -1 -1</clus>
<clus scale="   90.082">  5  6 -1 -1</clus>
<clus scale="  106.640">  2  7  1 -1</clus>
<clus scale="   64.264">  2  5  1 -1</clus>
</clustering>
</event>
<event>
 9    1  0.1315259E-005  0.1170636E+03  0.7546771E-02  0.1249757E+00
         21   -1    0    0  501  502  0.00000000000E+00  0.00000000000E+00  0.71908184041E+02  0.71908184041E+02  0.00000000000E+00 0. -1.
          1   -1    0    0  502    0 -0.00000000000E+00 -0.00000000000E+00 -0.46598305549E+03  0.46598305549E+03  0.00000000000E+00 0. -1.
         23    2    1    2    0    0  0.38255914872E+02 -0.70505198955E+02 -0.23601361104E+03  0.26416375208E+03  0.87438922750E+02 0.  0.
         23    2    1    2    0    0 -0.48910386728E+02  0.42591433027E+02 -0.19550890575E+03  0.22582109706E+03  0.92548255245E+02 0.  0.
        -11    1    4    4    0    0 -0.38306670112E+02  0.62076574009E+02 -0.80254866458E+02  0.10845158185E+03  0.00000000000E+00 0.  1.
         11    1    4    4    0    0 -0.10603716616E+02 -0.19485140982E+02 -0.11525403930E+03  0.11736951520E+03  0.00000000000E+00 0. -1.
        -13    1    3    3    0    0  0.58917246572E+02 -0.76390802787E+02 -0.20327743801E+03  0.22500780764E+03  0.00000000000E+00 0.  1.
         13    1    3    3    0    0 -0.20661331700E+02  0.58856038316E+01 -0.32736173030E+02  0.39155944436E+02  0.00000000000E+00 0. -1.
          1    1    1    2  501    0  0.10654471856E+02  0.27913765928E+02  0.37447645348E+02  0.47906390398E+02  0.00000000000E+00 0. -1.
<scales pt_clust_5="13000.00000" pt_clust_6="13000.00000" pt_clust_7="13000.00000" pt_clust_8="13000.00000" pt_clust_9="29.87802"></scales>
<clustering>
<clus scale="   29.878">  1  9  2 -1</clus>
<clus scale="   87.439">  7  8 -1 -1</clus>
<clus scale="   92.548">  5  6 -1 -1</clus>
<clus scale="  113.068">  2  7  1 -1</clus>
<clus scale="   29.878">  1  5  2 -1</clus>
</clustering>
</event>
<event>
 9    1  0.1315259E-005  0.9332021E+02  0.7546771E-02  0.1295475E+00
         -3   -1    0    0    0  501 -0.00000000000E+00  0.00000000000E+00  0.10346990253E+03  0.10346990253E+03  0.00000000000E+00 0.  1.
         21   -1    0    0  501  502  0.00000000000E+00 -0.00000000000E+00 -0.63319402373E+03  0.63319402373E+03  0.00000000000E+00 0.  1.
         23    2    1    2    0    0 -0.43422623052E+00  0.15639922799E+02  0.51120114726E+02  0.10621733821E+03  0.91782683931E+02 0.  0.
         23    2    1    2    0    0 -0.50332597428E+02  0.28368475317E+02 -0.11045758335E+03  0.15528597056E+03  0.92599752585E+02 0.  0.
        -11    1    3    3    0    0  0.95783238478E+01  0.53278037908E+02  0.28456860336E+02  0.61156246707E+02  0.00000000000E+00 0.  1.
         11    1    3    3    0    0 -0.10012550078E+02 -0.37638115109E+02  0.22663254390E+02  0.45061091505E+02  0.00000000000E+00 0. -1.
        -13    1    4    4    0    0 -0.28234075364E+02  0.24115352173E+02 -0.12371510033E+03  0.12916709826E+03  0.00000000000E+00 0. -1.
         13    1    4    4    0    0 -0.22098522064E+02  0.42531231438E+01  0.13257516984E+02  0.26118872305E+02  0.00000000000E+00 0.  1.
         -3    1    1    2    0  502  0.50766823659E+02 -0.44008398116E+02 -0.47038665258E+03  0.47516061749E+03  0.00000000000E+00 0.  1.
<scales pt_clust_5="13000.00000" pt_clust_6="13000.00000" pt_clust_7="13000.00000" pt_clust_8="13000.00000" pt_clust_9="67.18638"></scales>
<clustering>
<clus scale="   67.186">  2  9  1 -1</clus>
<clus scale="   91.783">  5  6 -1 -1</clus>
<clus scale="   92.510">  1  5  2 -1</clus>
<clus scale="   92.600">  7  8 -1 -1</clus>
<clus scale="   67.186">  2  5  1 -1</clus>
</clustering>
</event>
<event>
 9    1  0.1315259E-005  0.1198521E+03  0.7546771E-02  0.1244128E+00
         21   -1    0    0  501  502  0.00000000000E+00  0.00000000000E+00  0.33656435336E+03  0.33656435336E+03  0.00000000000E+00 0. -1.
          1   -1    0    0  502    0 -0.00000000000E+00 -0.00000000000E+00 -0.22546573760E+03  0.22546573760E+03  0.00000000000E+00 0. -1.
         23    2    1    2    0    0  0.75019825376E+02  0.47378471076E+00 -0.18371910120E+03  0.21878773663E+03  0.92125820927E+02 0.  0.
         23    2    1    2    0    0 -0.96037875539E+02  0.26885080234E+02  0.18754991647E+03  0.23056295539E+03  0.89656143980E+02 0.  0.
        -11    1    3    3    0    0  0.42341059185E+02  0.41471733564E+01 -0.18084048185E+03  0.18577740501E+03  0.00000000000E+00 0. -1.
         11    1    3    3    0    0  0.32678766191E+02 -0.36733886457E+01 -0.28786193561E+01  0.33010331614E+02  0.00000000000E+00 0.  1.
        -13    1    4    4    0    0  0.50103093372E+01  0.26680714537E+02  0.72619308940E+02  0.77527593532E+02  0.00000000000E+00 0.  1.
         13    1    4    4    0    0 -0.10104818488E+03  0.20436569737E+00  0.11493060753E+03  0.15303536186E+03  0.00000000000E+00 0. -1.
          1    1    1    2  501    0  0.21018050163E+02 -0.27358864945E+02  0.10726780050E+03  0.11267939895E+03  0.00000000000E+00 0. -1.
<scales pt_clust_5="13000.00000" pt_clust_6="13000.00000" pt_clust_7="13000.00000" pt_clust_8="13000.00000" pt_clust_9="34.50023"></scales>
<clustering>
<clus scale="   34.500">  1  9  2 -1</clus>
<clus scale="   89.656">  7  8 -1 -1</clus>
<clus scale="   92.126">  5  6 -1 -1</clus>
<clus scale="  117.964">  1  7  2 -1</clus>
<clus scale="   34.500">  1  5  2 -1</clus>
</clustering>
</event>
<event>
 9    1  0.1315259E-005  0.1139941E+03  0.7546771E-02  0.1254924E+00
          2   -1    0    0  502    0 -0.00000000000E+00  0.00000000000E+00  0.26052778294E+03  0.26052778294E+03  0.00000000000E+00 0. -1.
         21   -1    0    0  501  502  0.00000000000E+00 -0.00000000000E+00 -0.97596454947E+02  0.97596454947E+02  0.00000000000E+00 0.  1.
         23    2    1    2    0    0 -0.11631790640E+02 -0.71877487408E+02  0.17664391064E+03  0.21193073910E+03  0.91705481074E+02 0.  0.
         23    2    1    2    0    0 -0.10532502507E+02  0.56407699784E+02  0.16375040283E+02  0.10574803832E+03  0.87302597095E+02 0.  0.
        -13    1    4    4    0    0  0.91028630283E+01  0.65196790647E+02 -0.15180714535E+02  0.67556922072E+02  0.00000000000E+00 0.  1.
         13    1    4    4    0    0 -0.19635365536E+02 -0.87890908628E+01  0.31555754818E+02  0.38191116245E+02  0.00000000000E+00 0. -1.
        -13    1    3    3    0    0  0.18199166510E+02  0.14065311846E+02  0.18626523080E+02  0.29597128595E+02  0.00000000000E+00 0.  1.
         13    1    3    3    0    0 -0.29830957150E+02 -0.85942799255E+02  0.15801738756E+03  0.18233361050E+03  0.00000000000E+00 0. -1.
          2    1    1    2  501    0  0.22164293147E+02  0.15469787624E+02 -0.30087622925E+02  0.40445460476E+02  0.00000000000E+00 0. -1.
<scales pt_clust_5="13000.00000" pt_clust_6="13000.00000" pt_clust_7="13000.00000" pt_clust_8="13000.00000" pt_clust_9="27.02906"></scales>
<clustering>
<clus scale="   27.029">  2  9  1 -1</clus>
<clus scale="   87.303">  5  6 -1 -1</clus>
<clus scale="   91.705">  7  8 -1 -1</clus>
<clus scale="  110.483">  2  5  1 -1</clus>
<clus scale="   27.029">  2  5  1 -1</clus>
</clustering>
</event>
<event>
 9    1  0.1315259E-005  0.2063536E+03  0.7546771E-02  0.1174315E+00
         -1   -1    0    0    0  501 -0.00000000000E+00  0.00000000000E+00  0.41616616430E+03  0.41616616430E+03  0.00000000000E+00 0.  1.
         21   -1    0    0  501  502  0.00000000000E+00 -0.00000000000E+00 -0.29118542864E+03  0.29118542864E+03  0.00000000000E+00 0.  1.
         23    2    1    2    0    0 -0.41278100556E+01  0.41549107619E+02  0.18172578899E+03  0.20886830848E+03  0.94118758716E+02 0.  0.
         23    2    1    2    0    0 -0.35945454539E+02  0.14851837884E+03  0.13765706533E+03  0.22366752857E+03  0.87908538536E+02 0.  0.
        -11    1    3    3    0    0 -0.46616964838E+02  0.22574889283E+02  0.12624072767E+03  0.13645324606E+03  0.00000000000E+00 0.  1.
         11    1    3    3    0    0  0.42489154782E+02  0.18974218336E+02  0.55485061318E+02  0.72415062418E+02  0.00000000000E+00 0. -1.
        -13    1    4    4    0    0 -0.33210922686E+02  0.97619123955E+02  0.34721712203E+02  0.10880283106E+03  0.00000000000E+00 0. -1.
         13    1    4    4    0    0 -0.27345318525E+01  0.50899254883E+02  0.10293535313E+03  0.11486469752E+03  0.00000000000E+00 0.  1.
         -1    1    1    2    0  502  0.40073264594E+02 -0.19006748646E+03 -0.19440211866E+03  0.27481575589E+03  0.00000000000E+00 0.  1.
<scales pt_clust_5="13000.00000" pt_clust_6="13000.00000" pt_clust_7="13000.00000" pt_clust_8="13000.00000" pt_clust_9="186.69196"></scales>
<clustering>
<clus scale="   87.909">  7  8 -1 -1</clus>
<clus scale="   94.119">  5  6 -1 -1</clus>
<clus scale="  102.965">  1  5  2 -1</clus>
<clus scale="  186.692">  2  9  1 -1</clus>
<clus scale="  186.692">  2  5  1 -1</clus>
</clustering>
</event>
<event>
 9    1  0.3171552E-005  0.1027995E+03  0.7546771E-02  0.1275631E+00
         21   -1    0    0  501  502  0.00000000000E+00  0.00000000000E+00  0.15040136967E+03  0.15040136967E+03  0.00000000000E+00 0. -1.
          1   -1    0    0  502    0 -0.00000000000E+00 -0.00000000000E+00 -0.38491454331E+03  0.38491454331E+03  0.00000000000E+00 0. -1.
         23    2    1    2    0    0 -0.36720508063E+02  0.78368140191E+01 -0.32012439418E+03  0.33669979527E+03  0.97351492159E+02 0.  0.
         23    2    1    2    0    0  0.11275278087E+02  0.23847557176E+02 -0.55572316069E+01  0.98801059857E+02  0.95052242091E+02 0.  0.
        -13    1    4    4    0    0 -0.28765776178E+02 -0.90275142921E+01  0.24550074345E+02  0.38880226899E+02  0.00000000000E+00 0.  1.
         13    1    4    4    0    0  0.40041054264E+02  0.32875071468E+02 -0.30107305952E+02  0.59920832957E+02  0.00000000000E+00 0. -1.
        -13    1    3    3    0    0 -0.68728361635E+02  0.31345577457E+01 -0.17555726170E+03  0.18855706107E+03  0.00000000000E+00 0. -1.
         13    1    3    3    0    0  0.32007853572E+02  0.47022562734E+01 -0.14456713248E+03  0.14814273420E+03  0.00000000000E+00 0.  1.
          1    1    1    2  501    0  0.25445229976E+02 -0.31684371195E+02  0.91168452144E+02  0.99815057846E+02  0.00000000000E+00 0. -1.
<scales pt_clust_5="13000.00000" pt_clust_6="13000.00000" pt_clust_7="13000.00000" pt_clust_8="13000.00000" pt_clust_9="40.63692"></scales>
<clustering>
<clus scale="   40.637">  1  9  2 -1</clus>
<clus scale="   95.052">  5  6 -1 -1</clus>
<clus scale="   97.351">  7  8 -1 -1</clus>
<clus scale="  100.625">  1  5  2 -1</clus>
<clus scale="   40.637">  1  5  2 -1</clus>
</clustering>
</event>
<event>
 9    1  0.1315259E-005  0.1158842E+03  0.7546771E-02  0.1254340E+00
         21   -1    0    0  501  502  0.00000000000E+00  0.00000000000E+00  0.12706083769E+03  0.12706083769E+03  0.00000000000E+00 0.  1.
          2   -1    0    0  502    0 -0.00000000000E+00 -0.00000000000E+00 -0.15988196425E+03  0.15988196425E+03  0.00000000000E+00 0. -1.
         23    2    1    2    0    0  0.64649447276E+01 -0.32124953880E+02 -0.15591659688E+02  0.10710071108E+03  0.10076534270E+03 0.  0.
         23    2    1    2    0    0  0.22821457242E+01  0.84253895564E+02 -0.27220984726E+02  0.12604833117E+03  0.89684294470E+02 0.  0.
        -11    1    3    3    0    0 -0.35946779151E+02 -0.43934862972E+02  0.77122440134E+01  0.57288060043E+02  0.00000000000E+00 0.  1.
         11    1    3    3    0    0  0.42411723879E+02  0.11809909092E+02 -0.23303903701E+02  0.49812651032E+02  0.00000000000E+00 0. -1.
        -13    1    4    4    0    0  0.28412149027E+02 -0.60119722418E+01 -0.47495915699E+01  0.29427073294E+02  0.00000000000E+00 0.  1.
         13    1    4    4    0    0 -0.26130003303E+02  0.90265867806E+02 -0.22471393156E+02  0.96621257877E+02  0.00000000000E+00 0. -1.
          2    1    1    2  501    0 -0.87470904518E+01 -0.52128941684E+02  0.99915178550E+01  0.53793759689E+02  0.00000000000E+00 0. -1.
<scales pt_clust_5="13000.00000" pt_clust_6="13000.00000" pt_clust_7="13000.00000" pt_clust_8="13000.00000" pt_clust_9="52.85772"></scales>
<clustering>
<clus scale="   52.858">  1  9  2 -1</clus>
<clus scale="   89.684">  7  8 -1 -1</clus>
<clus scale="  100.765">  5  6 -1 -1</clus>
<clus scale="  106.390">  1  7  2 -1</clus>
<clus scale="   52.858">  1  5  2 -1</clus>
</clustering>
</event>
<event>
 9    1  0.1315259E-005  0.1637181E+03  0.7546771E-02  0.1184710E+00
         21   -1    0    0  501  502  0.00000000000E+00  0.00000000000E+00  0.42663632700E+02  0.42663632700E+02  0.00000000000E+00 0.  1.
          1   -1    0    0  502    0 -0.00000000000E+00 -0.00000000000E+00 -0.79199811648E+03  0.79199811648E+03  0.00000000000E+00 0. -1.
         23    2    1    2    0    0  0.32845595320E+02  0.13543441556E+03 -0.47856096896E+03  0.50673188885E+03  0.91297820982E+02 0.  0.
         23    2    1    2    0    0 -0.91828289094E+01 -0.13100424174E+03 -0.24791953488E+03  0.29473562358E+03  0.90324727128E+02 0.  0.
        -13    1    3    3    0    0 -0.18841238128E+02  0.10026590550E+03 -0.25667537289E+03  0.27620733356E+03  0.00000000000E+00 0. -1.
         13    1    3    3    0    0  0.51686833448E+02  0.35168510058E+02 -0.22188559607E+03  0.23052455530E+03  0.00000000000E+00 0.  1.
        -13    1    4    4    0    0 -0.24445237189E+02 -0.10165479539E+03 -0.10552491220E+03  0.14854889479E+03  0.00000000000E+00 0.  1.
         13    1    4    4    0    0  0.15262408279E+02 -0.29349446349E+02 -0.14239462268E+03  0.14618672879E+03  0.00000000000E+00 0. -1.
          1    1    1    2  501    0 -0.23662766411E+02 -0.44301738243E+01 -0.22853979940E+02  0.33194236750E+02  0.00000000000E+00 0. -1.
<scales pt_clust_5="13000.00000" pt_clust_6="13000.00000" pt_clust_7="13000.00000" pt_clust_8="13000.00000" pt_clust_9="24.07391"></scales>
<clustering>
<clus scale="   24.074">  1  9  2 -1</clus>
<clus scale="   90.325">  7  8 -1 -1</clus>
<clus scale="   91.298">  5  6 -1 -1</clus>
<clus scale="  163.177">  1  7  2 -1</clus>
<clus scale="   24.074">  1  5  2 -1</clus>
</clustering>
</event>
<event>
 9    1  0.1315259E-005  0.1939197E+03  0.7546771E-02  0.1155179E+00
          1   -1    0    0  502    0 -0.00000000000E+00  0.00000000000E+00  0.62168594479E+03  0.62168594479E+03  0.00000000000E+00 0. -1.
         21   -1    0    0  501  502  0.00000000000E+00 -0.00000000000E+00 -0.91938091404E+02  0.91938091404E+02  0.00000000000E+00 0. -1.
         23    2    1    2    0    0  0.16743111310E+03  0.47831250043E+01  0.42048286602E+03  0.46193214000E+03  0.92300625266E+02 0.  0.
         23    2    1    2    0    0 -0.17842977447E+03 -0.23568216419E+02  0.11085158258E+03  0.22986605152E+03  0.90319892829E+02 0.  0.
        -11    1    3    3    0    0  0.37367996989E+02  0.29401286060E+02  0.52333293444E+02  0.70707682918E+02  0.00000000000E+00 0.  1.
         11    1    3    3    0    0  0.13006311611E+03 -0.24618161056E+02  0.36814957258E+03  0.39122445708E+03  0.00000000000E+00 0. -1.
        -13    1    4    4    0    0 -0.37616428404E+02 -0.14289269338E+02 -0.12812875372E+02  0.42229713229E+02  0.00000000000E+00 0.  1.
         13    1    4    4    0    0 -0.14081334607E+03 -0.92789470811E+01  0.12366445795E+03  0.18763633830E+03  0.00000000000E+00 0. -1.
          1    1    1    2  501    0  0.10998661377E+02  0.18785091414E+02 -0.15865952100E+01  0.21825844678E+02  0.00000000000E+00 0. -1.
<scales pt_clust_5="13000.00000" pt_clust_6="13000.00000" pt_clust_7="13000.00000" pt_clust_8="13000.00000" pt_clust_9="21.76810"></scales>
<clustering>
<clus scale="   21.768">  2  9  1 -1</clus>
<clus scale="   90.320">  7  8 -1 -1</clus>
<clus scale="   92.301">  5  6 -1 -1</clus>
<clus scale="  192.985">  2  7  1 -1</clus>
<clus scale="   21.768">  2  5  1 -1</clus>
</clustering>
</event>
<event>
 9    1  0.1315259E-005  0.9702385E+02  0.7546771E-02  0.1287433E+00
          1   -1    0    0  502    0 -0.00000000000E+00  0.00000000000E+00  0.35416932314E+03  0.35416932314E+03  0.00000000000E+00 0. -1.
         21   -1    0    0  501  502  0.00000000000E+00 -0.00000000000E+00 -0.12072989639E+03  0.12072989639E+03  0.00000000000E+00 0. -1.
         23    2    1    2    0    0 -0.45482147706E+02 -0.45165994498E+01  0.21618328025E+03  0.23778166871E+03  0.87840115453E+02 0.  0.
         23    2    1    2    0    0  0.25737649728E+02 -0.37129002086E+01  0.10877537684E+03  0.14313170408E+03  0.89321833082E+02 0.  0.
        -11    1    3    3    0    0 -0.57054601713E+02  0.28663968128E+02  0.14216588616E+03  0.15584604529E+03  0.00000000000E+00 0. -1.
         11    1    3    3    0    0  0.11572454006E+02 -0.33180567578E+02  0.74017394093E+02  0.81935623417E+02  0.00000000000E+00 0.  1.
        -11    1    4    4    0    0  0.54263958701E+02  0.36468815408E+01  0.97391931170E+02  0.11154848818E+03  0.00000000000E+00 0.  1.
         11    1    4    4    0    0 -0.28526308973E+02 -0.73597817494E+01  0.11383445666E+02  0.31583215895E+02  0.00000000000E+00 0. -1.
          1    1    1    2  501    0  0.19744497978E+02  0.82294996584E+01 -0.91519230338E+02  0.93985846736E+02  0.00000000000E+00 0. -1.
<scales pt_clust_5="13000.00000" pt_clust_6="13000.00000" pt_clust_7="13000.00000" pt_clust_8="13000.00000" pt_clust_9="21.39088"></scales>
<clustering>
<clus scale="   21.391">  2  9  1 -1</clus>
<clus scale="   87.840">  5  6 -1 -1</clus>
<clus scale="   89.322">  7  8 -1 -1</clus>
<clus scale="   95.662">  1  5  2 -1</clus>
<clus scale="   21.391">  2  5  1 -1</clus>
</clustering>
</event>
<event>
 9    1  0.1315259E-005  0.1085914E+03  0.7546771E-02  0.1263786E+00
         21   -1    0    0  501  502  0.00000000000E+00  0.00000000000E+00  0.20608739385E+03  0.20608739385E+03  0.00000000000E+00 0.  1.
          1   -1    0    0  502    0 -0.00000000000E+00 -0.00000000000E+00 -0.19908262098E+03  0.19908262098E+03  0.00000000000E+00 0. -1.
         23    2    1    2    0    0 -0.17170803125E+02  0.56507448754E+02 -0.12988578873E+03  0.16983274632E+03  0.92113600320E+02 0.  0.
         23    2    1    2    0    0 -0.63358000912E+01 -0.56075486621E+02  0.11089555787E+02  0.10735820753E+03  0.90654309954E+02 0.  0.
        -13    1    3    3    0    0  0.49776564103E+01  0.43305710557E+02 -0.13643506099E+03  0.14322949241E+03  0.00000000000E+00 0. -1.
         13    1    3    3    0    0 -0.22148459536E+02  0.13201738197E+02  0.65492722593E+01  0.26603253905E+02  0.00000000000E+00 0.  1.
        -13    1    4    4    0    0  0.93988070686E+01  0.20253878381E+02 -0.12935621932E+02  0.25804795651E+02  0.00000000000E+00 0. -1.
         13    1    4    4    0    0 -0.15734607160E+02 -0.76329365003E+02  0.24025177719E+02  0.81553411876E+02  0.00000000000E+00 0.  1.
          1    1    1    2  501    0  0.23506603217E+02 -0.43196213310E+00  0.12580100581E+03  0.12797906098E+03  0.00000000000E+00 0. -1.
<scales pt_clust_5="13000.00000" pt_clust_6="13000.00000" pt_clust_7="13000.00000" pt_clust_8="13000.00000" pt_clust_9="23.51057"></scales>
<clustering>
<clus scale="   23.511">  1  9  2 -1</clus>
<clus scale="   90.654">  7  8 -1 -1</clus>
<clus scale="   92.114">  5  6 -1 -1</clus>
<clus scale="  107.356">  1  7  2 -1</clus>
<clus scale="   23.511">  1  5  2 -1</clus>
</clustering>
</event>
<event>
 9    1  0.1315259E-005  0.1026628E+03  0.7546771E-02  0.1275461E+00
          2   -1    0    0  502    0 -0.00000000000E+00  0.00000000000E+00  0.39945165491E+03  0.39945165491E+03  0.00000000000E+00 0. -1.
         21   -1    0    0  501  502  0.00000000000E+00 -0.00000000000E+00 -0.63804732048E+02  0.63804732048E+02  0.00000000000E+00 0. -1.
         23    2    1    2    0    0  0.16384187000E+02  0.43633251414E+02  0.29960528473E+03  0.31695670770E+03  0.92335939403E+02 0.  0.
         23    2    1    2    0    0 -0.45479750066E+02 -0.19945987736E+02  0.32825388410E+02  0.10864357069E+03  0.90882722425E+02 0.  0.
        -11    1    4    4    0    0  0.50709585909E+01 -0.39839374096E+02  0.36399903924E+02  0.54201875936E+02  0.00000000000E+00 0. -1.
         11    1    4    4    0    0 -0.50550708657E+02  0.19893386359E+02 -0.35745155135E+01  0.54441694755E+02  0.00000000000E+00 0.  1.
        -13    1    3    3    0    0  0.51136706183E+02  0.30443927344E+02  0.23502517736E+03  0.24244304367E+03  0.00000000000E+00 0.  1.
         13    1    3    3    0    0 -0.34752519183E+02  0.13189324070E+02  0.64580107362E+02  0.74513664022E+02  0.00000000000E+00 0. -1.
          2    1    1    2  501    0  0.29095563067E+02 -0.23687263678E+02  0.32162497313E+01  0.37656108575E+02  0.00000000000E+00 0. -1.
<scales pt_clust_5="13000.00000" pt_clust_6="13000.00000" pt_clust_7="13000.00000" pt_clust_8="13000.00000" pt_clust_9="37.51851"></scales>
<clustering>
<clus scale="   37.519">  2  9  1 -1</clus>
<clus scale="   90.883">  5  6 -1 -1</clus>
<clus scale="   92.336">  7  8 -1 -1</clus>
<clus scale="  101.358">  2  5  1 -1</clus>
<clus scale="   37.519">  2  5  1 -1</clus>
</clustering>
</event>
<event>
 9    1  0.1315259E-005  0.1126282E+03  0.7546771E-02  0.1256406E+00
         21   -1    0    0  501  502  0.00000000000E+00  0.00000000000E+00  0.86891683102E+02  0.86891683102E+02  0.00000000000E+00 0.  1.
          4   -1    0    0  502    0 -0.00000000000E+00 -0.00000000000E+00 -0.33806294078E+03  0.33806294078E+03  0.00000000000E+00 0. -1.
         23    2    1    2    0    0  0.52300997235E+02  0.41248177743E+02 -0.21575017024E+03  0.24348834486E+03  0.91113290166E+02 0.  0.
         23    2    1    2    0    0 -0.32841312700E+02 -0.50472977522E+02 -0.76899443217E+02  0.13473052984E+03  0.92804730617E+02 0.  0.
        -11    1    3    3    0    0 -0.24224275017E+02  0.39640913058E+01 -0.27350613056E+02  0.36750313666E+02  0.00000000000E+00 0.  1.
         11    1    3    3    0    0  0.76525272252E+02  0.37284086437E+02 -0.18839955718E+03  0.20673803119E+03  0.00000000000E+00 0. -1.
        -13    1    4    4    0    0  0.16465083676E+02 -0.28838818415E+02 -0.73647978736E+02  0.80788620485E+02  0.00000000000E+00 0. -1.
         13    1    4    4    0    0 -0.49306396376E+02 -0.21634159108E+02 -0.32514644808E+01  0.53941909358E+02  0.00000000000E+00 0.  1.
          4    1    1    2  501    0 -0.19459684535E+02  0.92247997798E+01  0.41478355779E+02  0.46735749179E+02  0.00000000000E+00 0. -1.
<scales pt_clust_5="13000.00000" pt_clust_6="13000.00000" pt_clust_7="13000.00000" pt_clust_8="13000.00000" pt_clust_9="21.53547"></scales>
<clustering>
<clus scale="   21.535">  1  9  2 -1</clus>
<clus scale="   91.113">  5  6 -1 -1</clus>
<clus scale="   92.805">  7  8 -1 -1</clus>
<clus scale="  111.239">  2  5  1 -1</clus>
<clus scale="   21.535">  1  5  2 -1</clus>
</clustering>
</event>
<event>
 9    1  0.1315259E-005  0.1051714E+03  0.7546771E-02  0.1271127E+00
          1   -1    0    0  502    0 -0.00000000000E+00  0.00000000000E+00  0.71479000446E+02  0.71479000446E+02  0.00000000000E+00 0. -1.
         21   -1    0    0  501  502  0.00000000000E+00 -0.00000000000E+00 -0.73286089830E+03  0.73286089830E+03  0.00000000000E+00 0. -1.
         23    2    1    2    0    0 -0.37927872322E+02 -0.35682047057E+02  0.50825462377E+01  0.10222449378E+03  0.87819604146E+02 0.  0.
         23    2    1    2    0    0  0.82832656280E+02 -0.15824119111E+02 -0.23944318654E+03  0.26966138524E+03  0.90953677304E+02 0.  0.
        -13    1    3    3    0    0  0.41410821102E+01 -0.55407476738E+02  0.85331727801E+00  0.55568562964E+02  0.00000000000E+00 0. -1.
         13    1    3    3    0    0 -0.42068954432E+02  0.19725429682E+02  0.42292289597E+01  0.46655930820E+02  0.00000000000E+00 0.  1.
        -13    1    4    4    0    0  0.92881209680E+01  0.28793296494E+02 -0.11118698125E+03  0.11522963124E+03  0.00000000000E+00 0.  1.
         13    1    4    4    0    0  0.73544535312E+02 -0.44617415606E+02 -0.12825620529E+03  0.15443175400E+03  0.00000000000E+00 0. -1.
          1    1    1    2  501    0 -0.44904783958E+02  0.51506166168E+02 -0.42702125755E+03  0.43245401972E+03  0.00000000000E+00 0. -1.
<scales pt_clust_5="13000.00000" pt_clust_6="13000.00000" pt_clust_7="13000.00000" pt_clust_8="13000.00000" pt_clust_9="68.33246"></scales>
<clustering>
<clus scale="   68.332">  2  9  1 -1</clus>
<clus scale="   87.820">  5  6 -1 -1</clus>
<clus scale="   90.954">  7  8 -1 -1</clus>
<clus scale="  102.473">  1  5  2 -1</clus>
<clus scale="   68.332">  2  5  1 -1</clus>
</clustering>
</event>
<event>
 9    1  0.1315259E-005  0.3695138E+03  0.7546771E-02  0.1099871E+00
         21   -1    0    0  501  502  0.00000000000E+00  0.00000000000E+00  0.47555911404E+03  0.47555911404E+03  0.00000000000E+00 0. -1.
         -1   -1    0    0    0  501 -0.00000000000E+00 -0.00000000000E+00 -0.48222560453E+03  0.48222560453E+03  0.00000000000E+00 0.  1.
         23    2    1    2    0    0  0.16094577544E+02 -0.57403170855E+02 -0.11082401739E+03  0.15561895645E+03  0.91548551733E+02 0.  0.
         23    2    1    2    0    0 -0.12918053593E+03  0.37843572489E+03 -0.75596013439E+02  0.41724801766E+03  0.92086601955E+02 0.  0.
        -11    1    3    3    0    0 -0.56882489670E+00 -0.80026237527E+02 -0.91271169658E+02  0.12138759683E+03  0.00000000000E+00 0.  1.
         11    1    3    3    0    0  0.16663402440E+02  0.22623066671E+02 -0.19552847737E+02  0.34231359616E+02  0.00000000000E+00 0. -1.
        -13    1    4    4    0    0 -0.97764049778E+02  0.18669382691E+03 -0.58925416362E+01  0.21082484787E+03  0.00000000000E+00 0. -1.
         13    1    4    4    0    0 -0.31416486150E+02  0.19174189798E+03 -0.69703471803E+02  0.20642316978E+03  0.00000000000E+00 0.  1.
         -1    1    1    2    0  502  0.11308595838E+03 -0.32103255403E+03  0.17975354035E+03  0.38491774446E+03  0.00000000000E+00 0.  1.
<scales pt_clust_5="13000.00000" pt_clust_6="13000.00000" pt_clust_7="13000.00000" pt_clust_8="13000.00000" pt_clust_9="357.85543"></scales>
<clustering>
<clus scale="   91.549">  5  6 -1 -1</clus>
<clus scale="   92.087">  7  8 -1 -1</clus>
<clus scale="  109.249">  2  5  1 -1</clus>
<clus scale="  357.855">  1  9  2 -1</clus>
<clus scale="  357.855">  1  5  2 -1</clus>
</clustering>
</event>
<event>
 9    1  0.1315259E-005  0.1081240E+03  0.7546771E-02  0.1264746E+00
         21   -1    0    0  501  502  0.00000000000E+00  0.00000000000E+00  0.13665069711E+03  0.13665069711E+03  0.00000000000E+00 0.  1.
          1   -1    0    0  502    0 -0.00000000000E+00 -0.00000000000E+00 -0.20169730730E+03  0.20169730730E+03  0.00000000000E+00 0. -1.
         23    2    1    2    0    0  0.26264724024E+01  0.57083835350E+02 -0.11602012003E+03  0.15843902984E+03  0.91524834383E+02 0.  0.
         23    2    1    2    0    0 -0.27363870646E+02 -0.46969805862E+02 -0.14857073423E+02  0.10886041259E+03  0.93139211507E+02 0.  0.
        -11    1    3    3    0    0 -0.42350544226E+02  0.12063373051E+02 -0.52536075519E+02  0.68550220981E+02  0.00000000000E+00 0.  1.
         11    1    3    3    0    0  0.44977016628E+02  0.45020462299E+02 -0.63484044513E+02  0.89888808860E+02  0.00000000000E+00 0. -1.
        -13    1    4    4    0    0 -0.28121849136E+01  0.28295368354E+02 -0.71352719778E+01  0.29316349713E+02  0.00000000000E+00 0. -1.
         13    1    4    4    0    0 -0.24551685732E+02 -0.75265174216E+02 -0.77218014457E+01  0.79544062881E+02  0.00000000000E+00 0.  1.
          1    1    1    2  501    0  0.24737398244E+02 -0.10114029489E+02  0.65830583267E+02  0.71048561967E+02  0.00000000000E+00 0. -1.
<scales pt_clust_5="13000.00000" pt_clust_6="13000.00000" pt_clust_7="13000.00000" pt_clust_8="13000.00000" pt_clust_9="26.72513"></scales>
<clustering>
<clus scale="   26.725">  1  9  2 -1</clus>
<clus scale="   91.525">  5  6 -1 -1</clus>
<clus scale="   93.139">  7  8 -1 -1</clus>
<clus scale="  106.736">  2  5  1 -1</clus>
<clus scale="   26.725">  1  5  2 -1</clus>
</clustering>
</event>
<event>
 9    1  0.1315259E-005  0.9512142E+02  0.7546771E-02  0.1292648E+00
         -3   -1    0    0    0  501 -0.00000000000E+00  0.00000000000E+00  0.40506197656E+03  0.40506197656E+03  0.00000000000E+00 0.  1.
         21   -1    0    0  501  502  0.00000000000E+00 -0.00000000000E+00 -0.12456268860E+03  0.12456268860E+03  0.00000000000E+00 0.  1.
         23    2    1    2    0    0 -0.28825299180E+01 -0.97880177916E+01  0.20542521020E+03  0.22654775445E+03  0.94975016656E+02 0.  0.
         23    2    1    2    0    0 -0.14318734537E+02 -0.11536474464E+02  0.17550788829E+03  0.19897327117E+03  0.91919678986E+02 0.  0.
        -11    1    3    3    0    0  0.25797033934E+02 -0.43920890854E+02  0.10867402430E+03  0.12001906170E+03  0.00000000000E+00 0.  1.
         11    1    3    3    0    0 -0.28679563852E+02  0.34132873062E+02  0.96751185903E+02  0.10652869275E+03  0.00000000000E+00 0. -1.
        -13    1    4    4    0    0  0.50972046203E+01 -0.48795594516E+02  0.11765064846E+03  0.12747025780E+03  0.00000000000E+00 0.  1.
         13    1    4    4    0    0 -0.19415939158E+02  0.37259120053E+02  0.57857239828E+02  0.71503013370E+02  0.00000000000E+00 0. -1.
         -3    1    1    2    0  502  0.17201264455E+02  0.21324492255E+02 -0.10043381053E+03  0.10410363954E+03  0.00000000000E+00 0.  1.
<scales pt_clust_5="13000.00000" pt_clust_6="13000.00000" pt_clust_7="13000.00000" pt_clust_8="13000.00000" pt_clust_9="27.39740"></scales>
<clustering>
<clus scale="   27.397">  2  9  1 -1</clus>
<clus scale="   91.920">  7  8 -1 -1</clus>
<clus scale="   92.071">  2  7  1 -1</clus>
<clus scale="   94.975">  5  6 -1 -1</clus>
<clus scale="   27.397">  2  5  1 -1</clus>
</clustering>
</event>
<event>
 9    1  0.1315259E-005  0.9806480E+02  0.7546771E-02  0.1284548E+00
         21   -1    0    0  501  502  0.00000000000E+00  0.00000000000E+00  0.14458218207E+03  0.14458218207E+03  0.00000000000E+00 0.  1.
          1   -1    0    0  502    0 -0.00000000000E+00 -0.00000000000E+00 -0.13166253818E+03  0.13166253818E+03  0.00000000000E+00 0. -1.
         23    2    1    2    0    0 -0.14956069148E+02 -0.26149640134E+02 -0.54497398637E+02  0.11148093272E+03  0.92469152800E+02 0.  0.
         23    2    1    2    0    0  0.38313506736E+02  0.14783435960E+02  0.10194043164E+02  0.10192087111E+03  0.92722546740E+02 0.  0.
        -11    1    4    4    0    0  0.65880616503E+02 -0.22546243438E+01  0.18500014167E+02  0.68465973198E+02  0.00000000000E+00 0.  1.
         11    1    4    4    0    0 -0.27567109767E+02  0.17038060303E+02 -0.83059710026E+01  0.33454897909E+02  0.00000000000E+00 0. -1.
        -13    1    3    3    0    0 -0.36820716128E+02 -0.31167190664E+02 -0.69421612849E+02  0.84537087959E+02  0.00000000000E+00 0. -1.
         13    1    3    3    0    0  0.21864646980E+02  0.50175505306E+01  0.14924214212E+02  0.26943844765E+02  0.00000000000E+00 0.  1.
          1    1    1    2  501    0 -0.23357437589E+02  0.11366204174E+02  0.57222999362E+02  0.62842916419E+02  0.00000000000E+00 0. -1.
<scales pt_clust_5="13000.00000" pt_clust_6="13000.00000" pt_clust_7="13000.00000" pt_clust_8="13000.00000" pt_clust_9="25.97615"></scales>
<clustering>
<clus scale="   25.976">  1  9  2 -1</clus>
<clus scale="   92.469">  7  8 -1 -1</clus>
<clus scale="   92.723">  5  6 -1 -1</clus>
<clus scale="   97.825">  2  7  1 -1</clus>
<clus scale="   25.976">  1  5  2 -1</clus>
</clustering>
</event>
<event>
 9    1  0.1315259E-005  0.1407029E+03  0.7546771E-02  0.1212944E+00
         21   -1    0    0  501  502  0.00000000000E+00  0.00000000000E+00  0.17332548658E+03  0.17332548658E+03  0.00000000000E+00 0. -1.
          2   -1    0    0  502    0 -0.00000000000E+00 -0.00000000000E+00 -0.26228018144E+03  0.26228018144E+03  0.00000000000E+00 0. -1.
         23    2    1    2    0    0  0.10814363782E+03  0.33142895433E+02 -0.16053964828E+03  0.21554681742E+03  0.88847925765E+02 0.  0.
         23    2    1    2    0    0 -0.96126934485E+02  0.25549589973E+00 -0.80188951253E+01  0.13290022277E+03  0.91420532271E+02 0.  0.
        -11    1    3    3    0    0  0.57719383748E+02 -0.15630628598E+02 -0.12111938702E+03  0.13507682896E+03  0.00000000000E+00 0. -1.
         11    1    3    3    0    0  0.50424254067E+02  0.48773524031E+02 -0.39420261261E+02  0.80469988458E+02  0.00000000000E+00 0.  1.
        -13    1    4    4    0    0  0.98012685788E+01  0.22383060966E+02 -0.20599372152E+01  0.24521615470E+02  0.00000000000E+00 0. -1.
         13    1    4    4    0    0 -0.10592820306E+03 -0.22127565066E+02 -0.59589579102E+01  0.10837860730E+03  0.00000000000E+00 0.  1.
          2    1    1    2  501    0 -0.12016703331E+02 -0.33398391333E+02  0.79603848548E+02  0.87158627836E+02  0.00000000000E+00 0. -1.
<scales pt_clust_5="13000.00000" pt_clust_6="13000.00000" pt_clust_7="13000.00000" pt_clust_8="13000.00000" pt_clust_9="35.49442"></scales>
<clustering>
<clus scale="   35.494">  1  9  2 -1</clus>
<clus scale="   88.848">  5  6 -1 -1</clus>
<clus scale="   91.421">  7  8 -1 -1</clus>
<clus scale="  139.045">  2  5  1 -1</clus>
<clus scale="   35.494">  1  5  2 -1</clus>
</clustering>
</event>
<event>
 9    1  0.1315259E-005  0.9635768E+02  0.7546771E-02  0.1288470E+00
          4   -1    0    0  502    0 -0.00000000000E+00  0.00000000000E+00  0.56436202840E+02  0.56436202840E+02  0.00000000000E+00 0. -1.
         21   -1    0    0  501  502  0.00000000000E+00 -0.00000000000E+00 -0.39620168100E+03  0.39620168100E+03  0.00000000000E+00 0.  1.
         23    2    1    2    0    0  0.49906206118E+01  0.23447827572E+02 -0.27863009733E+02  0.97111333433E+02  0.89886355238E+02 0.  0.
         23    2    1    2    0    0 -0.24891775582E+01 -0.52548358225E+02 -0.11125330449E+03  0.15276268505E+03  0.90507536863E+02 0.  0.
        -13    1    4    4    0    0  0.32139837158E+02 -0.60123704172E+02 -0.62527051296E+02  0.92506546145E+02  0.00000000000E+00 0. -1.
         13    1    4    4    0    0 -0.34629014716E+02  0.75753459467E+01 -0.48726253189E+02  0.60256138909E+02  0.00000000000E+00 0.  1.
        -13    1    3    3    0    0 -0.29656941022E+02  0.26897836934E+02 -0.43343827752E+02  0.59006060592E+02  0.00000000000E+00 0.  1.
         13    1    3    3    0    0  0.34647561633E+02 -0.34500093614E+01  0.15480818019E+02  0.38105272841E+02  0.00000000000E+00 0. -1.
          4    1    1    2  501    0 -0.25014430536E+01  0.29100530653E+02 -0.20064916394E+03  0.20276386535E+03  0.00000000000E+00 0. -1.
<scales pt_clust_5="13000.00000" pt_clust_6="13000.00000" pt_clust_7="13000.00000" pt_clust_8="13000.00000" pt_clust_9="29.20784"></scales>
<clustering>
<clus scale="   29.208">  2  9  1 -1</clus>
<clus scale="   89.886">  7  8 -1 -1</clus>
<clus scale="   90.508">  5  6 -1 -1</clus>
<clus scale="   95.774">  1  7  2 -1</clus>
<clus scale="   29.208">  2  5  1 -1</clus>
</clustering>
</event>
<event>
 9    1  0.1315259E-005  0.1387796E+03  0.7546771E-02  0.1229588E+00
         -2   -1    0    0    0  501 -0.00000000000E+00  0.00000000000E+00  0.21448511203E+03  0.21448511203E+03  0.00000000000E+00 0.  1.
         21   -1    0    0  501  502  0.00000000000E+00 -0.00000000000E+00 -0.18409437899E+03  0.18409437899E+03  0.00000000000E+00 0.  1.
         23    2    1    2    0    0 -0.36239104727E+02  0.13084440908E+02  0.91475527911E+02  0.13718936429E+03  0.94703084232E+02 0.  0.
         23    2    1    2    0    0  0.68248629091E+02  0.86076727036E+02 -0.47766311354E+01  0.14294960925E+03  0.91349309083E+02 0.  0.
        -11    1    3    3    0    0 -0.34812145368E+02  0.49146491377E+02  0.78268670669E+02  0.98758533242E+02  0.00000000000E+00 0.  1.
         11    1    3    3    0    0 -0.14269593590E+01 -0.36062050469E+02  0.13206857242E+02  0.38430831050E+02  0.00000000000E+00 0. -1.
        -11    1    4    4    0    0  0.27455579523E+02 -0.16475248816E+02 -0.59929762478E+01  0.32575426855E+02  0.00000000000E+00 0. -1.
         11    1    4    4    0    0  0.40793049568E+02  0.10255197585E+03  0.12163451124E+01  0.11037418240E+03  0.00000000000E+00 0.  1.
         -2    1    1    2    0  502 -0.32009524365E+02 -0.99161167944E+02 -0.56308163739E+02  0.11844051748E+03  0.00000000000E+00 0.  1.
<scales pt_clust_5="13000.00000" pt_clust_6="13000.00000" pt_clust_7="13000.00000" pt_clust_8="13000.00000" pt_clust_9="104.47533"></scales>
<clustering>
<clus scale="   91.349">  7  8 -1 -1</clus>
<clus scale="   94.703">  5  6 -1 -1</clus>
<clus scale="  102.241">  1  5  2 -1</clus>
<clus scale="  104.475">  2  9  1 -1</clus>
<clus scale="  104.475">  2  5  1 -1</clus>
</clustering>
</event>
<event>
 9    1  0.1315259E-005  0.1014022E+03  0.7546771E-02  0.1279301E+00
          1   -1    0    0  502    0 -0.00000000000E+00  0.00000000000E+00  0.29170995160E+03  0.29170995160E+03  0.00000000000E+00 0. -1.
         21   -1    0    0  501  502  0.00000000000E+00 -0.00000000000E+00 -0.46642826559E+02  0.46642826559E+02  0.00000000000E+00 0.  1.
         23    2    1    2    0    0  0.30222566480E+02 -0.16249876301E+01  0.13965807360E+03  0.16995443104E+03  0.92000472818E+02 0.  0.
         23    2    1    2    0    0 -0.34953904407E+02 -0.24353090041E+02  0.83652155047E+02  0.13418418896E+03  0.95879429986E+02 0.  0.
        -11    1    4    4    0    0  0.25885469554E+02  0.16597574357E+02  0.17282463785E+02  0.35273510784E+02  0.00000000000E+00 0.  1.
         11    1    4    4    0    0 -0.60839373961E+02 -0.40950664398E+02  0.66369691262E+02  0.98910678174E+02  0.00000000000E+00 0. -1.
        -13    1    3    3    0    0  0.55528381364E+02  0.31849288654E+01  0.44088235226E+02  0.70974061417E+02  0.00000000000E+00 0.  1.
         13    1    3    3    0    0 -0.25305814884E+02 -0.48099164955E+01  0.95569838375E+02  0.98980369623E+02  0.00000000000E+00 0. -1.
          1    1    1    2  501    0  0.47313379274E+01  0.25978077671E+02  0.21756896395E+02  0.34214158163E+02  0.00000000000E+00 0. -1.
<scales pt_clust_5="13000.00000" pt_clust_6="13000.00000" pt_clust_7="13000.00000" pt_clust_8="13000.00000" pt_clust_9="26.40542"></scales>
<clustering>
<clus scale="   26.405">  2  9  1 -1</clus>
<clus scale="   92.000">  7  8 -1 -1</clus>
<clus scale="   95.879">  5  6 -1 -1</clus>
<clus scale="   97.743">  1  7  2 -1</clus>
<clus scale="   26.405">  2  5  1 -1</clus>
</clustering>
</event>
<event>
 9    1  0.1315259E-005  0.9708597E+02  0.7546771E-02  0.1288872E+00
         21   -1    0    0  501  502  0.00000000000E+00  0.00000000000E+00  0.17137168663E+03  0.17137168663E+03  0.00000000000E+00 0.  1.
          3   -1    0    0  502    0 -0.00000000000E+00 -0.00000000000E+00 -0.75274882181E+02  0.75274882181E+02  0.00000000000E+00 0. -1.
         23    2    1    2    0    0  0.17433281125E+02 -0.11421370812E+02  0.19879495343E+02  0.98513803255E+02  0.94209384324E+02 0.  0.
         23    2    1    2    0    0 -0.32359036541E+02 -0.14779165850E+02  0.61245801495E+02  0.11446687278E+03  0.89922665521E+02 0.  0.
        -11    1    4    4    0    0 -0.37086781154E+01  0.32861765521E+02  0.46305324494E+02  0.56901959571E+02  0.00000000000E+00 0. -1.
         11    1    4    4    0    0 -0.28650358426E+02 -0.47640931371E+02  0.14940477000E+02  0.57564913210E+02  0.00000000000E+00 0.  1.
        -13    1    3    3    0    0  0.30416931253E+02 -0.47620254445E+02  0.32016047369E+01  0.56596189034E+02  0.00000000000E+00 0.  1.
         13    1    3    3    0    0 -0.12983650128E+02  0.36198883633E+02  0.16677890606E+02  0.41917614221E+02  0.00000000000E+00 0. -1.
          3    1    1    2  501    0  0.14925755417E+02  0.26200536662E+02  0.14971507610E+02  0.33665892774E+02  0.00000000000E+00 0. -1.
<scales pt_clust_5="13000.00000" pt_clust_6="13000.00000" pt_clust_7="13000.00000" pt_clust_8="13000.00000" pt_clust_9="30.15371"></scales>
<clustering>
<clus scale="   30.154">  1  9  2 -1</clus>
<clus scale="   89.923">  5  6 -1 -1</clus>
<clus scale="   92.932">  1  5  2 -1</clus>
<clus scale="   94.209">  7  8 -1 -1</clus>
<clus scale="   30.154">  1  5  2 -1</clus>
</clustering>
</event>
<event>
 9    1  0.1315259E-005  0.1044616E+03  0.7546771E-02  0.1271379E+00
          1   -1    0    0  502    0 -0.00000000000E+00  0.00000000000E+00  0.66285242540E+03  0.66285242540E+03  0.00000000000E+00 0. -1.
         21   -1    0    0  501  502  0.00000000000E+00 -0.00000000000E+00 -0.58532408513E+02  0.58532408513E+02  0.00000000000E+00 0.  1.
         23    2    1    2    0    0 -0.39914194445E+02 -0.19308012564E+02  0.54225677218E+03  0.55199996347E+03  0.93250256964E+02 0.  0.
         23    2    1    2    0    0  0.68094805971E+02 -0.74955215653E+01  0.59455759939E+02  0.13040570570E+03  0.93688714608E+02 0.  0.
        -11    1    3    3    0    0  0.13125180552E+02  0.28686343147E+02  0.18124160085E+03  0.18396655818E+03  0.00000000000E+00 0.  1.
         11    1    3    3    0    0 -0.53039374998E+02 -0.47994355711E+02  0.36101517133E+03  0.36803340529E+03  0.00000000000E+00 0. -1.
        -13    1    4    4    0    0  0.25700872493E+02  0.67861952075E+01  0.77679167948E+02  0.82101403310E+02  0.00000000000E+00 0. -1.
         13    1    4    4    0    0  0.42393933478E+02 -0.14281716773E+02 -0.18223408009E+02  0.48304302388E+02  0.00000000000E+00 0.  1.
          1    1    1    2  501    0 -0.28180611526E+02  0.26803534129E+02  0.26074847686E+01  0.38979164750E+02  0.00000000000E+00 0. -1.
<scales pt_clust_5="13000.00000" pt_clust_6="13000.00000" pt_clust_7="13000.00000" pt_clust_8="13000.00000" pt_clust_9="38.89185"></scales>
<clustering>
<clus scale="   38.892">  2  9  1 -1</clus>
<clus scale="   93.250">  5  6 -1 -1</clus>
<clus scale="   93.689">  7  8 -1 -1</clus>
<clus scale="  104.069">  1  5  2 -1</clus>
<clus scale="   38.892">  2  5  1 -1</clus>
</clustering>
</event>
<event>
 9    1  0.1315259E-005  0.9445507E+02  0.7546771E-02  0.1293523E+00
         21   -1    0    0  501  502  0.00000000000E+00  0.00000000000E+00  0.18737618724E+03  0.18737618724E+03  0.00000000000E+00 0.  1.
         -1   -1    0    0    0  501 -0.00000000000E+00 -0.00000000000E+00 -0.73571461750E+02  0.73571461750E+02  0.00000000000E+00 0.  1.
         23    2    1    2    0    0 -0.43610006388E+01 -0.10082786546E+01  0.14042162185E+02  0.95228675278E+02  0.94081259153E+02 0.  0.
         23    2    1    2    0    0 -0.15501499784E+02 -0.19552419591E+02  0.48597300873E+02  0.10710886097E+03  0.92130433841E+02 0.  0.
        -11    1    3    3    0    0  0.19419558948E+02 -0.41980952419E+02  0.17589113281E+01  0.46288372242E+02  0.00000000000E+00 0.  1.
         11    1    3    3    0    0 -0.23780559587E+02  0.40972673764E+02  0.12283250857E+02  0.48940303036E+02  0.00000000000E+00 0. -1.
        -13    1    4    4    0    0 -0.43854464419E+02  0.56538828975E+01 -0.15301018074E+01  0.44243888310E+02  0.00000000000E+00 0. -1.
         13    1    4    4    0    0  0.28352964634E+02 -0.25206302488E+02  0.50127402680E+02  0.62864972665E+02  0.00000000000E+00 0.  1.
         -1    1    1    2    0  502  0.19862500423E+02  0.20560698245E+02  0.51165262429E+02  0.58610112736E+02  0.00000000000E+00 0.  1.
<scales pt_clust_5="13000.00000" pt_clust_6="13000.00000" pt_clust_7="13000.00000" pt_clust_8="13000.00000" pt_clust_9="28.58778"></scales>
<clustering>
<clus scale="   28.588">  1  9  2 -1</clus>
<clus scale="   92.130">  7  8 -1 -1</clus>
<clus scale="   92.512">  1  7  2 -1</clus>
<clus scale="   94.081">  5  6 -1 -1</clus>
<clus scale="   28.588">  1  5  2 -1</clus>
</clustering>
</event>
<event>
 9    1  0.1315259E-005  0.1286326E+03  0.7546771E-02  0.1229625E+00
          2   -1    0    0  502    0 -0.00000000000E+00  0.00000000000E+00  0.17474296675E+03  0.17474296675E+03  0.00000000000E+00 0. -1.
         21   -1    0    0  501  502  0.00000000000E+00 -0.00000000000E+00 -0.21086392638E+03  0.21086392638E+03  0.00000000000E+00 0.  1.
         23    2    1    2    0    0 -0.51507898342E+02 -0.76776664565E+02  0.11352942157E+03  0.17180476966E+03  0.89890096789E+02 0.  0.
         23    2    1    2    0    0  0.68985794453E+02  0.61263247943E+02 -0.11787475201E+03  0.17435806742E+03  0.89409468892E+02 0.  0.
        -11    1    4    4    0    0  0.48886825789E+02  0.29205511151E+02 -0.12360223202E+03  0.13608965934E+03  0.00000000000E+00 0. -1.
         11    1    4    4    0    0  0.20098968663E+02  0.32057736792E+02  0.57274800163E+01  0.38268408079E+02  0.00000000000E+00 0.  1.
        -13    1    3    3    0    0 -0.71188113451E+02 -0.32326042462E+02  0.54349368815E+02  0.95218561260E+02  0.00000000000E+00 0.  1.
         13    1    3    3    0    0  0.19680215109E+02 -0.44450622104E+02  0.59180052756E+02  0.76586208395E+02  0.00000000000E+00 0. -1.
          2    1    1    2  501    0 -0.17477896110E+02  0.15513416622E+02 -0.31775629189E+02  0.39444056056E+02  0.00000000000E+00 0. -1.
<scales pt_clust_5="13000.00000" pt_clust_6="13000.00000" pt_clust_7="13000.00000" pt_clust_8="13000.00000" pt_clust_9="23.36970"></scales>
<clustering>
<clus scale="   23.370">  2  9  1 -1</clus>
<clus scale="   89.409">  5  6 -1 -1</clus>
<clus scale="   89.890">  7  8 -1 -1</clus>
<clus scale="  128.297">  2  5  1 -1</clus>
<clus scale="   23.370">  2  5  1 -1</clus>
</clustering>
</event>
<event>
 9    1  0.1369132E-005  0.1523557E+03  0.7546771E-02  0.1199707E+00
          1   -1    0    0  502    0 -0.00000000000E+00  0.00000000000E+00  0.54143567344E+03  0.54143567344E+03  0.00000000000E+00 0. -1.
         21   -1    0    0  501  502  0.00000000000E+00 -0.00000000000E+00 -0.16467084830E+03  0.16467084830E+03  0.00000000000E+00 0. -1.
         23    2    1    2    0    0 -0.10228828065E+03  0.36928838073E+02  0.46625342702E+03  0.49010513154E+03  0.10480529719E+03 0.  0.
         23    2    1    2    0    0  0.11579571594E+03 -0.65360983245E+02 -0.85565231656E+02  0.18428025338E+03  0.94641940788E+02 0.  0.
        -11    1    4    4    0    0  0.49390407539E+02  0.21325796198E+02 -0.32725224793E+02  0.62969375717E+02  0.00000000000E+00 0.  1.
         11    1    4    4    0    0  0.66405308404E+02 -0.86686779443E+02 -0.52840006863E+02  0.12131087766E+03  0.00000000000E+00 0. -1.
        -13    1    3    3    0    0 -0.99900691528E+02 -0.13268422421E+02  0.31057724834E+03  0.32651864631E+03  0.00000000000E+00 0.  1.
         13    1    3    3    0    0 -0.23875891203E+01  0.50197260494E+02  0.15567617868E+03  0.16358648523E+03  0.00000000000E+00 0. -1.
          1    1    1    2  501    0 -0.13507435296E+02  0.28432145172E+02 -0.39233702199E+01  0.31721136821E+02  0.00000000000E+00 0. -1.
<scales pt_clust_5="13000.00000" pt_clust_6="13000.00000" pt_clust_7="13000.00000" pt_clust_8="13000.00000" pt_clust_9="31.47757"></scales>
<clustering>
<clus scale="   31.478">  2  9  1 -1</clus>
<clus scale="   94.642">  5  6 -1 -1</clus>
<clus scale="  104.805">  7  8 -1 -1</clus>
<clus scale="  145.551">  2  5  1 -1</clus>
<clus scale="   31.478">  2  5  1 -1</clus>
</clustering>
</event>
<event>
 9    1  0.1315259E-005  0.1422010E+03  0.7546771E-02  0.1210831E+00
         21   -1    0    0  501  502  0.00000000000E+00  0.00000000000E+00  0.24930866014E+03  0.24930866014E+03  0.00000000000E+00 0.  1.
         -1   -1    0    0    0  501 -0.00000000000E+00 -0.00000000000E+00 -0.11846983921E+03  0.11846983921E+03  0.00000000000E+00 0.  1.
         23    2    1    2    0    0 -0.65143535931E+02 -0.91300228768E+02 -0.12955507512E+02  0.14769191770E+03  0.95213682488E+02 0.  0.
         23    2    1    2    0    0  0.31217542876E+02  0.88513715637E+02  0.11931378724E+03  0.17815765897E+03  0.93247835279E+02 0.  0.
        -13    1    4    4    0    0  0.56946988825E+02  0.31049161918E+02  0.37500171064E+02  0.74921778021E+02  0.00000000000E+00 0.  1.
         13    1    4    4    0    0 -0.25729445949E+02  0.57464553719E+02  0.81813616178E+02  0.10323588095E+03  0.00000000000E+00 0. -1.
        -13    1    3    3    0    0  0.22651492274E+02 -0.19821307385E+02 -0.16690473786E+02  0.34417237598E+02  0.00000000000E+00 0. -1.
         13    1    3    3    0    0 -0.87795028204E+02 -0.71478921383E+02  0.37349662740E+01  0.11327468010E+03  0.00000000000E+00 0.  1.
         -1    1    1    2    0  502  0.33925993054E+02  0.27865131313E+01  0.24480541195E+02  0.41928922683E+02  0.00000000000E+00 0.  1.
<scales pt_clust_5="13000.00000" pt_clust_6="13000.00000" pt_clust_7="13000.00000" pt_clust_8="13000.00000" pt_clust_9="34.04024"></scales>
<clustering>
<clus scale="   34.040">  1  9  2 -1</clus>
<clus scale="   93.248">  5  6 -1 -1</clus>
<clus scale="   95.214">  7  8 -1 -1</clus>
<clus scale="  140.892">  1  5  2 -1</clus>
<clus scale="   34.040">  1  5  2 -1</clus>
</clustering>
</event>
<event>
 9    1  0.1315259E-005  0.1107452E+03  0.7546771E-02  0.1265570E+00
          1   -1    0    0  502    0 -0.00000000000E+00  0.00000000000E+00  0.17259010466E+03  0.17259010466E+03  0.00000000000E+00 0. -1.
         21   -1    0    0  501  502  0.00000000000E+00 -0.00000000000E+00 -0.28137661355E+03  0.28137661355E+03  0.00000000000E+00 0. -1.
         23    2    1    2    0    0  0.65768741480E+02 -0.33802416361E+02  0.96782315447E+02  0.15255120997E+03  0.91852731976E+02 0.  0.
         23    2    1    2    0    0 -0.50698900305E+02 -0.35177951722E+02 -0.15780133837E+02  0.98918253114E+02  0.75683164547E+02 0.  0.
        -11    1    3    3    0    0 -0.14734720609E+02 -0.17555426371E+02 -0.32235190182E+01  0.23145108800E+02  0.00000000000E+00 0.  1.
         11    1    3    3    0    0  0.80503462090E+02 -0.16246989989E+02  0.10000583447E+03  0.12940610117E+03  0.00000000000E+00 0. -1.
        -11    1    4    4    0    0 -0.43576942913E+02  0.80291343305E+01 -0.29260906061E+02  0.53100071330E+02  0.00000000000E+00 0.  1.
         11    1    4    4    0    0 -0.71219573919E+01 -0.43207086052E+02  0.13480772225E+02  0.45818181784E+02  0.00000000000E+00 0. -1.
          1    1    1    2  501    0 -0.15069841176E+02  0.68980368083E+02 -0.18978869050E+03  0.20249725513E+03  0.00000000000E+00 0. -1.
<scales pt_clust_5="13000.00000" pt_clust_6="13000.00000" pt_clust_7="13000.00000" pt_clust_8="13000.00000" pt_clust_9="70.60730"></scales>
<clustering>
<clus scale="   70.607">  2  9  1 -1</clus>
<clus scale="   75.683">  7  8 -1 -1</clus>
<clus scale="   91.853">  5  6 -1 -1</clus>
<clus scale="   97.752">  2  7  1 -1</clus>
<clus scale="   70.607">  2  5  1 -1</clus>
</clustering>
</event>
<event>
 9    1  0.1315259E-005  0.1861702E+03  0.7546771E-02  0.1187148E+00
         -3   -1    0    0    0  501 -0.00000000000E+00  0.00000000000E+00  0.11972458492E+03  0.11972458492E+03  0.00000000000E+00 0.  1.
         21   -1    0    0  501  502  0.00000000000E+00 -0.00000000000E+00 -0.74796673679E+03  0.74796673679E+03  0.00000000000E+00 0.  1.
         23    2    1    2    0    0 -0.22804115639E+02  0.43421754913E+02  0.38036748134E+02  0.11178438384E+03  0.92970305860E+02 0.  0.
         23    2    1    2    0    0  0.27893487864E+02 -0.18774614709E+03 -0.36805078347E+03  0.42455298607E+03  0.93579892909E+02 0.  0.
        -11    1    4    4    0    0 -0.41298670269E+00 -0.13050760784E+03 -0.15756839953E+03  0.20459767055E+03  0.00000000000E+00 0.  1.
         11    1    4    4    0    0  0.28306474567E+02 -0.57238539241E+02 -0.21048238394E+03  0.21995531552E+03  0.00000000000E+00 0. -1.
        -13    1    3    3    0    0 -0.37616697786E+02 -0.11154216965E+02  0.38867529953E+02  0.55227867903E+02  0.00000000000E+00 0. -1.
         13    1    3    3    0    0  0.14812582147E+02  0.54575971878E+02 -0.83078181916E+00  0.56556515935E+02  0.00000000000E+00 0.  1.
         -3    1    1    2    0  502 -0.50893722256E+01  0.14432439217E+03 -0.29822811654E+03  0.33135395181E+03  0.00000000000E+00 0.  1.
<scales pt_clust_5="13000.00000" pt_clust_6="13000.00000" pt_clust_7="13000.00000" pt_clust_8="13000.00000" pt_clust_9="160.94142"></scales>
<clustering>
<clus scale="   92.970">  7  8 -1 -1</clus>
<clus scale="   93.580">  5  6 -1 -1</clus>
<clus scale="  105.114">  1  7  2 -1</clus>
<clus scale="  160.941">  2  9  1 -1</clus>
<clus scale="  160.941">  2  5  1 -1</clus>
</clustering>
</event>
<event>
 9    1  0.1315259E-005  0.1311102E+03  0.7546771E-02  0.1226825E+00
          2   -1    0    0  502    0 -0.00000000000E+00  0.00000000000E+00  0.69830242810E+03  0.69830242810E+03  0.00000000000E+00 0. -1.
         21   -1    0    0  501  502  0.00000000000E+00 -0.00000000000E+00 -0.71142431838E+02  0.71142431838E+02  0.00000000000E+00 0.  1.
         23    2    1    2    0    0  0.61536537240E+02  0.62619571744E+02  0.56814671003E+03  0.58202683081E+03  0.90865788337E+02 0.  0.
         23    2    1    2    0    0 -0.71389017334E+02 -0.83707893940E+02  0.70622524975E+02  0.16140720213E+03  0.94664357396E+02 0.  0.
        -11    1    4    4    0    0 -0.51429322361E+02 -0.53987362610E+02 -0.80262022082E+01  0.74993536001E+02  0.00000000000E+00 0.  1.
         11    1    4    4    0    0 -0.19959694973E+02 -0.29720531330E+02  0.78648727183E+02  0.86413666127E+02  0.00000000000E+00 0. -1.
        -13    1    3    3    0    0 -0.34631755653E+01 -0.20021401797E+02  0.69134146482E+02  0.72058173198E+02  0.00000000000E+00 0.  1.
         13    1    3    3    0    0  0.64999712806E+02  0.82640973541E+02  0.49901256354E+03  0.50996865761E+03  0.00000000000E+00 0. -1.
          2    1    1    2  501    0  0.98524800934E+01  0.21088322196E+02 -0.11609238739E+02  0.26010826998E+02  0.00000000000E+00 0. -1.
<scales pt_clust_5="13000.00000" pt_clust_6="13000.00000" pt_clust_7="13000.00000" pt_clust_8="13000.00000" pt_clust_9="23.27635"></scales>
<clustering>
<clus scale="   23.276">  2  9  1 -1</clus>
<clus scale="   90.866">  7  8 -1 -1</clus>
<clus scale="   94.664">  5  6 -1 -1</clus>
<clus scale="  128.394">  1  7  2 -1</clus>
<clus scale="   23.276">  2  5  1 -1</clus>
</clustering>
</event>
<event>
 9    1  0.1315259E-005  0.3960144E+03  0.7546771E-02  0.1045189E+00
         21   -1    0    0  501  502  0.00000000000E+00  0.00000000000E+00  0.95498356583E+02  0.95498356583E+02  0.00000000000E+00 0.  1.
          2   -1    0    0  502    0 -0.00000000000E+00 -0.00000000000E+00 -0.19255050986E+04  0.19255050986E+04  0.00000000000E+00 0. -1.
         23    2    1    2    0    0  0.39792169848E+03 -0.16316496474E+00 -0.10186096717E+04  0.10973785613E+04  0.91281646382E+02 0.  0.
         23    2    1    2    0    0 -0.37098134055E+03  0.14460876645E+02 -0.80663771423E+03  0.89275648088E+03  0.92268413603E+02 0.  0.
        -11    1    4    4    0    0 -0.29051562644E+03  0.30213297678E+02 -0.69801477042E+03  0.75666161016E+03  0.00000000000E+00 0.  1.
         11    1    4    4    0    0 -0.80465714108E+02 -0.15752421033E+02 -0.10862294381E+03  0.13609487073E+03  0.00000000000E+00 0. -1.
        -13    1    3    3    0    0  0.30858968447E+02  0.15534507395E+01 -0.31034995789E+02  0.43793379710E+02  0.00000000000E+00 0.  1.
         13    1    3    3    0    0  0.36706273004E+03 -0.17166157042E+01 -0.98757467587E+03  0.10535851816E+04  0.00000000000E+00 0. -1.
          2    1    1    2  501    0 -0.26940357934E+02 -0.14297711680E+02 -0.47593560820E+01  0.30868412904E+02  0.00000000000E+00 0. -1.
<scales pt_clust_5="13000.00000" pt_clust_6="13000.00000" pt_clust_7="13000.00000" pt_clust_8="13000.00000" pt_clust_9="30.49930"></scales>
<clustering>
<clus scale="   30.499">  1  9  2 -1</clus>
<clus scale="   91.282">  7  8 -1 -1</clus>
<clus scale="   92.268">  5  6 -1 -1</clus>
<clus scale="  395.786">  2  7  1 -1</clus>
<clus scale="   30.499">  1  5  2 -1</clus>
</clustering>
</event>
<event>
 9    1  0.1315259E-005  0.9613953E+02  0.7546771E-02  0.1290016E+00
          3   -1    0    0  502    0 -0.00000000000E+00  0.00000000000E+00  0.18566178797E+03  0.18566178797E+03  0.00000000000E+00 0. -1.
         21   -1    0    0  501  502  0.00000000000E+00 -0.00000000000E+00 -0.12968623111E+03  0.12968623111E+03  0.00000000000E+00 0.  1.
         23    2    1    2    0    0  0.39291379037E+02  0.56076770527E+00  0.87095173555E+02  0.13175505905E+03  0.90717690670E+02 0.  0.
         23    2    1    2    0    0 -0.18588263397E+02  0.22834968283E+02  0.43594596903E+02  0.10261028799E+03  0.88098938752E+02 0.  0.
        -11    1    4    4    0    0 -0.28403771812E+01 -0.33374143418E+02  0.23331668672E+02  0.40819945547E+02  0.00000000000E+00 0. -1.
         11    1    4    4    0    0 -0.15747886216E+02  0.56209111701E+02  0.20262928230E+02  0.61790342441E+02  0.00000000000E+00 0.  1.
        -11    1    3    3    0    0  0.80044105584E+01 -0.26333214569E+02 -0.75235521148E+01  0.28532658732E+02  0.00000000000E+00 0.  1.
         11    1    3    3    0    0  0.31286968478E+02  0.26893982274E+02  0.94618725670E+02  0.10322240031E+03  0.00000000000E+00 0. -1.
          3    1    1    2  501    0 -0.20703115640E+02 -0.23395735988E+02 -0.74714213595E+02  0.80982672053E+02  0.00000000000E+00 0. -1.
<scales pt_clust_5="13000.00000" pt_clust_6="13000.00000" pt_clust_7="13000.00000" pt_clust_8="13000.00000" pt_clust_9="31.24067"></scales>
<clustering>
<clus scale="   31.241">  2  9  1 -1</clus>
<clus scale="   88.099">  5  6 -1 -1</clus>
<clus scale="   90.718">  7  8 -1 -1</clus>
<clus scale="   93.672">  2  5  1 -1</clus>
<clus scale="   31.241">  2  5  1 -1</clus>
</clustering>
</event>
<event>
 9    1  0.1315259E-005  0.1033147E+03  0.7546771E-02  0.1275396E+00
         -1   -1    0    0    0  501 -0.00000000000E+00  0.00000000000E+00  0.23809536747E+03  0.23809536747E+03  0.00000000000E+00 0.  1.
         21   -1    0    0  501  502  0.00000000000E+00 -0.00000000000E+00 -0.62251576721E+02  0.62251576721E+02  0.00000000000E+00 0.  1.
         23    2    1    2    0    0  0.11717287513E+02 -0.37142874171E+02  0.87852958503E+02  0.13219042786E+03  0.90770474112E+02 0.  0.
         23    2    1    2    0    0 -0.16583263888E+02  0.64136026978E+02  0.46577991190E+02  0.11848427631E+03  0.86490345545E+02 0.  0.
        -11    1    4    4    0    0  0.21494785835E+02 -0.81819557489E+01 -0.25255674054E+01  0.23137603780E+02  0.00000000000E+00 0.  1.
         11    1    4    4    0    0 -0.38078049723E+02  0.72317982727E+02  0.49103558595E+02  0.95346672533E+02  0.00000000000E+00 0. -1.
        -13    1    3    3    0    0  0.38737463670E+02 -0.37023766786E+02  0.16774346845E+02  0.56149168389E+02  0.00000000000E+00 0.  1.
         13    1    3    3    0    0 -0.27020176157E+02 -0.11910738445E+00  0.71078611658E+02  0.76041259467E+02  0.00000000000E+00 0. -1.
         -1    1    1    2    0  502  0.48659763743E+01 -0.26993152808E+02  0.41412841057E+02  0.49672240024E+02  0.00000000000E+00 0.  1.
<scales pt_clust_5="13000.00000" pt_clust_6="13000.00000" pt_clust_7="13000.00000" pt_clust_8="13000.00000" pt_clust_9="27.42825"></scales>
<clustering>
<clus scale="   27.428">  2  9  1 -1</clus>
<clus scale="   86.490">  5  6 -1 -1</clus>
<clus scale="   90.770">  7  8 -1 -1</clus>
<clus scale="   99.575">  2  5  1 -1</clus>
<clus scale="   27.428">  2  5  1 -1</clus>
</clustering>
</event>
<event>
 9    1  0.1315259E-005  0.2278012E+03  0.7546771E-02  0.1128351E+00
         21   -1    0    0  501  502  0.00000000000E+00  0.00000000000E+00  0.22622716364E+03  0.22622716364E+03  0.00000000000E+00 0. -1.
          1   -1    0    0  502    0 -0.00000000000E+00 -0.00000000000E+00 -0.11389165887E+04  0.11389165887E+04  0.00000000000E+00 0. -1.
         23    2    1    2    0    0 -0.17305417891E+03 -0.12450148453E+03 -0.96381532253E+03  0.99109560060E+03  0.88781445635E+02 0.  0.
         23    2    1    2    0    0  0.14052098633E+03  0.12485828081E+03 -0.91325613093E+02  0.22792844478E+03  0.90968513477E+02 0.  0.
        -11    1    4    4    0    0  0.57196165794E+02  0.10800097375E+03 -0.67624478716E+02  0.13967348293E+03  0.00000000000E+00 0.  1.
         11    1    4    4    0    0  0.83324820538E+02  0.16857307057E+02 -0.23701134377E+02  0.88254961842E+02  0.00000000000E+00 0. -1.
        -13    1    3    3    0    0 -0.30228542186E+02 -0.26938979195E+02 -0.71482451037E+02  0.82153601071E+02  0.00000000000E+00 0.  1.
         13    1    3    3    0    0 -0.14282563672E+03 -0.97562505336E+02 -0.89233287150E+03  0.90894199953E+03  0.00000000000E+00 0. -1.
          1    1    1    2  501    0  0.32533192579E+02 -0.35679628012E+00  0.14245151053E+03  0.14611970700E+03  0.00000000000E+00 0. -1.
<scales pt_clust_5="13000.00000" pt_clust_6="13000.00000" pt_clust_7="13000.00000" pt_clust_8="13000.00000" pt_clust_9="32.53515"></scales>
<clustering>
<clus scale="   32.535">  1  9  2 -1</clus>
<clus scale="   88.781">  7  8 -1 -1</clus>
<clus scale="   90.969">  5  6 -1 -1</clus>
<clus scale="  226.937">  2  7  1 -1</clus>
<clus scale="   32.535">  1  5  2 -1</clus>
</clustering>
</event>
<event>
 9    1  0.1315259E-005  0.1718978E+03  0.7546771E-02  0.1176138E+00
         -1   -1    0    0    0  501 -0.00000000000E+00  0.00000000000E+00  0.26852434636E+03  0.26852434636E+03  0.00000000000E+00 0.  1.
         21   -1    0    0  501  502  0.00000000000E+00 -0.00000000000E+00 -0.36083000681E+03  0.36083000681E+03  0.00000000000E+00 0. -1.
         23    2    1    2    0    0  0.13388571138E+03  0.44883242827E+02  0.19443823035E+03  0.25744385019E+03  0.92364611097E+02 0.  0.
         23    2    1    2    0    0 -0.16827120903E+03 -0.48093166662E+02 -0.21113360759E+03  0.28878661358E+03  0.90510526800E+02 0.  0.
        -11    1    4    4    0    0 -0.11286997891E+03 -0.25201852677E+02 -0.19499010850E+03  0.22670665613E+03  0.00000000000E+00 0. -1.
         11    1    4    4    0    0 -0.55401230124E+02 -0.22891313985E+02 -0.16143499088E+02  0.62079957458E+02  0.00000000000E+00 0.  1.
        -13    1    3    3    0    0  0.29136210394E+02  0.47948433328E+02  0.10758384760E+03  0.12133530104E+03  0.00000000000E+00 0.  1.
         13    1    3    3    0    0  0.10474950098E+03 -0.30651905012E+01  0.86854382750E+02  0.13610854915E+03  0.00000000000E+00 0. -1.
         -1    1    1    2    0  502  0.34385497654E+02  0.32099238348E+01 -0.75610283209E+02  0.83123889387E+02  0.00000000000E+00 0.  1.
<scales pt_clust_5="13000.00000" pt_clust_6="13000.00000" pt_clust_7="13000.00000" pt_clust_8="13000.00000" pt_clust_9="34.53500"></scales>
<clustering>
<clus scale="   34.535">  2  9  1 -1</clus>
<clus scale="   90.511">  5  6 -1 -1</clus>
<clus scale="   92.365">  7  8 -1 -1</clus>
<clus scale="  170.909">  2  5  1 -1</clus>
<clus scale="   34.535">  2  5  1 -1</clus>
</clustering>
</event>
<event>
 9    1  0.1315259E-005  0.1109190E+03  0.7546771E-02  0.1258930E+00
         21   -1    0    0  501  502  0.00000000000E+00  0.00000000000E+00  0.66078398457E+02  0.66078398457E+02  0.00000000000E+00 0. -1.
          1   -1    0    0  502    0 -0.00000000000E+00 -0.00000000000E+00 -0.28038631429E+03  0.28038631429E+03  0.00000000000E+00 0. -1.
         23    2    1    2    0    0  0.35993690559E+02 -0.39590566485E+02 -0.14070862853E+03  0.17622989571E+03  0.91624774408E+02 0.  0.
         23    2    1    2    0    0 -0.43298850019E+02  0.69042806184E+02 -0.63963630444E+02  0.13839701464E+03  0.91764307572E+02 0.  0.
        -11    1    4    4    0    0 -0.62763917958E+02  0.78960732968E+02 -0.51716256617E+02  0.11335200901E+03  0.00000000000E+00 0. -1.
         11    1    4    4    0    0  0.19465067939E+02 -0.99179267837E+01 -0.12247373827E+02  0.25045005634E+02  0.00000000000E+00 0.  1.
        -13    1    3    3    0    0 -0.24092975190E+02 -0.31440300056E+02 -0.28883648880E+02  0.49022740578E+02  0.00000000000E+00 0. -1.
         13    1    3    3    0    0  0.60086665749E+02 -0.81502664293E+01 -0.11182497965E+03  0.12720715514E+03  0.00000000000E+00 0.  1.
          1    1    1    2  501    0  0.73051594599E+01 -0.29452239699E+02 -0.96356568608E+01  0.31837802392E+02  0.00000000000E+00 0. -1.
<scales pt_clust_5="13000.00000" pt_clust_6="13000.00000" pt_clust_7="13000.00000" pt_clust_8="13000.00000" pt_clust_9="30.34468"></scales>
<clustering>
<clus scale="   30.345">  1  9  2 -1</clus>
<clus scale="   91.625">  7  8 -1 -1</clus>
<clus scale="   91.764">  5  6 -1 -1</clus>
<clus scale="  110.804">  2  7  1 -1</clus>
<clus scale="   30.345">  1  5  2 -1</clus>
</clustering>
</event>
<event>
 9    1  0.1315259E-005  0.2114811E+03  0.7546771E-02  0.1142321E+00
          2   -1    0    0  502    0 -0.00000000000E+00  0.00000000000E+00  0.64912330189E+03  0.64912330189E+03  0.00000000000E+00 0. -1.
         21   -1    0    0  501  502  0.00000000000E+00 -0.00000000000E+00 -0.83553827965E+02  0.83553827965E+02  0.00000000000E+00 0.  1.
         23    2    1    2    0    0  0.13779562021E+03 -0.94741440550E+02  0.30488320353E+03  0.35953340875E+03  0.91361538442E+02 0.  0.
         23    2    1    2    0    0 -0.17003924814E+03  0.11026283753E+03  0.23019857164E+03  0.32613239181E+03  0.11090408177E+03 0.  0.
        -11    1    4    4    0    0 -0.84383680005E+02  0.11158822440E+03  0.17572131998E+03  0.22461193106E+03  0.00000000000E+00 0.  1.
         11    1    4    4    0    0 -0.85655568139E+02 -0.13253868703E+01  0.54477251663E+02  0.10152046076E+03  0.00000000000E+00 0. -1.
        -13    1    3    3    0    0  0.62634757121E+02 -0.33838134763E+02  0.21862183793E+03  0.22992094333E+03  0.00000000000E+00 0. -1.
         13    1    3    3    0    0  0.75160863092E+02 -0.60903305787E+02  0.86261365602E+02  0.12961246542E+03  0.00000000000E+00 0.  1.
          2    1    1    2  501    0  0.32243627932E+02 -0.15521396984E+02  0.30487698755E+02  0.47011329293E+02  0.00000000000E+00 0. -1.
<scales pt_clust_5="13000.00000" pt_clust_6="13000.00000" pt_clust_7="13000.00000" pt_clust_8="13000.00000" pt_clust_9="35.78499"></scales>
<clustering>
<clus scale="   35.785">  2  9  1 -1</clus>
<clus scale="   91.362">  7  8 -1 -1</clus>
<clus scale="  110.904">  5  6 -1 -1</clus>
<clus scale="  201.919">  1  7  2 -1</clus>
<clus scale="   35.785">  2  5  1 -1</clus>
</clustering>
</event>
<event>
 9    1  0.1315259E-005  0.1686610E+03  0.7546771E-02  0.1179267E+00
          1   -1    0    0  502    0 -0.00000000000E+00  0.00000000000E+00  0.13958105367E+03  0.13958105367E+03  0.00000000000E+00 0. -1.
         21   -1    0    0  501  502  0.00000000000E+00 -0.00000000000E+00 -0.26152409411E+03  0.26152409411E+03  0.00000000000E+00 0.  1.
         23    2    1    2    0    0  0.15123287082E+03 -0.49610728900E+02 -0.30339016049E+02  0.18614100367E+03  0.91626479325E+02 0.  0.
         23    2    1    2    0    0 -0.12081913194E+03  0.27072091653E+02 -0.58593685747E+02  0.16473797426E+03  0.91516224588E+02 0.  0.
        -11    1    3    3    0    0  0.15700170889E+03 -0.28964820110E+02 -0.36631605772E+02  0.16379979225E+03  0.00000000000E+00 0.  1.
         11    1    3    3    0    0 -0.57688380695E+01 -0.20645908790E+02  0.62925897235E+01  0.22341211423E+02  0.00000000000E+00 0. -1.
        -13    1    4    4    0    0 -0.27975717580E+02 -0.24352422265E+02  0.99414060806E+01  0.38399385401E+02  0.00000000000E+00 0. -1.
         13    1    4    4    0    0 -0.92843414361E+02  0.51424513918E+02 -0.68535091827E+02  0.12633858885E+03  0.00000000000E+00 0.  1.
          1    1    1    2  501    0 -0.30413738878E+02  0.22538637247E+02 -0.33010338638E+02  0.50226169857E+02  0.00000000000E+00 0. -1.
<scales pt_clust_5="13000.00000" pt_clust_6="13000.00000" pt_clust_7="13000.00000" pt_clust_8="13000.00000" pt_clust_9="37.85480"></scales>
<clustering>
<clus scale="   37.855">  2  9  1 -1</clus>
<clus scale="   91.516">  7  8 -1 -1</clus>
<clus scale="   91.626">  5  6 -1 -1</clus>
<clus scale="  168.601">  2  7  1 -1</clus>
<clus scale="   37.855">  2  5  1 -1</clus>
</clustering>
</event>
<event>
 9    1  0.1315259E-005  0.1591596E+03  0.7546771E-02  0.1190115E+00
         21   -1    0    0  501  502  0.00000000000E+00  0.00000000000E+00  0.38852396712E+03  0.38852396712E+03  0.00000000000E+00 0.  1.
          1   -1    0    0  502    0 -0.00000000000E+00 -0.00000000000E+00 -0.96686469419E+02  0.96686469419E+02  0.00000000000E+00 0. -1.
         23    2    1    2    0    0  0.99412417092E+02 -0.10502884846E+03  0.89855898471E+02  0.19472899656E+03  0.94506147584E+02 0.  0.
         23    2    1    2    0    0 -0.40477836021E+02  0.10774413809E+03  0.12245585260E+03  0.19146122981E+03  0.91731740327E+02 0.  0.
        -11    1    3    3    0    0  0.17739586722E+02 -0.39725427660E+02  0.78230438179E+02  0.89514267005E+02  0.00000000000E+00 0.  1.
         11    1    3    3    0    0  0.81672830370E+02 -0.65303420799E+02  0.11625460293E+02  0.10521472956E+03  0.00000000000E+00 0. -1.
        -11    1    4    4    0    0  0.15078245460E+02  0.79865429130E+02  0.90254880895E+02  0.12145692151E+03  0.00000000000E+00 0.  1.
         11    1    4    4    0    0 -0.55556081481E+02  0.27878708965E+02  0.32200971705E+02  0.70004308309E+02  0.00000000000E+00 0. -1.
          1    1    1    2  501    0 -0.58934581071E+02 -0.27152896354E+01  0.79525746628E+02  0.99020210162E+02  0.00000000000E+00 0. -1.
<scales pt_clust_5="13000.00000" pt_clust_6="13000.00000" pt_clust_7="13000.00000" pt_clust_8="13000.00000" pt_clust_9="58.99710"></scales>
<clustering>
<clus scale="   58.997">  1  9  2 -1</clus>
<clus scale="   91.732">  7  8 -1 -1</clus>
<clus scale="   94.506">  5  6 -1 -1</clus>
<clus scale="  157.528">  1  7  2 -1</clus>
<clus scale="   58.997">  1  5  2 -1</clus>
</clustering>
</event>
<event>
 9    1  0.1315259E-005  0.9743662E+02  0.7546771E-02  0.1287249E+00
         21   -1    0    0  501  502  0.00000000000E+00  0.00000000000E+00  0.31342174492E+03  0.31342174492E+03  0.00000000000E+00 0.  1.
          1   -1    0    0  502    0 -0.00000000000E+00 -0.00000000000E+00 -0.10145997863E+03  0.10145997863E+03  0.00000000000E+00 0. -1.
         23    2    1    2    0    0 -0.22802563343E+02 -0.22304837777E+02 -0.62312729545E+02  0.11410311696E+03  0.90106505616E+02 0.  0.
         23    2    1    2    0    0 -0.55508787375E+01  0.16746047299E+02  0.20898704606E+03  0.22938344620E+03  0.92897457508E+02 0.  0.
        -13    1    3    3    0    0 -0.49715847698E+02  0.56748209547E+01 -0.13679768448E+02  0.51874899228E+02  0.00000000000E+00 0.  1.
         13    1    3    3    0    0  0.26913284354E+02 -0.27979658732E+02 -0.48632961097E+02  0.62228217736E+02  0.00000000000E+00 0. -1.
        -13    1    4    4    0    0  0.83071429767E+01  0.53976165607E+02  0.11317503743E+03  0.12566234192E+03  0.00000000000E+00 0.  1.
         13    1    4    4    0    0 -0.13858021714E+02 -0.37230118308E+02  0.95812008631E+02  0.10372110428E+03  0.00000000000E+00 0. -1.
          1    1    1    2  501    0  0.28353442081E+02  0.55587904785E+01  0.65287449776E+02  0.71395160394E+02  0.00000000000E+00 0. -1.
<scales pt_clust_5="13000.00000" pt_clust_6="13000.00000" pt_clust_7="13000.00000" pt_clust_8="13000.00000" pt_clust_9="28.89321"></scales>
<clustering>
<clus scale="   28.893">  1  9  2 -1</clus>
<clus scale="   90.107">  5  6 -1 -1</clus>
<clus scale="   92.897">  7  8 -1 -1</clus>
<clus scale="   94.779">  2  5  1 -1</clus>
<clus scale="   28.893">  1  5  2 -1</clus>
</clustering>
</event>
<event>
 9    1  0.1315259E-005  0.9890433E+02  0.7546771E-02  0.1283408E+00
          1   -1    0    0  502    0 -0.00000000000E+00  0.00000000000E+00  0.68056816145E+03  0.68056816145E+03  0.00000000000E+00 0. -1.
         21   -1    0    0  501  502  0.00000000000E+00 -0.00000000000E+00 -0.43229492858E+02  0.43229492858E+02  0.00000000000E+00 0.  1.
         23    2    1    2    0    0 -0.23850047031E+02  0.31974237217E+02  0.37708171036E+03  0.39018475431E+03  0.91991030072E+02 0.  0.
         23    2    1    2    0    0  0.63289944214E+02  0.39544461775E+02  0.10144015898E+03  0.15502621092E+03  0.90408178398E+02 0.  0.
        -11    1    4    4    0    0  0.57092149515E+02 -0.17432221853E+02  0.56533251133E+02  0.82215596931E+02  0.00000000000E+00 0.  1.
         11    1    4    4    0    0  0.61977946987E+01  0.56976683629E+02  0.44906907850E+02  0.72810613987E+02  0.00000000000E+00 0. -1.
        -11    1    3    3    0    0  0.11482009262E+02  0.49759032020E+02  0.29103944277E+03  0.29548562579E+03  0.00000000000E+00 0.  1.
         11    1    3    3    0    0 -0.35332056293E+02 -0.17784794803E+02  0.86042267598E+02  0.94699128514E+02  0.00000000000E+00 0. -1.
          1    1    1    2  501    0 -0.39439897182E+02 -0.71518698992E+02  0.15881679925E+03  0.17858668908E+03  0.00000000000E+00 0. -1.
<scales pt_clust_5="13000.00000" pt_clust_6="13000.00000" pt_clust_7="13000.00000" pt_clust_8="13000.00000" pt_clust_9="81.67274"></scales>
<clustering>
<clus scale="   81.673">  2  9  1 -1</clus>
<clus scale="   90.408">  5  6 -1 -1</clus>
<clus scale="   91.991">  7  8 -1 -1</clus>
<clus scale="   97.434">  2  5  1 -1</clus>
<clus scale="   81.673">  2  5  1 -1</clus>
</clustering>
</event>
<event>
 9    1  0.1315259E-005  0.1200549E+03  0.7546771E-02  0.1243402E+00
         21   -1    0    0  501  502  0.00000000000E+00  0.00000000000E+00  0.14035426736E+03  0.14035426736E+03  0.00000000000E+00 0. -1.
          2   -1    0    0  502    0 -0.00000000000E+00 -0.00000000000E+00 -0.39472746145E+03  0.39472746145E+03  0.00000000000E+00 0. -1.
         23    2    1    2    0    0 -0.40098161446E+02 -0.76111724819E+02 -0.20204831920E+03  0.23841535441E+03  0.92830494567E+02 0.  0.
         23    2    1    2    0    0  0.43875717424E+02  0.50623816165E+02 -0.15427273389E+03  0.19151282301E+03  0.91592770524E+02 0.  0.
        -13    1    4    4    0    0  0.17513710428E+02  0.73680384710E+02 -0.84687527822E+02  0.11361120769E+03  0.00000000000E+00 0.  1.
         13    1    4    4    0    0  0.26362006996E+02 -0.23056568545E+02 -0.69585206065E+02  0.77901615317E+02  0.00000000000E+00 0. -1.
        -13    1    3    3    0    0 -0.64163452094E+02 -0.72919756943E+02 -0.18435037170E+03  0.20837298069E+03  0.00000000000E+00 0. -1.
         13    1    3    3    0    0  0.24065290648E+02 -0.31919678765E+01 -0.17697947498E+02  0.30042373717E+02  0.00000000000E+00 0.  1.
          2    1    1    2  501    0 -0.37775559787E+01  0.25487908654E+02  0.10194785900E+03  0.10515355139E+03  0.00000000000E+00 0. -1.
<scales pt_clust_5="13000.00000" pt_clust_6="13000.00000" pt_clust_7="13000.00000" pt_clust_8="13000.00000" pt_clust_9="25.76632"></scales>
<clustering>
<clus scale="   25.766">  1  9  2 -1</clus>
<clus scale="   91.593">  5  6 -1 -1</clus>
<clus scale="   92.830">  7  8 -1 -1</clus>
<clus scale="  119.100">  1  5  2 -1</clus>
<clus scale="   25.766">  1  5  2 -1</clus>
</clustering>
</event>
<event>
 9    1  0.1315259E-005  0.1052152E+03  0.7546771E-02  0.1271480E+00
         21   -1    0    0  501  502  0.00000000000E+00  0.00000000000E+00  0.22680547891E+03  0.22680547891E+03  0.00000000000E+00 0.  1.
         -1   -1    0    0    0  501 -0.00000000000E+00 -0.00000000000E+00 -0.12201875561E+03  0.12201875561E+03  0.00000000000E+00 0.  1.
         23    2    1    2    0    0  0.44785903431E+02 -0.32099403903E+02 -0.59630483901E+02  0.12257586907E+03  0.91830823754E+02 0.  0.
         23    2    1    2    0    0 -0.13391067160E+02 -0.49234448339E+00  0.63585522693E+02  0.11572738822E+03  0.95760882440E+02 0.  0.
        -11    1    3    3    0    0 -0.11190962385E+02 -0.46040526518E+02 -0.15191181916E+02  0.49756805858E+02  0.00000000000E+00 0. -1.
         11    1    3    3    0    0  0.55976865816E+02  0.13941122615E+02 -0.44439301986E+02  0.72819063214E+02  0.00000000000E+00 0.  1.
        -13    1    4    4    0    0 -0.44860026703E+02 -0.29124975762E+02  0.28644211941E+02  0.60672704626E+02  0.00000000000E+00 0. -1.
         13    1    4    4    0    0  0.31468959543E+02  0.28632631279E+02  0.34941310752E+02  0.55054683595E+02  0.00000000000E+00 0.  1.
         -1    1    1    2    0  502 -0.31394836272E+02  0.32591748386E+02  0.10083168451E+03  0.11052097723E+03  0.00000000000E+00 0.  1.
<scales pt_clust_5="13000.00000" pt_clust_6="13000.00000" pt_clust_7="13000.00000" pt_clust_8="13000.00000" pt_clust_9="45.25326"></scales>
<clustering>
<clus scale="   45.253">  1  9  2 -1</clus>
<clus scale="   91.831">  5  6 -1 -1</clus>
<clus scale="   95.761">  7  8 -1 -1</clus>
<clus scale="  101.651">  2  5  1 -1</clus>
<clus scale="   45.253">  1  5  2 -1</clus>
</clustering>
</event>
<event>
 9    1  0.1315259E-005  0.1247166E+03  0.7546771E-02  0.1246110E+00
         21   -1    0    0  501  502  0.00000000000E+00  0.00000000000E+00  0.92270792158E+02  0.92270792158E+02  0.00000000000E+00 0.  1.
         -2   -1    0    0    0  501 -0.00000000000E+00 -0.00000000000E+00 -0.40039577076E+03  0.40039577076E+03  0.00000000000E+00 0.  1.
         23    2    1    2    0    0 -0.24501308727E+02  0.48422969795E+02 -0.22705924393E+03  0.25111889942E+03  0.92518664369E+02 0.  0.
         23    2    1    2    0    0 -0.29990032057E+02 -0.17448548971E+02 -0.11643732586E+03  0.16957634679E+03  0.11829891230E+03 0.  0.
        -11    1    3    3    0    0 -0.56356976584E+02  0.11280564284E+02 -0.13825831113E+03  0.14972882334E+03  0.00000000000E+00 0. -1.
         11    1    3    3    0    0  0.31855667857E+02  0.37142405511E+02 -0.88800932799E+02  0.10139007608E+03  0.00000000000E+00 0.  1.
        -13    1    4    4    0    0 -0.49768344850E+01 -0.53503201298E+02 -0.10282337187E+02  0.54709120708E+02  0.00000000000E+00 0. -1.
         13    1    4    4    0    0 -0.25013197572E+02  0.36054652327E+02 -0.10615498867E+03  0.11486722608E+03  0.00000000000E+00 0.  1.
         -2    1    1    2    0  502  0.54491340784E+02 -0.30974420824E+02  0.35371591191E+02  0.71971316712E+02  0.00000000000E+00 0.  1.
<scales pt_clust_5="13000.00000" pt_clust_6="13000.00000" pt_clust_7="13000.00000" pt_clust_8="13000.00000" pt_clust_9="62.67951"></scales>
<clustering>
<clus scale="   62.680">  1  9  2 -1</clus>
<clus scale="   92.519">  5  6 -1 -1</clus>
<clus scale="  100.595">  2  5  1 -1</clus>
<clus scale="  118.299">  7  8 -1 -1</clus>
<clus scale="   62.680">  1  5  2 -1</clus>
</clustering>
</event>
<event>
 9    1  0.1315259E-005  0.1238398E+03  0.7546771E-02  0.1255599E+00
         21   -1    0    0  501  502  0.00000000000E+00  0.00000000000E+00  0.24886887511E+03  0.24886887511E+03  0.00000000000E+00 0.  1.
          3   -1    0    0  502    0 -0.00000000000E+00 -0.00000000000E+00 -0.12194503759E+03  0.12194503759E+03  0.00000000000E+00 0. -1.
         23    2    1    2    0    0  0.80532560262E+01 -0.34413172311E+01 -0.24841569295E+02  0.86451855558E+02  0.82341497239E+02 0.  0.
         23    2    1    2    0    0 -0.44963661577E+02 -0.65144272644E+02  0.45069685385E+02  0.15226232911E+03  0.12201243054E+03 0.  0.
        -13    1    4    4    0    0 -0.31523090750E+02  0.24179648324E+02 -0.16422243346E+02  0.42988960443E+02  0.00000000000E+00 0. -1.
         13    1    4    4    0    0 -0.13440570827E+02 -0.89323920968E+02  0.61491928731E+02  0.10927336867E+03  0.00000000000E+00 0.  1.
        -13    1    3    3    0    0 -0.12171178366E+02 -0.38882140197E+02 -0.19917411608E+02  0.45350432129E+02  0.00000000000E+00 0.  1.
         13    1    3    3    0    0  0.20224434392E+02  0.35440822966E+02 -0.49241576863E+01  0.41101423429E+02  0.00000000000E+00 0. -1.
          3    1    1    2  501    0  0.36910405551E+02  0.68585589875E+02  0.10669572143E+03  0.13209972804E+03  0.00000000000E+00 0. -1.
<scales pt_clust_5="13000.00000" pt_clust_6="13000.00000" pt_clust_7="13000.00000" pt_clust_8="13000.00000" pt_clust_9="77.88685"></scales>
<clustering>
<clus scale="   77.887">  1  9  2 -1</clus>
<clus scale="   82.341">  7  8 -1 -1</clus>
<clus scale="   85.026">  2  7  1 -1</clus>
<clus scale="  122.012">  5  6 -1 -1</clus>
<clus scale="   77.887">  1  5  2 -1</clus>
</clustering>
</event>
<event>
 9    1  0.1315259E-005  0.1030550E+03  0.7546771E-02  0.1274017E+00
         21   -1    0    0  501  502  0.00000000000E+00  0.00000000000E+00  0.34208439065E+03  0.34208439065E+03  0.00000000000E+00 0. -1.
          2   -1    0    0  502    0 -0.00000000000E+00 -0.00000000000E+00 -0.83978019254E+02  0.83978019254E+02  0.00000000000E+00 0. -1.
         23    2    1    2    0    0  0.31123660120E+02  0.13575314675E+02 -0.13599983428E+01  0.99022966312E+02  0.93009283805E+02 0.  0.
         23    2    1    2    0    0 -0.58768298564E+02 -0.29455950396E+02  0.67342575965E+02  0.13228839030E+03  0.92972198746E+02 0.  0.
        -11    1    4    4    0    0 -0.35612292081E+02 -0.63721796843E+01 -0.18353159684E+02  0.40566963056E+02  0.00000000000E+00 0. -1.
         11    1    4    4    0    0 -0.23156006483E+02 -0.23083770712E+02  0.85695735649E+02  0.91721427240E+02  0.00000000000E+00 0.  1.
        -13    1    3    3    0    0  0.13226151341E+02 -0.33567023887E+02 -0.24428955249E+02  0.43571206392E+02  0.00000000000E+00 0.  1.
         13    1    3    3    0    0  0.17897508778E+02  0.47142338562E+02  0.23068956906E+02  0.55451759920E+02  0.00000000000E+00 0. -1.
          2    1    1    2  501    0  0.27644638445E+02  0.15880635721E+02  0.19212379377E+03  0.19475105329E+03  0.00000000000E+00 0. -1.
<scales pt_clust_5="13000.00000" pt_clust_6="13000.00000" pt_clust_7="13000.00000" pt_clust_8="13000.00000" pt_clust_9="31.88135"></scales>
<clustering>
<clus scale="   31.881">  1  9  2 -1</clus>
<clus scale="   92.972">  5  6 -1 -1</clus>
<clus scale="   93.009">  7  8 -1 -1</clus>
<clus scale="  103.021">  1  5  2 -1</clus>
<clus scale="   31.881">  1  5  2 -1</clus>
</clustering>
</event>
<event>
 9    1  0.1315259E-005  0.9850950E+02  0.7546771E-02  0.1283769E+00
          4   -1    0    0  502    0 -0.00000000000E+00  0.00000000000E+00  0.36336976151E+03  0.36336976151E+03  0.00000000000E+00 0. -1.
         21   -1    0    0  501  502  0.00000000000E+00 -0.00000000000E+00 -0.44029366776E+02  0.44029366776E+02  0.00000000000E+00 0. -1.
         23    2    1    2    0    0  0.78935973537E+01 -0.40048946852E+02  0.23106679318E+03  0.25202874673E+03  0.91980428588E+02 0.  0.
         23    2    1    2    0    0  0.90153168540E+01  0.20643063217E+02  0.87882873231E+02  0.12962834653E+03  0.92588859042E+02 0.  0.
        -13    1    3    3    0    0 -0.34598441746E+02 -0.23793656336E+02  0.49801108109E+02  0.65140928930E+02  0.00000000000E+00 0.  1.
         13    1    3    3    0    0  0.42492039099E+02 -0.16255290517E+02  0.18126568507E+03  0.18688781780E+03  0.00000000000E+00 0. -1.
        -13    1    4    4    0    0 -0.51152016930E+01  0.43238576004E+02  0.65368161819E+01  0.44028055930E+02  0.00000000000E+00 0.  1.
         13    1    4    4    0    0  0.14130518547E+02 -0.22595512787E+02  0.81346057049E+02  0.85600290595E+02  0.00000000000E+00 0. -1.
          4    1    1    2  501    0 -0.16908914208E+02  0.19405883636E+02  0.39072832938E+00  0.25742035040E+02  0.00000000000E+00 0. -1.
<scales pt_clust_5="13000.00000" pt_clust_6="13000.00000" pt_clust_7="13000.00000" pt_clust_8="13000.00000" pt_clust_9="25.73907"></scales>
<clustering>
<clus scale="   25.739">  2  9  1 -1</clus>
<clus scale="   91.980">  5  6 -1 -1</clus>
<clus scale="   92.589">  7  8 -1 -1</clus>
<clus scale="   97.938">  1  5  2 -1</clus>
<clus scale="   25.739">  2  5  1 -1</clus>
</clustering>
</event>
<event>
 9    1  0.1315259E-005  0.1029373E+03  0.7546771E-02  0.1274367E+00
          1   -1    0    0  502    0 -0.00000000000E+00  0.00000000000E+00  0.13308226407E+03  0.13308226407E+03  0.00000000000E+00 0. -1.
         21   -1    0    0  501  502  0.00000000000E+00 -0.00000000000E+00 -0.29564456709E+03  0.29564456709E+03  0.00000000000E+00 0. -1.
         23    2    1    2    0    0  0.30845073963E+02 -0.34827787864E+02  0.28759267601E+02  0.10558823605E+03  0.90318252436E+02 0.  0.
         23    2    1    2    0    0  0.14589893756E+02  0.64215477860E+02  0.12082113514E+02  0.11266049332E+03  0.90608590600E+02 0.  0.
        -11    1    4    4    0    0 -0.13687051576E+02  0.67273957598E+02  0.34135416956E+02  0.76670381781E+02  0.00000000000E+00 0. -1.
         11    1    4    4    0    0  0.28276945331E+02 -0.30584797377E+01 -0.22053303442E+02  0.35990111535E+02  0.00000000000E+00 0.  1.
        -13    1    3    3    0    0 -0.24556630862E+02 -0.31317771920E+02 -0.57690831674E+01  0.40213347012E+02  0.00000000000E+00 0. -1.
         13    1    3    3    0    0  0.55401704825E+02 -0.35100159441E+01  0.34528350769E+02  0.65374889034E+02  0.00000000000E+00 0.  1.
          1    1    1    2  501    0 -0.45434967719E+02 -0.29387689996E+02 -0.20340368413E+03  0.21047810179E+03  0.00000000000E+00 0. -1.
<scales pt_clust_5="13000.00000" pt_clust_6="13000.00000" pt_clust_7="13000.00000" pt_clust_8="13000.00000" pt_clust_9="54.11074"></scales>
<clustering>
<clus scale="   54.111">  2  9  1 -1</clus>
<clus scale="   90.318">  7  8 -1 -1</clus>
<clus scale="   90.609">  5  6 -1 -1</clus>
<clus scale="  102.682">  1  7  2 -1</clus>
<clus scale="   54.111">  2  5  1 -1</clus>
</clustering>
</event>
<event>
 9    1  0.1315259E-005  0.1576209E+03  0.7546771E-02  0.1213581E+00
         -2   -1    0    0    0  501 -0.00000000000E+00  0.00000000000E+00  0.34648340763E+03  0.34648340763E+03  0.00000000000E+00 0.  1.
         21   -1    0    0  501  502  0.00000000000E+00 -0.00000000000E+00 -0.22281935855E+03  0.22281935855E+03  0.00000000000E+00 0. -1.
         23    2    1    2    0    0  0.60281186995E+01 -0.29174656503E+02  0.23738409709E+03  0.25665657308E+03  0.92918718011E+02 0.  0.
         23    2    1    2    0    0 -0.34304385242E+02  0.14466730265E+03 -0.74003105774E+02  0.18728457991E+03  0.86565783680E+02 0.  0.
        -13    1    4    4    0    0 -0.32625715204E+01  0.94098927498E+02 -0.22589018700E+01  0.94182562966E+02  0.00000000000E+00 0.  1.
         13    1    4    4    0    0 -0.31041813722E+02  0.50568375149E+02 -0.71744203904E+02  0.93102016939E+02  0.00000000000E+00 0. -1.
        -13    1    3    3    0    0 -0.43147285740E+02 -0.13512008113E+02  0.95077977222E+02  0.10528097826E+03  0.00000000000E+00 0. -1.
         13    1    3    3    0    0  0.49175404440E+02 -0.15662648390E+02  0.14230611986E+03  0.15137559482E+03  0.00000000000E+00 0.  1.
         -2    1    1    2    0  502  0.28276266543E+02 -0.11549264614E+03 -0.39716942232E+02  0.12536161320E+03  0.00000000000E+00 0.  1.
<scales pt_clust_5="13000.00000" pt_clust_6="13000.00000" pt_clust_7="13000.00000" pt_clust_8="13000.00000" pt_clust_9="131.72212"></scales>
<clustering>
<clus scale="   86.566">  5  6 -1 -1</clus>
<clus scale="   92.919">  7  8 -1 -1</clus>
<clus scale="   97.578">  1  7  2 -1</clus>
<clus scale="  131.722">  2  9  1 -1</clus>
<clus scale="  131.722">  2  5  1 -1</clus>
</clustering>
</event>
<event>
 9    1  0.1315259E-005  0.1787879E+03  0.7546771E-02  0.1169165E+00
          1   -1    0    0  502    0 -0.00000000000E+00  0.00000000000E+00  0.99740644144E+03  0.99740644144E+03  0.00000000000E+00 0. -1.
         21   -1    0    0  501  502  0.00000000000E+00 -0.00000000000E+00 -0.98709851203E+02  0.98709851203E+02  0.00000000000E+00 0. -1.
         23    2    1    2    0    0 -0.12921816776E+03  0.10190722277E+03  0.78065305775E+03  0.80304606674E+03  0.91549832398E+02 0.  0.
         23    2    1    2    0    0  0.62613905634E+02 -0.11237733699E+03  0.15114488181E+03  0.21796063694E+03  0.90071621006E+02 0.  0.
        -11    1    3    3    0    0 -0.55183000087E+02  0.19020764991E+02  0.12395439752E+03  0.13700965536E+03  0.00000000000E+00 0.  1.
         11    1    3    3    0    0 -0.74035167677E+02  0.82886457780E+02  0.65669866023E+03  0.66603641138E+03  0.00000000000E+00 0. -1.
        -13    1    4    4    0    0 -0.65435436166E+01 -0.37989954098E+02  0.93589753078E+02  0.10121806388E+03  0.00000000000E+00 0. -1.
         13    1    4    4    0    0  0.69157449251E+02 -0.74387382893E+02  0.57555128733E+02  0.11674257306E+03  0.00000000000E+00 0.  1.
          1    1    1    2  501    0  0.66604262130E+02  0.10470114220E+02 -0.33101349323E+02  0.75109588953E+02  0.00000000000E+00 0. -1.
<scales pt_clust_5="13000.00000" pt_clust_6="13000.00000" pt_clust_7="13000.00000" pt_clust_8="13000.00000" pt_clust_9="67.42218"></scales>
<clustering>
<clus scale="   67.422">  2  9  1 -1</clus>
<clus scale="   90.072">  7  8 -1 -1</clus>
<clus scale="   91.550">  5  6 -1 -1</clus>
<clus scale="  178.036">  2  7  1 -1</clus>
<clus scale="   67.422">  2  5  1 -1</clus>
</clustering>
</event>
<event>
 9    1  0.1315259E-005  0.1129757E+03  0.7546771E-02  0.1257248E+00
         21   -1    0    0  501  502  0.00000000000E+00  0.00000000000E+00  0.11595430255E+03  0.11595430255E+03  0.00000000000E+00 0.  1.
         -2   -1    0    0    0  501 -0.00000000000E+00 -0.00000000000E+00 -0.17054462475E+03  0.17054462475E+03  0.00000000000E+00 0.  1.
         23    2    1    2    0    0  0.53710620287E+02 -0.28240687719E+02 -0.48501231449E+02  0.11319731458E+03  0.82334047646E+02 0.  0.
         23    2    1    2    0    0 -0.59398086580E+02  0.64797437755E+02 -0.31405119750E+02  0.12847255328E+03  0.88272729492E+02 0.  0.
        -11    1    4    4    0    0  0.18670353686E+02  0.36739245441E+02 -0.55731662347E+01  0.41586229022E+02  0.00000000000E+00 0. -1.
         11    1    4    4    0    0 -0.78068440266E+02  0.28058192314E+02 -0.25831953515E+02  0.86886324263E+02  0.00000000000E+00 0.  1.
        -11    1    3    3    0    0 -0.10790607388E+02 -0.21440894068E+02  0.98574236519E+01  0.25948370802E+02  0.00000000000E+00 0. -1.
         11    1    3    3    0    0  0.64501227675E+02 -0.67997936507E+01 -0.58358655101E+02  0.87248943778E+02  0.00000000000E+00 0.  1.
         -2    1    1    2    0  502  0.56874662933E+01 -0.36556750036E+02  0.25316028998E+02  0.44829059440E+02  0.00000000000E+00 0.  1.
<scales pt_clust_5="13000.00000" pt_clust_6="13000.00000" pt_clust_7="13000.00000" pt_clust_8="13000.00000" pt_clust_9="36.99653"></scales>
<clustering>
<clus scale="   36.997">  1  9  2 -1</clus>
<clus scale="   82.334">  7  8 -1 -1</clus>
<clus scale="   88.273">  5  6 -1 -1</clus>
<clus scale="  108.399">  2  7  1 -1</clus>
<clus scale="   36.997">  1  5  2 -1</clus>
</clustering>
</event>
<event>
 9    1  0.1315259E-005  0.9507487E+02  0.7546771E-02  0.1292602E+00
         21   -1    0    0  501  502  0.00000000000E+00  0.00000000000E+00  0.30678741817E+03  0.30678741817E+03  0.00000000000E+00 0. -1.
          1   -1    0    0  502    0 -0.00000000000E+00 -0.00000000000E+00 -0.56065084766E+02  0.56065084766E+02  0.00000000000E+00 0. -1.
         23    2    1    2    0    0 -0.85113903312E+01  0.21185131822E+02  0.19307266636E+02  0.93649455192E+02  0.88747937086E+02 0.  0.
         23    2    1    2    0    0  0.36436473604E+02 -0.14712439355E+02  0.13014000006E+03  0.16394932971E+03  0.91645461513E+02 0.  0.
        -11    1    3    3    0    0  0.13602163309E+02  0.38424068466E+02  0.41290472865E+02  0.58020091637E+02  0.00000000000E+00 0.  1.
         11    1    3    3    0    0 -0.22113553640E+02 -0.17238936644E+02 -0.21983206229E+02  0.35629363555E+02  0.00000000000E+00 0. -1.
        -13    1    4    4    0    0  0.56336711175E+02 -0.32366098836E+02  0.11800706342E+03  0.13471101067E+03  0.00000000000E+00 0.  1.
         13    1    4    4    0    0 -0.19900237571E+02  0.17653659481E+02  0.12132936639E+02  0.29238319034E+02  0.00000000000E+00 0. -1.
          1    1    1    2  501    0 -0.27925083272E+02 -0.64726924677E+01  0.10127506671E+03  0.10525371804E+03  0.00000000000E+00 0. -1.
<scales pt_clust_5="13000.00000" pt_clust_6="13000.00000" pt_clust_7="13000.00000" pt_clust_8="13000.00000" pt_clust_9="28.66542"></scales>
<clustering>
<clus scale="   28.665">  1  9  2 -1</clus>
<clus scale="   88.748">  5  6 -1 -1</clus>
<clus scale="   91.645">  7  8 -1 -1</clus>
<clus scale="   92.285">  2  5  1 -1</clus>
<clus scale="   28.665">  1  5  2 -1</clus>
</clustering>
</event>
<event>
 9    1  0.1315259E-005  0.1205305E+03  0.7546771E-02  0.1242489E+00
          1   -1    0    0  502    0 -0.00000000000E+00  0.00000000000E+00  0.66522948335E+03  0.66522948335E+03  0.00000000000E+00 0. -1.
         21   -1    0    0  501  502  0.00000000000E+00 -0.00000000000E+00 -0.42787536418E+02  0.42787536418E+02  0.00000000000E+00 0. -1.
         23    2    1    2    0    0 -0.75417102392E+02 -0.24244557850E+02  0.48075910999E+03  0.49547270416E+03  0.89935203387E+02 0.  0.
         23    2    1    2    0    0  0.88315829870E+02 -0.11929697426E+01  0.93116536337E+02  0.15622264540E+03  0.89071413006E+02 0.  0.
        -11    1    3    3    0    0 -0.37008018348E+01  0.27317120619E+02  0.68130577719E+02  0.73496235506E+02  0.00000000000E+00 0.  1.
         11    1    3    3    0    0 -0.71716300557E+02 -0.51561678468E+02  0.41262853228E+03  0.42197646866E+03  0.00000000000E+00 0. -1.
        -11    1    4    4    0    0  0.70145940807E+02 -0.22813768875E+02  0.10265988696E+03  0.12641191974E+03  0.00000000000E+00 0.  1.
         11    1    4    4    0    0  0.18169889063E+02  0.21620799132E+02 -0.95433506188E+01  0.29810725665E+02  0.00000000000E+00 0. -1.
          1    1    1    2  501    0 -0.12898727478E+02  0.25437527592E+02  0.48566300604E+02  0.56321670207E+02  0.00000000000E+00 0. -1.
<scales pt_clust_5="13000.00000" pt_clust_6="13000.00000" pt_clust_7="13000.00000" pt_clust_8="13000.00000" pt_clust_9="28.52096"></scales>
<clustering>
<clus scale="   28.521">  2  9  1 -1</clus>
<clus scale="   89.071">  7  8 -1 -1</clus>
<clus scale="   89.935">  5  6 -1 -1</clus>
<clus scale="  119.887">  2  7  1 -1</clus>
<clus scale="   28.521">  2  5  1 -1</clus>
</clustering>
</event>
<event>
 9    1  0.1315259E-005  0.1154112E+03  0.7546771E-02  0.1251514E+00
          2   -1    0    0  502    0 -0.00000000000E+00  0.00000000000E+00  0.10502609792E+03  0.10502609792E+03  0.00000000000E+00 0. -1.
         21   -1    0    0  501  502  0.00000000000E+00 -0.00000000000E+00 -0.20758387973E+03  0.20758387973E+03  0.00000000000E+00 0.  1.
         23    2    1    2    0    0 -0.51207248100E+02  0.38653639290E+02  0.72378009608E+01  0.10946007154E+03  0.88390244999E+02 0.  0.
         23    2    1    2    0    0  0.88500213136E+02 -0.32608479230E+02 -0.98998713401E+02  0.16385764746E+03  0.90293868746E+02 0.  0.
        -11    1    4    4    0    0  0.10721833621E+03 -0.23784096918E+02 -0.84959584682E+02  0.13885094856E+03  0.00000000000E+00 0.  1.
         11    1    4    4    0    0 -0.18718123077E+02 -0.88243823122E+01 -0.14039128719E+02  0.25006698900E+02  0.00000000000E+00 0. -1.
        -13    1    3    3    0    0 -0.16921827047E+02  0.51695537881E+02 -0.25699845258E+02  0.60160276876E+02  0.00000000000E+00 0.  1.
         13    1    3    3    0    0 -0.34285421053E+02 -0.13041898592E+02  0.32937646219E+02  0.49299794666E+02  0.00000000000E+00 0. -1.
          2    1    1    2  501    0 -0.37292965036E+02 -0.60451600597E+01 -0.10796869379E+02  0.39292258649E+02  0.00000000000E+00 0. -1.
<scales pt_clust_5="13000.00000" pt_clust_6="13000.00000" pt_clust_7="13000.00000" pt_clust_8="13000.00000" pt_clust_9="37.77976"></scales>
<clustering>
<clus scale="   37.780">  2  9  1 -1</clus>
<clus scale="   88.390">  7  8 -1 -1</clus>
<clus scale="   90.294">  5  6 -1 -1</clus>
<clus scale="  113.928">  1  7  2 -1</clus>
<clus scale="   37.780">  2  5  1 -1</clus>
</clustering>
</event>
<event>
 9    1  0.1315259E-005  0.9072252E+02  0.7546771E-02  0.1302687E+00
          4   -1    0    0  502    0 -0.00000000000E+00  0.00000000000E+00  0.84879579999E+02  0.84879579999E+02  0.00000000000E+00 0. -1.
         21   -1    0    0  501  502  0.00000000000E+00 -0.00000000000E+00 -0.21027615030E+03  0.21027615030E+03  0.00000000000E+00 0. -1.
         23    2    1    2    0    0 -0.16097190500E+02  0.38736026930E+01  0.27436686350E+02  0.93033357727E+02  0.87340194368E+02 0.  0.
         23    2    1    2    0    0  0.23518328927E+00  0.10807717285E+02 -0.64580391709E+02  0.11126142057E+03  0.89953402653E+02 0.  0.
        -11    1    4    4    0    0 -0.58133536732E+01  0.45564452208E+02 -0.11205231846E+02  0.47280774176E+02  0.00000000000E+00 0. -1.
         11    1    4    4    0    0  0.60485369625E+01 -0.34756734924E+02 -0.53375159863E+02  0.63980646389E+02  0.00000000000E+00 0.  1.
        -11    1    3    3    0    0 -0.50685693005E+02 -0.11912499500E+01  0.38144325602E+01  0.50842978351E+02  0.00000000000E+00 0.  1.
         11    1    3    3    0    0  0.34588502505E+02  0.50648526430E+01  0.23622253790E+02  0.42190379376E+02  0.00000000000E+00 0. -1.
          4    1    1    2  501    0  0.15862007211E+02 -0.14681319978E+02 -0.88252864943E+02  0.90860952007E+02  0.00000000000E+00 0. -1.
<scales pt_clust_5="13000.00000" pt_clust_6="13000.00000" pt_clust_7="13000.00000" pt_clust_8="13000.00000" pt_clust_9="21.61352"></scales>
<clustering>
<clus scale="   21.614">  2  9  1 -1</clus>
<clus scale="   87.340">  7  8 -1 -1</clus>
<clus scale="   88.132">  1  7  2 -1</clus>
<clus scale="   89.953">  5  6 -1 -1</clus>
<clus scale="   21.614">  2  5  1 -1</clus>
</clustering>
</event>
<event>
 9    1  0.1315259E-005  0.1218376E+03  0.7546771E-02  0.1240217E+00
         21   -1    0    0  501  502  0.00000000000E+00  0.00000000000E+00  0.36206217024E+02  0.36206217024E+02  0.00000000000E+00 0. -1.
          1   -1    0    0  502    0 -0.00000000000E+00 -0.00000000000E+00 -0.10350924236E+04  0.10350924236E+04  0.00000000000E+00 0. -1.
         23    2    1    2    0    0 -0.41050751463E+02  0.59110272388E+02 -0.33660171234E+03  0.35638440220E+03  0.92357679067E+02 0.  0.
         23    2    1    2    0    0 -0.59471449595E+02 -0.10343018851E+03 -0.46890976566E+03  0.49251200479E+03  0.91962216843E+02 0.  0.
        -11    1    3    3    0    0  0.21473313877E+02  0.27996197497E+02 -0.48729347959E+02  0.60161778860E+02  0.00000000000E+00 0.  1.
         11    1    3    3    0    0 -0.62524065340E+02  0.31114074891E+02 -0.28787236438E+03  0.29622262334E+03  0.00000000000E+00 0. -1.
        -13    1    4    4    0    0 -0.34878150880E+02 -0.10753056089E+03 -0.44021632042E+03  0.45449941221E+03  0.00000000000E+00 0. -1.
         13    1    4    4    0    0 -0.24593298715E+02  0.41003723867E+01 -0.28693445234E+02  0.38012592582E+02  0.00000000000E+00 0.  1.
          1    1    1    2  501    0  0.10052220106E+03  0.44319916119E+02 -0.19337472857E+03  0.22240223362E+03  0.00000000000E+00 0. -1.
<scales pt_clust_5="13000.00000" pt_clust_6="13000.00000" pt_clust_7="13000.00000" pt_clust_8="13000.00000" pt_clust_9="109.85885"></scales>
<clustering>
<clus scale="   91.962">  7  8 -1 -1</clus>
<clus scale="   92.358">  5  6 -1 -1</clus>
<clus scale="  109.859">  1  9  2 -1</clus>
<clus scale="  121.538">  1  7  2 -1</clus>
<clus scale="  109.859">  1  5  2 -1</clus>
</clustering>
</event>
<event>
 9    1  0.1315259E-005  0.1239490E+03  0.7546771E-02  0.1239690E+00
          1   -1    0    0  502    0 -0.00000000000E+00  0.00000000000E+00  0.72936853588E+02  0.72936853588E+02  0.00000000000E+00 0. -1.
         21   -1    0    0  501  502  0.00000000000E+00 -0.00000000000E+00 -0.42468373629E+03  0.42468373629E+03  0.00000000000E+00 0.  1.
         23    2    1    2    0    0  0.50542660285E+02  0.50970103668E+02 -0.29145455767E+02  0.12630980772E+03  0.99760703481E+02 0.  0.
         23    2    1    2    0    0 -0.13531850351E+02 -0.91158392879E+02 -0.22807330851E+03  0.26212990555E+03  0.90563181069E+02 0.  0.
        -11    1    4    4    0    0 -0.88193978166E+01 -0.55996053159E+02 -0.21800185434E+03  0.22525130020E+03  0.00000000000E+00 0.  1.
         11    1    4    4    0    0 -0.47124525340E+01 -0.35162339720E+02 -0.10071454166E+02  0.36878605349E+02  0.00000000000E+00 0. -1.
        -11    1    3    3    0    0  0.52516086646E+02 -0.12060642343E+02  0.58312713227E+01  0.54197806004E+02  0.00000000000E+00 0. -1.
         11    1    3    3    0    0 -0.19734263608E+01  0.63030746011E+02 -0.34976727090E+02  0.72112001721E+02  0.00000000000E+00 0.  1.
          1    1    1    2  501    0 -0.37010809935E+02  0.40188289211E+02 -0.94528118433E+02  0.10918087660E+03  0.00000000000E+00 0. -1.
<scales pt_clust_5="13000.00000" pt_clust_6="13000.00000" pt_clust_7="13000.00000" pt_clust_8="13000.00000" pt_clust_9="54.63423"></scales>
<clustering>
<clus scale="   54.634">  2  9  1 -1</clus>
<clus scale="   90.563">  5  6 -1 -1</clus>
<clus scale="   99.761">  7  8 -1 -1</clus>
<clus scale="  116.674">  2  5  1 -1</clus>
<clus scale="   54.634">  2  5  1 -1</clus>
</clustering>
</event>
<event>
 9    1  0.1315259E-005  0.1275820E+03  0.7546771E-02  0.1244390E+00
          2   -1    0    0  502    0 -0.00000000000E+00  0.00000000000E+00  0.28907331855E+03  0.28907331855E+03  0.00000000000E+00 0. -1.
         21   -1    0    0  501  502  0.00000000000E+00 -0.00000000000E+00 -0.11007537617E+03  0.11007537617E+03  0.00000000000E+00 0.  1.
         23    2    1    2    0    0  0.30529511262E+02  0.20799055524E+02  0.12397870648E+03  0.15758817089E+03  0.89992556220E+02 0.  0.
         23    2    1    2    0    0  0.15141060393E+02  0.77409042415E+02 -0.32267791954E+00  0.11993257046E+03  0.90345480121E+02 0.  0.
        -13    1    4    4    0    0 -0.25223069581E+02 -0.46049195000E+01  0.10854710583E+02  0.27843011054E+02  0.00000000000E+00 0. -1.
         13    1    4    4    0    0  0.40364129974E+02  0.82013961915E+02 -0.11177388503E+02  0.92089559405E+02  0.00000000000E+00 0.  1.
        -13    1    3    3    0    0  0.43996506166E+02  0.42781880174E+02  0.11489112986E+03  0.13025342048E+03  0.00000000000E+00 0.  1.
         13    1    3    3    0    0 -0.13466994904E+02 -0.21982824650E+02  0.90875766276E+01  0.27334750416E+02  0.00000000000E+00 0. -1.
          2    1    1    2  501    0 -0.45670571655E+02 -0.98208097940E+02  0.55341913816E+02  0.12162795337E+03  0.00000000000E+00 0. -1.
<scales pt_clust_5="13000.00000" pt_clust_6="13000.00000" pt_clust_7="13000.00000" pt_clust_8="13000.00000" pt_clust_9="90.08259"></scales>
<clustering>
<clus scale="   89.993">  7  8 -1 -1</clus>
<clus scale="   90.345">  5  6 -1 -1</clus>
<clus scale="   97.280">  1  7  2 -1</clus>
<clus scale="   90.083">  2  9  1 -1</clus>
<clus scale="   90.083">  2  5  1 -1</clus>
</clustering>
</event>
<event>
 9    1  0.1315259E-005  0.1089315E+03  0.7546771E-02  0.1264482E+00
         21   -1    0    0  501  502  0.00000000000E+00  0.00000000000E+00  0.94992377489E+02  0.94992377489E+02  0.00000000000E+00 0. -1.
          1   -1    0    0  502    0 -0.00000000000E+00 -0.00000000000E+00 -0.18069517126E+03  0.18069517126E+03  0.00000000000E+00 0. -1.
         23    2    1    2    0    0  0.46555963975E+02 -0.49076569910E+02 -0.47902901133E+02  0.11921771297E+03  0.85686683059E+02 0.  0.
         23    2    1    2    0    0 -0.55033338200E+02  0.12675816442E+02 -0.51556055293E+01  0.10684594831E+03  0.90554578930E+02 0.  0.
        -11    1    3    3    0    0  0.62593180090E+02 -0.17351714574E+02 -0.52308670191E+02  0.83397752785E+02  0.00000000000E+00 0. -1.
         11    1    3    3    0    0 -0.16037216115E+02 -0.31724855337E+02  0.44057690583E+01  0.35819960188E+02  0.00000000000E+00 0.  1.
        -13    1    4    4    0    0 -0.55622978609E+02 -0.27359261109E+02  0.12251071268E+02  0.63186499072E+02  0.00000000000E+00 0. -1.
         13    1    4    4    0    0  0.58964040860E+00  0.40035077551E+02 -0.17406676797E+02  0.43659449234E+02  0.00000000000E+00 0.  1.
          1    1    1    2  501    0  0.84773742255E+01  0.36400753469E+02 -0.32644287114E+02  0.49623887474E+02  0.00000000000E+00 0. -1.
<scales pt_clust_5="13000.00000" pt_clust_6="13000.00000" pt_clust_7="13000.00000" pt_clust_8="13000.00000" pt_clust_9="37.37489"></scales>
<clustering>
<clus scale="   37.375">  1  9  2 -1</clus>
<clus scale="   85.687">  5  6 -1 -1</clus>
<clus scale="   90.555">  7  8 -1 -1</clus>
<clus scale="  104.920">  2  5  1 -1</clus>
<clus scale="   37.375">  1  5  2 -1</clus>
</clustering>
</event>
<event>
 9    1  0.1315259E-005  0.1669020E+03  0.7546771E-02  0.1181177E+00
         21   -1    0    0  501  502  0.00000000000E+00  0.00000000000E+00  0.45210630243E+02  0.45210630243E+02  0.00000000000E+00 0. -1.
          1   -1    0    0  502    0 -0.00000000000E+00 -0.00000000000E+00 -0.10756279791E+04  0.10756279791E+04  0.00000000000E+00 0. -1.
         23    2    1    2    0    0 -0.12458197983E+03 -0.81499632414E+02 -0.80133321582E+03  0.82010465777E+03  0.90960800009E+02 0.  0.
         23    2    1    2    0    0  0.92635239116E+02  0.72598111691E+02 -0.22110969894E+03  0.26662496579E+03  0.91365201640E+02 0.  0.
        -11    1    3    3    0    0 -0.13778008851E+03 -0.63399796914E+02 -0.67838509214E+03  0.69513251994E+03  0.00000000000E+00 0. -1.
         11    1    3    3    0    0  0.13198108678E+02 -0.18099835501E+02 -0.12294812368E+03  0.12497213784E+03  0.00000000000E+00 0.  1.
        -13    1    4    4    0    0  0.86944991325E+02  0.92230625679E+02 -0.20296903886E+03  0.23929552976E+03  0.00000000000E+00 0. -1.
         13    1    4    4    0    0  0.56902477908E+01 -0.19632513988E+02 -0.18140660085E+02  0.27329436031E+02  0.00000000000E+00 0.  1.
          1    1    1    2  501    0  0.31946740718E+02  0.89015207235E+01 -0.79744341319E+01  0.34108985816E+02  0.00000000000E+00 0. -1.
<scales pt_clust_5="13000.00000" pt_clust_6="13000.00000" pt_clust_7="13000.00000" pt_clust_8="13000.00000" pt_clust_9="33.16370"></scales>
<clustering>
<clus scale="   33.164">  1  9  2 -1</clus>
<clus scale="   90.961">  5  6 -1 -1</clus>
<clus scale="   91.365">  7  8 -1 -1</clus>
<clus scale="  166.681">  2  5  1 -1</clus>
<clus scale="   33.164">  1  5  2 -1</clus>
</clustering>
</event>
<event>
 9    1  0.1315259E-005  0.1068401E+03  0.7546771E-02  0.1268564E+00
         21   -1    0    0  501  502  0.00000000000E+00  0.00000000000E+00  0.42841596996E+02  0.42841596996E+02  0.00000000000E+00 0.  1.
         -3   -1    0    0    0  501 -0.00000000000E+00 -0.00000000000E+00 -0.52074932342E+03  0.52074932342E+03  0.00000000000E+00 0.  1.
         23    2    1    2    0    0  0.26722791077E+02 -0.34166672817E+02 -0.29698853037E+03  0.31448549416E+03  0.93901383217E+02 0.  0.
         23    2    1    2    0    0 -0.32200045065E+01  0.79677508566E+02 -0.13414637263E+03  0.17974178911E+03  0.89179524905E+02 0.  0.
        -13    1    3    3    0    0  0.39522801772E+01  0.31694596186E+02 -0.12251390754E+03  0.12660894711E+03  0.00000000000E+00 0. -1.
         13    1    3    3    0    0  0.22770510900E+02 -0.65861269003E+02 -0.17447462283E+03  0.18787654706E+03  0.00000000000E+00 0.  1.
        -13    1    4    4    0    0  0.26761409002E+02 -0.31673232141E+01 -0.55268785574E+02  0.61488564847E+02  0.00000000000E+00 0. -1.
         13    1    4    4    0    0 -0.29981413509E+02  0.82844831780E+02 -0.78877587054E+02  0.11825322426E+03  0.00000000000E+00 0.  1.
         -3    1    1    2    0  502 -0.23502786571E+02 -0.45510835749E+02 -0.46772823421E+02  0.69363637144E+02  0.00000000000E+00 0.  1.
<scales pt_clust_5="13000.00000" pt_clust_6="13000.00000" pt_clust_7="13000.00000" pt_clust_8="13000.00000" pt_clust_9="51.22126"></scales>
<clustering>
<clus scale="   51.221">  1  9  2 -1</clus>
<clus scale="   89.180">  7  8 -1 -1</clus>
<clus scale="   93.901">  5  6 -1 -1</clus>
<clus scale="  102.715">  1  7  2 -1</clus>
<clus scale="   51.221">  1  5  2 -1</clus>
</clustering>
</event>
<event>
 9    1  0.1315259E-005  0.9283522E+02  0.7546771E-02  0.1296768E+00
          1   -1    0    0  502    0 -0.00000000000E+00  0.00000000000E+00  0.25420354128E+03  0.25420354128E+03  0.00000000000E+00 0. -1.
         21   -1    0    0  501  502  0.00000000000E+00 -0.00000000000E+00 -0.63738199320E+02  0.63738199320E+02  0.00000000000E+00 0.  1.
         23    2    1    2    0    0  0.83974641716E+00  0.11764386135E+02  0.12113122473E+03  0.15050631825E+03  0.88545311973E+02 0.  0.
         23    2    1    2    0    0  0.19332855944E+02 -0.52725258448E+02  0.39760133703E+02  0.11303553772E+03  0.89679720994E+02 0.  0.
        -11    1    4    4    0    0  0.28583437997E+02 -0.72484241416E+02  0.13806842850E+02  0.79130317141E+02  0.00000000000E+00 0.  1.
         11    1    4    4    0    0 -0.92505820525E+01  0.19758982968E+02  0.25953290853E+02  0.33905220576E+02  0.00000000000E+00 0. -1.
        -13    1    3    3    0    0 -0.43148078575E+02  0.85311643882E+01  0.48000552954E+02  0.65104458637E+02  0.00000000000E+00 0. -1.
         13    1    3    3    0    0  0.43987824992E+02  0.32332217473E+01  0.73130671780E+02  0.85401859613E+02  0.00000000000E+00 0.  1.
          1    1    1    2  501    0 -0.20172602361E+02  0.40960872313E+02  0.29573983523E+02  0.54399884633E+02  0.00000000000E+00 0. -1.
<scales pt_clust_5="13000.00000" pt_clust_6="13000.00000" pt_clust_7="13000.00000" pt_clust_8="13000.00000" pt_clust_9="45.65881"></scales>
<clustering>
<clus scale="   45.659">  2  9  1 -1</clus>
<clus scale="   88.545">  7  8 -1 -1</clus>
<clus scale="   89.680">  5  6 -1 -1</clus>
<clus scale="   91.740">  1  7  2 -1</clus>
<clus scale="   45.659">  2  5  1 -1</clus>
</clustering>
</event>
<event>
 9    1  0.1315259E-005  0.1236203E+03  0.7546771E-02  0.1237955E+00
         21   -1    0    0  501  502  0.00000000000E+00  0.00000000000E+00  0.28544499647E+03  0.28544499647E+03  0.00000000000E+00 0. -1.
         -1   -1    0    0    0  501 -0.00000000000E+00 -0.00000000000E+00 -0.14726709472E+03  0.14726709472E+03  0.00000000000E+00 0.  1.
         23    2    1    2    0    0  0.11582788351E+02 -0.80324184578E+02 -0.86811196015E+02  0.15044604999E+03  0.92258845593E+02 0.  0.
         23    2    1    2    0    0  0.25381512983E+02  0.92587927296E+02  0.17514128034E+03  0.21900812579E+03  0.89851797989E+02 0.  0.
        -11    1    3    3    0    0 -0.13309570542E+02 -0.82711273828E+02 -0.92502641054E+02  0.12479999234E+03  0.00000000000E+00 0.  1.
         11    1    3    3    0    0  0.24892358893E+02  0.23870892502E+01  0.56914450395E+01  0.25646057650E+02  0.00000000000E+00 0. -1.
        -11    1    4    4    0    0  0.63356235673E+01  0.75341654150E+02  0.17776962020E+03  0.19318007880E+03  0.00000000000E+00 0. -1.
         11    1    4    4    0    0  0.19045889416E+02  0.17246273147E+02 -0.26283398675E+01  0.25828046994E+02  0.00000000000E+00 0.  1.
         -1    1    1    2    0  502 -0.36964301334E+02 -0.12263742719E+02  0.49847817434E+02  0.63257915406E+02  0.00000000000E+00 0.  1.
<scales pt_clust_5="13000.00000" pt_clust_6="13000.00000" pt_clust_7="13000.00000" pt_clust_8="13000.00000" pt_clust_9="38.94559"></scales>
<clustering>
<clus scale="   38.946">  1  9  2 -1</clus>
<clus scale="   89.852">  7  8 -1 -1</clus>
<clus scale="   92.259">  5  6 -1 -1</clus>
<clus scale="  121.834">  1  7  2 -1</clus>
<clus scale="   38.946">  1  5  2 -1</clus>
</clustering>
</event>
<event>
 9    1  0.1315259E-005  0.1815750E+03  0.7546771E-02  0.1188453E+00
         21   -1    0    0  501  502  0.00000000000E+00  0.00000000000E+00  0.11839855670E+03  0.11839855670E+03  0.00000000000E+00 0.  1.
          1   -1    0    0  502    0 -0.00000000000E+00 -0.00000000000E+00 -0.49067784146E+03  0.49067784146E+03  0.00000000000E+00 0. -1.
         23    2    1    2    0    0  0.18549782323E+02 -0.59157869683E+02 -0.13892406525E+03  0.17724217998E+03  0.90945843721E+02 0.  0.
         23    2    1    2    0    0 -0.13773217948E+03 -0.65740182518E+02 -0.60069722173E+02  0.18722875866E+03  0.90301227493E+02 0.  0.
        -11    1    3    3    0    0 -0.26121367743E+02  0.55833349646E+01 -0.15493769250E+02  0.30879708024E+02  0.00000000000E+00 0. -1.
         11    1    3    3    0    0  0.44671150066E+02 -0.64741204647E+02 -0.12343029600E+03  0.14636247196E+03  0.00000000000E+00 0.  1.
        -11    1    4    4    0    0 -0.47982861038E+02 -0.67262151941E+01 -0.63363055248E+02  0.79765115775E+02  0.00000000000E+00 0. -1.
         11    1    4    4    0    0 -0.89749318439E+02 -0.59013967324E+02  0.32933330749E+01  0.10746364289E+03  0.00000000000E+00 0.  1.
          1    1    1    2  501    0  0.11918239715E+03  0.12489805220E+03 -0.17328549734E+03  0.24460545951E+03  0.00000000000E+00 0. -1.
<scales pt_clust_5="13000.00000" pt_clust_6="13000.00000" pt_clust_7="13000.00000" pt_clust_8="13000.00000" pt_clust_9="157.52843"></scales>
<clustering>
<clus scale="   90.301">  7  8 -1 -1</clus>
<clus scale="   90.946">  5  6 -1 -1</clus>
<clus scale="  110.068">  2  5  1 -1</clus>
<clus scale="  157.528">  1  9  2 -1</clus>
<clus scale="  157.528">  1  5  2 -1</clus>
</clustering>
</event>
<event>
 9    1  0.1315259E-005  0.9213770E+02  0.7546771E-02  0.1298619E+00
         21   -1    0    0  501  502  0.00000000000E+00  0.00000000000E+00  0.27327592076E+03  0.27327592076E+03  0.00000000000E+00 0. -1.
          2   -1    0    0  502    0 -0.00000000000E+00 -0.00000000000E+00 -0.14278294374E+03  0.14278294374E+03  0.00000000000E+00 0. -1.
         23    2    1    2    0    0  0.31320289344E+02 -0.98592392132E+01 -0.75520502653E+02  0.12065120780E+03  0.88177108711E+02 0.  0.
         23    2    1    2    0    0  0.55237967229E+02  0.35746426303E+02  0.67720080815E+02  0.13021824299E+03  0.89675757283E+02 0.  0.
        -11    1    3    3    0    0 -0.27062438336E+02  0.14248532605E+02 -0.29566802528E+02  0.42539300204E+02  0.00000000000E+00 0.  1.
         11    1    3    3    0    0  0.58382727680E+02 -0.24107771818E+02 -0.45953700125E+02  0.78111907598E+02  0.00000000000E+00 0. -1.
        -11    1    4    4    0    0  0.17325374340E+02  0.18715371223E+02 -0.20484757133E+02  0.32711756157E+02  0.00000000000E+00 0.  1.
         11    1    4    4    0    0  0.37912592889E+02  0.17031055080E+02  0.88204837948E+02  0.97506486831E+02  0.00000000000E+00 0. -1.
          2    1    1    2  501    0 -0.86558256573E+02 -0.25887187090E+02  0.13829339886E+03  0.16518941372E+03  0.00000000000E+00 0. -1.
<scales pt_clust_5="13000.00000" pt_clust_6="13000.00000" pt_clust_7="13000.00000" pt_clust_8="13000.00000" pt_clust_9="90.34643"></scales>
<clustering>
<clus scale="   88.177">  5  6 -1 -1</clus>
<clus scale="   89.676">  7  8 -1 -1</clus>
<clus scale="   90.346">  1  9  2 -1</clus>
<clus scale="   90.680">  2  5  1 -1</clus>
<clus scale="   90.346">  1  5  2 -1</clus>
</clustering>
</event>
<event>
 9    1  0.1315259E-005  0.9665570E+02  0.7546771E-02  0.1288628E+00
         21   -1    0    0  501  502  0.00000000000E+00  0.00000000000E+00  0.68141823510E+02  0.68141823510E+02  0.00000000000E+00 0.  1.
         -2   -1    0    0    0  501 -0.00000000000E+00 -0.00000000000E+00 -0.59861671464E+03  0.59861671464E+03  0.00000000000E+00 0.  1.
         23    2    1    2    0    0 -0.23780150624E+02  0.14328777327E+02 -0.41498596443E+03  0.42569546433E+03  0.90732950196E+02 0.  0.
         23    2    1    2    0    0  0.44205686510E+02 -0.20038187999E+02 -0.16145890724E+03  0.19043660843E+03  0.88551970095E+02 0.  0.
        -11    1    4    4    0    0  0.66539288807E+02 -0.24228690958E+02 -0.84789319756E+02  0.11047051718E+03  0.00000000000E+00 0.  1.
         11    1    4    4    0    0 -0.22333602297E+02  0.41905029596E+01 -0.76669587479E+02  0.79966091257E+02  0.00000000000E+00 0. -1.
        -13    1    3    3    0    0  0.12135239233E+02 -0.33146871216E+02 -0.16166162026E+03  0.16547041599E+03  0.00000000000E+00 0.  1.
         13    1    3    3    0    0 -0.35915389857E+02  0.47475648543E+02 -0.25332434417E+03  0.26022504834E+03  0.00000000000E+00 0. -1.
         -2    1    1    2    0  502 -0.20425535887E+02  0.57094106718E+01  0.45969980541E+02  0.50626465385E+02  0.00000000000E+00 0.  1.
<scales pt_clust_5="13000.00000" pt_clust_6="13000.00000" pt_clust_7="13000.00000" pt_clust_8="13000.00000" pt_clust_9="21.20849"></scales>
<clustering>
<clus scale="   21.208">  1  9  2 -1</clus>
<clus scale="   88.552">  5  6 -1 -1</clus>
<clus scale="   90.733">  7  8 -1 -1</clus>
<clus scale="   94.611">  1  5  2 -1</clus>
<clus scale="   21.208">  1  5  2 -1</clus>
</clustering>
</event>
<event>
 9    1  0.1315259E-005  0.1179874E+03  0.7546771E-02  0.1246570E+00
          2   -1    0    0  502    0 -0.00000000000E+00  0.00000000000E+00  0.16114029517E+03  0.16114029517E+03  0.00000000000E+00 0. -1.
         21   -1    0    0  501  502  0.00000000000E+00 -0.00000000000E+00 -0.19817087635E+03  0.19817087635E+03  0.00000000000E+00 0. -1.
         23    2    1    2    0    0 -0.62492043951E+02  0.76479107739E+02  0.65584840222E+02  0.15005169416E+03  0.91977335118E+02 0.  0.
         23    2    1    2    0    0  0.38522012177E+02  0.18446941363E+01 -0.49473336507E+02  0.11162105484E+03  0.92327138699E+02 0.  0.
        -11    1    4    4    0    0  0.15589777174E+02 -0.38434570501E+02  0.30293907713E+01  0.41586471002E+02  0.00000000000E+00 0.  1.
         11    1    4    4    0    0  0.22932235004E+02  0.40279264638E+02 -0.52502727278E+02  0.70034583840E+02  0.00000000000E+00 0. -1.
        -13    1    3    3    0    0 -0.29088464449E+02  0.13820856300E+02  0.71882387520E+02  0.78766950356E+02  0.00000000000E+00 0.  1.
         13    1    3    3    0    0 -0.33403579502E+02  0.62658251440E+02 -0.62975472987E+01  0.71284743803E+02  0.00000000000E+00 0. -1.
          2    1    1    2  501    0  0.23970031773E+02 -0.78323801876E+02 -0.53142084897E+02  0.97638422512E+02  0.00000000000E+00 0. -1.
<scales pt_clust_5="13000.00000" pt_clust_6="13000.00000" pt_clust_7="13000.00000" pt_clust_8="13000.00000" pt_clust_9="81.90959"></scales>
<clustering>
<clus scale="   81.910">  2  9  1 -1</clus>
<clus scale="   91.977">  7  8 -1 -1</clus>
<clus scale="   92.327">  5  6 -1 -1</clus>
<clus scale="  117.714">  1  7  2 -1</clus>
<clus scale="   81.910">  2  5  1 -1</clus>
</clustering>
</event>
<event>
 9    1  0.1315259E-005  0.1735939E+03  0.7546771E-02  0.1174415E+00
         21   -1    0    0  501  502  0.00000000000E+00  0.00000000000E+00  0.81955478857E+03  0.81955478857E+03  0.00000000000E+00 0. -1.
         -3   -1    0    0    0  501 -0.00000000000E+00 -0.00000000000E+00 -0.79033438174E+02  0.79033438174E+02  0.00000000000E+00 0.  1.
         23    2    1    2    0    0  0.47444737565E+02 -0.10486687323E+03  0.18283430056E+03  0.23449072383E+03  0.91156205920E+02 0.  0.
         23    2    1    2    0    0 -0.16422604724E+03  0.14554185045E+03  0.36132693937E+03  0.43204229172E+03  0.89167033647E+02 0.  0.
        -11    1    3    3    0    0  0.12688637893E+02 -0.97902429017E+02  0.17038972044E+03  0.19692268526E+03  0.00000000000E+00 0. -1.
         11    1    3    3    0    0  0.34756099672E+02 -0.69644442125E+01  0.12444580121E+02  0.37568038570E+02  0.00000000000E+00 0.  1.
        -13    1    4    4    0    0 -0.68348497898E+02  0.14143587718E+02  0.14930222154E+03  0.16481113918E+03  0.00000000000E+00 0.  1.
         13    1    4    4    0    0 -0.95877549344E+02  0.13139826274E+03  0.21202471783E+03  0.26723115254E+03  0.00000000000E+00 0. -1.
         -3    1    1    2    0  502  0.11678130968E+03 -0.40674977224E+02  0.19636011047E+03  0.23205521120E+03  0.00000000000E+00 0.  1.
<scales pt_clust_5="13000.00000" pt_clust_6="13000.00000" pt_clust_7="13000.00000" pt_clust_8="13000.00000" pt_clust_9="123.66215"></scales>
<clustering>
<clus scale="   89.167">  7  8 -1 -1</clus>
<clus scale="   91.156">  5  6 -1 -1</clus>
<clus scale="  123.662">  1  9  2 -1</clus>
<clus scale="  172.558">  1  7  2 -1</clus>
<clus scale="  123.662">  1  5  2 -1</clus>
</clustering>
</event>
<event>
 9    1  0.1315259E-005  0.9632649E+02  0.7546771E-02  0.1289276E+00
         21   -1    0    0  501  502  0.00000000000E+00  0.00000000000E+00  0.75762129848E+02  0.75762129848E+02  0.00000000000E+00 0. -1.
         -3   -1    0    0    0  501 -0.00000000000E+00 -0.00000000000E+00 -0.21365070759E+03  0.21365070759E+03  0.00000000000E+00 0.  1.
         23    2    1    2    0    0 -0.16239434882E+01  0.48545681502E+01 -0.68502403210E+02  0.11590578652E+03  0.93356135727E+02 0.  0.
         23    2    1    2    0    0 -0.30001199606E+02 -0.46161203185E+02 -0.41527626257E+02  0.11449445493E+03  0.91397526280E+02 0.  0.
        -11    1    3    3    0    0 -0.46385868893E+01 -0.39697488333E+02 -0.57310614113E+02  0.69870691698E+02  0.00000000000E+00 0.  1.
         11    1    3    3    0    0  0.30146434011E+01  0.44552056483E+02 -0.11191789097E+02  0.46035094818E+02  0.00000000000E+00 0. -1.
        -13    1    4    4    0    0  0.27237995333E+02 -0.67359650571E+01 -0.34747122907E+02  0.44661439355E+02  0.00000000000E+00 0.  1.
         13    1    4    4    0    0 -0.57239194939E+02 -0.39425238128E+02 -0.67805033502E+01  0.69833015575E+02  0.00000000000E+00 0. -1.
         -3    1    1    2    0  502  0.31625143094E+02  0.41306635035E+02 -0.27858548272E+02  0.59012595990E+02  0.00000000000E+00 0.  1.
<scales pt_clust_5="13000.00000" pt_clust_6="13000.00000" pt_clust_7="13000.00000" pt_clust_8="13000.00000" pt_clust_9="52.02295"></scales>
<clustering>
<clus scale="   52.023">  1  9  2 -1</clus>
<clus scale="   91.398">  7  8 -1 -1</clus>
<clus scale="   93.356">  5  6 -1 -1</clus>
<clus scale="   94.430">  1  7  2 -1</clus>
<clus scale="   52.023">  1  5  2 -1</clus>
</clustering>
</event>
<event>
 9    1  0.1315259E-005  0.1373231E+03  0.7546771E-02  0.1217196E+00
          2   -1    0    0  502    0 -0.00000000000E+00  0.00000000000E+00  0.89508890459E+03  0.89508890459E+03  0.00000000000E+00 0. -1.
         21   -1    0    0  501  502  0.00000000000E+00 -0.00000000000E+00 -0.26790572672E+02  0.26790572672E+02  0.00000000000E+00 0.  1.
         23    2    1    2    0    0  0.87368109718E+02 -0.27253559772E+02  0.35328859974E+03  0.37616716018E+03  0.91175405543E+02 0.  0.
         23    2    1    2    0    0 -0.98271463121E+02  0.58874977316E+02  0.42187282522E+03  0.44675131162E+03  0.92122257697E+02 0.  0.
        -11    1    4    4    0    0 -0.24867009134E+02  0.14398125124E+02  0.18106157463E+02  0.33963319750E+02  0.00000000000E+00 0.  1.
         11    1    4    4    0    0 -0.73404453987E+02  0.44476852192E+02  0.40376666775E+03  0.41278799187E+03  0.00000000000E+00 0. -1.
        -13    1    3    3    0    0  0.82864090645E+02  0.13269115829E+02  0.18723977021E+03  0.20518591204E+03  0.00000000000E+00 0. -1.
         13    1    3    3    0    0  0.45040190730E+01 -0.40522675601E+02  0.16604882953E+03  0.17098124814E+03  0.00000000000E+00 0.  1.
          2    1    1    2  501    0  0.10903353403E+02 -0.31621417544E+02  0.93136906960E+02  0.98961005457E+02  0.00000000000E+00 0. -1.
<scales pt_clust_5="13000.00000" pt_clust_6="13000.00000" pt_clust_7="13000.00000" pt_clust_8="13000.00000" pt_clust_9="33.44843"></scales>
<clustering>
<clus scale="   33.448">  2  9  1 -1</clus>
<clus scale="   91.175">  7  8 -1 -1</clus>
<clus scale="   92.122">  5  6 -1 -1</clus>
<clus scale="  136.690">  1  7  2 -1</clus>
<clus scale="   33.448">  2  5  1 -1</clus>
</clustering>
</event>
<event>
 9    1  0.1315259E-005  0.9409523E+02  0.7546771E-02  0.1295264E+00
          1   -1    0    0  502    0 -0.00000000000E+00  0.00000000000E+00  0.74701014377E+03  0.74701014377E+03  0.00000000000E+00 0. -1.
         21   -1    0    0  501  502  0.00000000000E+00 -0.00000000000E+00 -0.20513040194E+02  0.20513040194E+02  0.00000000000E+00 0. -1.
         23    2    1    2    0    0 -0.15816306242E+02 -0.97310189738E+01  0.33688178164E+03  0.34930664351E+03  0.90448593862E+02 0.  0.
         23    2    1    2    0    0 -0.33312114021E+02 -0.44413688989E+01  0.23304752509E+03  0.25351094471E+03  0.93953325868E+02 0.  0.
        -11    1    4    4    0    0  0.29854836589E+01 -0.45134166879E+02  0.10307203109E+03  0.11256042699E+03  0.00000000000E+00 0.  1.
         11    1    4    4    0    0 -0.36297597680E+02  0.40692797980E+02  0.12997549400E+03  0.14095051772E+03  0.00000000000E+00 0. -1.
        -13    1    3    3    0    0  0.21220685783E+02 -0.34789200702E+02  0.95708244334E+02  0.10402246884E+03  0.00000000000E+00 0.  1.
         13    1    3    3    0    0 -0.37036992026E+02  0.25058181728E+02  0.24117353730E+03  0.24528417467E+03  0.00000000000E+00 0. -1.
          1    1    1    2  501    0  0.49128420264E+02  0.14172387873E+02  0.15656779685E+03  0.16470559573E+03  0.00000000000E+00 0. -1.
<scales pt_clust_5="13000.00000" pt_clust_6="13000.00000" pt_clust_7="13000.00000" pt_clust_8="13000.00000" pt_clust_9="51.13180"></scales>
<clustering>
<clus scale="   51.132">  2  9  1 -1</clus>
<clus scale="   90.449">  7  8 -1 -1</clus>
<clus scale="   90.596">  1  7  2 -1</clus>
<clus scale="   93.953">  5  6 -1 -1</clus>
<clus scale="   51.132">  2  5  1 -1</clus>
</clustering>
</event>
<event>
 9    1  0.1315259E-005  0.1029159E+03  0.7546771E-02  0.1275091E+00
         -4   -1    0    0    0  501 -0.00000000000E+00  0.00000000000E+00  0.18816546428E+03  0.18816546428E+03  0.00000000000E+00 0.  1.
         21   -1    0    0  501  502  0.00000000000E+00 -0.00000000000E+00 -0.18005742090E+03  0.18005742090E+03  0.00000000000E+00 0.  1.
         23    2    1    2    0    0  0.32511838661E+02 -0.47622206776E+02  0.74451813739E+02  0.13241910039E+03  0.93095925519E+02 0.  0.
         23    2    1    2    0    0 -0.33877099009E+02  0.95535055914E+01  0.52450093957E+02  0.11105174215E+03  0.91337559483E+02 0.  0.
        -11    1    4    4    0    0 -0.25765032148E+02  0.49993027324E+02  0.25282933294E+02  0.61663330907E+02  0.00000000000E+00 0. -1.
         11    1    4    4    0    0 -0.81120668610E+01 -0.40439521732E+02  0.27167160663E+02  0.49388411244E+02  0.00000000000E+00 0.  1.
        -11    1    3    3    0    0  0.61092183116E+01 -0.21774075708E+02  0.89656011665E+02  0.92464227402E+02  0.00000000000E+00 0.  1.
         11    1    3    3    0    0  0.26402620349E+02 -0.25848131068E+02 -0.15204197927E+02  0.39954872989E+02  0.00000000000E+00 0. -1.
         -4    1    1    2    0  502  0.13652603479E+01  0.38068701185E+02 -0.11879386431E+03  0.12475204264E+03  0.00000000000E+00 0.  1.
<scales pt_clust_5="13000.00000" pt_clust_6="13000.00000" pt_clust_7="13000.00000" pt_clust_8="13000.00000" pt_clust_9="38.09317"></scales>
<clustering>
<clus scale="   38.093">  2  9  1 -1</clus>
<clus scale="   91.338">  5  6 -1 -1</clus>
<clus scale="   93.096">  7  8 -1 -1</clus>
<clus scale="  101.328">  2  5  1 -1</clus>
<clus scale="   38.093">  2  5  1 -1</clus>
</clustering>
</event>
<event>
 9    1  0.1315259E-005  0.1465237E+03  0.7546771E-02  0.1205553E+00
         21   -1    0    0  501  502  0.00000000000E+00  0.00000000000E+00  0.70565531572E+02  0.70565531572E+02  0.00000000000E+00 0. -1.
          2   -1    0    0  502    0 -0.00000000000E+00 -0.00000000000E+00 -0.48482219202E+03  0.48482219202E+03  0.00000000000E+00 0. -1.
         23    2    1    2    0    0  0.10711344486E+03 -0.43884521642E+02 -0.23686680863E+03  0.27894494729E+03  0.91133184276E+02 0.  0.
         23    2    1    2    0    0 -0.11439415314E+03 -0.17592960749E+02 -0.13417230173E+03  0.20094280153E+03  0.94764278069E+02 0.  0.
        -11    1    3    3    0    0  0.20771284685E+02 -0.40334972523E+02 -0.29037508510E+02  0.53865881375E+02  0.00000000000E+00 0.  1.
         11    1    3    3    0    0  0.86342160178E+02 -0.35495491193E+01 -0.20782930012E+03  0.22507906591E+03  0.00000000000E+00 0. -1.
        -13    1    4    4    0    0 -0.76812944707E+02 -0.42089387907E+02 -0.12880311963E+03  0.15576260358E+03  0.00000000000E+00 0. -1.
         13    1    4    4    0    0 -0.37581208429E+02  0.24496427158E+02 -0.53691820990E+01  0.45180197951E+02  0.00000000000E+00 0.  1.
          2    1    1    2  501    0  0.72807082730E+01  0.61477482391E+02 -0.43217550083E+02  0.75499974764E+02  0.00000000000E+00 0. -1.
<scales pt_clust_5="13000.00000" pt_clust_6="13000.00000" pt_clust_7="13000.00000" pt_clust_8="13000.00000" pt_clust_9="61.90710"></scales>
<clustering>
<clus scale="   61.907">  1  9  2 -1</clus>
<clus scale="   91.133">  5  6 -1 -1</clus>
<clus scale="   94.764">  7  8 -1 -1</clus>
<clus scale="  144.202">  2  5  1 -1</clus>
<clus scale="   61.907">  1  5  2 -1</clus>
</clustering>
</event>
<event>
 9    1  0.1315259E-005  0.9431851E+02  0.7546771E-02  0.1293204E+00
         21   -1    0    0  501  502  0.00000000000E+00  0.00000000000E+00  0.28756965715E+02  0.28756965715E+02  0.00000000000E+00 0.  1.
          1   -1    0    0  502    0 -0.00000000000E+00 -0.00000000000E+00 -0.52345786937E+03  0.52345786937E+03  0.00000000000E+00 0. -1.
         23    2    1    2    0    0  0.37565717166E+01  0.13322637237E+02 -0.29568057595E+03  0.30979022824E+03  0.91385874325E+02 0.  0.
         23    2    1    2    0    0  0.72426984439E+01 -0.41439925084E+02 -0.18249821254E+03  0.20800737120E+03  0.90508258301E+02 0.  0.
        -11    1    4    4    0    0  0.34445582646E+02 -0.44652915043E+02 -0.59434185250E+02  0.81931699372E+02  0.00000000000E+00 0.  1.
         11    1    4    4    0    0 -0.27202884203E+02  0.32129899598E+01 -0.12306402729E+03  0.12607567183E+03  0.00000000000E+00 0. -1.
        -13    1    3    3    0    0  0.25723227634E+02  0.45901295531E+02 -0.15282788707E+03  0.16163222586E+03  0.00000000000E+00 0.  1.
         13    1    3    3    0    0 -0.21966655918E+02 -0.32578658294E+02 -0.14285268888E+03  0.14815800238E+03  0.00000000000E+00 0. -1.
          1    1    1    2  501    0 -0.10999270161E+02  0.28117287847E+02 -0.16522115165E+02  0.34417235645E+02  0.00000000000E+00 0. -1.
<scales pt_clust_5="13000.00000" pt_clust_6="13000.00000" pt_clust_7="13000.00000" pt_clust_8="13000.00000" pt_clust_9="30.19215"></scales>
<clustering>
<clus scale="   30.192">  1  9  2 -1</clus>
<clus scale="   90.508">  5  6 -1 -1</clus>
<clus scale="   91.386">  7  8 -1 -1</clus>
<clus scale="   93.468">  1  5  2 -1</clus>
<clus scale="   30.192">  1  5  2 -1</clus>
</clustering>
</event>
<event>
 9    1  0.1315259E-005  0.1198680E+03  0.7546771E-02  0.1247008E+00
         -2   -1    0    0    0  501 -0.00000000000E+00  0.00000000000E+00  0.60242323946E+02  0.60242323946E+02  0.00000000000E+00 0.  1.
         21   -1    0    0  501  502  0.00000000000E+00 -0.00000000000E+00 -0.31185969218E+03  0.31185969218E+03  0.00000000000E+00 0.  1.
         23    2    1    2    0    0  0.19878433226E+02 -0.57968788448E+02 -0.67934002803E+02  0.12561235478E+03  0.86069172154E+02 0.  0.
         23    2    1    2    0    0 -0.41044599673E+02  0.74348154795E+02 -0.11477786343E+03  0.17256903871E+03  0.96921658599E+02 0.  0.
        -11    1    4    4    0    0  0.10106335335E+02  0.25117944425E+02 -0.95129003865E+02  0.98906908365E+02  0.00000000000E+00 0. -1.
         11    1    4    4    0    0 -0.51150935007E+02  0.49230210371E+02 -0.19648859563E+02  0.73662130348E+02  0.00000000000E+00 0.  1.
        -11    1    3    3    0    0 -0.13819465336E+02 -0.50293830548E+02 -0.73988845451E+02  0.90525113999E+02  0.00000000000E+00 0.  1.
         11    1    3    3    0    0  0.33697898562E+02 -0.76749579004E+01  0.60548426479E+01  0.35087240783E+02  0.00000000000E+00 0. -1.
         -2    1    1    2    0  502  0.21166166446E+02 -0.16379366347E+02 -0.68905502005E+02  0.73920622634E+02  0.00000000000E+00 0.  1.
<scales pt_clust_5="13000.00000" pt_clust_6="13000.00000" pt_clust_7="13000.00000" pt_clust_8="13000.00000" pt_clust_9="26.76360"></scales>
<clustering>
<clus scale="   26.764">  2  9  1 -1</clus>
<clus scale="   86.069">  7  8 -1 -1</clus>
<clus scale="   96.922">  5  6 -1 -1</clus>
<clus scale="  111.276">  1  7  2 -1</clus>
<clus scale="   26.764">  2  5  1 -1</clus>
</clustering>
</event>
<event>
 9    1  0.1315259E-005  0.1724817E+03  0.7546771E-02  0.1175505E+00
         21   -1    0    0  501  502  0.00000000000E+00  0.00000000000E+00  0.36419192376E+02  0.36419192376E+02  0.00000000000E+00 0. -1.
          2   -1    0    0  502    0 -0.00000000000E+00 -0.00000000000E+00 -0.18510045608E+04  0.18510045608E+04  0.00000000000E+00 0. -1.
         23    2    1    2    0    0  0.63505546196E+02 -0.10356474140E+03 -0.54044844386E+03  0.56126983527E+03  0.90447208143E+02 0.  0.
         23    2    1    2    0    0  0.34404338545E+02  0.20459417881E+03 -0.80210746674E+03  0.83360432466E+03  0.92072500608E+02 0.  0.
        -11    1    4    4    0    0  0.37949703210E+02  0.31077973703E+02 -0.25341554808E+03  0.25811908188E+03  0.00000000000E+00 0.  1.
         11    1    4    4    0    0 -0.35453646652E+01  0.17351620510E+03 -0.54869191867E+03  0.57548524278E+03  0.00000000000E+00 0. -1.
        -11    1    3    3    0    0  0.84855284806E+02 -0.95292296019E+02 -0.47867770812E+03  0.49539215707E+03  0.00000000000E+00 0. -1.
         11    1    3    3    0    0 -0.21349738611E+02 -0.82724453842E+01 -0.61770735742E+02  0.65877678203E+02  0.00000000000E+00 0.  1.
          2    1    1    2  501    0 -0.97909884741E+02 -0.10102943740E+03 -0.47202945778E+03  0.49254959320E+03  0.00000000000E+00 0. -1.
<scales pt_clust_5="13000.00000" pt_clust_6="13000.00000" pt_clust_7="13000.00000" pt_clust_8="13000.00000" pt_clust_9="140.68864"></scales>
<clustering>
<clus scale="   90.447">  7  8 -1 -1</clus>
<clus scale="   92.073">  5  6 -1 -1</clus>
<clus scale="  140.689">  1  9  2 -1</clus>
<clus scale="  171.620">  2  7  1 -1</clus>
<clus scale="  140.689">  1  5  2 -1</clus>
</clustering>
</event>
<event>
 9    1  0.1315259E-005  0.1578673E+03  0.7546771E-02  0.1191624E+00
         21   -1    0    0  501  502  0.00000000000E+00  0.00000000000E+00  0.17717908306E+03  0.17717908306E+03  0.00000000000E+00 0.  1.
         -1   -1    0    0    0  501 -0.00000000000E+00 -0.00000000000E+00 -0.52876859995E+03  0.52876859995E+03  0.00000000000E+00 0.  1.
         23    2    1    2    0    0  0.11417420003E+03  0.57494714317E+02 -0.44073319056E+03  0.46858119214E+03  0.94769183988E+02 0.  0.
         23    2    1    2    0    0 -0.86769651368E+02 -0.85513712630E+02  0.14768427088E+02  0.15329657438E+03  0.91870375161E+02 0.  0.
        -11    1    3    3    0    0  0.34066661546E+02 -0.26305686132E+02 -0.11019593413E+03  0.11830329857E+03  0.00000000000E+00 0.  1.
         11    1    3    3    0    0  0.80107538487E+02  0.83800400449E+02 -0.33053725643E+03  0.35027789357E+03  0.00000000000E+00 0. -1.
        -13    1    4    4    0    0 -0.49753995798E+02 -0.42372901210E+02 -0.38116477533E+02  0.75655724927E+02  0.00000000000E+00 0.  1.
         13    1    4    4    0    0 -0.37015655570E+02 -0.43140811420E+02  0.52884904620E+02  0.77640849454E+02  0.00000000000E+00 0. -1.
         -1    1    1    2    0  502 -0.27404548665E+02  0.28018998313E+02  0.74375246588E+02  0.84069916492E+02  0.00000000000E+00 0.  1.
<scales pt_clust_5="13000.00000" pt_clust_6="13000.00000" pt_clust_7="13000.00000" pt_clust_8="13000.00000" pt_clust_9="39.19277"></scales>
<clustering>
<clus scale="   39.193">  1  9  2 -1</clus>
<clus scale="   91.870">  7  8 -1 -1</clus>
<clus scale="   94.769">  5  6 -1 -1</clus>
<clus scale="  156.144">  1  7  2 -1</clus>
<clus scale="   39.193">  1  5  2 -1</clus>
</clustering>
</event>
<event>
 9    1  0.1315259E-005  0.1327538E+03  0.7546771E-02  0.1224599E+00
         21   -1    0    0  501  502  0.00000000000E+00  0.00000000000E+00  0.48687818311E+03  0.48687818311E+03  0.00000000000E+00 0. -1.
          1   -1    0    0  502    0 -0.00000000000E+00 -0.00000000000E+00 -0.36281208859E+03  0.36281208859E+03  0.00000000000E+00 0. -1.
         23    2    1    2    0    0 -0.62589409030E+02  0.59405665477E+02 -0.28871006021E+03  0.31629253320E+03  0.96130122627E+02 0.  0.
         23    2    1    2    0    0  0.84658023898E+02 -0.10843534569E+03  0.58931778243E+02  0.17549163897E+03  0.91646907523E+02 0.  0.
        -11    1    4    4    0    0 -0.18397001235E+02 -0.23711028137E+02  0.21535378247E+02  0.36938259651E+02  0.00000000000E+00 0.  1.
         11    1    4    4    0    0  0.10305502513E+03 -0.84724317549E+02  0.37396399995E+02  0.13855337932E+03  0.00000000000E+00 0. -1.
        -13    1    3    3    0    0 -0.23151924490E+02 -0.25910294466E+02 -0.66751885288E+02  0.75254030832E+02  0.00000000000E+00 0.  1.
         13    1    3    3    0    0 -0.39437484539E+02  0.85315959943E+02 -0.22195817493E+03  0.24103850237E+03  0.00000000000E+00 0. -1.
          1    1    1    2  501    0 -0.22068614868E+02  0.49029680208E+02  0.35384437649E+03  0.35790609953E+03  0.00000000000E+00 0. -1.
<scales pt_clust_5="13000.00000" pt_clust_6="13000.00000" pt_clust_7="13000.00000" pt_clust_8="13000.00000" pt_clust_9="53.76740"></scales>
<clustering>
<clus scale="   53.767">  1  9  2 -1</clus>
<clus scale="   91.647">  5  6 -1 -1</clus>
<clus scale="   96.130">  7  8 -1 -1</clus>
<clus scale="  129.544">  1  5  2 -1</clus>
<clus scale="   53.767">  1  5  2 -1</clus>
</clustering>
</event>
<event>
 9    1  0.1315259E-005  0.2151893E+03  0.7546771E-02  0.1137827E+00
         -3   -1    0    0    0  501 -0.00000000000E+00  0.00000000000E+00  0.30519591559E+03  0.30519591559E+03  0.00000000000E+00 0.  1.
         21   -1    0    0  501  502  0.00000000000E+00 -0.00000000000E+00 -0.34322752731E+03  0.34322752731E+03  0.00000000000E+00 0. -1.
         23    2    1    2    0    0  0.18473394333E+03  0.80065046134E+02  0.16589497426E+03  0.27659585108E+03  0.91908002481E+02 0.  0.
         23    2    1    2    0    0 -0.11389270555E+03 -0.14852575871E+03 -0.16956742983E+03  0.26749206697E+03  0.88133099637E+02 0.  0.
        -11    1    4    4    0    0 -0.12532555890E+03 -0.12804670489E+03 -0.12952533533E+03  0.22108655960E+03  0.00000000000E+00 0.  1.
         11    1    4    4    0    0  0.11432853348E+02 -0.20479053822E+02 -0.40042094505E+02  0.46405507361E+02  0.00000000000E+00 0. -1.
        -13    1    3    3    0    0  0.15273654089E+03  0.77825401979E+02  0.17321240682E+03  0.24369608531E+03  0.00000000000E+00 0.  1.
         13    1    3    3    0    0  0.31997402438E+02  0.22396441546E+01 -0.73174325623E+01  0.32899765775E+02  0.00000000000E+00 0. -1.
         -3    1    1    2    0  502 -0.70841237780E+02  0.68460712575E+02 -0.34359156144E+02  0.10433552486E+03  0.00000000000E+00 0.  1.
<scales pt_clust_5="13000.00000" pt_clust_6="13000.00000" pt_clust_7="13000.00000" pt_clust_8="13000.00000" pt_clust_9="98.51574"></scales>
<clustering>
<clus scale="   88.133">  5  6 -1 -1</clus>
<clus scale="   91.908">  7  8 -1 -1</clus>
<clus scale="   98.516">  2  9  1 -1</clus>
<clus scale="  213.604">  2  5  1 -1</clus>
<clus scale="   98.516">  2  5  1 -1</clus>
</clustering>
</event>
<event>
 9    1  0.1315259E-005  0.1616065E+03  0.7546771E-02  0.1187099E+00
         21   -1    0    0  501  502  0.00000000000E+00  0.00000000000E+00  0.37565976718E+03  0.37565976718E+03  0.00000000000E+00 0. -1.
          2   -1    0    0  502    0 -0.00000000000E+00 -0.00000000000E+00 -0.14890173764E+03  0.14890173764E+03  0.00000000000E+00 0. -1.
         23    2    1    2    0    0  0.10585301245E+03 -0.38658237542E+01  0.15757687773E+02  0.14029918738E+03  0.90640787825E+02 0.  0.
         23    2    1    2    0    0 -0.18133827619E+03  0.41641291052E+02  0.66369445822E+02  0.21680155477E+03  0.89333326820E+02 0.  0.
        -11    1    4    4    0    0 -0.55784403856E+02  0.55983750559E+02  0.15286499291E+02  0.80496938456E+02  0.00000000000E+00 0. -1.
         11    1    4    4    0    0 -0.12555387233E+03 -0.14342459507E+02  0.51082946531E+02  0.13630461632E+03  0.00000000000E+00 0.  1.
        -13    1    3    3    0    0  0.70082637506E+02  0.34301244025E+02  0.33707304999E+02  0.84996081273E+02  0.00000000000E+00 0.  1.
         13    1    3    3    0    0  0.35770374939E+02 -0.38167067779E+02 -0.17949617226E+02  0.55303106104E+02  0.00000000000E+00 0. -1.
          2    1    1    2  501    0  0.75485263745E+02 -0.37775467298E+02  0.14463089595E+03  0.16746076267E+03  0.00000000000E+00 0. -1.
<scales pt_clust_5="13000.00000" pt_clust_6="13000.00000" pt_clust_7="13000.00000" pt_clust_8="13000.00000" pt_clust_9="84.40978"></scales>
<clustering>
<clus scale="   84.410">  1  9  2 -1</clus>
<clus scale="   89.333">  5  6 -1 -1</clus>
<clus scale="   90.641">  7  8 -1 -1</clus>
<clus scale="  160.877">  1  5  2 -1</clus>
<clus scale="   84.410">  1  5  2 -1</clus>
</clustering>
</event>
<event>
 9    1  0.3403134E-005  0.1173760E+03  0.7546771E-02  0.1255826E+00
         -1   -1    0    0    0  501 -0.00000000000E+00  0.00000000000E+00  0.42390662357E+03  0.42390662357E+03  0.00000000000E+00 0.  1.
         21   -1    0    0  501  502  0.00000000000E+00 -0.00000000000E+00 -0.11956507483E+03  0.11956507483E+03  0.00000000000E+00 0.  1.
         23    2    1    2    0    0  0.34817019301E+02  0.16323699207E+02  0.36537378629E+03  0.38353180244E+03  0.11009065259E+03 0.  0.
         23    2    1    2    0    0 -0.63164038721E+02 -0.18893157099E+02 -0.67329409777E+02  0.13078839511E+03  0.90695687333E+02 0.  0.
        -11    1    4    4    0    0  0.14998466107E+02 -0.22297983613E+02 -0.39449228621E+02  0.47732543380E+02  0.00000000000E+00 0.  1.
         11    1    4    4    0    0 -0.78162504828E+02  0.34048265138E+01 -0.27880181156E+02  0.83055851726E+02  0.00000000000E+00 0. -1.
        -13    1    3    3    0    0  0.57670999855E+02  0.37099896176E+01  0.34658320401E+03  0.35136821932E+03  0.00000000000E+00 0.  1.
         13    1    3    3    0    0 -0.22853980555E+02  0.12613709589E+02  0.18790582284E+02  0.32163583124E+02  0.00000000000E+00 0. -1.
         -1    1    1    2    0  502  0.28347019420E+02  0.25694578925E+01  0.62971722324E+01  0.29151500853E+02  0.00000000000E+00 0.  1.
<scales pt_clust_5="13000.00000" pt_clust_6="13000.00000" pt_clust_7="13000.00000" pt_clust_8="13000.00000" pt_clust_9="28.46323"></scales>
<clustering>
<clus scale="   28.463">  2  9  1 -1</clus>
<clus scale="   90.696">  5  6 -1 -1</clus>
<clus scale="   99.413">  2  5  1 -1</clus>
<clus scale="  110.091">  7  8 -1 -1</clus>
<clus scale="   28.463">  2  5  1 -1</clus>
</clustering>
</event>
<event>
 9    1  0.1315259E-005  0.1030169E+03  0.7546771E-02  0.1274493E+00
         21   -1    0    0  501  502  0.00000000000E+00  0.00000000000E+00  0.67722422522E+02  0.67722422522E+02  0.00000000000E+00 0. -1.
         -3   -1    0    0    0  501 -0.00000000000E+00 -0.00000000000E+00 -0.27124918726E+03  0.27124918726E+03  0.00000000000E+00 0.  1.
         23    2    1    2    0    0 -0.42944079781E+02  0.91842714952E+01 -0.17251221743E+03  0.20103758347E+03  0.93418948697E+02 0.  0.
         23    2    1    2    0    0  0.34776642780E+02 -0.30823122384E+02 -0.42738732123E+02  0.11200328385E+03  0.92513007799E+02 0.  0.
        -13    1    4    4    0    0 -0.32835876759E+01 -0.45061960270E+02  0.91473507045E+01  0.46098115323E+02  0.00000000000E+00 0. -1.
         13    1    4    4    0    0  0.38060230456E+02  0.14238837886E+02 -0.51886082828E+02  0.65905168522E+02  0.00000000000E+00 0.  1.
        -13    1    3    3    0    0 -0.94550910796E+01  0.47773595883E+02 -0.11001693302E+03  0.12031392589E+03  0.00000000000E+00 0. -1.
         13    1    3    3    0    0 -0.33488988702E+02 -0.38589324388E+02 -0.62495284405E+02  0.80723657585E+02  0.00000000000E+00 0.  1.
         -3    1    1    2    0  502  0.81674370009E+01  0.21638850889E+02  0.11724184815E+02  0.25930742460E+02  0.00000000000E+00 0.  1.
<scales pt_clust_5="13000.00000" pt_clust_6="13000.00000" pt_clust_7="13000.00000" pt_clust_8="13000.00000" pt_clust_9="23.12892"></scales>
<clustering>
<clus scale="   23.129">  1  9  2 -1</clus>
<clus scale="   92.513">  5  6 -1 -1</clus>
<clus scale="   93.419">  7  8 -1 -1</clus>
<clus scale="  102.196">  1  5  2 -1</clus>
<clus scale="   23.129">  1  5  2 -1</clus>
</clustering>
</event>
<event>
 9    1  0.1315259E-005  0.9494332E+02  0.7546771E-02  0.1292020E+00
         21   -1    0    0  501  502  0.00000000000E+00  0.00000000000E+00  0.62141132362E+03  0.62141132362E+03  0.00000000000E+00 0.  1.
          1   -1    0    0  502    0 -0.00000000000E+00 -0.00000000000E+00 -0.98325073598E+02  0.98325073598E+02  0.00000000000E+00 0. -1.
         23    2    1    2    0    0 -0.12249325484E+02 -0.10029962554E+02 -0.61177071146E+02  0.11290177791E+03  0.93560308347E+02 0.  0.
         23    2    1    2    0    0  0.37944762058E+02 -0.23686340361E+02  0.25491061716E+03  0.27476497574E+03  0.92279583137E+02 0.  0.
        -11    1    3    3    0    0 -0.50107607593E+02 -0.12434348271E+02 -0.16299371673E+02  0.54139217510E+02  0.00000000000E+00 0. -1.
         11    1    3    3    0    0  0.37858282109E+02  0.24043857172E+01 -0.44877699473E+02  0.58762560401E+02  0.00000000000E+00 0.  1.
        -11    1    4    4    0    0 -0.18629025897E+02 -0.39228130671E+02  0.12134653416E+03  0.12888315714E+03  0.00000000000E+00 0. -1.
         11    1    4    4    0    0  0.56573787955E+02  0.15541790310E+02  0.13356408299E+03  0.14588181859E+03  0.00000000000E+00 0.  1.
          1    1    1    2  501    0 -0.25695436575E+02  0.33716302915E+02  0.32935270401E+03  0.33206964357E+03  0.00000000000E+00 0. -1.
<scales pt_clust_5="13000.00000" pt_clust_6="13000.00000" pt_clust_7="13000.00000" pt_clust_8="13000.00000" pt_clust_9="42.39156"></scales>
<clustering>
<clus scale="   42.392">  1  9  2 -1</clus>
<clus scale="   92.280">  7  8 -1 -1</clus>
<clus scale="   93.560">  5  6 -1 -1</clus>
<clus scale="   93.682">  1  7  2 -1</clus>
<clus scale="   42.392">  1  5  2 -1</clus>
</clustering>
</event>
<event>
 9    1  0.1315259E-005  0.2420206E+03  0.7546771E-02  0.1118992E+00
         21   -1    0    0  501  502  0.00000000000E+00  0.00000000000E+00  0.29784286758E+03  0.29784286758E+03  0.00000000000E+00 0. -1.
         -4   -1    0    0    0  501 -0.00000000000E+00 -0.00000000000E+00 -0.36650798925E+03  0.36650798925E+03  0.00000000000E+00 0.  1.
         23    2    1    2    0    0 -0.11233713153E+03 -0.18655510707E+03 -0.23573768133E+03  0.33312857206E+03  0.89330577228E+02 0.  0.
         23    2    1    2    0    0  0.10903033471E+03  0.21140552919E+03  0.13471305524E+03  0.29028799705E+03  0.97670887765E+02 0.  0.
        -13    1    3    3    0    0 -0.73212430692E+02 -0.75113929545E+02 -0.58381896855E+02  0.12004419311E+03  0.00000000000E+00 0. -1.
         13    1    3    3    0    0 -0.39124700840E+02 -0.11144117752E+03 -0.17735578448E+03  0.21308437894E+03  0.00000000000E+00 0.  1.
        -13    1    4    4    0    0  0.30380731601E+02  0.10074889357E+03  0.11012787582E+03  0.15232031197E+03  0.00000000000E+00 0. -1.
         13    1    4    4    0    0  0.78649603109E+02  0.11065663563E+03  0.24585179425E+02  0.13796768507E+03  0.00000000000E+00 0.  1.
         -4    1    1    2    0  502  0.33067968226E+01 -0.24850422127E+02  0.32359504423E+02  0.40934287726E+02  0.00000000000E+00 0.  1.
<scales pt_clust_5="13000.00000" pt_clust_6="13000.00000" pt_clust_7="13000.00000" pt_clust_8="13000.00000" pt_clust_9="25.06947"></scales>
<clustering>
<clus scale="   25.069">  1  9  2 -1</clus>
<clus scale="   89.331">  5  6 -1 -1</clus>
<clus scale="   97.671">  7  8 -1 -1</clus>
<clus scale="  238.777">  2  5  1 -1</clus>
<clus scale="   25.069">  1  5  2 -1</clus>
</clustering>
</event>
<event>
 9    1  0.1315259E-005  0.1115968E+03  0.7546771E-02  0.1257744E+00
         21   -1    0    0  501  502  0.00000000000E+00  0.00000000000E+00  0.12777416506E+03  0.12777416506E+03  0.00000000000E+00 0.  1.
         -2   -1    0    0    0  501 -0.00000000000E+00 -0.00000000000E+00 -0.68065417672E+03  0.68065417672E+03  0.00000000000E+00 0.  1.
         23    2    1    2    0    0  0.53609358792E+02  0.36386870317E+01 -0.39004549000E+03  0.40419363060E+03  0.91377258412E+02 0.  0.
         23    2    1    2    0    0 -0.82930086875E+02 -0.15909517503E+02 -0.26745450959E+03  0.29489295223E+03  0.91101188335E+02 0.  0.
        -13    1    3    3    0    0  0.57623385113E+02  0.29102483850E+02 -0.35423861393E+03  0.36007277692E+03  0.00000000000E+00 0.  1.
         13    1    3    3    0    0 -0.40140263213E+01 -0.25463796818E+02 -0.35806876064E+02  0.44120853677E+02  0.00000000000E+00 0. -1.
        -13    1    4    4    0    0  0.98769380299E+01 -0.24337137586E+02 -0.30373443340E+02  0.40154653915E+02  0.00000000000E+00 0.  1.
         13    1    4    4    0    0 -0.92807024905E+02  0.84276200822E+01 -0.23708106625E+03  0.25473829831E+03  0.00000000000E+00 0. -1.
         -2    1    1    2    0  502  0.29320728084E+02  0.12270830472E+02  0.10461998793E+03  0.10934175895E+03  0.00000000000E+00 0.  1.
<scales pt_clust_5="13000.00000" pt_clust_6="13000.00000" pt_clust_7="13000.00000" pt_clust_8="13000.00000" pt_clust_9="31.78488"></scales>
<clustering>
<clus scale="   31.785">  1  9  2 -1</clus>
<clus scale="   91.101">  7  8 -1 -1</clus>
<clus scale="   91.377">  5  6 -1 -1</clus>
<clus scale="  111.371">  1  7  2 -1</clus>
<clus scale="   31.785">  1  5  2 -1</clus>
</clustering>
</event>
<event>
 9    1  0.1315259E-005  0.1472297E+03  0.7546771E-02  0.1204046E+00
         21   -1    0    0  501  502  0.00000000000E+00  0.00000000000E+00  0.26129630806E+03  0.26129630806E+03  0.00000000000E+00 0. -1.
          1   -1    0    0  502    0 -0.00000000000E+00 -0.00000000000E+00 -0.43329241264E+03  0.43329241264E+03  0.00000000000E+00 0. -1.
         23    2    1    2    0    0  0.12765058127E+03  0.42961873328E+02 -0.30065729663E+03  0.34189013205E+03  0.91398352920E+02 0.  0.
         23    2    1    2    0    0 -0.78621427184E+02 -0.26481289461E+02 -0.74023265466E+02  0.14351814761E+03  0.90749255417E+02 0.  0.
        -11    1    4    4    0    0 -0.28065377744E+02 -0.45963746499E+01  0.19844674317E+02  0.34678569558E+02  0.00000000000E+00 0. -1.
         11    1    4    4    0    0 -0.50556049440E+02 -0.21884914811E+02 -0.93867939782E+02  0.10883957805E+03  0.00000000000E+00 0.  1.
        -11    1    3    3    0    0  0.99031630119E+01  0.23553953156E+02 -0.13689663094E+03  0.13926072279E+03  0.00000000000E+00 0.  1.
         11    1    3    3    0    0  0.11774741826E+03  0.19407920172E+02 -0.16376066569E+03  0.20262940927E+03  0.00000000000E+00 0. -1.
          1    1    1    2  501    0 -0.49029154090E+02 -0.16480583867E+02  0.20268445752E+03  0.20918044104E+03  0.00000000000E+00 0. -1.
<scales pt_clust_5="13000.00000" pt_clust_6="13000.00000" pt_clust_7="13000.00000" pt_clust_8="13000.00000" pt_clust_9="51.72492"></scales>
<clustering>
<clus scale="   51.725">  1  9  2 -1</clus>
<clus scale="   90.749">  5  6 -1 -1</clus>
<clus scale="   91.398">  7  8 -1 -1</clus>
<clus scale="  146.828">  1  5  2 -1</clus>
<clus scale="   51.725">  1  5  2 -1</clus>
</clustering>
</event>
<event>
 9    1  0.1315259E-005  0.2161151E+03  0.7546771E-02  0.1136882E+00
          2   -1    0    0  502    0 -0.00000000000E+00  0.00000000000E+00  0.16812235599E+04  0.16812235599E+04  0.00000000000E+00 0. -1.
         21   -1    0    0  501  502  0.00000000000E+00 -0.00000000000E+00 -0.96522343690E+02  0.96522343690E+02  0.00000000000E+00 0. -1.
         23    2    1    2    0    0  0.23544962714E+03  0.15688595962E+02  0.12010347189E+04  0.12273273742E+04  0.90362760314E+02 0.  0.
         23    2    1    2    0    0 -0.14092564573E+03  0.45629225246E+02  0.40035580787E+03  0.43651861124E+03  0.91223139853E+02 0.  0.
        -13    1    3    3    0    0  0.46587460324E+02  0.26773154565E+02  0.14843444429E+03  0.15786062687E+03  0.00000000000E+00 0.  1.
         13    1    3    3    0    0  0.18886216682E+03 -0.11084558603E+02  0.10526002747E+04  0.10694667474E+04  0.00000000000E+00 0. -1.
        -13    1    4    4    0    0 -0.10538732673E+03 -0.64220668427E+01  0.19553251617E+03  0.22221767810E+03  0.00000000000E+00 0.  1.
         13    1    4    4    0    0 -0.35538319001E+02  0.52051292089E+02  0.20482329170E+03  0.21430093315E+03  0.00000000000E+00 0. -1.
          2    1    1    2  501    0 -0.94523981413E+02 -0.61317821208E+02 -0.16689310603E+02  0.11389991812E+03  0.00000000000E+00 0. -1.
<scales pt_clust_5="13000.00000" pt_clust_6="13000.00000" pt_clust_7="13000.00000" pt_clust_8="13000.00000" pt_clust_9="112.67057"></scales>
<clustering>
<clus scale="   90.363">  5  6 -1 -1</clus>
<clus scale="   91.223">  7  8 -1 -1</clus>
<clus scale="  112.671">  2  9  1 -1</clus>
<clus scale="  215.753">  1  5  2 -1</clus>
<clus scale="  112.671">  2  5  1 -1</clus>
</clustering>
</event>
<event>
 9    1  0.1315259E-005  0.1182195E+03  0.7546771E-02  0.1247949E+00
         21   -1    0    0  501  502  0.00000000000E+00  0.00000000000E+00  0.87902792719E+02  0.87902792719E+02  0.00000000000E+00 0. -1.
          1   -1    0    0  502    0 -0.00000000000E+00 -0.00000000000E+00 -0.42501088156E+03  0.42501088156E+03  0.00000000000E+00 0. -1.
         23    2    1    2    0    0 -0.39589728218E+02 -0.49191560039E+02 -0.32425469533E+03  0.34445115551E+03  0.97561954311E+02 0.  0.
         23    2    1    2    0    0  0.70220962035E+02  0.50551922622E+02 -0.34348718966E+02  0.13101693040E+03  0.92190678313E+02 0.  0.
        -11    1    3    3    0    0  0.31578574512E+02 -0.13503409298E+02 -0.69110384702E+02  0.77173788973E+02  0.00000000000E+00 0.  1.
         11    1    3    3    0    0 -0.71168302730E+02 -0.35688150742E+02 -0.25514431063E+03  0.26727736654E+03  0.00000000000E+00 0. -1.
        -13    1    4    4    0    0  0.43753967966E+02 -0.19249465375E+02 -0.29581680923E+02  0.56214121680E+02  0.00000000000E+00 0. -1.
         13    1    4    4    0    0  0.26466994068E+02  0.69801387996E+02 -0.47670380428E+01  0.74802808724E+02  0.00000000000E+00 0.  1.
          1    1    1    2  501    0 -0.30631233816E+02 -0.13603625822E+01  0.21495325457E+02  0.37445588364E+02  0.00000000000E+00 0. -1.
<scales pt_clust_5="13000.00000" pt_clust_6="13000.00000" pt_clust_7="13000.00000" pt_clust_8="13000.00000" pt_clust_9="30.66143"></scales>
<clustering>
<clus scale="   30.661">  1  9  2 -1</clus>
<clus scale="   92.191">  7  8 -1 -1</clus>
<clus scale="   97.562">  5  6 -1 -1</clus>
<clus scale="  113.827">  1  7  2 -1</clus>
<clus scale="   30.661">  1  5  2 -1</clus>
</clustering>
</event>
<event>
 9    1  0.1315259E-005  0.1013888E+03  0.7546771E-02  0.1277487E+00
         -1   -1    0    0    0  501 -0.00000000000E+00  0.00000000000E+00  0.98505025789E+02  0.98505025789E+02  0.00000000000E+00 0.  1.
         21   -1    0    0  501  502  0.00000000000E+00 -0.00000000000E+00 -0.34183822185E+03  0.34183822185E+03  0.00000000000E+00 0.  1.
         23    2    1    2    0    0  0.68072090483E+01 -0.44352902149E+02  0.19924740823E+02  0.10351573234E+03  0.91131737181E+02 0.  0.
         23    2    1    2    0    0 -0.44201299864E+02  0.31267033530E+02 -0.45019548716E+02  0.11502230333E+03  0.90950471142E+02 0.  0.
        -11    1    3    3    0    0 -0.32391347027E+02 -0.63051759522E+00  0.29742281488E+02  0.43979543230E+02  0.00000000000E+00 0.  1.
         11    1    3    3    0    0  0.39198556075E+02 -0.43722384554E+02 -0.98175406646E+01  0.59536189113E+02  0.00000000000E+00 0. -1.
        -13    1    4    4    0    0 -0.52384969917E+02  0.33067016282E+01 -0.62052543766E+02  0.81275073280E+02  0.00000000000E+00 0.  1.
         13    1    4    4    0    0  0.81836700536E+01  0.27960331902E+02  0.17032995049E+02  0.33747230049E+02  0.00000000000E+00 0. -1.
         -1    1    1    2    0  502  0.37394090815E+02  0.13085868619E+02 -0.21823838817E+03  0.22180521197E+03  0.00000000000E+00 0.  1.
<scales pt_clust_5="13000.00000" pt_clust_6="13000.00000" pt_clust_7="13000.00000" pt_clust_8="13000.00000" pt_clust_9="39.61765"></scales>
<clustering>
<clus scale="   39.618">  2  9  1 -1</clus>
<clus scale="   90.950">  7  8 -1 -1</clus>
<clus scale="   91.132">  5  6 -1 -1</clus>
<clus scale="  101.226">  2  7  1 -1</clus>
<clus scale="   39.618">  2  5  1 -1</clus>
</clustering>
</event>
<event>
 9    1  0.1315259E-005  0.1050867E+03  0.7546771E-02  0.1271017E+00
         21   -1    0    0  501  502  0.00000000000E+00  0.00000000000E+00  0.14103000298E+03  0.14103000298E+03  0.00000000000E+00 0. -1.
          1   -1    0    0  502    0 -0.00000000000E+00 -0.00000000000E+00 -0.25092346732E+03  0.25092346732E+03  0.00000000000E+00 0. -1.
         23    2    1    2    0    0 -0.20463681329E+01  0.20176183023E+02 -0.79888736606E+02  0.12575584654E+03  0.94979243621E+02 0.  0.
         23    2    1    2    0    0  0.49860847427E+02 -0.57737762215E+02 -0.11199235045E+03  0.16412379294E+03  0.92599025687E+02 0.  0.
        -11    1    3    3    0    0  0.21188927957E+02 -0.23852528203E+01 -0.89474665946E+02  0.91980301941E+02  0.00000000000E+00 0. -1.
         11    1    3    3    0    0 -0.23235296090E+02  0.22561435843E+02  0.95859293401E+01  0.33775544600E+02  0.00000000000E+00 0.  1.
        -11    1    4    4    0    0  0.39224663950E+02  0.12757283743E+02 -0.70377416924E+02  0.81573913498E+02  0.00000000000E+00 0.  1.
         11    1    4    4    0    0  0.10636183477E+02 -0.70495045958E+02 -0.41614933524E+02  0.82549879441E+02  0.00000000000E+00 0. -1.
          1    1    1    2  501    0 -0.47814479294E+02  0.37561579192E+02  0.81987622714E+02  0.10207383083E+03  0.00000000000E+00 0. -1.
<scales pt_clust_5="13000.00000" pt_clust_6="13000.00000" pt_clust_7="13000.00000" pt_clust_8="13000.00000" pt_clust_9="60.80376"></scales>
<clustering>
<clus scale="   60.804">  1  9  2 -1</clus>
<clus scale="   92.599">  7  8 -1 -1</clus>
<clus scale="   94.979">  5  6 -1 -1</clus>
<clus scale="  102.940">  1  7  2 -1</clus>
<clus scale="   60.804">  1  5  2 -1</clus>
</clustering>
</event>
<event>
 9    1  0.1315259E-005  0.1036196E+03  0.7546771E-02  0.1272911E+00
         -1   -1    0    0    0  501 -0.00000000000E+00  0.00000000000E+00  0.15474857367E+03  0.15474857367E+03  0.00000000000E+00 0.  1.
         21   -1    0    0  501  502  0.00000000000E+00 -0.00000000000E+00 -0.23388945337E+03  0.23388945337E+03  0.00000000000E+00 0. -1.
         23    2    1    2    0    0  0.45901897109E+02 -0.10913930036E+02  0.11234139037E+03  0.15210079634E+03  0.91038267942E+02 0.  0.
         23    2    1    2    0    0 -0.64317947101E+02  0.23489939048E+02 -0.14001901993E+03  0.18045003951E+03  0.90930276922E+02 0.  0.
        -11    1    3    3    0    0 -0.18627735058E+02  0.98291402734E+01  0.67795288376E+02  0.70991588501E+02  0.00000000000E+00 0.  1.
         11    1    3    3    0    0  0.64529632167E+02 -0.20743070309E+02  0.44546101995E+02  0.81109207840E+02  0.00000000000E+00 0. -1.
        -13    1    4    4    0    0  0.14339056889E+02 -0.15447726095E+02 -0.93885913049E+01  0.23073500832E+02  0.00000000000E+00 0.  1.
         13    1    4    4    0    0 -0.78657003989E+02  0.38937665143E+02 -0.13063042863E+03  0.15737653868E+03  0.00000000000E+00 0. -1.
         -1    1    1    2    0  502  0.18416049992E+02 -0.12576009012E+02 -0.51463250147E+02  0.56087191191E+02  0.00000000000E+00 0.  1.
<scales pt_clust_5="13000.00000" pt_clust_6="13000.00000" pt_clust_7="13000.00000" pt_clust_8="13000.00000" pt_clust_9="22.30038"></scales>
<clustering>
<clus scale="   22.300">  2  9  1 -1</clus>
<clus scale="   90.930">  7  8 -1 -1</clus>
<clus scale="   91.038">  5  6 -1 -1</clus>
<clus scale="  103.525">  2  7  1 -1</clus>
<clus scale="   22.300">  2  5  1 -1</clus>
</clustering>
</event>
<event>
 9    1  0.1315259E-005  0.1154882E+03  0.7546771E-02  0.1251818E+00
          2   -1    0    0  502    0 -0.00000000000E+00  0.00000000000E+00  0.69945545689E+03  0.69945545689E+03  0.00000000000E+00 0. -1.
         21   -1    0    0  501  502  0.00000000000E+00 -0.00000000000E+00 -0.65809369352E+02  0.65809369352E+02  0.00000000000E+00 0. -1.
         23    2    1    2    0    0 -0.59999652142E+02  0.14396019487E+02  0.30776662826E+03  0.32611635666E+03  0.88455508471E+02 0.  0.
         23    2    1    2    0    0  0.69426023921E+02 -0.42791975936E+02  0.36776456679E+03  0.38767469899E+03  0.91595685739E+02 0.  0.
        -11    1    4    4    0    0  0.16894522125E+01 -0.51145539537E+02  0.20263447553E+03  0.20899629455E+03  0.00000000000E+00 0.  1.
         11    1    4    4    0    0  0.67736571708E+02  0.83535636011E+01  0.16513009126E+03  0.17867840444E+03  0.00000000000E+00 0. -1.
        -11    1    3    3    0    0 -0.32536527912E+02 -0.29214678307E+02  0.67802715920E+02  0.80680427387E+02  0.00000000000E+00 0.  1.
         11    1    3    3    0    0 -0.27463124230E+02  0.43610697795E+02  0.23996391234E+03  0.24543592928E+03  0.00000000000E+00 0. -1.
          2    1    1    2  501    0 -0.94263717787E+01  0.28395956449E+02 -0.41885107513E+02  0.51473770592E+02  0.00000000000E+00 0. -1.
<scales pt_clust_5="13000.00000" pt_clust_6="13000.00000" pt_clust_7="13000.00000" pt_clust_8="13000.00000" pt_clust_9="29.91967"></scales>
<clustering>
<clus scale="   29.920">  2  9  1 -1</clus>
<clus scale="   88.456">  7  8 -1 -1</clus>
<clus scale="   91.596">  5  6 -1 -1</clus>
<clus scale="  113.014">  1  7  2 -1</clus>
<clus scale="   29.920">  2  5  1 -1</clus>
</clustering>
</event>
<event>
 9    1  0.1315259E-005  0.1513192E+03  0.7546771E-02  0.1199169E+00
          2   -1    0    0  502    0 -0.00000000000E+00  0.00000000000E+00  0.24677637162E+03  0.24677637162E+03  0.00000000000E+00 0. -1.
         21   -1    0    0  501  502  0.00000000000E+00 -0.00000000000E+00 -0.12207485605E+03  0.12207485605E+03  0.00000000000E+00 0. -1.
         23    2    1    2    0    0  0.98331010364E+02 -0.37793687997E+02  0.73811854419E+02  0.15853314570E+03  0.92667243303E+02 0.  0.
         23    2    1    2    0    0 -0.13213082310E+03  0.47907607912E+02  0.51002271446E+02  0.17503733088E+03  0.91011769560E+02 0.  0.
        -11    1    4    4    0    0 -0.42852519841E+02  0.55986568710E+02 -0.26702258874E+01  0.70554691119E+02  0.00000000000E+00 0.  1.
         11    1    4    4    0    0 -0.89278303260E+02 -0.80789607983E+01  0.53672497333E+02  0.10448263976E+03  0.00000000000E+00 0. -1.
        -11    1    3    3    0    0 -0.57419995443E+00 -0.24352787927E+02 -0.11768613084E+02  0.27053433042E+02  0.00000000000E+00 0.  1.
         11    1    3    3    0    0  0.98905210319E+02 -0.13440900070E+02  0.85580467503E+02  0.13147971266E+03  0.00000000000E+00 0. -1.
          2    1    1    2  501    0  0.33799812736E+02 -0.10113919914E+02 -0.11261029179E+00  0.35280751099E+02  0.00000000000E+00 0. -1.
<scales pt_clust_5="13000.00000" pt_clust_6="13000.00000" pt_clust_7="13000.00000" pt_clust_8="13000.00000" pt_clust_9="35.28057"></scales>
<clustering>
<clus scale="   35.281">  2  9  1 -1</clus>
<clus scale="   91.012">  5  6 -1 -1</clus>
<clus scale="   92.667">  7  8 -1 -1</clus>
<clus scale="  150.311">  2  5  1 -1</clus>
<clus scale="   35.281">  2  5  1 -1</clus>
</clustering>
</event>
<event>
 9    1  0.1315259E-005  0.1062750E+03  0.7546771E-02  0.1268179E+00
         21   -1    0    0  501  502  0.00000000000E+00  0.00000000000E+00  0.42078839397E+02  0.42078839397E+02  0.00000000000E+00 0.  1.
          2   -1    0    0  502    0 -0.00000000000E+00 -0.00000000000E+00 -0.68929026178E+03  0.68929026178E+03  0.00000000000E+00 0. -1.
         23    2    1    2    0    0 -0.51750199273E+02  0.15357801653E+02 -0.38444410578E+03  0.39873537775E+03  0.90987283759E+02 0.  0.
         23    2    1    2    0    0  0.66720239451E+02  0.54114669661E+02 -0.11769507782E+03  0.17108967111E+03  0.89663573384E+02 0.  0.
        -11    1    3    3    0    0 -0.35381171630E+02  0.53325909315E+02 -0.21519744563E+03  0.22451151533E+03  0.00000000000E+00 0.  1.
         11    1    3    3    0    0 -0.16369027643E+02 -0.37968107662E+02 -0.16924666014E+03  0.17422386242E+03  0.00000000000E+00 0. -1.
        -13    1    4    4    0    0  0.24689171414E+02  0.66893106106E+02 -0.39797034374E+02  0.81658109056E+02  0.00000000000E+00 0.  1.
         13    1    4    4    0    0  0.42031068037E+02 -0.12778436445E+02 -0.77898043450E+02  0.89431562056E+02  0.00000000000E+00 0. -1.
          2    1    1    2  501    0 -0.14970040178E+02 -0.69472471315E+02 -0.14507223878E+03  0.16154405231E+03  0.00000000000E+00 0. -1.
<scales pt_clust_5="13000.00000" pt_clust_6="13000.00000" pt_clust_7="13000.00000" pt_clust_8="13000.00000" pt_clust_9="71.06709"></scales>
<clustering>
<clus scale="   71.067">  1  9  2 -1</clus>
<clus scale="   89.664">  7  8 -1 -1</clus>
<clus scale="   90.987">  5  6 -1 -1</clus>
<clus scale="  105.144">  1  7  2 -1</clus>
<clus scale="   71.067">  1  5  2 -1</clus>
</clustering>
</event>
<event>
 9    1  0.1315259E-005  0.1103927E+03  0.7546771E-02  0.1260031E+00
          1   -1    0    0  502    0 -0.00000000000E+00  0.00000000000E+00  0.16980024922E+03  0.16980024922E+03  0.00000000000E+00 0. -1.
         21   -1    0    0  501  502  0.00000000000E+00 -0.00000000000E+00 -0.11149839535E+03  0.11149839535E+03  0.00000000000E+00 0.  1.
         23    2    1    2    0    0  0.34235606264E+02 -0.43398003502E+02  0.69471020933E+02  0.12673383004E+03  0.90442122277E+02 0.  0.
         23    2    1    2    0    0 -0.46061236813E+02  0.60023036111E+02  0.17288289977E+02  0.11954961628E+03  0.90933070896E+02 0.  0.
        -11    1    4    4    0    0 -0.50670372726E+02  0.32314017985E+01 -0.16401184132E+02  0.53356606627E+02  0.00000000000E+00 0. -1.
         11    1    4    4    0    0  0.46091359129E+01  0.56791634313E+02  0.33689474110E+02  0.66193009658E+02  0.00000000000E+00 0.  1.
        -11    1    3    3    0    0  0.21106448969E+02 -0.11005396383E+02  0.85158415733E+02  0.88422602923E+02  0.00000000000E+00 0. -1.
         11    1    3    3    0    0  0.13129157295E+02 -0.32392607120E+02 -0.15687394800E+02  0.38311227113E+02  0.00000000000E+00 0.  1.
          1    1    1    2  501    0  0.11825630549E+02 -0.16625032609E+02 -0.28457457046E+02  0.35015198252E+02  0.00000000000E+00 0. -1.
<scales pt_clust_5="13000.00000" pt_clust_6="13000.00000" pt_clust_7="13000.00000" pt_clust_8="13000.00000" pt_clust_9="20.40189"></scales>
<clustering>
<clus scale="   20.402">  2  9  1 -1</clus>
<clus scale="   90.442">  7  8 -1 -1</clus>
<clus scale="   90.933">  5  6 -1 -1</clus>
<clus scale="  109.989">  1  7  2 -1</clus>
<clus scale="   20.402">  2  5  1 -1</clus>
</clustering>
</event>
<event>
 9    1  0.1315259E-005  0.1728743E+03  0.7546771E-02  0.1176359E+00
         21   -1    0    0  501  502  0.00000000000E+00  0.00000000000E+00  0.51673195690E+02  0.51673195690E+02  0.00000000000E+00 0.  1.
          2   -1    0    0  502    0 -0.00000000000E+00 -0.00000000000E+00 -0.11065239667E+04  0.11065239667E+04  0.00000000000E+00 0. -1.
         23    2    1    2    0    0 -0.10253810075E+03  0.56903406722E+02 -0.50442542189E+03  0.52576847969E+03  0.90749259955E+02 0.  0.
         23    2    1    2    0    0  0.16311127299E+03 -0.11598845911E+03 -0.43465336857E+03  0.48902957498E+03  0.10083533298E+03 0.  0.
        -11    1    4    4    0    0  0.51364341749E+02 -0.52824999124E+02 -0.66911519817E+02  0.99528526665E+02  0.00000000000E+00 0.  1.
         11    1    4    4    0    0  0.11174693124E+03 -0.63163459985E+02 -0.36774184875E+03  0.38950104832E+03  0.00000000000E+00 0. -1.
        -13    1    3    3    0    0 -0.73740829948E+02  0.81284053915E+02 -0.35019133044E+03  0.36698606968E+03  0.00000000000E+00 0. -1.
         13    1    3    3    0    0 -0.28797270805E+02 -0.24380647193E+02 -0.15423409145E+03  0.15878241001E+03  0.00000000000E+00 0.  1.
          2    1    1    2  501    0 -0.60573172238E+02  0.59085052388E+02 -0.11577198051E+03  0.14339910767E+03  0.00000000000E+00 0. -1.
<scales pt_clust_5="13000.00000" pt_clust_6="13000.00000" pt_clust_7="13000.00000" pt_clust_8="13000.00000" pt_clust_9="84.61768"></scales>
<clustering>
<clus scale="   84.618">  1  9  2 -1</clus>
<clus scale="   90.749">  7  8 -1 -1</clus>
<clus scale="  100.835">  5  6 -1 -1</clus>
<clus scale="  167.192">  2  7  1 -1</clus>
<clus scale="   84.618">  1  5  2 -1</clus>
</clustering>
</event>
<event>
 9    1  0.1315259E-005  0.1365081E+03  0.7546771E-02  0.1220045E+00
         21   -1    0    0  501  502  0.00000000000E+00  0.00000000000E+00  0.15403938386E+03  0.15403938386E+03  0.00000000000E+00 0.  1.
          2   -1    0    0  502    0 -0.00000000000E+00 -0.00000000000E+00 -0.20231810515E+03  0.20231810515E+03  0.00000000000E+00 0. -1.
         23    2    1    2    0    0  0.91357833386E+02 -0.15571267652E+02 -0.10816311506E+03  0.17244698591E+03  0.97211035345E+02 0.  0.
         23    2    1    2    0    0 -0.10862157701E+03 -0.78705235812E+01  0.63558576200E+02  0.15456678083E+03  0.89390183987E+02 0.  0.
        -11    1    3    3    0    0  0.43122756823E+02  0.16878237095E+02  0.36213205464E+01  0.46449553345E+02  0.00000000000E+00 0.  1.
         11    1    3    3    0    0  0.48235076563E+02 -0.32449504747E+02 -0.11178443560E+03  0.12599743256E+03  0.00000000000E+00 0. -1.
        -13    1    4    4    0    0 -0.85133770637E+02 -0.35623053981E+02  0.72227012749E+02  0.11719002623E+03  0.00000000000E+00 0.  1.
         13    1    4    4    0    0 -0.23487806377E+02  0.27752530400E+02 -0.86684365494E+01  0.37376754597E+02  0.00000000000E+00 0. -1.
          2    1    1    2  501    0  0.17263743628E+02  0.23441791233E+02 -0.36741824349E+01  0.29343722273E+02  0.00000000000E+00 0. -1.
<scales pt_clust_5="13000.00000" pt_clust_6="13000.00000" pt_clust_7="13000.00000" pt_clust_8="13000.00000" pt_clust_9="29.11279"></scales>
<clustering>
<clus scale="   29.113">  1  9  2 -1</clus>
<clus scale="   89.390">  7  8 -1 -1</clus>
<clus scale="   97.211">  5  6 -1 -1</clus>
<clus scale="  131.054">  1  7  2 -1</clus>
<clus scale="   29.113">  1  5  2 -1</clus>
</clustering>
</event>
<event>
 9    1  0.1315259E-005  0.1010983E+03  0.7546771E-02  0.1278193E+00
         21   -1    0    0  501  502  0.00000000000E+00  0.00000000000E+00  0.24310810211E+03  0.24310810211E+03  0.00000000000E+00 0. -1.
         -1   -1    0    0    0  501 -0.00000000000E+00 -0.00000000000E+00 -0.23608402653E+03  0.23608402653E+03  0.00000000000E+00 0.  1.
         23    2    1    2    0    0  0.28020775478E+02  0.30978819654E+02 -0.19206935334E+03  0.21651662786E+03  0.90796269311E+02 0.  0.
         23    2    1    2    0    0 -0.73575086021E+02 -0.34683942787E+02  0.11716790405E+03  0.16886337591E+03  0.90389450796E+02 0.  0.
        -11    1    4    4    0    0 -0.55264323554E+01 -0.49680117302E+02  0.34453866811E+02  0.60710167583E+02  0.00000000000E+00 0.  1.
         11    1    4    4    0    0 -0.68048653665E+02  0.14996174515E+02  0.82714037241E+02  0.10815320833E+03  0.00000000000E+00 0. -1.
        -13    1    3    3    0    0  0.55577634507E+02  0.41513782896E+02 -0.11943502145E+03  0.13811948442E+03  0.00000000000E+00 0.  1.
         13    1    3    3    0    0 -0.27556859029E+02 -0.10534963242E+02 -0.72634331887E+02  0.78397143435E+02  0.00000000000E+00 0. -1.
         -1    1    1    2    0  502  0.45554310543E+02  0.37051231330E+01  0.81925524868E+02  0.93812124864E+02  0.00000000000E+00 0.  1.
<scales pt_clust_5="13000.00000" pt_clust_6="13000.00000" pt_clust_7="13000.00000" pt_clust_8="13000.00000" pt_clust_9="45.70474"></scales>
<clustering>
<clus scale="   45.705">  1  9  2 -1</clus>
<clus scale="   90.389">  5  6 -1 -1</clus>
<clus scale="   90.796">  7  8 -1 -1</clus>
<clus scale="  100.733">  1  5  2 -1</clus>
<clus scale="   45.705">  1  5  2 -1</clus>
</clustering>
</event>
<event>
 9    1  0.1315259E-005  0.9462955E+02  0.7546771E-02  0.1292880E+00
          2   -1    0    0  502    0 -0.00000000000E+00  0.00000000000E+00  0.33689968493E+03  0.33689968493E+03  0.00000000000E+00 0. -1.
         21   -1    0    0  501  502  0.00000000000E+00 -0.00000000000E+00 -0.16063974106E+03  0.16063974106E+03  0.00000000000E+00 0. -1.
         23    2    1    2    0    0 -0.13329542935E+02 -0.22046058577E+02  0.26643996544E+03  0.28298023626E+03  0.91781553241E+02 0.  0.
         23    2    1    2    0    0  0.24365175762E+02 -0.42515994578E+01  0.24244894725E+02  0.96633732438E+02  0.90213776314E+02 0.  0.
        -11    1    3    3    0    0 -0.45942836571E+02 -0.17684005089E+02  0.22364033812E+03  0.22899447396E+03  0.00000000000E+00 0. -1.
         11    1    3    3    0    0  0.32613293637E+02 -0.43620534884E+01  0.42799627316E+02  0.53985762297E+02  0.00000000000E+00 0.  1.
        -13    1    4    4    0    0 -0.30312654997E+02 -0.79142720355E+01  0.27570174059E+02  0.41732568247E+02  0.00000000000E+00 0. -1.
         13    1    4    4    0    0  0.54677830759E+02  0.36626725776E+01 -0.33252793341E+01  0.54901164192E+02  0.00000000000E+00 0.  1.
          2    1    1    2  501    0 -0.11035632828E+02  0.26297658035E+02 -0.11442491629E+03  0.11792545729E+03  0.00000000000E+00 0. -1.
<scales pt_clust_5="13000.00000" pt_clust_6="13000.00000" pt_clust_7="13000.00000" pt_clust_8="13000.00000" pt_clust_9="28.51933"></scales>
<clustering>
<clus scale="   28.519">  2  9  1 -1</clus>
<clus scale="   90.214">  7  8 -1 -1</clus>
<clus scale="   91.782">  5  6 -1 -1</clus>
<clus scale="   93.110">  2  7  1 -1</clus>
<clus scale="   28.519">  2  5  1 -1</clus>
</clustering>
</event>
<event>
 9    1  0.1315259E-005  0.9247882E+02  0.7546771E-02  0.1298756E+00
         21   -1    0    0  501  502  0.00000000000E+00  0.00000000000E+00  0.14322341936E+03  0.14322341936E+03  0.00000000000E+00 0.  1.
         -3   -1    0    0    0  501 -0.00000000000E+00 -0.00000000000E+00 -0.13687931726E+03  0.13687931726E+03  0.00000000000E+00 0.  1.
         23    2    1    2    0    0  0.61056699740E+01  0.22661348868E+00 -0.76984268887E+02  0.11815234899E+03  0.89420743431E+02 0.  0.
         23    2    1    2    0    0  0.14469849433E+02  0.94058286681E+01  0.22048753556E+02  0.96594994187E+02  0.92447818866E+02 0.  0.
        -11    1    4    4    0    0  0.37152996634E+02 -0.28759803274E+02 -0.90075425052E-01  0.46983822288E+02  0.00000000000E+00 0.  1.
         11    1    4    4    0    0 -0.22683147201E+02  0.38165631942E+02  0.22138828981E+02  0.49611171899E+02  0.00000000000E+00 0. -1.
        -13    1    3    3    0    0  0.32421160009E+02 -0.27798183052E+02 -0.65203020815E+02  0.77944239818E+02  0.00000000000E+00 0.  1.
         13    1    3    3    0    0 -0.26315490035E+02  0.28024796541E+02 -0.11781248071E+02  0.40208109170E+02  0.00000000000E+00 0. -1.
         -3    1    1    2    0  502 -0.20575519407E+02 -0.96324421568E+01  0.61279617432E+02  0.65355393453E+02  0.00000000000E+00 0.  1.
<scales pt_clust_5="13000.00000" pt_clust_6="13000.00000" pt_clust_7="13000.00000" pt_clust_8="13000.00000" pt_clust_9="22.71863"></scales>
<clustering>
<clus scale="   22.719">  1  9  2 -1</clus>
<clus scale="   89.421">  7  8 -1 -1</clus>
<clus scale="   89.453">  2  7  1 -1</clus>
<clus scale="   92.448">  5  6 -1 -1</clus>
<clus scale="   22.719">  1  5  2 -1</clus>
</clustering>
</event>
<event>
 9    1  0.1315259E-005  0.1883053E+03  0.7546771E-02  0.1160301E+00
          3   -1    0    0  502    0 -0.00000000000E+00  0.00000000000E+00  0.83209947930E+03  0.83209947930E+03  0.00000000000E+00 0. -1.
         21   -1    0    0  501  502  0.00000000000E+00 -0.00000000000E+00 -0.19477891086E+03  0.19477891086E+03  0.00000000000E+00 0.  1.
         23    2    1    2    0    0  0.77155261815E+02 -0.14541940574E+03  0.68032173422E+03  0.70615530356E+03  0.93369763319E+02 0.  0.
         23    2    1    2    0    0 -0.89881544611E+02  0.95230800705E+02 -0.13763616832E+03  0.21284983665E+03  0.95988231936E+02 0.  0.
        -11    1    3    3    0    0  0.85515164366E+02 -0.95884782235E+02  0.57875878368E+03  0.59284775828E+03  0.00000000000E+00 0.  1.
         11    1    3    3    0    0 -0.83599025519E+01 -0.49534623510E+02  0.10156295053E+03  0.11330754528E+03  0.00000000000E+00 0. -1.
        -11    1    4    4    0    0  0.12126059681E+02  0.23127713783E+02 -0.60856440613E+02  0.66222645917E+02  0.00000000000E+00 0.  1.
         11    1    4    4    0    0 -0.10200760429E+03  0.72103086922E+02 -0.76779727703E+02  0.14662719074E+03  0.00000000000E+00 0. -1.
          3    1    1    2  501    0  0.12726282796E+02  0.50188605040E+02  0.94635002537E+02  0.10787324995E+03  0.00000000000E+00 0. -1.
<scales pt_clust_5="13000.00000" pt_clust_6="13000.00000" pt_clust_7="13000.00000" pt_clust_8="13000.00000" pt_clust_9="51.77699"></scales>
<clustering>
<clus scale="   51.777">  2  9  1 -1</clus>
<clus scale="   93.370">  5  6 -1 -1</clus>
<clus scale="   95.988">  7  8 -1 -1</clus>
<clus scale="  186.984">  1  5  2 -1</clus>
<clus scale="   51.777">  2  5  1 -1</clus>
</clustering>
</event>
<event>
 9    1  0.1315259E-005  0.1870170E+03  0.7546771E-02  0.1161649E+00
         21   -1    0    0  501  502  0.00000000000E+00  0.00000000000E+00  0.15190651824E+03  0.15190651824E+03  0.00000000000E+00 0.  1.
         -4   -1    0    0    0  501 -0.00000000000E+00 -0.00000000000E+00 -0.37486712473E+03  0.37486712473E+03  0.00000000000E+00 0.  1.
         23    2    1    2    0    0  0.46707420655E+02  0.19233185002E+03 -0.18468643500E+03  0.28474608233E+03  0.88307012501E+02 0.  0.
         23    2    1    2    0    0 -0.35421419532E+02 -0.11946438798E+03 -0.58063482230E+02  0.16568191463E+03  0.92480873207E+02 0.  0.
        -13    1    4    4    0    0 -0.36779593395E+02 -0.17406923087E+02  0.11355350036E+02  0.42245513799E+02  0.00000000000E+00 0.  1.
         13    1    4    4    0    0  0.13581738636E+01 -0.10205746489E+03 -0.69418832267E+02  0.12343640083E+03  0.00000000000E+00 0. -1.
        -13    1    3    3    0    0  0.13629795272E+00  0.14440796533E+03 -0.15430844637E+03  0.21134042597E+03  0.00000000000E+00 0.  1.
         13    1    3    3    0    0  0.46571122702E+02  0.47923884688E+02 -0.30377988629E+02  0.73405656366E+02  0.00000000000E+00 0. -1.
         -4    1    1    2    0  502 -0.11286001123E+02 -0.72867462040E+02  0.19789310747E+02  0.76345646014E+02  0.00000000000E+00 0.  1.
<scales pt_clust_5="13000.00000" pt_clust_6="13000.00000" pt_clust_7="13000.00000" pt_clust_8="13000.00000" pt_clust_9="73.73629"></scales>
<clustering>
<clus scale="   73.736">  1  9  2 -1</clus>
<clus scale="   88.307">  7  8 -1 -1</clus>
<clus scale="   92.481">  5  6 -1 -1</clus>
<clus scale="  184.989">  2  7  1 -1</clus>
<clus scale="   73.736">  1  5  2 -1</clus>
</clustering>
</event>
<event>
 9    1  0.1593839E-005  0.9964414E+02  0.7546771E-02  0.1281254E+00
         -4   -1    0    0    0  501 -0.00000000000E+00  0.00000000000E+00  0.50583873449E+03  0.50583873449E+03  0.00000000000E+00 0.  1.
         21   -1    0    0  501  502  0.00000000000E+00 -0.00000000000E+00 -0.15343478401E+03  0.15343478401E+03  0.00000000000E+00 0.  1.
         23    2    1    2    0    0 -0.41671611715E+02 -0.15655174501E+02  0.38434162410E+03  0.39740128911E+03  0.90706630716E+02 0.  0.
         23    2    1    2    0    0  0.30291118301E+02 -0.57205132943E+01  0.93476171535E+02  0.13414177799E+03  0.91136961968E+02 0.  0.
        -11    1    4    4    0    0 -0.22517553758E+02  0.17446244330E+02  0.62492673686E+02  0.68678569678E+02  0.00000000000E+00 0.  1.
         11    1    4    4    0    0  0.52808672059E+02 -0.23166757625E+02  0.30983497848E+02  0.65463208311E+02  0.00000000000E+00 0. -1.
        -11    1    3    3    0    0 -0.51487225519E+02 -0.45830334984E+02  0.27865112870E+03  0.28705017945E+03  0.00000000000E+00 0.  1.
         11    1    3    3    0    0  0.98156138035E+01  0.30175160483E+02  0.10569049541E+03  0.11035110966E+03  0.00000000000E+00 0. -1.
         -4    1    1    2    0  502  0.11380493415E+02  0.21375687795E+02 -0.12541384516E+03  0.12773045140E+03  0.00000000000E+00 0.  1.
<scales pt_clust_5="13000.00000" pt_clust_6="13000.00000" pt_clust_7="13000.00000" pt_clust_8="13000.00000" pt_clust_9="24.21643"></scales>
<clustering>
<clus scale="   24.216">  2  9  1 -1</clus>
<clus scale="   90.707">  7  8 -1 -1</clus>
<clus scale="   91.137">  5  6 -1 -1</clus>
<clus scale="   99.251">  1  7  2 -1</clus>
<clus scale="   24.216">  2  5  1 -1</clus>
</clustering>
</event>
<event>
 9    1  0.1315259E-005  0.9735909E+02  0.7546771E-02  0.1286210E+00
         -3   -1    0    0    0  501 -0.00000000000E+00  0.00000000000E+00  0.39218361596E+03  0.39218361596E+03  0.00000000000E+00 0.  1.
         21   -1    0    0  501  502  0.00000000000E+00 -0.00000000000E+00 -0.14437735354E+03  0.14437735354E+03  0.00000000000E+00 0.  1.
         23    2    1    2    0    0 -0.44376699990E+01  0.41829962036E+02  0.22495826549E+03  0.24627897122E+03  0.90981711442E+02 0.  0.
         23    2    1    2    0    0 -0.16745472996E+02 -0.24139612510E+02  0.14036946808E+03  0.16956344048E+03  0.90471216532E+02 0.  0.
        -13    1    3    3    0    0 -0.43764097661E+02  0.34225534524E+02  0.16559224483E+03  0.17466389153E+03  0.00000000000E+00 0.  1.
         13    1    3    3    0    0  0.39326427662E+02  0.76044275116E+01  0.59366020661E+02  0.71615079694E+02  0.00000000000E+00 0. -1.
        -13    1    4    4    0    0 -0.37118055967E+02 -0.10972138628E+02  0.14005389214E+03  0.14530392496E+03  0.00000000000E+00 0.  1.
         13    1    4    4    0    0  0.20372582970E+02 -0.13167473881E+02  0.31557594189E+00  0.24259515524E+02  0.00000000000E+00 0. -1.
         -3    1    1    2    0  502  0.21183142995E+02 -0.17690349526E+02 -0.11752147115E+03  0.12071855779E+03  0.00000000000E+00 0.  1.
<scales pt_clust_5="13000.00000" pt_clust_6="13000.00000" pt_clust_7="13000.00000" pt_clust_8="13000.00000" pt_clust_9="27.59844"></scales>
<clustering>
<clus scale="   27.598">  2  9  1 -1</clus>
<clus scale="   90.471">  7  8 -1 -1</clus>
<clus scale="   90.982">  5  6 -1 -1</clus>
<clus scale="   96.882">  2  7  1 -1</clus>
<clus scale="   27.598">  2  5  1 -1</clus>
</clustering>
</event>
<event>
 9    1  0.1315259E-005  0.1410056E+03  0.7546771E-02  0.1212085E+00
         21   -1    0    0  501  502  0.00000000000E+00  0.00000000000E+00  0.34501242208E+03  0.34501242208E+03  0.00000000000E+00 0. -1.
          1   -1    0    0  502    0 -0.00000000000E+00 -0.00000000000E+00 -0.19505132689E+03  0.19505132689E+03  0.00000000000E+00 0. -1.
         23    2    1    2    0    0  0.64829770405E+02  0.94505354152E+02 -0.12637999357E+03  0.19313199025E+03  0.90520173386E+02 0.  0.
         23    2    1    2    0    0 -0.76623760891E+02 -0.19747562002E+02  0.22664560733E+03  0.25639189692E+03  0.90041138093E+02 0.  0.
        -13    1    4    4    0    0 -0.50984583788E+02  0.13411736648E+02  0.43023424901E+02  0.68046436749E+02  0.00000000000E+00 0.  1.
         13    1    4    4    0    0 -0.25639177103E+02 -0.33159298650E+02  0.18362218243E+03  0.18834546018E+03  0.00000000000E+00 0. -1.
        -13    1    3    3    0    0  0.40268932926E+02  0.10980576821E+03 -0.10470140869E+03  0.15697540786E+03  0.00000000000E+00 0. -1.
         13    1    3    3    0    0  0.24560837478E+02 -0.15300414056E+02 -0.21678584878E+02  0.36156582392E+02  0.00000000000E+00 0.  1.
          1    1    1    2  501    0  0.11793990486E+02 -0.74757792149E+02  0.49695481434E+02  0.90539861794E+02  0.00000000000E+00 0. -1.
<scales pt_clust_5="13000.00000" pt_clust_6="13000.00000" pt_clust_7="13000.00000" pt_clust_8="13000.00000" pt_clust_9="75.68240"></scales>
<clustering>
<clus scale="   75.682">  1  9  2 -1</clus>
<clus scale="   90.041">  5  6 -1 -1</clus>
<clus scale="   90.520">  7  8 -1 -1</clus>
<clus scale="  140.699">  1  5  2 -1</clus>
<clus scale="   75.682">  1  5  2 -1</clus>
</clustering>
</event>
<event>
 9    1  0.1315259E-005  0.9485757E+02  0.7546771E-02  0.1295029E+00
         21   -1    0    0  501  502  0.00000000000E+00  0.00000000000E+00  0.15853508759E+03  0.15853508759E+03  0.00000000000E+00 0. -1.
          2   -1    0    0  502    0 -0.00000000000E+00 -0.00000000000E+00 -0.22445112646E+03  0.22445112646E+03  0.00000000000E+00 0. -1.
         23    2    1    2    0    0  0.83526798345E+01 -0.84382247810E+01 -0.14722336635E+03  0.17183053285E+03  0.87806842105E+02 0.  0.
         23    2    1    2    0    0 -0.26487119681E+02 -0.10346934689E+02 -0.25352869706E+02  0.10134612884E+03  0.93912955777E+02 0.  0.
        -11    1    4    4    0    0 -0.31175001288E+02 -0.42182043994E+02 -0.40026714977E+02  0.65979871571E+02  0.00000000000E+00 0. -1.
         11    1    4    4    0    0  0.46878816061E+01  0.31835109305E+02  0.14673845270E+02  0.35366257272E+02  0.00000000000E+00 0.  1.
        -13    1    3    3    0    0  0.83766314161E+01 -0.38110823716E+02 -0.13359668191E+03  0.13917857685E+03  0.00000000000E+00 0. -1.
         13    1    3    3    0    0 -0.23951581555E-01  0.29672598935E+02 -0.13626684444E+02  0.32651955994E+02  0.00000000000E+00 0.  1.
          2    1    1    2  501    0  0.18134439847E+02  0.18785159470E+02  0.10666019719E+03  0.10980955236E+03  0.00000000000E+00 0. -1.
<scales pt_clust_5="13000.00000" pt_clust_6="13000.00000" pt_clust_7="13000.00000" pt_clust_8="13000.00000" pt_clust_9="26.11015"></scales>
<clustering>
<clus scale="   26.110">  1  9  2 -1</clus>
<clus scale="   87.807">  7  8 -1 -1</clus>
<clus scale="   88.816">  2  7  1 -1</clus>
<clus scale="   93.913">  5  6 -1 -1</clus>
<clus scale="   26.110">  1  5  2 -1</clus>
</clustering>
</event>
<event>
 9    1  0.1315259E-005  0.2108833E+03  0.7546771E-02  0.1141665E+00
          2   -1    0    0  502    0 -0.00000000000E+00  0.00000000000E+00  0.48198770083E+03  0.48198770083E+03  0.00000000000E+00 0. -1.
         21   -1    0    0  501  502  0.00000000000E+00 -0.00000000000E+00 -0.14441038261E+03  0.14441038261E+03  0.00000000000E+00 0. -1.
         23    2    1    2    0    0  0.48172655541E+02 -0.15157172121E+03  0.14039804520E+03  0.22713326761E+03  0.81137653070E+02 0.  0.
         23    2    1    2    0    0 -0.91914319788E+02  0.22612922182E+03  0.15487457135E+03  0.30302635225E+03  0.90863469916E+02 0.  0.
        -11    1    3    3    0    0 -0.12854395870E+02 -0.78968607836E+02  0.41592481827E+02  0.90173228074E+02  0.00000000000E+00 0.  1.
         11    1    3    3    0    0  0.61027051412E+02 -0.72603113376E+02  0.98805563376E+02  0.13696003954E+03  0.00000000000E+00 0. -1.
        -13    1    4    4    0    0 -0.10728496726E+03  0.20874076783E+03  0.15205202488E+03  0.27964726107E+03  0.00000000000E+00 0. -1.
         13    1    4    4    0    0  0.15370647469E+02  0.17388453989E+02  0.28225464629E+01  0.23379091178E+02  0.00000000000E+00 0.  1.
          2    1    1    2  501    0  0.43741664247E+02 -0.74557500611E+02  0.42304701667E+02  0.96238463576E+02  0.00000000000E+00 0. -1.
<scales pt_clust_5="13000.00000" pt_clust_6="13000.00000" pt_clust_7="13000.00000" pt_clust_8="13000.00000" pt_clust_9="86.44162"></scales>
<clustering>
<clus scale="   81.138">  5  6 -1 -1</clus>
<clus scale="   86.442">  2  9  1 -1</clus>
<clus scale="   90.863">  7  8 -1 -1</clus>
<clus scale="  206.879">  1  5  2 -1</clus>
<clus scale="   86.442">  2  5  1 -1</clus>
</clustering>
</event>
<event>
 9    1  0.1342014E-005  0.1076598E+03  0.7546771E-02  0.1265884E+00
         21   -1    0    0  501  502  0.00000000000E+00  0.00000000000E+00  0.10760132559E+03  0.10760132559E+03  0.00000000000E+00 0. -1.
         -4   -1    0    0    0  501 -0.00000000000E+00 -0.00000000000E+00 -0.39582936885E+03  0.39582936885E+03  0.00000000000E+00 0.  1.
         23    2    1    2    0    0  0.45843110042E+02 -0.27464525773E+02 -0.33751346089E+03  0.35411040036E+03  0.92859832250E+02 0.  0.
         23    2    1    2    0    0 -0.67352509160E+02  0.13724179180E+02  0.48829605922E+02  0.12379267885E+03  0.90639855130E+02 0.  0.
        -11    1    3    3    0    0 -0.23711290174E+02  0.11361434922E+02 -0.62821273816E+02  0.68101541312E+02  0.00000000000E+00 0. -1.
         11    1    3    3    0    0  0.69554400215E+02 -0.38825960695E+02 -0.27469218707E+03  0.28600885905E+03  0.00000000000E+00 0.  1.
        -13    1    4    4    0    0  0.33871283281E+01  0.26449672091E+02  0.44386322206E+02  0.51780337880E+02  0.00000000000E+00 0. -1.
         13    1    4    4    0    0 -0.70739637488E+02 -0.12725492911E+02  0.44432837166E+01  0.72012340970E+02  0.00000000000E+00 0.  1.
         -4    1    1    2    0  502  0.21509399118E+02  0.13740346593E+02  0.45581171073E+00  0.25527615228E+02  0.00000000000E+00 0.  1.
<scales pt_clust_5="13000.00000" pt_clust_6="13000.00000" pt_clust_7="13000.00000" pt_clust_8="13000.00000" pt_clust_9="25.52355"></scales>
<clustering>
<clus scale="   25.524">  1  9  2 -1</clus>
<clus scale="   90.640">  7  8 -1 -1</clus>
<clus scale="   92.860">  5  6 -1 -1</clus>
<clus scale="  105.751">  1  7  2 -1</clus>
<clus scale="   25.524">  1  5  2 -1</clus>
</clustering>
</event>
<event>
 9    1  0.1315259E-005  0.1513538E+03  0.7546771E-02  0.1202073E+00
         -3   -1    0    0    0  501 -0.00000000000E+00  0.00000000000E+00  0.49476082338E+03  0.49476082338E+03  0.00000000000E+00 0.  1.
         21   -1    0    0  501  502  0.00000000000E+00 -0.00000000000E+00 -0.69115104966E+02  0.69115104966E+02  0.00000000000E+00 0.  1.
         23    2    1    2    0    0 -0.10572845378E+03 -0.40086054501E+02  0.34678653076E+03  0.37577296055E+03  0.90327306282E+02 0.  0.
         23    2    1    2    0    0  0.93752001389E+02  0.18854736885E+02  0.80426335855E+02  0.16367633862E+03  0.10571948475E+03 0.  0.
        -13    1    3    3    0    0 -0.69735529508E+02 -0.66427694782E+02  0.27371135353E+03  0.29016131335E+03  0.00000000000E+00 0.  1.
         13    1    3    3    0    0 -0.35992924268E+02  0.26341640281E+02  0.73075177223E+02  0.85611647199E+02  0.00000000000E+00 0. -1.
        -13    1    4    4    0    0  0.59955084201E+02 -0.41620158881E+02  0.36037765082E+02  0.81397605978E+02  0.00000000000E+00 0.  1.
         13    1    4    4    0    0  0.33796917188E+02  0.60474895766E+02  0.44388570774E+02  0.82278732639E+02  0.00000000000E+00 0. -1.
         -3    1    1    2    0  502  0.11976452387E+02  0.21231317616E+02 -0.15671482039E+01  0.24426629178E+02  0.00000000000E+00 0.  1.
<scales pt_clust_5="13000.00000" pt_clust_6="13000.00000" pt_clust_7="13000.00000" pt_clust_8="13000.00000" pt_clust_9="24.37631"></scales>
<clustering>
<clus scale="   24.376">  2  9  1 -1</clus>
<clus scale="   90.327">  5  6 -1 -1</clus>
<clus scale="  105.719">  7  8 -1 -1</clus>
<clus scale="  141.033">  1  5  2 -1</clus>
<clus scale="   24.376">  2  5  1 -1</clus>
</clustering>
</event>
<event>
 9    1  0.1315259E-005  0.9559109E+02  0.7546771E-02  0.1292383E+00
         -4   -1    0    0    0  501 -0.00000000000E+00  0.00000000000E+00  0.56433695401E+02  0.56433695401E+02  0.00000000000E+00 0.  1.
         21   -1    0    0  501  502  0.00000000000E+00 -0.00000000000E+00 -0.37755924291E+03  0.37755924291E+03  0.00000000000E+00 0. -1.
         23    2    1    2    0    0 -0.12220503861E+02  0.57456896108E+01 -0.72495621722E+01  0.92191919145E+02  0.90908966225E+02 0.  0.
         23    2    1    2    0    0 -0.21763439959E+02  0.55542657216E+01 -0.20527661964E+03  0.22744884535E+03  0.95341436381E+02 0.  0.
        -11    1    4    4    0    0 -0.43577129794E+02  0.38302302046E+02 -0.10989210593E+03  0.12426708143E+03  0.00000000000E+00 0.  1.
         11    1    4    4    0    0  0.21813689835E+02 -0.32748036325E+02 -0.95384513715E+02  0.10318176391E+03  0.00000000000E+00 0. -1.
        -13    1    3    3    0    0 -0.43994395789E+02 -0.12758088553E+02 -0.24083767214E+02  0.51752328717E+02  0.00000000000E+00 0.  1.
         13    1    3    3    0    0  0.31773891928E+02  0.18503778163E+02  0.16834205042E+02  0.40439590428E+02  0.00000000000E+00 0. -1.
         -4    1    1    2    0  502  0.33983943820E+02 -0.11299955332E+02 -0.10859936569E+03  0.11435217382E+03  0.00000000000E+00 0.  1.
<scales pt_clust_5="13000.00000" pt_clust_6="13000.00000" pt_clust_7="13000.00000" pt_clust_8="13000.00000" pt_clust_9="35.81337"></scales>
<clustering>
<clus scale="   35.813">  2  9  1 -1</clus>
<clus scale="   90.909">  7  8 -1 -1</clus>
<clus scale="   91.171">  1  7  2 -1</clus>
<clus scale="   95.341">  5  6 -1 -1</clus>
<clus scale="   35.813">  2  5  1 -1</clus>
</clustering>
</event>
<event>
 9    1  0.1315259E-005  0.1174962E+03  0.7546771E-02  0.1253481E+00
         -1   -1    0    0    0  501 -0.00000000000E+00  0.00000000000E+00  0.10214185989E+03  0.10214185989E+03  0.00000000000E+00 0.  1.
         21   -1    0    0  501  502  0.00000000000E+00 -0.00000000000E+00 -0.17928238663E+03  0.17928238663E+03  0.00000000000E+00 0. -1.
         23    2    1    2    0    0  0.49619979686E+02 -0.82619620592E+01  0.19829026974E+02  0.12162876146E+03  0.10894935935E+03 0.  0.
         23    2    1    2    0    0 -0.31241161838E+02 -0.82008705547E+01 -0.90095595930E+02  0.13418187347E+03  0.94044108223E+02 0.  0.
        -11    1    3    3    0    0  0.80724085099E+02  0.13707905215E+02  0.12049916104E+02  0.82761615852E+02  0.00000000000E+00 0.  1.
         11    1    3    3    0    0 -0.31104105412E+02 -0.21969867274E+02  0.77791108699E+01  0.38867145605E+02  0.00000000000E+00 0. -1.
        -13    1    4    4    0    0 -0.61367475064E+02 -0.16827800689E+02 -0.77824967634E+02  0.10052794367E+03  0.00000000000E+00 0. -1.
         13    1    4    4    0    0  0.30126313226E+02  0.86269301344E+01 -0.12270628296E+02  0.33653929799E+02  0.00000000000E+00 0.  1.
         -1    1    1    2    0  502 -0.18378817848E+02  0.16462832614E+02 -0.68739577805E+01  0.25613611591E+02  0.00000000000E+00 0.  1.
<scales pt_clust_5="13000.00000" pt_clust_6="13000.00000" pt_clust_7="13000.00000" pt_clust_8="13000.00000" pt_clust_9="24.67400"></scales>
<clustering>
<clus scale="   24.674">  2  9  1 -1</clus>
<clus scale="   94.044">  7  8 -1 -1</clus>
<clus scale="  103.825">  2  7  1 -1</clus>
<clus scale="  108.949">  5  6 -1 -1</clus>
<clus scale="   24.674">  2  5  1 -1</clus>
</clustering>
</event>
<event>
 9    1  0.1315259E-005  0.9097075E+02  0.7546771E-02  0.1300842E+00
         21   -1    0    0  501  502  0.00000000000E+00  0.00000000000E+00  0.13726610421E+03  0.13726610421E+03  0.00000000000E+00 0.  1.
          2   -1    0    0  502    0 -0.00000000000E+00 -0.00000000000E+00 -0.14143259852E+03  0.14143259852E+03  0.00000000000E+00 0. -1.
         23    2    1    2    0    0  0.11282652147E+01  0.16436435575E+02 -0.93208468142E+02  0.12992506564E+03  0.89001543536E+02 0.  0.
         23    2    1    2    0    0  0.17953356074E+02 -0.30708016789E+02  0.72422077819E+02  0.11972183431E+03  0.88448035394E+02 0.  0.
        -13    1    4    4    0    0  0.33320256936E+02 -0.50108752336E+01  0.81700323826E+02  0.88375852506E+02  0.00000000000E+00 0.  1.
         13    1    4    4    0    0 -0.15366900862E+02 -0.25697141555E+02 -0.92782460069E+01  0.31345981803E+02  0.00000000000E+00 0. -1.
        -13    1    3    3    0    0  0.38821290553E+02  0.28516056695E+02 -0.66747979743E+02  0.82313734513E+02  0.00000000000E+00 0. -1.
         13    1    3    3    0    0 -0.37693025338E+02 -0.12079621120E+02 -0.26460488399E+02  0.47611331129E+02  0.00000000000E+00 0.  1.
          2    1    1    2  501    0 -0.19081621289E+02  0.14271581214E+02  0.16619896011E+02  0.29051802780E+02  0.00000000000E+00 0. -1.
<scales pt_clust_5="13000.00000" pt_clust_6="13000.00000" pt_clust_7="13000.00000" pt_clust_8="13000.00000" pt_clust_9="23.82827"></scales>
<clustering>
<clus scale="   23.828">  1  9  2 -1</clus>
<clus scale="   88.448">  5  6 -1 -1</clus>
<clus scale="   89.002">  7  8 -1 -1</clus>
<clus scale="   90.429">  1  5  2 -1</clus>
<clus scale="   23.828">  1  5  2 -1</clus>
</clustering>
</event>
<event>
 9    1  0.1315259E-005  0.1016057E+03  0.7546771E-02  0.1278244E+00
          2   -1    0    0  502    0 -0.00000000000E+00  0.00000000000E+00  0.58172690548E+02  0.58172690548E+02  0.00000000000E+00 0. -1.
         21   -1    0    0  501  502  0.00000000000E+00 -0.00000000000E+00 -0.33694707244E+03  0.33694707244E+03  0.00000000000E+00 0.  1.
         23    2    1    2    0    0 -0.25714319744E+02  0.35414806882E+02 -0.15986839545E+02  0.10303775423E+03  0.91900843150E+02 0.  0.
         23    2    1    2    0    0  0.22241895135E+01 -0.18020122361E+02 -0.17765721813E+03  0.20207349045E+03  0.94561813424E+02 0.  0.
        -13    1    4    4    0    0 -0.31523081643E+02  0.15117244463E+02 -0.27017840233E+02  0.44183701150E+02  0.00000000000E+00 0.  1.
         13    1    4    4    0    0  0.33747271156E+02 -0.33137366824E+02 -0.15063937790E+03  0.15788978930E+03  0.00000000000E+00 0. -1.
        -13    1    3    3    0    0  0.31967288968E+02 -0.26717758544E+01  0.57404900796E-01  0.32078797445E+02  0.00000000000E+00 0. -1.
         13    1    3    3    0    0 -0.57681608712E+02  0.38086582736E+02 -0.16044244446E+02  0.70958956785E+02  0.00000000000E+00 0.  1.
          2    1    1    2  501    0  0.23490130230E+02 -0.17394684521E+02 -0.85130324207E+02  0.90008518305E+02  0.00000000000E+00 0. -1.
<scales pt_clust_5="13000.00000" pt_clust_6="13000.00000" pt_clust_7="13000.00000" pt_clust_8="13000.00000" pt_clust_9="29.22946"></scales>
<clustering>
<clus scale="   29.229">  2  9  1 -1</clus>
<clus scale="   91.901">  7  8 -1 -1</clus>
<clus scale="   94.562">  5  6 -1 -1</clus>
<clus scale="   99.134">  1  7  2 -1</clus>
<clus scale="   29.229">  2  5  1 -1</clus>
</clustering>
</event>
<event>
 9    1  0.1315259E-005  0.2603518E+03  0.7546771E-02  0.1107411E+00
          1   -1    0    0  502    0 -0.00000000000E+00  0.00000000000E+00  0.11960960203E+04  0.11960960203E+04  0.00000000000E+00 0. -1.
         21   -1    0    0  501  502  0.00000000000E+00 -0.00000000000E+00 -0.90876097291E+02  0.90876097291E+02  0.00000000000E+00 0.  1.
         23    2    1    2    0    0  0.11550525813E+03  0.20343507094E+03  0.74310461846E+03  0.78573178069E+03  0.10218935593E+03 0.  0.
         23    2    1    2    0    0 -0.13545569356E+03 -0.21076410208E+03  0.38576053575E+03  0.46944676003E+03  0.93804679581E+02 0.  0.
        -11    1    3    3    0    0  0.22106323020E+02 -0.72714737392E+01  0.46669791806E+02  0.52150103691E+02  0.00000000000E+00 0.  1.
         11    1    3    3    0    0  0.93398935109E+02  0.21070654468E+03  0.69643482666E+03  0.73358167700E+03  0.00000000000E+00 0. -1.
        -13    1    4    4    0    0  0.60926540741E+01 -0.59029052696E+02  0.72464791110E+02  0.93662668372E+02  0.00000000000E+00 0. -1.
         13    1    4    4    0    0 -0.14154834763E+03 -0.15173504939E+03  0.31329574464E+03  0.37578409166E+03  0.00000000000E+00 0.  1.
          1    1    1    2  501    0  0.19950435430E+02  0.73290311394E+01 -0.23645231208E+02  0.31793576870E+02  0.00000000000E+00 0. -1.
<scales pt_clust_5="13000.00000" pt_clust_6="13000.00000" pt_clust_7="13000.00000" pt_clust_8="13000.00000" pt_clust_9="21.25405"></scales>
<clustering>
<clus scale="   21.254">  2  9  1 -1</clus>
<clus scale="   93.805">  7  8 -1 -1</clus>
<clus scale="  102.189">  5  6 -1 -1</clus>
<clus scale="  257.176">  2  7  1 -1</clus>
<clus scale="   21.254">  2  5  1 -1</clus>
</clustering>
</event>
<event>
 9    1  0.1315259E-005  0.2275893E+03  0.7546771E-02  0.1128357E+00
          3   -1    0    0  502    0 -0.00000000000E+00  0.00000000000E+00  0.81067280674E+03  0.81067280674E+03  0.00000000000E+00 0. -1.
         21   -1    0    0  501  502  0.00000000000E+00 -0.00000000000E+00 -0.72625510724E+02  0.72625510724E+02  0.00000000000E+00 0.  1.
         23    2    1    2    0    0  0.30585867704E+02 -0.21654515850E+03  0.44123783737E+03  0.50074213569E+03  0.90689339825E+02 0.  0.
         23    2    1    2    0    0 -0.20075504963E+02  0.19526202123E+03  0.27827145274E+03  0.35243812540E+03  0.90814910596E+02 0.  0.
        -11    1    3    3    0    0 -0.12061324801E+02 -0.17744210237E+03  0.35215664644E+03  0.39451930102E+03  0.00000000000E+00 0.  1.
         11    1    3    3    0    0  0.42647192505E+02 -0.39103056127E+02  0.89081190936E+02  0.10622283467E+03  0.00000000000E+00 0. -1.
        -13    1    4    4    0    0 -0.53799294074E+02  0.99152970349E+02  0.12463487409E+03  0.16810570309E+03  0.00000000000E+00 0.  1.
         13    1    4    4    0    0  0.33723789111E+02  0.96109050885E+02  0.15363657865E+03  0.18433242230E+03  0.00000000000E+00 0. -1.
          3    1    1    2  501    0 -0.10510362741E+02  0.21283137263E+02  0.18538005895E+02  0.30118056366E+02  0.00000000000E+00 0. -1.
<scales pt_clust_5="13000.00000" pt_clust_6="13000.00000" pt_clust_7="13000.00000" pt_clust_8="13000.00000" pt_clust_9="23.73688"></scales>
<clustering>
<clus scale="   23.737">  2  9  1 -1</clus>
<clus scale="   90.689">  5  6 -1 -1</clus>
<clus scale="   90.815">  7  8 -1 -1</clus>
<clus scale="  227.539">  1  5  2 -1</clus>
<clus scale="   23.737">  2  5  1 -1</clus>
</clustering>
</event>
<event>
 9    1  0.1315259E-005  0.1485324E+03  0.7546771E-02  0.1203500E+00
         21   -1    0    0  501  502  0.00000000000E+00  0.00000000000E+00  0.34961939814E+03  0.34961939814E+03  0.00000000000E+00 0. -1.
         -4   -1    0    0    0  501 -0.00000000000E+00 -0.00000000000E+00 -0.23234620960E+03  0.23234620960E+03  0.00000000000E+00 0. -1.
         23    2    1    2    0    0  0.12137695296E+03 -0.18677399521E+02 -0.15229530980E+03  0.21544809481E+03  0.90237521058E+02 0.  0.
         23    2    1    2    0    0 -0.74290853772E+02  0.51972399971E+02  0.53114399545E+02  0.14251297130E+03  0.96273289317E+02 0.  0.
        -11    1    3    3    0    0  0.14781707516E+02  0.25720904521E+02 -0.81698993138E+01  0.30770295112E+02  0.00000000000E+00 0.  1.
         11    1    3    3    0    0  0.10659524544E+03 -0.44398304042E+02 -0.14412541049E+03  0.18467779970E+03  0.00000000000E+00 0. -1.
        -13    1    4    4    0    0 -0.88173861372E+02  0.12784675546E+02  0.46219415755E+02  0.10037087302E+03  0.00000000000E+00 0.  1.
         13    1    4    4    0    0  0.13883007601E+02  0.39187724425E+02  0.68949837897E+01  0.42142098276E+02  0.00000000000E+00 0. -1.
         -4    1    1    2    0  502 -0.47086099189E+02 -0.33295000450E+02  0.21645409879E+03  0.22400454164E+03  0.00000000000E+00 0. -1.
<scales pt_clust_5="13000.00000" pt_clust_6="13000.00000" pt_clust_7="13000.00000" pt_clust_8="13000.00000" pt_clust_9="57.66852"></scales>
<clustering>
<clus scale="   57.669">  1  9  2 -1</clus>
<clus scale="   90.238">  5  6 -1 -1</clus>
<clus scale="   96.273">  7  8 -1 -1</clus>
<clus scale="  144.693">  2  5  1 -1</clus>
<clus scale="   57.669">  1  5  2 -1</clus>
</clustering>
</event>
<event>
 9    1  0.1315259E-005  0.1190717E+03  0.7546771E-02  0.1249054E+00
          1   -1    0    0  502    0 -0.00000000000E+00  0.00000000000E+00  0.43132365944E+02  0.43132365944E+02  0.00000000000E+00 0. -1.
         21   -1    0    0  501  502  0.00000000000E+00 -0.00000000000E+00 -0.39775826568E+03  0.39775826568E+03  0.00000000000E+00 0. -1.
         23    2    1    2    0    0 -0.76181654869E+02 -0.30037192707E+02 -0.12952438775E+03  0.17910043292E+03  0.92706637116E+02 0.  0.
         23    2    1    2    0    0  0.68289181997E+02  0.52518293201E+01 -0.15573046469E+03  0.18770276678E+03  0.79305465988E+02 0.  0.
        -11    1    4    4    0    0  0.19699998113E+02 -0.35889324931E+02 -0.66365750677E+02  0.77977858605E+02  0.00000000000E+00 0.  1.
         11    1    4    4    0    0  0.48589183884E+02  0.41141154251E+02 -0.89364714017E+02  0.10972490818E+03  0.00000000000E+00 0. -1.
        -13    1    3    3    0    0 -0.59915788121E+02 -0.82543093590E+01 -0.16274199952E+02  0.62632937607E+02  0.00000000000E+00 0. -1.
         13    1    3    3    0    0 -0.16265866748E+02 -0.21782883348E+02 -0.11325018780E+03  0.11646749531E+03  0.00000000000E+00 0.  1.
          1    1    1    2  501    0  0.78924728726E+01  0.24785363387E+02 -0.69371047290E+02  0.74087431919E+02  0.00000000000E+00 0. -1.
<scales pt_clust_5="13000.00000" pt_clust_6="13000.00000" pt_clust_7="13000.00000" pt_clust_8="13000.00000" pt_clust_9="26.01164"></scales>
<clustering>
<clus scale="   26.012">  2  9  1 -1</clus>
<clus scale="   79.305">  5  6 -1 -1</clus>
<clus scale="   92.707">  7  8 -1 -1</clus>
<clus scale="  108.963">  2  5  1 -1</clus>
<clus scale="   26.012">  2  5  1 -1</clus>
</clustering>
</event>
<event>
 9    1  0.1315259E-005  0.1198498E+03  0.7546771E-02  0.1243390E+00
         21   -1    0    0  501  502  0.00000000000E+00  0.00000000000E+00  0.23857423450E+03  0.23857423450E+03  0.00000000000E+00 0. -1.
          1   -1    0    0  502    0 -0.00000000000E+00 -0.00000000000E+00 -0.10654261671E+03  0.10654261671E+03  0.00000000000E+00 0. -1.
         23    2    1    2    0    0  0.87482434084E+02  0.37993111748E+02 -0.21175841180E+01  0.13011737714E+03  0.88483867777E+02 0.  0.
         23    2    1    2    0    0 -0.63866104029E+02  0.14490509920E+02  0.80085637291E+02  0.13603663087E+03  0.88336863861E+02 0.  0.
        -11    1    3    3    0    0  0.85683176800E+02  0.62166452989E+02 -0.18207609937E+01  0.10587535046E+03  0.00000000000E+00 0. -1.
         11    1    3    3    0    0  0.17992572840E+01 -0.24173341241E+02 -0.29682312431E+00  0.24242026679E+02  0.00000000000E+00 0.  1.
        -13    1    4    4    0    0  0.41387964078E+01  0.37040545437E+02  0.36541640243E+02  0.52196006683E+02  0.00000000000E+00 0. -1.
         13    1    4    4    0    0 -0.68004900437E+02 -0.22550035517E+02  0.43543997048E+02  0.83840624188E+02  0.00000000000E+00 0.  1.
          1    1    1    2  501    0 -0.23616330055E+02 -0.52483621668E+02  0.54063564614E+02  0.78962843208E+02  0.00000000000E+00 0. -1.
<scales pt_clust_5="13000.00000" pt_clust_6="13000.00000" pt_clust_7="13000.00000" pt_clust_8="13000.00000" pt_clust_9="57.55225"></scales>
<clustering>
<clus scale="   57.552">  1  9  2 -1</clus>
<clus scale="   88.337">  7  8 -1 -1</clus>
<clus scale="   88.484">  5  6 -1 -1</clus>
<clus scale="  119.741">  1  7  2 -1</clus>
<clus scale="   57.552">  1  5  2 -1</clus>
</clustering>
</event>
<event>
 9    1  0.1315259E-005  0.1274123E+03  0.7546771E-02  0.1231512E+00
         21   -1    0    0  501  502  0.00000000000E+00  0.00000000000E+00  0.24424468093E+03  0.24424468093E+03  0.00000000000E+00 0.  1.
         -2   -1    0    0    0  501 -0.00000000000E+00 -0.00000000000E+00 -0.55946540410E+03  0.55946540410E+03  0.00000000000E+00 0.  1.
         23    2    1    2    0    0 -0.64423394407E+01  0.61802368996E+02 -0.26202121776E+03  0.28484808496E+03  0.92856213575E+02 0.  0.
         23    2    1    2    0    0 -0.35155793118E+02 -0.15735180825E+03 -0.24088103701E+03  0.30418909242E+03  0.92259463510E+02 0.  0.
        -11    1    3    3    0    0  0.16055799377E+02  0.80558357099E+02 -0.20193422847E+03  0.21800199590E+03  0.00000000000E+00 0. -1.
         11    1    3    3    0    0 -0.22498138818E+02 -0.18755988102E+02 -0.60086989291E+02  0.66846089056E+02  0.00000000000E+00 0.  1.
        -13    1    4    4    0    0  0.13094415867E+02 -0.45305474977E+02 -0.18724860956E+02  0.50741208180E+02  0.00000000000E+00 0. -1.
         13    1    4    4    0    0 -0.48250208985E+02 -0.11204633328E+03 -0.22215617605E+03  0.25344788424E+03  0.00000000000E+00 0.  1.
         -2    1    1    2    0  502  0.41598132559E+02  0.95549439258E+02  0.18768153160E+03  0.21467290765E+03  0.00000000000E+00 0.  1.
<scales pt_clust_5="13000.00000" pt_clust_6="13000.00000" pt_clust_7="13000.00000" pt_clust_8="13000.00000" pt_clust_9="104.21180"></scales>
<clustering>
<clus scale="   92.259">  7  8 -1 -1</clus>
<clus scale="   92.856">  5  6 -1 -1</clus>
<clus scale="  104.212">  1  9  2 -1</clus>
<clus scale="  126.978">  1  7  2 -1</clus>
<clus scale="  104.212">  1  5  2 -1</clus>
</clustering>
</event>
<event>
 9    1  0.1315259E-005  0.1007269E+03  0.7546771E-02  0.1278870E+00
         21   -1    0    0  501  502  0.00000000000E+00  0.00000000000E+00  0.17729470213E+03  0.17729470213E+03  0.00000000000E+00 0. -1.
          4   -1    0    0  502    0 -0.00000000000E+00 -0.00000000000E+00 -0.28482103126E+03  0.28482103126E+03  0.00000000000E+00 0. -1.
         23    2    1    2    0    0 -0.11932690836E+02 -0.19539995017E+02 -0.12838677133E+03  0.15901291230E+03  0.90982101048E+02 0.  0.
         23    2    1    2    0    0  0.61612073069E+02  0.52823025312E+02 -0.10690449575E+03  0.16203659376E+03  0.90779771724E+02 0.  0.
        -11    1    3    3    0    0 -0.38808538207E+02 -0.19898706037E+02 -0.21171424812E+02  0.48479793402E+02  0.00000000000E+00 0.  1.
         11    1    3    3    0    0  0.26875847371E+02  0.35871101995E+00 -0.10721534651E+03  0.11053311890E+03  0.00000000000E+00 0. -1.
        -13    1    4    4    0    0  0.68743871715E+02  0.71548343041E+02 -0.75066899887E+02  0.12441834571E+03  0.00000000000E+00 0. -1.
         13    1    4    4    0    0 -0.71317986460E+01 -0.18725317729E+02 -0.31837595862E+02  0.37618248049E+02  0.00000000000E+00 0.  1.
          4    1    1    2  501    0 -0.49679382233E+02 -0.33283030295E+02  0.12776493794E+03  0.14106622733E+03  0.00000000000E+00 0. -1.
<scales pt_clust_5="13000.00000" pt_clust_6="13000.00000" pt_clust_7="13000.00000" pt_clust_8="13000.00000" pt_clust_9="59.79800"></scales>
<clustering>
<clus scale="   59.798">  1  9  2 -1</clus>
<clus scale="   90.780">  7  8 -1 -1</clus>
<clus scale="   90.982">  5  6 -1 -1</clus>
<clus scale="  100.544">  1  7  2 -1</clus>
<clus scale="   59.798">  1  5  2 -1</clus>
</clustering>
</event>
<event>
 9    1  0.1315259E-005  0.9083254E+02  0.7546771E-02  0.1300919E+00
         21   -1    0    0  501  502  0.00000000000E+00  0.00000000000E+00  0.39404440112E+02  0.39404440112E+02  0.00000000000E+00 0.  1.
          2   -1    0    0  502    0 -0.00000000000E+00 -0.00000000000E+00 -0.53419362842E+03  0.53419362842E+03  0.00000000000E+00 0. -1.
         23    2    1    2    0    0  0.12532714762E+02  0.48645494841E+01 -0.38095088924E+03  0.39179410286E+03  0.90544498684E+02 0.  0.
         23    2    1    2    0    0  0.27153734800E+02  0.16107907624E+02 -0.67991791467E+02  0.11764197930E+03  0.90664003798E+02 0.  0.
        -11    1    4    4    0    0  0.46853518462E+02  0.31505979216E+02 -0.14044305250E+02  0.58181796367E+02  0.00000000000E+00 0.  1.
         11    1    4    4    0    0 -0.19699783661E+02 -0.15398071592E+02 -0.53947486217E+02  0.59460182931E+02  0.00000000000E+00 0. -1.
        -11    1    3    3    0    0  0.51455458356E+02  0.55260340193E+01 -0.24339386846E+03  0.24883483769E+03  0.00000000000E+00 0. -1.
         11    1    3    3    0    0 -0.38922743594E+02 -0.66148453522E+00 -0.13755702079E+03  0.14295926517E+03  0.00000000000E+00 0.  1.
          2    1    1    2  501    0 -0.39686449562E+02 -0.20972457108E+02 -0.45846507596E+02  0.64161986368E+02  0.00000000000E+00 0. -1.
<scales pt_clust_5="13000.00000" pt_clust_6="13000.00000" pt_clust_7="13000.00000" pt_clust_8="13000.00000" pt_clust_9="44.88717"></scales>
<clustering>
<clus scale="   44.887">  1  9  2 -1</clus>
<clus scale="   90.544">  7  8 -1 -1</clus>
<clus scale="   90.664">  5  6 -1 -1</clus>
<clus scale="   90.713">  2  7  1 -1</clus>
<clus scale="   44.887">  1  5  2 -1</clus>
</clustering>
</event>
<event>
 9    1  0.1315259E-005  0.9848889E+02  0.7546771E-02  0.1283976E+00
         -1   -1    0    0    0  501 -0.00000000000E+00  0.00000000000E+00  0.41668397915E+03  0.41668397915E+03  0.00000000000E+00 0.  1.
         21   -1    0    0  501  502  0.00000000000E+00 -0.00000000000E+00 -0.40724848087E+02  0.40724848087E+02  0.00000000000E+00 0. -1.
         23    2    1    2    0    0  0.11512574959E+02 -0.34454475798E+02  0.27043191219E+03  0.28760741984E+03  0.90911817336E+02 0.  0.
         23    2    1    2    0    0  0.14611372664E+02  0.45905238975E+02  0.94910410089E+02  0.13936627563E+03  0.89967714566E+02 0.  0.
        -13    1    3    3    0    0 -0.60714100922E+01  0.27435287646E+02  0.43956008882E+02  0.52169797255E+02  0.00000000000E+00 0. -1.
         13    1    3    3    0    0  0.17583985051E+02 -0.61889763444E+02  0.22647590331E+03  0.23543762259E+03  0.00000000000E+00 0.  1.
        -13    1    4    4    0    0  0.33200951032E+02 -0.65111046506E+01  0.71352228877E+02  0.78967323615E+02  0.00000000000E+00 0.  1.
         13    1    4    4    0    0 -0.18589578368E+02  0.52416343626E+02  0.23558181212E+02  0.60398952019E+02  0.00000000000E+00 0. -1.
         -1    1    1    2    0  502 -0.26123947624E+02 -0.11450763177E+02  0.10616808786E+02  0.30435131765E+02  0.00000000000E+00 0.  1.
<scales pt_clust_5="13000.00000" pt_clust_6="13000.00000" pt_clust_7="13000.00000" pt_clust_8="13000.00000" pt_clust_9="28.52333"></scales>
<clustering>
<clus scale="   28.523">  2  9  1 -1</clus>
<clus scale="   89.968">  7  8 -1 -1</clus>
<clus scale="   90.912">  5  6 -1 -1</clus>
<clus scale="   97.618">  2  7  1 -1</clus>
<clus scale="   28.523">  2  5  1 -1</clus>
</clustering>
</event>
<event>
 9    1  0.1315259E-005  0.9560208E+02  0.7546771E-02  0.1290433E+00
         -4   -1    0    0    0  501 -0.00000000000E+00  0.00000000000E+00  0.37369093932E+03  0.37369093932E+03  0.00000000000E+00 0. -1.
         21   -1    0    0  501  502  0.00000000000E+00 -0.00000000000E+00 -0.48257819201E+02  0.48257819201E+02  0.00000000000E+00 0. -1.
         23    2    1    2    0    0  0.35065646989E+02  0.17423241413E+02  0.17637083194E+03  0.20205705860E+03  0.90483233978E+02 0.  0.
         23    2    1    2    0    0  0.15655725445E+01 -0.25321794082E+02  0.15512193111E+03  0.18193181780E+03  0.91611836258E+02 0.  0.
        -11    1    4    4    0    0 -0.32905764802E+02 -0.39372231115E+02  0.55517184088E+02  0.75598410494E+02  0.00000000000E+00 0. -1.
         11    1    4    4    0    0  0.34471337346E+02  0.14050437033E+02  0.99604747025E+02  0.10633340731E+03  0.00000000000E+00 0.  1.
        -11    1    3    3    0    0 -0.23688228357E+02  0.22006815176E+02  0.29361274596E+02  0.43675124760E+02  0.00000000000E+00 0.  1.
         11    1    3    3    0    0  0.58753875347E+02 -0.45835737631E+01  0.14700955734E+03  0.15838193384E+03  0.00000000000E+00 0. -1.
         -4    1    1    2    0  502 -0.36631219534E+02  0.78985526685E+01 -0.60596429257E+01  0.37959882128E+02  0.00000000000E+00 0. -1.
<scales pt_clust_5="13000.00000" pt_clust_6="13000.00000" pt_clust_7="13000.00000" pt_clust_8="13000.00000" pt_clust_9="37.47310"></scales>
<clustering>
<clus scale="   37.473">  2  9  1 -1</clus>
<clus scale="   90.483">  7  8 -1 -1</clus>
<clus scale="   91.612">  5  6 -1 -1</clus>
<clus scale="   94.521">  1  7  2 -1</clus>
<clus scale="   37.473">  2  5  1 -1</clus>
</clustering>
</event>
<event>
 9    1  0.1315259E-005  0.1641735E+03  0.7546771E-02  0.1209384E+00
         21   -1    0    0  501  502  0.00000000000E+00  0.00000000000E+00  0.56947181109E+02  0.56947181109E+02  0.00000000000E+00 0. -1.
          2   -1    0    0  502    0 -0.00000000000E+00 -0.00000000000E+00 -0.96117601529E+03  0.96117601529E+03  0.00000000000E+00 0. -1.
         23    2    1    2    0    0 -0.11987206236E+02  0.20132319644E+02 -0.25753266154E+03  0.27429879302E+03  0.91475421216E+02 0.  0.
         23    2    1    2    0    0 -0.12141483505E+03 -0.54483094863E+02 -0.55595963561E+03  0.57887229054E+03  0.91060653035E+02 0.  0.
        -11    1    3    3    0    0  0.31963780113E+02 -0.15579605897E+02 -0.71770094552E+02  0.80095903959E+02  0.00000000000E+00 0. -1.
         11    1    3    3    0    0 -0.43950986350E+02  0.35711925540E+02 -0.18576256699E+03  0.19420288907E+03  0.00000000000E+00 0.  1.
        -13    1    4    4    0    0 -0.58989749869E+02 -0.56518149666E+02 -0.17884600492E+03  0.19662142637E+03  0.00000000000E+00 0.  1.
         13    1    4    4    0    0 -0.62425085178E+02  0.20350548030E+01 -0.37711363068E+03  0.38225086416E+03  0.00000000000E+00 0. -1.
          2    1    1    2  501    0  0.13340204128E+03  0.34350775219E+02 -0.90736537033E+02  0.16495211284E+03  0.00000000000E+00 0. -1.
<scales pt_clust_5="13000.00000" pt_clust_6="13000.00000" pt_clust_7="13000.00000" pt_clust_8="13000.00000" pt_clust_9="136.60483"></scales>
<clustering>
<clus scale="   91.061">  7  8 -1 -1</clus>
<clus scale="   91.475">  5  6 -1 -1</clus>
<clus scale="   94.429">  2  5  1 -1</clus>
<clus scale="  136.605">  1  9  2 -1</clus>
<clus scale="  136.605">  1  5  2 -1</clus>
</clustering>
</event>
<event>
 9    1  0.1315259E-005  0.2204817E+03  0.7546771E-02  0.1133710E+00
         21   -1    0    0  501  502  0.00000000000E+00  0.00000000000E+00  0.67448492760E+03  0.67448492760E+03  0.00000000000E+00 0.  1.
          3   -1    0    0  502    0 -0.00000000000E+00 -0.00000000000E+00 -0.91965708869E+02  0.91965708869E+02  0.00000000000E+00 0. -1.
         23    2    1    2    0    0 -0.12768913363E+02  0.19105562135E+03  0.18945103939E+03  0.28344549332E+03  0.88228996142E+02 0.  0.
         23    2    1    2    0    0  0.52966902770E+02 -0.21090394891E+03  0.32229404400E+03  0.39922678859E+03  0.90678605390E+02 0.  0.
        -11    1    3    3    0    0 -0.33066291192E+02  0.27707000519E+02  0.21203347226E+02  0.48069110919E+02  0.00000000000E+00 0. -1.
         11    1    3    3    0    0  0.20297377829E+02  0.16334862083E+03  0.16824769216E+03  0.23537638240E+03  0.00000000000E+00 0.  1.
        -11    1    4    4    0    0  0.27646167091E+01 -0.16823554970E+03  0.21075652426E+03  0.26968343628E+03  0.00000000000E+00 0. -1.
         11    1    4    4    0    0  0.50202286061E+02 -0.42668399212E+02  0.11153751974E+03  0.12954335231E+03  0.00000000000E+00 0.  1.
          3    1    1    2  501    0 -0.40197989407E+02  0.19848327563E+02  0.70774135346E+02  0.83778354563E+02  0.00000000000E+00 0. -1.
<scales pt_clust_5="13000.00000" pt_clust_6="13000.00000" pt_clust_7="13000.00000" pt_clust_8="13000.00000" pt_clust_9="44.83118"></scales>
<clustering>
<clus scale="   44.831">  1  9  2 -1</clus>
<clus scale="   88.229">  5  6 -1 -1</clus>
<clus scale="   90.679">  7  8 -1 -1</clus>
<clus scale="  219.486">  2  5  1 -1</clus>
<clus scale="   44.831">  1  5  2 -1</clus>
</clustering>
</event>
<event>
 9    1  0.1315259E-005  0.1025308E+03  0.7546771E-02  0.1277513E+00
          1   -1    0    0  502    0 -0.00000000000E+00  0.00000000000E+00  0.32038828932E+03  0.32038828932E+03  0.00000000000E+00 0. -1.
         21   -1    0    0  501  502  0.00000000000E+00 -0.00000000000E+00 -0.45076379474E+02  0.45076379474E+02  0.00000000000E+00 0. -1.
         23    2    1    2    0    0 -0.37266326287E+02 -0.24232968825E+02  0.15694550163E+03  0.18758517883E+03  0.92629870909E+02 0.  0.
         23    2    1    2    0    0  0.18310697566E+02  0.44340248200E+02  0.11116323542E+03  0.14932245506E+03  0.87399035578E+02 0.  0.
        -11    1    3    3    0    0  0.26537780886E+02 -0.27740326088E+02  0.50546322305E+02  0.63472121474E+02  0.00000000000E+00 0.  1.
         11    1    3    3    0    0 -0.63804107173E+02  0.35073572622E+01  0.10639917932E+03  0.12411305736E+03  0.00000000000E+00 0. -1.
        -13    1    4    4    0    0  0.17731505747E+02 -0.11729625906E+02 -0.36285861145E+01  0.21567500021E+02  0.00000000000E+00 0.  1.
         13    1    4    4    0    0  0.57919181905E+00  0.56069874106E+02  0.11479182154E+03  0.12775495504E+03  0.00000000000E+00 0. -1.
          1    1    1    2  501    0  0.18955628721E+02 -0.20107279374E+02  0.72031728007E+01  0.28557034903E+02  0.00000000000E+00 0. -1.
<scales pt_clust_5="13000.00000" pt_clust_6="13000.00000" pt_clust_7="13000.00000" pt_clust_8="13000.00000" pt_clust_9="27.63365"></scales>
<clustering>
<clus scale="   27.634">  2  9  1 -1</clus>
<clus scale="   87.399">  7  8 -1 -1</clus>
<clus scale="   92.630">  5  6 -1 -1</clus>
<clus scale="   97.831">  2  7  1 -1</clus>
<clus scale="   27.634">  2  5  1 -1</clus>
</clustering>
</event>
<event>
 9    1  0.1315259E-005  0.1421057E+03  0.7546771E-02  0.1212196E+00
         -1   -1    0    0    0  501 -0.00000000000E+00  0.00000000000E+00  0.92348186116E+02  0.92348186116E+02  0.00000000000E+00 0.  1.
         21   -1    0    0  501  502  0.00000000000E+00 -0.00000000000E+00 -0.44383190211E+03  0.44383190211E+03  0.00000000000E+00 0. -1.
         23    2    1    2    0    0  0.87476042288E+02 -0.56095620430E+02 -0.27770048470E+01  0.13355018566E+03  0.83840108114E+02 0.  0.
         23    2    1    2    0    0 -0.89250374174E+02  0.92627384359E+02 -0.23492824726E+03  0.28311732217E+03  0.91753338498E+02 0.  0.
        -13    1    3    3    0    0  0.96005575279E+02 -0.22188912562E+02 -0.98751401967E+00  0.98541328940E+02  0.00000000000E+00 0.  1.
         13    1    3    3    0    0 -0.85295329911E+01 -0.33906707868E+02 -0.17894908273E+01  0.35008856721E+02  0.00000000000E+00 0. -1.
        -13    1    4    4    0    0 -0.37423223254E+02  0.45824440221E+02 -0.29433158995E+02  0.66080918643E+02  0.00000000000E+00 0.  1.
         13    1    4    4    0    0 -0.51827150920E+02  0.46802944138E+02 -0.20549508827E+03  0.21703640352E+03  0.00000000000E+00 0. -1.
         -1    1    1    2    0  502  0.17743318861E+01 -0.36531763929E+02 -0.11377846388E+03  0.11951258040E+03  0.00000000000E+00 0.  1.
<scales pt_clust_5="13000.00000" pt_clust_6="13000.00000" pt_clust_7="13000.00000" pt_clust_8="13000.00000" pt_clust_9="36.57483"></scales>
<clustering>
<clus scale="   36.575">  2  9  1 -1</clus>
<clus scale="   83.840">  5  6 -1 -1</clus>
<clus scale="   91.753">  7  8 -1 -1</clus>
<clus scale="  137.130">  1  5  2 -1</clus>
<clus scale="   36.575">  2  5  1 -1</clus>
</clustering>
</event>
<event>
 9    1  0.1315259E-005  0.1504388E+03  0.7546771E-02  0.1211002E+00
         21   -1    0    0  501  502  0.00000000000E+00  0.00000000000E+00  0.49825349057E+03  0.49825349057E+03  0.00000000000E+00 0. -1.
          1   -1    0    0  502    0 -0.00000000000E+00 -0.00000000000E+00 -0.11736178626E+03  0.11736178626E+03  0.00000000000E+00 0. -1.
         23    2    1    2    0    0 -0.73439539470E+02  0.16766417011E+02  0.23557602519E+01  0.11858101320E+03  0.91550141384E+02 0.  0.
         23    2    1    2    0    0 -0.34048913016E+02 -0.89520685248E+02  0.45797134363E+02  0.13987594239E+03  0.91074805395E+02 0.  0.
        -11    1    3    3    0    0 -0.10771070941E+02 -0.29435855887E+02  0.21984835127E+02  0.38286009933E+02  0.00000000000E+00 0.  1.
         11    1    3    3    0    0 -0.62668468529E+02  0.46202272898E+02 -0.19629074875E+02  0.80295003264E+02  0.00000000000E+00 0. -1.
        -13    1    4    4    0    0  0.64143379660E+00 -0.50058478239E+02  0.66640899429E+02  0.83350297886E+02  0.00000000000E+00 0.  1.
         13    1    4    4    0    0 -0.34690346813E+02 -0.39462207009E+02 -0.20843765067E+02  0.56525644500E+02  0.00000000000E+00 0. -1.
          1    1    1    2  501    0  0.10748845249E+03  0.72754268237E+02  0.33273880969E+03  0.35715832125E+03  0.00000000000E+00 0. -1.
<scales pt_clust_5="13000.00000" pt_clust_6="13000.00000" pt_clust_7="13000.00000" pt_clust_8="13000.00000" pt_clust_9="119.73810"></scales>
<clustering>
<clus scale="   91.075">  7  8 -1 -1</clus>
<clus scale="   91.550">  5  6 -1 -1</clus>
<clus scale="  118.558">  2  5  1 -1</clus>
<clus scale="  119.738">  1  9  2 -1</clus>
<clus scale="  119.738">  1  5  2 -1</clus>
</clustering>
</event>
<event>
 9    1  0.1315259E-005  0.1055114E+03  0.7546771E-02  0.1269648E+00
          2   -1    0    0  502    0 -0.00000000000E+00  0.00000000000E+00  0.16370197748E+03  0.16370197748E+03  0.00000000000E+00 0. -1.
         21   -1    0    0  501  502  0.00000000000E+00 -0.00000000000E+00 -0.14351227795E+03  0.14351227795E+03  0.00000000000E+00 0.  1.
         23    2    1    2    0    0  0.56732808116E+01  0.52848897146E+02  0.95890639671E+02  0.14333785711E+03  0.92333820781E+02 0.  0.
         23    2    1    2    0    0  0.68768845931E+01 -0.28934953718E+02 -0.90118519460E+02  0.13326186034E+03  0.93556682198E+02 0.  0.
        -13    1    3    3    0    0  0.34074065201E+02  0.25968812529E+01  0.34380093776E+01  0.34345387172E+02  0.00000000000E+00 0. -1.
         13    1    3    3    0    0 -0.28400784389E+02  0.50252015893E+02  0.92452630294E+02  0.10899246994E+03  0.00000000000E+00 0.  1.
        -13    1    4    4    0    0 -0.98083462485E+01 -0.49397125233E+02 -0.93936219248E+02  0.10658467490E+03  0.00000000000E+00 0.  1.
         13    1    4    4    0    0  0.16685230842E+02  0.20462171515E+02  0.38176997879E+01  0.26677185440E+02  0.00000000000E+00 0. -1.
          2    1    1    2  501    0 -0.12550165405E+02 -0.23913943429E+02  0.14417579321E+02  0.30614537975E+02  0.00000000000E+00 0. -1.
<scales pt_clust_5="13000.00000" pt_clust_6="13000.00000" pt_clust_7="13000.00000" pt_clust_8="13000.00000" pt_clust_9="27.00711"></scales>
<clustering>
<clus scale="   27.007">  2  9  1 -1</clus>
<clus scale="   92.334">  5  6 -1 -1</clus>
<clus scale="   93.557">  7  8 -1 -1</clus>
<clus scale="  104.429">  1  5  2 -1</clus>
<clus scale="   27.007">  2  5  1 -1</clus>
</clustering>
</event>
<event>
 9    1  0.1315259E-005  0.1580038E+03  0.7546771E-02  0.1211836E+00
         21   -1    0    0  501  502  0.00000000000E+00  0.00000000000E+00  0.10171045030E+03  0.10171045030E+03  0.00000000000E+00 0.  1.
          1   -1    0    0  502    0 -0.00000000000E+00 -0.00000000000E+00 -0.39151977439E+03  0.39151977439E+03  0.00000000000E+00 0. -1.
         23    2    1    2    0    0  0.44409605884E+02  0.87297842337E+01 -0.12047079820E+03  0.15690546354E+03  0.89764631352E+02 0.  0.
         23    2    1    2    0    0 -0.38373336724E+02 -0.13277533561E+03 -0.10264493145E+03  0.19535749226E+03  0.92340484670E+02 0.  0.
        -11    1    3    3    0    0  0.42018890758E+01 -0.38319755891E+02 -0.43032212807E+02  0.57773963880E+02  0.00000000000E+00 0.  1.
         11    1    3    3    0    0  0.40207716808E+02  0.47049540125E+02 -0.77438585391E+02  0.99131499657E+02  0.00000000000E+00 0. -1.
        -13    1    4    4    0    0  0.84708584519E+00 -0.46138097906E+02  0.10730394790E+02  0.47377030354E+02  0.00000000000E+00 0.  1.
         13    1    4    4    0    0 -0.39220422569E+02 -0.86637237706E+02 -0.11337532624E+03  0.14798046190E+03  0.00000000000E+00 0. -1.
          1    1    1    2  501    0 -0.60362691602E+01  0.12404555138E+03 -0.66693594438E+02  0.14096726890E+03  0.00000000000E+00 0. -1.
<scales pt_clust_5="13000.00000" pt_clust_6="13000.00000" pt_clust_7="13000.00000" pt_clust_8="13000.00000" pt_clust_9="128.21251"></scales>
<clustering>
<clus scale="   89.765">  5  6 -1 -1</clus>
<clus scale="   92.340">  7  8 -1 -1</clus>
<clus scale="  100.529">  2  5  1 -1</clus>
<clus scale="  128.213">  1  9  2 -1</clus>
<clus scale="  128.213">  1  5  2 -1</clus>
</clustering>
</event>
<event>
 9    1  0.1315259E-005  0.9314430E+02  0.7546771E-02  0.1296694E+00
          2   -1    0    0  502    0 -0.00000000000E+00  0.00000000000E+00  0.10854856285E+03  0.10854856285E+03  0.00000000000E+00 0. -1.
         21   -1    0    0  501  502  0.00000000000E+00 -0.00000000000E+00 -0.26625583470E+03  0.26625583470E+03  0.00000000000E+00 0.  1.
         23    2    1    2    0    0 -0.20505471227E+00  0.10348120971E+01  0.42376485327E+02  0.10156571360E+03  0.92296883946E+02 0.  0.
         23    2    1    2    0    0  0.15744914376E+02  0.66366213546E+02 -0.96010014611E+02  0.14827577190E+03  0.90085542670E+02 0.  0.
        -11    1    4    4    0    0  0.21910237624E+02 -0.62297017848E+01  0.53972886739E+01  0.23409366119E+02  0.00000000000E+00 0. -1.
         11    1    4    4    0    0 -0.61653232471E+01  0.72595915331E+02 -0.10140730329E+03  0.12486640578E+03  0.00000000000E+00 0.  1.
        -13    1    3    3    0    0 -0.54136375324E+01  0.38264471131E+02  0.50014428996E+02  0.63205382129E+02  0.00000000000E+00 0.  1.
         13    1    3    3    0    0  0.52085828202E+01 -0.37229659034E+02 -0.76379436687E+01  0.38360331467E+02  0.00000000000E+00 0. -1.
          2    1    1    2  501    0 -0.15539859664E+02 -0.67401025643E+02 -0.10407374257E+03  0.12496291205E+03  0.00000000000E+00 0. -1.
<scales pt_clust_5="13000.00000" pt_clust_6="13000.00000" pt_clust_7="13000.00000" pt_clust_8="13000.00000" pt_clust_9="69.16925"></scales>
<clustering>
<clus scale="   69.169">  2  9  1 -1</clus>
<clus scale="   90.086">  5  6 -1 -1</clus>
<clus scale="   90.954">  2  5  1 -1</clus>
<clus scale="   92.297">  7  8 -1 -1</clus>
<clus scale="   69.169">  2  5  1 -1</clus>
</clustering>
</event>
<event>
 9    1  0.1315259E-005  0.2644992E+03  0.7546771E-02  0.1104524E+00
          2   -1    0    0  502    0 -0.00000000000E+00  0.00000000000E+00  0.95632089500E+03  0.95632089500E+03  0.00000000000E+00 0. -1.
         21   -1    0    0  501  502  0.00000000000E+00 -0.00000000000E+00 -0.11360553122E+03  0.11360553122E+03  0.00000000000E+00 0.  1.
         23    2    1    2    0    0 -0.21011993488E+03 -0.14179533435E+03  0.55520084541E+03  0.61700702703E+03  0.90517339725E+02 0.  0.
         23    2    1    2    0    0  0.18059919179E+03  0.16024123095E+03  0.31589253272E+03  0.40800796331E+03  0.91591952304E+02 0.  0.
        -11    1    4    4    0    0  0.91407544507E+02  0.12969167305E+03  0.23628421202E+03  0.28461464843E+03  0.00000000000E+00 0.  1.
         11    1    4    4    0    0  0.89191647279E+02  0.30549557899E+02  0.79608320695E+02  0.12339331488E+03  0.00000000000E+00 0. -1.
        -11    1    3    3    0    0 -0.49759816941E+02 -0.96073753410E+01  0.52145792087E+02  0.72715367532E+02  0.00000000000E+00 0.  1.
         11    1    3    3    0    0 -0.16036011794E+03 -0.13218795901E+03  0.50305505332E+03  0.54429165950E+03  0.00000000000E+00 0. -1.
          2    1    1    2  501    0  0.29520743095E+02 -0.18445896605E+02 -0.28378014341E+02  0.44911435875E+02  0.00000000000E+00 0. -1.
<scales pt_clust_5="13000.00000" pt_clust_6="13000.00000" pt_clust_7="13000.00000" pt_clust_8="13000.00000" pt_clust_9="34.80985"></scales>
<clustering>
<clus scale="   34.810">  2  9  1 -1</clus>
<clus scale="   90.517">  7  8 -1 -1</clus>
<clus scale="   91.592">  5  6 -1 -1</clus>
<clus scale="  264.129">  1  7  2 -1</clus>
<clus scale="   34.810">  2  5  1 -1</clus>
</clustering>
</event>
<event>
 9    1  0.1315259E-005  0.1178176E+03  0.7546771E-02  0.1248254E+00
         21   -1    0    0  501  502  0.00000000000E+00  0.00000000000E+00  0.24856709752E+03  0.24856709752E+03  0.00000000000E+00 0.  1.
         -1   -1    0    0    0  501 -0.00000000000E+00 -0.00000000000E+00 -0.86593566384E+02  0.86593566384E+02  0.00000000000E+00 0.  1.
         23    2    1    2    0    0 -0.78192575279E+02  0.45393829970E+02  0.31281474567E+02  0.13238881317E+03  0.91507314309E+02 0.  0.
         23    2    1    2    0    0  0.58416054743E+02  0.53237472037E+00  0.82475638341E+02  0.13330855087E+03  0.86926520354E+02 0.  0.
        -13    1    4    4    0    0  0.47608030531E+02  0.40900640608E+02  0.45675615926E+02  0.77625053065E+02  0.00000000000E+00 0.  1.
         13    1    4    4    0    0  0.10808024212E+02 -0.40368265887E+02  0.36800022415E+02  0.55683497805E+02  0.00000000000E+00 0. -1.
        -13    1    3    3    0    0 -0.34245771914E+02 -0.49833210964E+01  0.51944277839E+02  0.62416459235E+02  0.00000000000E+00 0.  1.
         13    1    3    3    0    0 -0.43946803365E+02  0.50377151066E+02 -0.20662803272E+02  0.69972353931E+02  0.00000000000E+00 0. -1.
         -1    1    1    2    0  502  0.19776520536E+02 -0.45926204690E+02  0.48216418229E+02  0.69463299869E+02  0.00000000000E+00 0.  1.
<scales pt_clust_5="13000.00000" pt_clust_6="13000.00000" pt_clust_7="13000.00000" pt_clust_8="13000.00000" pt_clust_9="50.00327"></scales>
<clustering>
<clus scale="   50.003">  1  9  2 -1</clus>
<clus scale="   86.927">  5  6 -1 -1</clus>
<clus scale="   91.507">  7  8 -1 -1</clus>
<clus scale="  114.296">  1  5  2 -1</clus>
<clus scale="   50.003">  1  5  2 -1</clus>
</clustering>
</event>
<event>
 9    1  0.1315259E-005  0.2219743E+03  0.7546771E-02  0.1132505E+00
         21   -1    0    0  501  502  0.00000000000E+00  0.00000000000E+00  0.10772221110E+04  0.10772221110E+04  0.00000000000E+00 0.  1.
         -2   -1    0    0    0  501 -0.00000000000E+00 -0.00000000000E+00 -0.72253215896E+02  0.72253215896E+02  0.00000000000E+00 0.  1.
         23    2    1    2    0    0 -0.12363444774E+03  0.16691602868E+03  0.22070052313E+03  0.31583322741E+03  0.88856453485E+02 0.  0.
         23    2    1    2    0    0  0.67253239558E+02 -0.18684875947E+03  0.54450632388E+03  0.58653484727E+03  0.90002962013E+02 0.  0.
        -11    1    4    4    0    0  0.55772001625E+02 -0.83121563773E+02  0.16544074457E+03  0.19336584624E+03  0.00000000000E+00 0.  1.
         11    1    4    4    0    0  0.11481237934E+02 -0.10372719570E+03  0.37906557931E+03  0.39316900103E+03  0.00000000000E+00 0. -1.
        -13    1    3    3    0    0 -0.70906952805E+02  0.12539116463E+03  0.19825709969E+03  0.24506451743E+03  0.00000000000E+00 0. -1.
         13    1    3    3    0    0 -0.52727494930E+02  0.41524864054E+02  0.22443423433E+02  0.70768709976E+02  0.00000000000E+00 0.  1.
         -2    1    1    2    0  502  0.56381208177E+02  0.19932730786E+02  0.23976204805E+03  0.24710725218E+03  0.00000000000E+00 0.  1.
<scales pt_clust_5="13000.00000" pt_clust_6="13000.00000" pt_clust_7="13000.00000" pt_clust_8="13000.00000" pt_clust_9="59.80096"></scales>
<clustering>
<clus scale="   59.801">  1  9  2 -1</clus>
<clus scale="   88.856">  7  8 -1 -1</clus>
<clus scale="   90.003">  5  6 -1 -1</clus>
<clus scale="  221.512">  2  7  1 -1</clus>
<clus scale="   59.801">  1  5  2 -1</clus>
</clustering>
</event>
<event>
 9    1  0.1315259E-005  0.9117025E+02  0.7546771E-02  0.1305699E+00
         -1   -1    0    0    0  501 -0.00000000000E+00  0.00000000000E+00  0.55190849901E+02  0.55190849901E+02  0.00000000000E+00 0.  1.
         21   -1    0    0  501  502  0.00000000000E+00 -0.00000000000E+00 -0.60254248867E+03  0.60254248867E+03  0.00000000000E+00 0. -1.
         23    2    1    2    0    0  0.20167533318E+02  0.11041500518E+02 -0.12013931733E+02  0.94357200466E+02  0.90721015153E+02 0.  0.
         23    2    1    2    0    0  0.41440964997E+02  0.21354871346E+02 -0.20162081531E+03  0.22247718563E+03  0.81680847507E+02 0.  0.
        -13    1    4    4    0    0  0.53609068662E+00 -0.29079842178E+02 -0.59953303435E+02  0.66635750218E+02  0.00000000000E+00 0.  1.
         13    1    4    4    0    0  0.40904874310E+02  0.50434713524E+02 -0.14166751188E+03  0.15584143541E+03  0.00000000000E+00 0. -1.
        -13    1    3    3    0    0  0.32311984916E+02 -0.24996399837E+02 -0.31537644296E+02  0.51609179239E+02  0.00000000000E+00 0. -1.
         13    1    3    3    0    0 -0.12144451597E+02  0.36037900355E+02  0.19523712563E+02  0.42748021227E+02  0.00000000000E+00 0.  1.
         -1    1    1    2    0  502 -0.61608498315E+02 -0.32396371864E+02 -0.33371689173E+03  0.34089895247E+03  0.00000000000E+00 0.  1.
<scales pt_clust_5="13000.00000" pt_clust_6="13000.00000" pt_clust_7="13000.00000" pt_clust_8="13000.00000" pt_clust_9="69.60698"></scales>
<clustering>
<clus scale="   69.607">  2  9  1 -1</clus>
<clus scale="   81.681">  5  6 -1 -1</clus>
<clus scale="   82.180">  2  5  1 -1</clus>
<clus scale="   90.721">  7  8 -1 -1</clus>
<clus scale="   69.607">  2  5  1 -1</clus>
</clustering>
</event>
<event>
 9    1  0.1315259E-005  0.9730460E+02  0.7546771E-02  0.1287921E+00
         -3   -1    0    0    0  501 -0.00000000000E+00  0.00000000000E+00  0.45288081739E+03  0.45288081739E+03  0.00000000000E+00 0.  1.
         21   -1    0    0  501  502  0.00000000000E+00 -0.00000000000E+00 -0.48538527500E+02  0.48538527500E+02  0.00000000000E+00 0.  1.
         23    2    1    2    0    0 -0.27385926261E+02 -0.30147168083E+01  0.32071617388E+03  0.33446417922E+03  0.90820402569E+02 0.  0.
         23    2    1    2    0    0  0.10325128013E+02 -0.32540168715E+02  0.78195866111E+02  0.12714677038E+03  0.94266838775E+02 0.  0.
        -11    1    4    4    0    0  0.44745889404E+01 -0.64966847990E+02  0.63878177244E+02  0.91220254395E+02  0.00000000000E+00 0.  1.
         11    1    4    4    0    0  0.58505390727E+01  0.32426679275E+02  0.14317688868E+02  0.35926515984E+02  0.00000000000E+00 0. -1.
        -13    1    3    3    0    0 -0.57804386430E+02  0.72245237936E+01  0.15321533565E+03  0.16391607582E+03  0.00000000000E+00 0.  1.
         13    1    3    3    0    0  0.30418460169E+02 -0.10239240602E+02  0.16750083823E+03  0.17054810340E+03  0.00000000000E+00 0. -1.
         -3    1    1    2    0  502  0.17060798248E+02  0.35554885523E+02  0.54302499045E+01  0.39808395289E+02  0.00000000000E+00 0.  1.
<scales pt_clust_5="13000.00000" pt_clust_6="13000.00000" pt_clust_7="13000.00000" pt_clust_8="13000.00000" pt_clust_9="39.43629"></scales>
<clustering>
<clus scale="   39.436">  2  9  1 -1</clus>
<clus scale="   90.820">  7  8 -1 -1</clus>
<clus scale="   93.970">  1  7  2 -1</clus>
<clus scale="   94.267">  5  6 -1 -1</clus>
<clus scale="   39.436">  2  5  1 -1</clus>
</clustering>
</event>
<event>
 9    1  0.1315259E-005  0.1662350E+03  0.7546771E-02  0.1182142E+00
          2   -1    0    0  502    0 -0.00000000000E+00  0.00000000000E+00  0.50333041796E+03  0.50333041796E+03  0.00000000000E+00 0. -1.
         21   -1    0    0  501  502  0.00000000000E+00 -0.00000000000E+00 -0.11581860227E+03  0.11581860227E+03  0.00000000000E+00 0. -1.
         23    2    1    2    0    0  0.13197571028E+03  0.73333586143E+02  0.35779071055E+03  0.39954077170E+03  0.93932064496E+02 0.  0.
         23    2    1    2    0    0 -0.70938146571E+02 -0.45344974142E+02 -0.31715510270E+02  0.12859503905E+03  0.91882659726E+02 0.  0.
        -13    1    4    4    0    0 -0.42376281188E+02 -0.68043644088E+02  0.14189308114E+00  0.80160506746E+02  0.00000000000E+00 0.  1.
         13    1    4    4    0    0 -0.28561865383E+02  0.22698669946E+02 -0.31857403351E+02  0.48434532306E+02  0.00000000000E+00 0. -1.
        -13    1    3    3    0    0  0.13671353420E+03  0.40312437242E+02  0.31067626570E+03  0.34181197332E+03  0.00000000000E+00 0. -1.
         13    1    3    3    0    0 -0.47378239277E+01  0.33021148902E+02  0.47114444843E+02  0.57728798387E+02  0.00000000000E+00 0.  1.
          2    1    1    2  501    0 -0.61037563707E+02 -0.27988612001E+02  0.61436615412E+02  0.91013209471E+02  0.00000000000E+00 0. -1.
<scales pt_clust_5="13000.00000" pt_clust_6="13000.00000" pt_clust_7="13000.00000" pt_clust_8="13000.00000" pt_clust_9="67.14872"></scales>
<clustering>
<clus scale="   67.149">  2  9  1 -1</clus>
<clus scale="   91.883">  5  6 -1 -1</clus>
<clus scale="   93.932">  7  8 -1 -1</clus>
<clus scale="  165.086">  2  5  1 -1</clus>
<clus scale="   67.149">  2  5  1 -1</clus>
</clustering>
</event>
<event>
 9    1  0.1315259E-005  0.1622000E+03  0.7546771E-02  0.1186350E+00
         21   -1    0    0  501  502  0.00000000000E+00  0.00000000000E+00  0.91979319353E+02  0.91979319353E+02  0.00000000000E+00 0.  1.
          2   -1    0    0  502    0 -0.00000000000E+00 -0.00000000000E+00 -0.38372322759E+03  0.38372322759E+03  0.00000000000E+00 0. -1.
         23    2    1    2    0    0 -0.68271021073E+02  0.10160032798E+03 -0.14547140035E+03  0.21043808286E+03  0.90214740665E+02 0.  0.
         23    2    1    2    0    0  0.10599838540E+03 -0.11384294150E+03 -0.10447280035E+03  0.20764110810E+03  0.89467260634E+02 0.  0.
        -11    1    4    4    0    0  0.87561649109E+02 -0.35207056373E+02 -0.33572036887E+02  0.10016816298E+03  0.00000000000E+00 0.  1.
         11    1    4    4    0    0  0.18436736286E+02 -0.78635885126E+02 -0.70900763464E+02  0.10747294513E+03  0.00000000000E+00 0. -1.
        -13    1    3    3    0    0 -0.15511541270E+02  0.97333828549E+02 -0.85827028645E+02  0.13069338521E+03  0.00000000000E+00 0.  1.
         13    1    3    3    0    0 -0.52759479803E+02  0.42664994339E+01 -0.59644371709E+02  0.79744697648E+02  0.00000000000E+00 0. -1.
          2    1    1    2  501    0 -0.37727364322E+02  0.12242613517E+02 -0.41799707532E+02  0.57623355978E+02  0.00000000000E+00 0. -1.
<scales pt_clust_5="13000.00000" pt_clust_6="13000.00000" pt_clust_7="13000.00000" pt_clust_8="13000.00000" pt_clust_9="39.66405"></scales>
<clustering>
<clus scale="   39.664">  1  9  2 -1</clus>
<clus scale="   89.467">  5  6 -1 -1</clus>
<clus scale="   90.215">  7  8 -1 -1</clus>
<clus scale="  161.785">  1  5  2 -1</clus>
<clus scale="   39.664">  1  5  2 -1</clus>
</clustering>
</event>
<event>
 9    1  0.1315259E-005  0.1236785E+03  0.7546771E-02  0.1239924E+00
         21   -1    0    0  501  502  0.00000000000E+00  0.00000000000E+00  0.16343228075E+03  0.16343228075E+03  0.00000000000E+00 0. -1.
          3   -1    0    0  502    0 -0.00000000000E+00 -0.00000000000E+00 -0.17990453209E+03  0.17990453209E+03  0.00000000000E+00 0. -1.
         23    2    1    2    0    0 -0.27992206498E+02 -0.90594700891E+02 -0.84830259371E+02  0.15675999148E+03  0.91578155524E+02 0.  0.
         23    2    1    2    0    0  0.18285376385E+02  0.28887451223E+02  0.20174946411E+02  0.10768693202E+03  0.10010298216E+03 0.  0.
        -13    1    4    4    0    0  0.18015715005E+02 -0.14659335182E+02 -0.32117791176E+02  0.39636026606E+02  0.00000000000E+00 0. -1.
         13    1    4    4    0    0  0.26966137994E+00  0.43546786406E+02  0.52292737587E+02  0.68050905415E+02  0.00000000000E+00 0.  1.
        -13    1    3    3    0    0  0.32268350515E+02 -0.47392166190E+02 -0.42616312554E+02  0.71438182766E+02  0.00000000000E+00 0.  1.
         13    1    3    3    0    0 -0.60260557013E+02 -0.43202534701E+02 -0.42213946817E+02  0.85321808713E+02  0.00000000000E+00 0. -1.
          3    1    1    2  501    0  0.97068301131E+01  0.61707249668E+02  0.48183061624E+02  0.78889889338E+02  0.00000000000E+00 0. -1.
<scales pt_clust_5="13000.00000" pt_clust_6="13000.00000" pt_clust_7="13000.00000" pt_clust_8="13000.00000" pt_clust_9="62.46605"></scales>
<clustering>
<clus scale="   62.466">  1  9  2 -1</clus>
<clus scale="   91.578">  7  8 -1 -1</clus>
<clus scale="  100.103">  5  6 -1 -1</clus>
<clus scale="  116.886">  2  7  1 -1</clus>
<clus scale="   62.466">  1  5  2 -1</clus>
</clustering>
</event>
<event>
 9    1  0.1315259E-005  0.1047116E+03  0.7546771E-02  0.1270706E+00
         21   -1    0    0  501  502  0.00000000000E+00  0.00000000000E+00  0.76860576830E+02  0.76860576830E+02  0.00000000000E+00 0. -1.
          1   -1    0    0  502    0 -0.00000000000E+00 -0.00000000000E+00 -0.33322868661E+03  0.33322868661E+03  0.00000000000E+00 0. -1.
         23    2    1    2    0    0 -0.13641314494E+02 -0.39608555631E+02 -0.16494906614E+03  0.19311534891E+03  0.91271136872E+02 0.  0.
         23    2    1    2    0    0 -0.80289665654E+01  0.69240455695E+02 -0.12317886643E+03  0.16843179956E+03  0.91310092307E+02 0.  0.
        -13    1    4    4    0    0  0.20150871396E+02  0.75847483339E+02 -0.59502218335E+02  0.98485594550E+02  0.00000000000E+00 0.  1.
         13    1    4    4    0    0 -0.28179837962E+02 -0.66070276447E+01 -0.63676648099E+02  0.69946205007E+02  0.00000000000E+00 0. -1.
        -13    1    3    3    0    0  0.19098449008E+02 -0.57617888990E+02 -0.12142387785E+03  0.13575098525E+03  0.00000000000E+00 0.  1.
         13    1    3    3    0    0 -0.32739763503E+02  0.18009333359E+02 -0.43525188291E+02  0.57364363659E+02  0.00000000000E+00 0. -1.
          1    1    1    2  501    0  0.21670281060E+02 -0.29631900063E+02  0.31759822788E+02  0.48542114973E+02  0.00000000000E+00 0. -1.
<scales pt_clust_5="13000.00000" pt_clust_6="13000.00000" pt_clust_7="13000.00000" pt_clust_8="13000.00000" pt_clust_9="36.71036"></scales>
<clustering>
<clus scale="   36.710">  1  9  2 -1</clus>
<clus scale="   91.271">  7  8 -1 -1</clus>
<clus scale="   91.310">  5  6 -1 -1</clus>
<clus scale="  104.678">  2  7  1 -1</clus>
<clus scale="   36.710">  1  5  2 -1</clus>
</clustering>
</event>
<event>
 9    1  0.1315259E-005  0.9442222E+02  0.7546771E-02  0.1293256E+00
         -1   -1    0    0    0  501 -0.00000000000E+00  0.00000000000E+00  0.39991112851E+03  0.39991112851E+03  0.00000000000E+00 0.  1.
         21   -1    0    0  501  502  0.00000000000E+00 -0.00000000000E+00 -0.74603547349E+02  0.74603547349E+02  0.00000000000E+00 0. -1.
         23    2    1    2    0    0  0.15168597458E+02  0.16338133835E+02  0.28111820592E+03  0.29623296690E+03  0.90716613783E+02 0.  0.
         23    2    1    2    0    0  0.41698145767E+02 -0.39079212501E+02  0.11890647805E+02  0.10904161264E+03  0.92101930337E+02 0.  0.
        -11    1    4    4    0    0  0.26983233051E+02 -0.22257515518E+02 -0.39644194532E+02  0.52869216213E+02  0.00000000000E+00 0. -1.
         11    1    4    4    0    0  0.14714912716E+02 -0.16821696983E+02  0.51534842337E+02  0.56172396427E+02  0.00000000000E+00 0.  1.
        -13    1    3    3    0    0  0.41635147917E+02 -0.19027873339E+02  0.18284958869E+03  0.18849275209E+03  0.00000000000E+00 0.  1.
         13    1    3    3    0    0 -0.26466550459E+02  0.35366007174E+02  0.98268617227E+02  0.10774021481E+03  0.00000000000E+00 0. -1.
         -1    1    1    2    0  502 -0.56866743224E+02  0.22741078667E+02  0.32298727441E+02  0.69240096318E+02  0.00000000000E+00 0.  1.
<scales pt_clust_5="13000.00000" pt_clust_6="13000.00000" pt_clust_7="13000.00000" pt_clust_8="13000.00000" pt_clust_9="61.24527"></scales>
<clustering>
<clus scale="   61.245">  2  9  1 -1</clus>
<clus scale="   90.717">  7  8 -1 -1</clus>
<clus scale="   92.102">  5  6 -1 -1</clus>
<clus scale="   93.071">  1  7  2 -1</clus>
<clus scale="   61.245">  2  5  1 -1</clus>
</clustering>
</event>
<event>
 9    1  0.1315259E-005  0.9587139E+02  0.7546771E-02  0.1293825E+00
         21   -1    0    0  501  502  0.00000000000E+00  0.00000000000E+00  0.30067558493E+03  0.30067558493E+03  0.00000000000E+00 0. -1.
          3   -1    0    0  502    0 -0.00000000000E+00 -0.00000000000E+00 -0.10727242608E+03  0.10727242608E+03  0.00000000000E+00 0. -1.
         23    2    1    2    0    0  0.66638937681E+01  0.10771675983E+02 -0.42210845545E+02  0.97543546347E+02  0.87020408346E+02 0.  0.
         23    2    1    2    0    0  0.30310375894E+02 -0.16646994513E+02  0.36003991425E+02  0.10731391033E+03  0.94995508520E+02 0.  0.
        -11    1    4    4    0    0 -0.14841643793E+02 -0.45138613724E+02  0.13691730319E+02  0.49449290374E+02  0.00000000000E+00 0.  1.
         11    1    4    4    0    0  0.45152019687E+02  0.28491619211E+02  0.22312261107E+02  0.57864619957E+02  0.00000000000E+00 0. -1.
        -11    1    3    3    0    0  0.16645053102E+02 -0.28211437516E+02 -0.46711757803E+02  0.57052005368E+02  0.00000000000E+00 0.  1.
         11    1    3    3    0    0 -0.99811593338E+01  0.38983113499E+02  0.45009122582E+01  0.40491540979E+02  0.00000000000E+00 0. -1.
          3    1    1    2  501    0 -0.36974269662E+02  0.58753185297E+01  0.19961001297E+03  0.20309055434E+03  0.00000000000E+00 0. -1.
<scales pt_clust_5="13000.00000" pt_clust_6="13000.00000" pt_clust_7="13000.00000" pt_clust_8="13000.00000" pt_clust_9="37.43816"></scales>
<clustering>
<clus scale="   37.438">  1  9  2 -1</clus>
<clus scale="   87.020">  7  8 -1 -1</clus>
<clus scale="   87.976">  2  7  1 -1</clus>
<clus scale="   94.996">  5  6 -1 -1</clus>
<clus scale="   37.438">  1  5  2 -1</clus>
</clustering>
</event>
<event>
 9    1  0.1315259E-005  0.1413392E+03  0.7546771E-02  0.1228190E+00
         21   -1    0    0  501  502  0.00000000000E+00  0.00000000000E+00  0.17388972209E+03  0.17388972209E+03  0.00000000000E+00 0. -1.
          3   -1    0    0  502    0 -0.00000000000E+00 -0.00000000000E+00 -0.37057080191E+03  0.37057080191E+03  0.00000000000E+00 0. -1.
         23    2    1    2    0    0 -0.35450655408E+02 -0.43663704507E+01  0.14513117657E+02  0.10067919952E+03  0.93004604577E+02 0.  0.
         23    2    1    2    0    0 -0.71118085863E+02  0.18198806622E+02 -0.28775620159E+03  0.31183446631E+03  0.95121628050E+02 0.  0.
        -11    1    4    4    0    0 -0.84451739573E+02 -0.62865319464E+00 -0.26947384172E+03  0.28239802211E+03  0.00000000000E+00 0. -1.
         11    1    4    4    0    0  0.13333653710E+02  0.18827459816E+02 -0.18282359875E+02  0.29436444198E+02  0.00000000000E+00 0.  1.
        -13    1    3    3    0    0 -0.27230454434E+02 -0.36742825120E+02 -0.22375815751E+02  0.50913750373E+02  0.00000000000E+00 0. -1.
         13    1    3    3    0    0 -0.82202009741E+01  0.32376454669E+02  0.36888933409E+02  0.49765449149E+02  0.00000000000E+00 0.  1.
          3    1    1    2  501    0  0.10656874127E+03 -0.13832436171E+02  0.76562004114E+02  0.13194685817E+03  0.00000000000E+00 0. -1.
<scales pt_clust_5="13000.00000" pt_clust_6="13000.00000" pt_clust_7="13000.00000" pt_clust_8="13000.00000" pt_clust_9="104.54016"></scales>
<clustering>
<clus scale="   93.005">  7  8 -1 -1</clus>
<clus scale="   95.122">  5  6 -1 -1</clus>
<clus scale="   99.628">  2  7  1 -1</clus>
<clus scale="  104.540">  1  9  2 -1</clus>
<clus scale="  104.540">  1  5  2 -1</clus>
</clustering>
</event>
<event>
 9    1  0.1315259E-005  0.1854413E+03  0.7546771E-02  0.1162676E+00
          1   -1    0    0  502    0 -0.00000000000E+00  0.00000000000E+00  0.99874622078E+03  0.99874622078E+03  0.00000000000E+00 0. -1.
         21   -1    0    0  501  502  0.00000000000E+00 -0.00000000000E+00 -0.13635477610E+03  0.13635477610E+03  0.00000000000E+00 0.  1.
         23    2    1    2    0    0 -0.10146985969E+03 -0.11040691879E+03  0.59014311393E+03  0.61575495931E+03  0.91648539778E+02 0.  0.
         23    2    1    2    0    0  0.11194526659E+03  0.14829741741E+03  0.36442969766E+03  0.41913212417E+03  0.91317392930E+02 0.  0.
        -11    1    4    4    0    0  0.17166387112E+02  0.96993332644E+02  0.15617476283E+03  0.18464275769E+03  0.00000000000E+00 0. -1.
         11    1    4    4    0    0  0.94778879480E+02  0.51304084767E+02  0.20825493483E+03  0.23448936648E+03  0.00000000000E+00 0.  1.
        -13    1    3    3    0    0 -0.65523273216E+02 -0.74508660383E+01  0.25046901092E+03  0.25900490375E+03  0.00000000000E+00 0. -1.
         13    1    3    3    0    0 -0.35946586472E+02 -0.10295605275E+03  0.33967410302E+03  0.35675005555E+03  0.00000000000E+00 0.  1.
          1    1    1    2  501    0 -0.10475406904E+02 -0.37890498623E+02 -0.92181366912E+02  0.10021391341E+03  0.00000000000E+00 0. -1.
<scales pt_clust_5="13000.00000" pt_clust_6="13000.00000" pt_clust_7="13000.00000" pt_clust_8="13000.00000" pt_clust_9="39.31188"></scales>
<clustering>
<clus scale="   39.312">  2  9  1 -1</clus>
<clus scale="   91.317">  5  6 -1 -1</clus>
<clus scale="   91.649">  7  8 -1 -1</clus>
<clus scale="  185.278">  2  5  1 -1</clus>
<clus scale="   39.312">  2  5  1 -1</clus>
</clustering>
</event>
<event>
 9    1  0.1315259E-005  0.1086406E+03  0.7546771E-02  0.1265146E+00
         21   -1    0    0  501  502  0.00000000000E+00  0.00000000000E+00  0.24944450702E+03  0.24944450702E+03  0.00000000000E+00 0.  1.
          3   -1    0    0  502    0 -0.00000000000E+00 -0.00000000000E+00 -0.10013326915E+03  0.10013326915E+03  0.00000000000E+00 0. -1.
         23    2    1    2    0    0  0.32009270088E+02  0.45697673818E+02 -0.43817897048E+02  0.11562300196E+03  0.91300600853E+02 0.  0.
         23    2    1    2    0    0 -0.16130161892E+02 -0.26100859424E+02  0.12102263398E+03  0.15756414202E+03  0.96117344572E+02 0.  0.
        -11    1    3    3    0    0  0.11868786202E+02  0.71204075596E+02 -0.40961145020E+02  0.82998216058E+02  0.00000000000E+00 0. -1.
         11    1    3    3    0    0  0.20140483886E+02 -0.25506401779E+02 -0.28567520274E+01  0.32624785900E+02  0.00000000000E+00 0.  1.
        -13    1    4    4    0    0  0.30450838038E+02 -0.36497008736E+02  0.34436726636E+02  0.58695598858E+02  0.00000000000E+00 0.  1.
         13    1    4    4    0    0 -0.46580999930E+02  0.10396149313E+02  0.86585907347E+02  0.98868543157E+02  0.00000000000E+00 0. -1.
          3    1    1    2  501    0 -0.15879108197E+02 -0.19596814394E+02  0.72106500927E+02  0.76390632197E+02  0.00000000000E+00 0. -1.
<scales pt_clust_5="13000.00000" pt_clust_6="13000.00000" pt_clust_7="13000.00000" pt_clust_8="13000.00000" pt_clust_9="25.22263"></scales>
<clustering>
<clus scale="   25.223">  1  9  2 -1</clus>
<clus scale="   91.301">  5  6 -1 -1</clus>
<clus scale="   96.117">  7  8 -1 -1</clus>
<clus scale="  104.403">  2  5  1 -1</clus>
<clus scale="   25.223">  1  5  2 -1</clus>
</clustering>
</event>
<event>
 9    1  0.1315259E-005  0.3005804E+03  0.7546771E-02  0.1106261E+00
         21   -1    0    0  501  502  0.00000000000E+00  0.00000000000E+00  0.96581860874E+03  0.96581860874E+03  0.00000000000E+00 0. -1.
         -1   -1    0    0    0  501 -0.00000000000E+00 -0.00000000000E+00 -0.20808111995E+03  0.20808111995E+03  0.00000000000E+00 0.  1.
         23    2    1    2    0    0  0.79697655306E+02 -0.12233931151E+03  0.27834282960E+03  0.32726014027E+03  0.91136409947E+02 0.  0.
         23    2    1    2    0    0 -0.34383360965E+03  0.12551456174E+03  0.11349899526E+03  0.39535528614E+03  0.97202489801E+02 0.  0.
        -11    1    4    4    0    0 -0.17217272170E+03  0.12475290937E+02  0.62458546713E+02  0.18357600344E+03  0.00000000000E+00 0. -1.
         11    1    4    4    0    0 -0.17166088796E+03  0.11303927080E+03  0.51040448546E+02  0.21177928271E+03  0.00000000000E+00 0.  1.
        -11    1    3    3    0    0 -0.28673798118E+01 -0.67749693209E+02  0.15447626285E+03  0.16870435258E+03  0.00000000000E+00 0. -1.
         11    1    3    3    0    0  0.82565035118E+02 -0.54589618303E+02  0.12386656675E+03  0.15855578769E+03  0.00000000000E+00 0.  1.
         -1    1    1    2    0  502  0.26413595435E+03 -0.31752502244E+01  0.36589566393E+03  0.45128430227E+03  0.00000000000E+00 0.  1.
<scales pt_clust_5="13000.00000" pt_clust_6="13000.00000" pt_clust_7="13000.00000" pt_clust_8="13000.00000" pt_clust_9="284.42969"></scales>
<clustering>
<clus scale="   91.136">  7  8 -1 -1</clus>
<clus scale="   97.202">  5  6 -1 -1</clus>
<clus scale="  172.118">  2  7  1 -1</clus>
<clus scale="  284.430">  1  9  2 -1</clus>
<clus scale="  284.430">  1  5  2 -1</clus>
</clustering>
</event>
<event>
 9    1  0.1315259E-005  0.9404122E+02  0.7546771E-02  0.1294213E+00
         21   -1    0    0  501  502  0.00000000000E+00  0.00000000000E+00  0.48735565317E+02  0.48735565317E+02  0.00000000000E+00 0.  1.
          1   -1    0    0  502    0 -0.00000000000E+00 -0.00000000000E+00 -0.29973653846E+03  0.29973653846E+03  0.00000000000E+00 0. -1.
         23    2    1    2    0    0 -0.19748468330E+01  0.19909543099E+01 -0.81773084425E+02  0.12293690402E+03  0.91753916065E+02 0.  0.
         23    2    1    2    0    0  0.13925011263E+02 -0.19922495424E+02 -0.58531174453E+02  0.11276060535E+03  0.93264376762E+02 0.  0.
        -11    1    3    3    0    0 -0.95794159084E+00  0.26010948875E+02  0.10138212097E+02  0.27933321642E+02  0.00000000000E+00 0. -1.
         11    1    3    3    0    0 -0.10169052422E+01 -0.24019994565E+02 -0.91911296523E+02  0.95003582373E+02  0.00000000000E+00 0.  1.
        -13    1    4    4    0    0 -0.13224553835E+02 -0.50918007662E+02 -0.19798986072E+02  0.56209716046E+02  0.00000000000E+00 0.  1.
         13    1    4    4    0    0  0.27149565098E+02  0.30995512239E+02 -0.38732188381E+02  0.56550889301E+02  0.00000000000E+00 0. -1.
          1    1    1    2  501    0 -0.11950164430E+02  0.17931541114E+02 -0.11069671427E+03  0.11277459442E+03  0.00000000000E+00 0. -1.
<scales pt_clust_5="13000.00000" pt_clust_6="13000.00000" pt_clust_7="13000.00000" pt_clust_8="13000.00000" pt_clust_9="21.54871"></scales>
<clustering>
<clus scale="   21.549">  1  9  2 -1</clus>
<clus scale="   91.754">  5  6 -1 -1</clus>
<clus scale="   92.543">  2  5  1 -1</clus>
<clus scale="   93.264">  7  8 -1 -1</clus>
<clus scale="   21.549">  1  5  2 -1</clus>
</clustering>
</event>
<event>
 9    1  0.1315259E-005  0.2478178E+03  0.7546771E-02  0.1114973E+00
         21   -1    0    0  501  502  0.00000000000E+00  0.00000000000E+00  0.15071614121E+03  0.15071614121E+03  0.00000000000E+00 0. -1.
          2   -1    0    0  502    0 -0.00000000000E+00 -0.00000000000E+00 -0.10916369171E+04  0.10916369171E+04  0.00000000000E+00 0. -1.
         23    2    1    2    0    0 -0.16796035829E+03  0.79445815983E+02 -0.31177686435E+03  0.37301380917E+03  0.86093954814E+02 0.  0.
         23    2    1    2    0    0  0.28748120026E+03 -0.11817543126E+02 -0.66252473184E+03  0.72801305157E+03  0.90988395620E+02 0.  0.
        -11    1    4    4    0    0  0.22860133194E+03  0.23231477640E+02 -0.45973929541E+03  0.51396351064E+03  0.00000000000E+00 0. -1.
         11    1    4    4    0    0  0.58879868317E+02 -0.35049020766E+02 -0.20278543642E+03  0.21404954093E+03  0.00000000000E+00 0.  1.
        -13    1    3    3    0    0 -0.55745469113E+02 -0.11461401387E+02 -0.12122097026E+03  0.13391581191E+03  0.00000000000E+00 0.  1.
         13    1    3    3    0    0 -0.11221488918E+03  0.90907217369E+02 -0.19055589408E+03  0.23909799726E+03  0.00000000000E+00 0. -1.
          2    1    1    2  501    0 -0.11952084197E+03 -0.67628272857E+02  0.33380820299E+02  0.14132619756E+03  0.00000000000E+00 0. -1.
<scales pt_clust_5="13000.00000" pt_clust_6="13000.00000" pt_clust_7="13000.00000" pt_clust_8="13000.00000" pt_clust_9="137.32740"></scales>
<clustering>
<clus scale="   86.094">  7  8 -1 -1</clus>
<clus scale="   90.988">  5  6 -1 -1</clus>
<clus scale="  137.327">  1  9  2 -1</clus>
<clus scale="  246.063">  2  7  1 -1</clus>
<clus scale="  137.327">  1  5  2 -1</clus>
</clustering>
</event>
<event>
 9    1  0.1315259E-005  0.9616865E+02  0.7546771E-02  0.1288654E+00
         21   -1    0    0  501  502  0.00000000000E+00  0.00000000000E+00  0.27398447707E+03  0.27398447707E+03  0.00000000000E+00 0. -1.
         -1   -1    0    0    0  501 -0.00000000000E+00 -0.00000000000E+00 -0.11369168650E+03  0.11369168650E+03  0.00000000000E+00 0.  1.
         23    2    1    2    0    0  0.28724607244E+02  0.22774496680E+02 -0.56434628065E+02  0.11348803405E+03  0.91383181530E+02 0.  0.
         23    2    1    2    0    0  0.33272116510E+02 -0.28882415440E+02  0.10399438716E+03  0.14538736549E+03  0.91550127401E+02 0.  0.
        -11    1    3    3    0    0  0.22533394567E+02 -0.34203912370E+02 -0.20079093689E+02  0.45616131966E+02  0.00000000000E+00 0. -1.
         11    1    3    3    0    0  0.61912126769E+01  0.56978409050E+02 -0.36355534376E+02  0.67871902081E+02  0.00000000000E+00 0.  1.
        -11    1    4    4    0    0 -0.14784412382E+02 -0.20301934226E+02 -0.53165971766E+01  0.25671259968E+02  0.00000000000E+00 0.  1.
         11    1    4    4    0    0  0.48056528892E+02 -0.85804812139E+01  0.10931098433E+03  0.11971610553E+03  0.00000000000E+00 0. -1.
         -1    1    1    2    0  502 -0.61996723754E+02  0.61079187603E+01  0.11273303148E+03  0.12880076402E+03  0.00000000000E+00 0.  1.
<scales pt_clust_5="13000.00000" pt_clust_6="13000.00000" pt_clust_7="13000.00000" pt_clust_8="13000.00000" pt_clust_9="62.29687"></scales>
<clustering>
<clus scale="   62.297">  1  9  2 -1</clus>
<clus scale="   91.383">  5  6 -1 -1</clus>
<clus scale="   91.550">  7  8 -1 -1</clus>
<clus scale="   96.010">  2  5  1 -1</clus>
<clus scale="   62.297">  1  5  2 -1</clus>
</clustering>
</event>
<event>
 9    1  0.1315259E-005  0.1075570E+03  0.7546771E-02  0.1265539E+00
         21   -1    0    0  501  502  0.00000000000E+00  0.00000000000E+00  0.42784793780E+03  0.42784793780E+03  0.00000000000E+00 0. -1.
          2   -1    0    0  502    0 -0.00000000000E+00 -0.00000000000E+00 -0.95654958048E+02  0.95654958048E+02  0.00000000000E+00 0. -1.
         23    2    1    2    0    0 -0.49522694563E+02 -0.27667320040E+02 -0.41224409855E+02  0.11561685446E+03  0.91922941597E+02 0.  0.
         23    2    1    2    0    0  0.18856905159E+02  0.63920087529E+02  0.21910331991E+03  0.24643175716E+03  0.90999921312E+02 0.  0.
        -11    1    3    3    0    0 -0.58924943937E+01 -0.49604355675E+02  0.25729309725E+01  0.50019331922E+02  0.00000000000E+00 0. -1.
         11    1    3    3    0    0 -0.43630200169E+02  0.21937035635E+02 -0.43797340828E+02  0.65597522536E+02  0.00000000000E+00 0.  1.
        -11    1    4    4    0    0  0.90890192313E+01 -0.23079664804E+02  0.39794892921E+02  0.46892586841E+02  0.00000000000E+00 0.  1.
         11    1    4    4    0    0  0.97678859278E+01  0.86999752334E+02  0.17930842699E+03  0.19953917032E+03  0.00000000000E+00 0. -1.
          2    1    1    2  501    0  0.30665789403E+02 -0.36252767489E+02  0.15431406970E+03  0.16145428423E+03  0.00000000000E+00 0. -1.
<scales pt_clust_5="13000.00000" pt_clust_6="13000.00000" pt_clust_7="13000.00000" pt_clust_8="13000.00000" pt_clust_9="47.48319"></scales>
<clustering>
<clus scale="   47.483">  1  9  2 -1</clus>
<clus scale="   91.000">  7  8 -1 -1</clus>
<clus scale="   91.923">  5  6 -1 -1</clus>
<clus scale="  106.769">  1  7  2 -1</clus>
<clus scale="   47.483">  1  5  2 -1</clus>
</clustering>
</event>
<event>
 9    1  0.1315259E-005  0.1169305E+03  0.7546771E-02  0.1249640E+00
          1   -1    0    0  502    0 -0.00000000000E+00  0.00000000000E+00  0.78733456330E+02  0.78733456330E+02  0.00000000000E+00 0. -1.
         21   -1    0    0  501  502  0.00000000000E+00 -0.00000000000E+00 -0.32433929637E+03  0.32433929637E+03  0.00000000000E+00 0. -1.
         23    2    1    2    0    0  0.69559302566E+02 -0.27977854675E+02 -0.36441075400E+02  0.12280088415E+03  0.90171216283E+02 0.  0.
         23    2    1    2    0    0 -0.82717041972E+02 -0.32513623968E+02 -0.12534233054E+03  0.17606752337E+03  0.85964109873E+02 0.  0.
        -13    1    3    3    0    0 -0.13309627640E+02  0.16608715422E+02  0.15030738079E+01  0.21336701871E+02  0.00000000000E+00 0.  1.
         13    1    3    3    0    0  0.82868930205E+02 -0.44586570096E+02 -0.37944149208E+02  0.10146418228E+03  0.00000000000E+00 0. -1.
        -13    1    4    4    0    0 -0.34313388220E+02  0.28788285697E+02 -0.36558504177E+02  0.57816072438E+02  0.00000000000E+00 0.  1.
         13    1    4    4    0    0 -0.48403653752E+02 -0.61301909665E+02 -0.88783826360E+02  0.11825145094E+03  0.00000000000E+00 0. -1.
          1    1    1    2  501    0  0.13157739406E+02  0.60491478643E+02 -0.83822434100E+02  0.10420434517E+03  0.00000000000E+00 0. -1.
<scales pt_clust_5="13000.00000" pt_clust_6="13000.00000" pt_clust_7="13000.00000" pt_clust_8="13000.00000" pt_clust_9="61.90594"></scales>
<clustering>
<clus scale="   61.906">  2  9  1 -1</clus>
<clus scale="   85.964">  7  8 -1 -1</clus>
<clus scale="   90.171">  5  6 -1 -1</clus>
<clus scale="  113.718">  2  7  1 -1</clus>
<clus scale="   61.906">  2  5  1 -1</clus>
</clustering>
</event>
<event>
 9    1  0.1315259E-005  0.9643706E+02  0.7546771E-02  0.1288426E+00
         21   -1    0    0  501  502  0.00000000000E+00  0.00000000000E+00  0.10982072891E+03  0.10982072891E+03  0.00000000000E+00 0.  1.
         -2   -1    0    0    0  501 -0.00000000000E+00 -0.00000000000E+00 -0.14485353699E+03  0.14485353699E+03  0.00000000000E+00 0.  1.
         23    2    1    2    0    0  0.25351142772E+02 -0.18683947712E+02 -0.25790024454E+02  0.99920331823E+02  0.91253367107E+02 0.  0.
         23    2    1    2    0    0  0.16985141881E+02  0.46436171931E+02  0.13470972833E+01  0.10303650447E+03  0.90387463031E+02 0.  0.
        -11    1    4    4    0    0  0.52298310223E+02  0.13147576904E+02 -0.47060072921E+01  0.54130569323E+02  0.00000000000E+00 0.  1.
         11    1    4    4    0    0 -0.35313168342E+02  0.33288595027E+02  0.60531045754E+01  0.48905935143E+02  0.00000000000E+00 0. -1.
        -13    1    3    3    0    0  0.91906610785E+01 -0.51183204438E+02 -0.34739007962E+02  0.62537887251E+02  0.00000000000E+00 0.  1.
         13    1    3    3    0    0  0.16160481694E+02  0.32499256726E+02  0.89489835083E+01  0.37382444572E+02  0.00000000000E+00 0. -1.
         -2    1    1    2    0  502 -0.42336284653E+02 -0.27752224219E+02 -0.10589880914E+02  0.51717429607E+02  0.00000000000E+00 0.  1.
<scales pt_clust_5="13000.00000" pt_clust_6="13000.00000" pt_clust_7="13000.00000" pt_clust_8="13000.00000" pt_clust_9="50.62163"></scales>
<clustering>
<clus scale="   50.622">  1  9  2 -1</clus>
<clus scale="   90.387">  5  6 -1 -1</clus>
<clus scale="   91.253">  7  8 -1 -1</clus>
<clus scale="   95.618">  1  5  2 -1</clus>
<clus scale="   50.622">  1  5  2 -1</clus>
</clustering>
</event>
<event>
 9    1  0.1315259E-005  0.2183333E+03  0.7546771E-02  0.1135988E+00
          2   -1    0    0  502    0 -0.00000000000E+00  0.00000000000E+00  0.14164111921E+04  0.14164111921E+04  0.00000000000E+00 0. -1.
         21   -1    0    0  501  502  0.00000000000E+00 -0.00000000000E+00 -0.66184053264E+02  0.66184053264E+02  0.00000000000E+00 0.  1.
         23    2    1    2    0    0  0.16892587509E+03  0.80981625026E+02  0.81520957248E+03  0.84142381063E+03  0.91287497277E+02 0.  0.
         23    2    1    2    0    0 -0.16314499099E+03 -0.16384073750E+03  0.48759844834E+03  0.54552822332E+03  0.79929470554E+02 0.  0.
        -11    1    3    3    0    0  0.41451336113E+02 -0.13381675124E+02  0.10415860757E+03  0.11289950410E+03  0.00000000000E+00 0.  1.
         11    1    3    3    0    0  0.12747453897E+03  0.94363300150E+02  0.71105096491E+03  0.72852430653E+03  0.00000000000E+00 0. -1.
        -11    1    4    4    0    0 -0.13717056665E+03 -0.87965019135E+02  0.29749112310E+03  0.33919695940E+03  0.00000000000E+00 0.  1.
         11    1    4    4    0    0 -0.25974424335E+02 -0.75875718365E+02  0.19010732525E+03  0.20633126392E+03  0.00000000000E+00 0. -1.
          2    1    1    2  501    0 -0.57808840968E+01  0.82859112473E+02  0.47419118049E+02  0.95643211455E+02  0.00000000000E+00 0. -1.
<scales pt_clust_5="13000.00000" pt_clust_6="13000.00000" pt_clust_7="13000.00000" pt_clust_8="13000.00000" pt_clust_9="83.06053"></scales>
<clustering>
<clus scale="   79.929">  7  8 -1 -1</clus>
<clus scale="   83.061">  2  9  1 -1</clus>
<clus scale="   91.287">  5  6 -1 -1</clus>
<clus scale="  213.833">  2  7  1 -1</clus>
<clus scale="   83.061">  2  5  1 -1</clus>
</clustering>
</event>
<event>
 9    1  0.1335904E-005  0.9146003E+02  0.7546771E-02  0.1302576E+00
          2   -1    0    0  502    0 -0.00000000000E+00  0.00000000000E+00  0.12854151698E+03  0.12854151698E+03  0.00000000000E+00 0. -1.
         21   -1    0    0  501  502  0.00000000000E+00 -0.00000000000E+00 -0.21016671537E+03  0.21016671537E+03  0.00000000000E+00 0.  1.
         23    2    1    2    0    0 -0.72919369302E+01  0.10639711190E+02  0.88819265181E+02  0.12409746717E+03  0.85702646933E+02 0.  0.
         23    2    1    2    0    0 -0.61936535752E+01  0.11398772979E+02 -0.84465067309E+02  0.12483319272E+03  0.90998269428E+02 0.  0.
        -13    1    3    3    0    0  0.29627288924E+02 -0.21631847903E+02  0.47210531794E+02  0.59787518806E+02  0.00000000000E+00 0. -1.
         13    1    3    3    0    0 -0.36919225855E+02  0.32271559094E+02  0.41608733387E+02  0.64309948360E+02  0.00000000000E+00 0.  1.
        -13    1    4    4    0    0 -0.43369956753E+02  0.26040152257E+02 -0.57730513933E+02  0.76758419195E+02  0.00000000000E+00 0.  1.
         13    1    4    4    0    0  0.37176303178E+02 -0.14641379278E+02 -0.26734553376E+02  0.48074773524E+02  0.00000000000E+00 0. -1.
          2    1    1    2  501    0  0.13485590505E+02 -0.22038484169E+02 -0.85979396266E+02  0.89777572467E+02  0.00000000000E+00 0. -1.
<scales pt_clust_5="13000.00000" pt_clust_6="13000.00000" pt_clust_7="13000.00000" pt_clust_8="13000.00000" pt_clust_9="25.83710"></scales>
<clustering>
<clus scale="   25.837">  2  9  1 -1</clus>
<clus scale="   85.703">  5  6 -1 -1</clus>
<clus scale="   86.193">  1  5  2 -1</clus>
<clus scale="   90.998">  7  8 -1 -1</clus>
<clus scale="   25.837">  2  5  1 -1</clus>
</clustering>
</event>
<event>
 9    1  0.1315259E-005  0.1450628E+03  0.7546771E-02  0.1207601E+00
          2   -1    0    0  502    0 -0.00000000000E+00  0.00000000000E+00  0.13069274268E+03  0.13069274268E+03  0.00000000000E+00 0. -1.
         21   -1    0    0  501  502  0.00000000000E+00 -0.00000000000E+00 -0.10238012938E+04  0.10238012938E+04  0.00000000000E+00 0. -1.
         23    2    1    2    0    0  0.85735242523E+02  0.78246106865E+02  0.49059496014E+02  0.15554631441E+03  0.91185726558E+02 0.  0.
         23    2    1    2    0    0 -0.12915638264E+03  0.58810150854E+01 -0.21365086489E+03  0.26430491574E+03  0.86570427384E+02 0.  0.
        -11    1    3    3    0    0  0.30987136621E+02  0.80493236316E+02  0.51927941451E+02  0.10067708196E+03  0.00000000000E+00 0. -1.
         11    1    3    3    0    0  0.54748105902E+02 -0.22471294508E+01 -0.28684454366E+01  0.54869232452E+02  0.00000000000E+00 0.  1.
        -13    1    4    4    0    0 -0.10846184376E+03  0.20008662182E+02 -0.10319113981E+03  0.15103883425E+03  0.00000000000E+00 0. -1.
         13    1    4    4    0    0 -0.20694538884E+02 -0.14127647097E+02 -0.11045972508E+03  0.11326608149E+03  0.00000000000E+00 0.  1.
          2    1    1    2  501    0  0.43421140122E+02 -0.84127121951E+02 -0.72851718224E+03  0.73464280632E+03  0.00000000000E+00 0. -1.
<scales pt_clust_5="13000.00000" pt_clust_6="13000.00000" pt_clust_7="13000.00000" pt_clust_8="13000.00000" pt_clust_9="94.67190"></scales>
<clustering>
<clus scale="   86.570">  7  8 -1 -1</clus>
<clus scale="   91.186">  5  6 -1 -1</clus>
<clus scale="   94.672">  2  9  1 -1</clus>
<clus scale="  142.207">  2  7  1 -1</clus>
<clus scale="   94.672">  2  5  1 -1</clus>
</clustering>
</event>
<event>
 9    1  0.1315259E-005  0.1050120E+03  0.7546771E-02  0.1270365E+00
         21   -1    0    0  501  502  0.00000000000E+00  0.00000000000E+00  0.83501883684E+02  0.83501883684E+02  0.00000000000E+00 0.  1.
          2   -1    0    0  502    0 -0.00000000000E+00 -0.00000000000E+00 -0.31996084377E+03  0.31996084377E+03  0.00000000000E+00 0. -1.
         23    2    1    2    0    0  0.12996733853E+02  0.60226726275E+02 -0.22522375960E+03  0.25041383334E+03  0.90471942561E+02 0.  0.
         23    2    1    2    0    0 -0.30767550736E+02 -0.17921130061E+02 -0.31680451670E+02  0.10281371023E+03  0.91099939146E+02 0.  0.
        -13    1    3    3    0    0 -0.37449307688E+02  0.11182418417E+02 -0.82668998707E+02  0.91442115434E+02  0.00000000000E+00 0. -1.
         13    1    3    3    0    0  0.50446041540E+02  0.49044307858E+02 -0.14255476089E+03  0.15897171790E+03  0.00000000000E+00 0.  1.
        -13    1    4    4    0    0  0.26908973077E+02 -0.27316130442E+02 -0.19903867489E+02  0.43202173040E+02  0.00000000000E+00 0.  1.
         13    1    4    4    0    0 -0.57676523813E+02  0.93950003809E+01 -0.11776584182E+02  0.59611537191E+02  0.00000000000E+00 0. -1.
          2    1    1    2  501    0  0.17770816883E+02 -0.42305596214E+02  0.20445251185E+02  0.50235183883E+02  0.00000000000E+00 0. -1.
<scales pt_clust_5="13000.00000" pt_clust_6="13000.00000" pt_clust_7="13000.00000" pt_clust_8="13000.00000" pt_clust_9="45.88644"></scales>
<clustering>
<clus scale="   45.886">  1  9  2 -1</clus>
<clus scale="   90.472">  5  6 -1 -1</clus>
<clus scale="   91.100">  7  8 -1 -1</clus>
<clus scale="  104.468">  2  5  1 -1</clus>
<clus scale="   45.886">  1  5  2 -1</clus>
</clustering>
</event>
<event>
 9    1  0.1315259E-005  0.1148936E+03  0.7546771E-02  0.1252062E+00
         21   -1    0    0  501  502  0.00000000000E+00  0.00000000000E+00  0.38515087115E+02  0.38515087115E+02  0.00000000000E+00 0. -1.
          1   -1    0    0  502    0 -0.00000000000E+00 -0.00000000000E+00 -0.88393823142E+03  0.88393823142E+03  0.00000000000E+00 0. -1.
         23    2    1    2    0    0 -0.11424906846E+02 -0.60602714042E+02 -0.41651872556E+03  0.43089087061E+03  0.91519813104E+02 0.  0.
         23    2    1    2    0    0 -0.72743857588E+02  0.92665838878E+02 -0.24054647646E+03  0.28277753634E+03  0.90674699952E+02 0.  0.
        -13    1    4    4    0    0 -0.14915017267E+01  0.52067921600E+02 -0.15822978906E+03  0.16658318997E+03  0.00000000000E+00 0.  1.
         13    1    4    4    0    0 -0.71252355861E+02  0.40597917278E+02 -0.82316687405E+02  0.11619434637E+03  0.00000000000E+00 0. -1.
        -13    1    3    3    0    0  0.30965935205E+02 -0.59577129741E+02 -0.28002200172E+03  0.28795945023E+03  0.00000000000E+00 0.  1.
         13    1    3    3    0    0 -0.42390842051E+02 -0.10255843003E+01 -0.13649672384E+03  0.14293142038E+03  0.00000000000E+00 0. -1.
          1    1    1    2  501    0  0.84168764434E+02 -0.32063124837E+02 -0.18835794229E+03  0.20878491158E+03  0.00000000000E+00 0. -1.
<scales pt_clust_5="13000.00000" pt_clust_6="13000.00000" pt_clust_7="13000.00000" pt_clust_8="13000.00000" pt_clust_9="90.06900"></scales>
<clustering>
<clus scale="   90.069">  1  9  2 -1</clus>
<clus scale="   90.675">  5  6 -1 -1</clus>
<clus scale="   91.520">  7  8 -1 -1</clus>
<clus scale="  114.222">  1  5  2 -1</clus>
<clus scale="   90.069">  1  5  2 -1</clus>
</clustering>
</event>
<event>
 9    1  0.1315259E-005  0.2878713E+03  0.7546771E-02  0.1120108E+00
          2   -1    0    0  502    0 -0.00000000000E+00  0.00000000000E+00  0.23003316410E+04  0.23003316410E+04  0.00000000000E+00 0. -1.
         21   -1    0    0  501  502  0.00000000000E+00 -0.00000000000E+00 -0.62193198287E+02  0.62193198287E+02  0.00000000000E+00 0. -1.
         23    2    1    2    0    0  0.10122386870E+03  0.27348603802E+02  0.62199017233E+03  0.63711188723E+03  0.89697071644E+02 0.  0.
         23    2    1    2    0    0 -0.22040809527E+03  0.18565075490E+03  0.52583155773E+03  0.60811078139E+03  0.10126185896E+03 0.  0.
        -11    1    4    4    0    0 -0.15042395957E+03  0.15133996973E+03  0.29217690071E+03  0.36179897092E+03  0.00000000000E+00 0. -1.
         11    1    4    4    0    0 -0.69984135693E+02  0.34310785174E+02  0.23365465702E+03  0.24631181047E+03  0.00000000000E+00 0.  1.
        -13    1    3    3    0    0  0.51669039391E+02 -0.28889694961E+02  0.35052180887E+03  0.35548536200E+03  0.00000000000E+00 0.  1.
         13    1    3    3    0    0  0.49554829307E+02  0.56238298763E+02  0.27146836346E+03  0.28162652523E+03  0.00000000000E+00 0. -1.
          2    1    1    2  501    0  0.11918422657E+03 -0.21299935870E+03  0.10903167127E+04  0.11173021707E+04  0.00000000000E+00 0. -1.
<scales pt_clust_5="13000.00000" pt_clust_6="13000.00000" pt_clust_7="13000.00000" pt_clust_8="13000.00000" pt_clust_9="269.47355"></scales>
<clustering>
<clus scale="   89.697">  7  8 -1 -1</clus>
<clus scale="  101.262">  5  6 -1 -1</clus>
<clus scale="  137.985">  1  7  2 -1</clus>
<clus scale="  269.474">  2  9  1 -1</clus>
<clus scale="  269.474">  2  5  1 -1</clus>
</clustering>
</event>
<event>
 9    1  0.1315259E-005  0.9300407E+02  0.7546771E-02  0.1296157E+00
         21   -1    0    0  501  502  0.00000000000E+00  0.00000000000E+00  0.58006904704E+02  0.58006904704E+02  0.00000000000E+00 0. -1.
          1   -1    0    0  502    0 -0.00000000000E+00 -0.00000000000E+00 -0.29475459668E+03  0.29475459668E+03  0.00000000000E+00 0. -1.
         23    2    1    2    0    0 -0.14521804938E+02 -0.15419350238E+02 -0.11879284254E+03  0.15161309436E+03  0.91794072592E+02 0.  0.
         23    2    1    2    0    0 -0.41280360669E+02 -0.92476996490E+01 -0.78373275084E+02  0.12842257898E+03  0.92522431972E+02 0.  0.
        -11    1    3    3    0    0  0.91377049072E+01  0.35691765390E+02 -0.58249924603E+02  0.68923533599E+02  0.00000000000E+00 0.  1.
         11    1    3    3    0    0 -0.23659509846E+02 -0.51111115627E+02 -0.60542917935E+02  0.82689560762E+02  0.00000000000E+00 0. -1.
        -11    1    4    4    0    0 -0.49579628826E+01 -0.23609158189E+02 -0.85395679931E+02  0.88737792948E+02  0.00000000000E+00 0.  1.
         11    1    4    4    0    0 -0.36322397786E+02  0.14361458540E+02  0.70224048471E+01  0.39684786029E+02  0.00000000000E+00 0. -1.
          1    1    1    2  501    0  0.55802165607E+02  0.24667049887E+02 -0.39581574352E+02  0.72725828045E+02  0.00000000000E+00 0. -1.
<scales pt_clust_5="13000.00000" pt_clust_6="13000.00000" pt_clust_7="13000.00000" pt_clust_8="13000.00000" pt_clust_9="61.01102"></scales>
<clustering>
<clus scale="   61.011">  1  9  2 -1</clus>
<clus scale="   91.794">  5  6 -1 -1</clus>
<clus scale="   92.280">  2  5  1 -1</clus>
<clus scale="   92.522">  7  8 -1 -1</clus>
<clus scale="   61.011">  1  5  2 -1</clus>
</clustering>
</event>
<event>
 9    1  0.1315259E-005  0.2486965E+03  0.7546771E-02  0.1114261E+00
          1   -1    0    0  502    0 -0.00000000000E+00  0.00000000000E+00  0.13873757133E+04  0.13873757133E+04  0.00000000000E+00 0. -1.
         21   -1    0    0  501  502  0.00000000000E+00 -0.00000000000E+00 -0.11076205942E+03  0.11076205942E+03  0.00000000000E+00 0.  1.
         23    2    1    2    0    0  0.19657613501E+03 -0.13060180265E+03  0.97868904909E+03  0.10108709189E+04  0.91261997847E+02 0.  0.
         23    2    1    2    0    0 -0.17062450434E+03  0.14141830508E+03  0.35255333380E+03  0.42582760006E+03  0.89013669215E+02 0.  0.
        -11    1    3    3    0    0  0.10447092856E+03 -0.80305324326E+02  0.36027913450E+03  0.38361983107E+03  0.00000000000E+00 0.  1.
         11    1    3    3    0    0  0.92105206450E+02 -0.50296478329E+02  0.61840991458E+03  0.62725108788E+03  0.00000000000E+00 0. -1.
        -13    1    4    4    0    0 -0.13404144984E+03  0.14761310632E+03  0.27314932191E+03  0.33818233468E+03  0.00000000000E+00 0.  1.
         13    1    4    4    0    0 -0.36583054501E+02 -0.61948012384E+01  0.79404011885E+02  0.87645265374E+02  0.00000000000E+00 0. -1.
          1    1    1    2  501    0 -0.25951630669E+02 -0.10816502423E+02 -0.54628729027E+02  0.61439253691E+02  0.00000000000E+00 0. -1.
<scales pt_clust_5="13000.00000" pt_clust_6="13000.00000" pt_clust_7="13000.00000" pt_clust_8="13000.00000" pt_clust_9="28.11554"></scales>
<clustering>
<clus scale="   28.116">  2  9  1 -1</clus>
<clus scale="   89.014">  7  8 -1 -1</clus>
<clus scale="   91.262">  5  6 -1 -1</clus>
<clus scale="  247.880">  2  7  1 -1</clus>
<clus scale="   28.116">  2  5  1 -1</clus>
</clustering>
</event>
<event>
 9    1  0.1315259E-005  0.1436521E+03  0.7546771E-02  0.1208678E+00
         21   -1    0    0  501  502  0.00000000000E+00  0.00000000000E+00  0.62874582016E+02  0.62874582016E+02  0.00000000000E+00 0. -1.
          2   -1    0    0  502    0 -0.00000000000E+00 -0.00000000000E+00 -0.51238736716E+03  0.51238736716E+03  0.00000000000E+00 0. -1.
         23    2    1    2    0    0 -0.28048928761E+02  0.91902651873E+02 -0.19593598864E+03  0.23646307722E+03  0.91055122954E+02 0.  0.
         23    2    1    2    0    0  0.40528029853E+02 -0.13367110691E+03 -0.14073155704E+03  0.21782623097E+03  0.90179874275E+02 0.  0.
        -11    1    3    3    0    0 -0.31743118805E+02  0.52283178160E+02 -0.34559532687E+02  0.70253239139E+02  0.00000000000E+00 0.  1.
         11    1    3    3    0    0  0.36941900442E+01  0.39619473713E+02 -0.16137645596E+03  0.16620983808E+03  0.00000000000E+00 0. -1.
        -13    1    4    4    0    0 -0.23530699105E+02 -0.16509761078E+02 -0.86754180086E+01  0.30025470668E+02  0.00000000000E+00 0.  1.
         13    1    4    4    0    0  0.64058728958E+02 -0.11716134583E+03 -0.13205613903E+03  0.18780076030E+03  0.00000000000E+00 0. -1.
          2    1    1    2  501    0 -0.12479101092E+02  0.41768455034E+02 -0.11284523946E+03  0.12097264099E+03  0.00000000000E+00 0. -1.
<scales pt_clust_5="13000.00000" pt_clust_6="13000.00000" pt_clust_7="13000.00000" pt_clust_8="13000.00000" pt_clust_9="43.59282"></scales>
<clustering>
<clus scale="   43.593">  1  9  2 -1</clus>
<clus scale="   90.180">  7  8 -1 -1</clus>
<clus scale="   91.055">  5  6 -1 -1</clus>
<clus scale="  143.099">  1  7  2 -1</clus>
<clus scale="   43.593">  1  5  2 -1</clus>
</clustering>
</event>
<event>
 9    1  0.1315259E-005  0.9827173E+02  0.7546771E-02  0.1284235E+00
         21   -1    0    0  501  502  0.00000000000E+00  0.00000000000E+00  0.14528702276E+03  0.14528702276E+03  0.00000000000E+00 0.  1.
         -2   -1    0    0    0  501 -0.00000000000E+00 -0.00000000000E+00 -0.21883988258E+03  0.21883988258E+03  0.00000000000E+00 0.  1.
         23    2    1    2    0    0 -0.52936273079E+02 -0.45265952817E+02 -0.11665273731E+03  0.16280785667E+03  0.89706641780E+02 0.  0.
         23    2    1    2    0    0  0.36087412408E+01 -0.18973349699E+02 -0.24882927266E+02  0.95576175977E+02  0.90236546549E+02 0.  0.
        -11    1    4    4    0    0 -0.59355276151E+01 -0.50793271839E+02 -0.33651761501E+02  0.61217873242E+02  0.00000000000E+00 0.  1.
         11    1    4    4    0    0  0.95442688559E+01  0.31819922140E+02  0.87688342353E+01  0.34358302735E+02  0.00000000000E+00 0. -1.
        -13    1    3    3    0    0 -0.31113714466E+02  0.16244131831E+02 -0.79049947681E+01  0.35978104301E+02  0.00000000000E+00 0. -1.
         13    1    3    3    0    0 -0.21822558613E+02 -0.61510084649E+02 -0.10874774254E+03  0.12682975236E+03  0.00000000000E+00 0.  1.
         -2    1    1    2    0  502  0.49327531839E+02  0.64239302516E+02  0.67982804753E+02  0.10574287270E+03  0.00000000000E+00 0.  1.
<scales pt_clust_5="13000.00000" pt_clust_6="13000.00000" pt_clust_7="13000.00000" pt_clust_8="13000.00000" pt_clust_9="80.99317"></scales>
<clustering>
<clus scale="   80.993">  1  9  2 -1</clus>
<clus scale="   89.707">  7  8 -1 -1</clus>
<clus scale="   90.237">  5  6 -1 -1</clus>
<clus scale="   97.785">  2  7  1 -1</clus>
<clus scale="   80.993">  1  5  2 -1</clus>
</clustering>
</event>
<event>
 9    1  0.1315259E-005  0.1018584E+03  0.7546771E-02  0.1276888E+00
         21   -1    0    0  501  502  0.00000000000E+00  0.00000000000E+00  0.90077861232E+02  0.90077861232E+02  0.00000000000E+00 0. -1.
          1   -1    0    0  502    0 -0.00000000000E+00 -0.00000000000E+00 -0.36637243221E+03  0.36637243221E+03  0.00000000000E+00 0. -1.
         23    2    1    2    0    0  0.48903022443E+02  0.24704968749E+02 -0.25290415746E+03  0.27418370834E+03  0.90633062249E+02 0.  0.
         23    2    1    2    0    0 -0.24017575337E+02 -0.16848733428E+02 -0.77573423577E+02  0.12212671073E+03  0.89646939070E+02 0.  0.
        -11    1    3    3    0    0  0.16273391443E+02  0.55218180652E+02 -0.17680684106E+03  0.18594227542E+03  0.00000000000E+00 0. -1.
         11    1    3    3    0    0  0.32629631000E+02 -0.30513211903E+02 -0.76097316400E+02  0.88241432916E+02  0.00000000000E+00 0.  1.
        -13    1    4    4    0    0  0.12396052177E+02  0.28432778635E+02 -0.91069545429E+01  0.32326794328E+02  0.00000000000E+00 0.  1.
         13    1    4    4    0    0 -0.36413627515E+02 -0.45281512063E+02 -0.68466469034E+02  0.89799916401E+02  0.00000000000E+00 0. -1.
          1    1    1    2  501    0 -0.24885447106E+02 -0.78562353210E+01  0.54183010058E+02  0.60139874376E+02  0.00000000000E+00 0. -1.
<scales pt_clust_5="13000.00000" pt_clust_6="13000.00000" pt_clust_7="13000.00000" pt_clust_8="13000.00000" pt_clust_9="26.09609"></scales>
<clustering>
<clus scale="   26.096">  1  9  2 -1</clus>
<clus scale="   89.647">  7  8 -1 -1</clus>
<clus scale="   90.633">  5  6 -1 -1</clus>
<clus scale="  100.982">  1  7  2 -1</clus>
<clus scale="   26.096">  1  5  2 -1</clus>
</clustering>
</event>
<event>
 9    1  0.1315259E-005  0.9617251E+02  0.7546771E-02  0.1290823E+00
         21   -1    0    0  501  502  0.00000000000E+00  0.00000000000E+00  0.38505843118E+03  0.38505843118E+03  0.00000000000E+00 0. -1.
          2   -1    0    0  502    0 -0.00000000000E+00 -0.00000000000E+00 -0.99910185324E+02  0.99910185324E+02  0.00000000000E+00 0. -1.
         23    2    1    2    0    0 -0.75666704025E+01 -0.64534510767E+01 -0.44513194499E+02  0.10477734968E+03  0.94329035772E+02 0.  0.
         23    2    1    2    0    0  0.63328858218E+02  0.46115769382E+02  0.18631138359E+03  0.22134618551E+03  0.90249618922E+02 0.  0.
        -13    1    3    3    0    0 -0.39670244012E+02 -0.31943143067E+02 -0.37360743365E+02  0.63165796075E+02  0.00000000000E+00 0.  1.
         13    1    3    3    0    0  0.32103573609E+02  0.25489691990E+02 -0.71524511336E+01  0.41611553605E+02  0.00000000000E+00 0. -1.
        -13    1    4    4    0    0 -0.12401838237E+02  0.32934839922E+02  0.26651659444E+02  0.44145443972E+02  0.00000000000E+00 0.  1.
         13    1    4    4    0    0  0.75730696456E+02  0.13180929460E+02  0.15965972415E+03  0.17720074154E+03  0.00000000000E+00 0. -1.
          2    1    1    2  501    0 -0.55762187816E+02 -0.39662318305E+02  0.14335005677E+03  0.15884508132E+03  0.00000000000E+00 0. -1.
<scales pt_clust_5="13000.00000" pt_clust_6="13000.00000" pt_clust_7="13000.00000" pt_clust_8="13000.00000" pt_clust_9="68.42895"></scales>
<clustering>
<clus scale="   68.429">  1  9  2 -1</clus>
<clus scale="   90.250">  7  8 -1 -1</clus>
<clus scale="   92.175">  1  7  2 -1</clus>
<clus scale="   94.329">  5  6 -1 -1</clus>
<clus scale="   68.429">  1  5  2 -1</clus>
</clustering>
</event>
<event>
 9    1  0.1315259E-005  0.1645461E+03  0.7546771E-02  0.1205695E+00
         21   -1    0    0  501  502  0.00000000000E+00  0.00000000000E+00  0.18906449214E+03  0.18906449214E+03  0.00000000000E+00 0. -1.
          2   -1    0    0  502    0 -0.00000000000E+00 -0.00000000000E+00 -0.46220223936E+03  0.46220223936E+03  0.00000000000E+00 0. -1.
         23    2    1    2    0    0 -0.42951125401E+02  0.16793770979E+02 -0.84377720245E+02  0.13199893785E+03  0.90428369455E+02 0.  0.
         23    2    1    2    0    0  0.44233750906E+02 -0.15187639388E+03 -0.29526065091E+03  0.34724644894E+03  0.91532401872E+02 0.  0.
        -13    1    4    4    0    0  0.54355479915E+02 -0.37918058595E+02 -0.13438210755E+03  0.14983607107E+03  0.00000000000E+00 0.  1.
         13    1    4    4    0    0 -0.10121729010E+02 -0.11395833528E+03 -0.16087854336E+03  0.19741037787E+03  0.00000000000E+00 0. -1.
        -13    1    3    3    0    0  0.20105266448E+02  0.17684198920E+02 -0.57536290768E+02  0.63461621361E+02  0.00000000000E+00 0.  1.
         13    1    3    3    0    0 -0.63056391849E+02 -0.89042794103E+00 -0.26841429477E+02  0.68537316487E+02  0.00000000000E+00 0. -1.
          2    1    1    2  501    0 -0.12826255046E+01  0.13508262290E+03  0.10650062393E+03  0.17202134471E+03  0.00000000000E+00 0. -1.
<scales pt_clust_5="13000.00000" pt_clust_6="13000.00000" pt_clust_7="13000.00000" pt_clust_8="13000.00000" pt_clust_9="136.73782"></scales>
<clustering>
<clus scale="   90.428">  7  8 -1 -1</clus>
<clus scale="   91.532">  5  6 -1 -1</clus>
<clus scale="  101.509">  2  7  1 -1</clus>
<clus scale="  136.738">  1  9  2 -1</clus>
<clus scale="  136.738">  1  5  2 -1</clus>
</clustering>
</event>
<event>
 9    1  0.1315259E-005  0.1242979E+03  0.7546771E-02  0.1237548E+00
         21   -1    0    0  501  502  0.00000000000E+00  0.00000000000E+00  0.36262939485E+03  0.36262939485E+03  0.00000000000E+00 0.  1.
         -3   -1    0    0    0  501 -0.00000000000E+00 -0.00000000000E+00 -0.16509179909E+03  0.16509179909E+03  0.00000000000E+00 0.  1.
         23    2    1    2    0    0  0.80025398766E+02  0.48570048032E+02 -0.10118998942E+03  0.16482725982E+03  0.90363142965E+02 0.  0.
         23    2    1    2    0    0 -0.50289686277E+00 -0.52223930140E+02  0.94739096407E+02  0.14392251426E+03  0.94924190480E+02 0.  0.
        -11    1    3    3    0    0  0.59581866512E+02 -0.36138975872E+01 -0.89494004730E+02  0.10757432759E+03  0.00000000000E+00 0.  1.
         11    1    3    3    0    0  0.20443532254E+02  0.52183945619E+02 -0.11695984693E+02  0.57252932233E+02  0.00000000000E+00 0. -1.
        -11    1    4    4    0    0  0.16671600301E+02  0.24090751993E+02  0.18242965621E+02  0.34512496039E+02  0.00000000000E+00 0. -1.
         11    1    4    4    0    0 -0.17174497164E+02 -0.76314682133E+02  0.76496130786E+02  0.10941001822E+03  0.00000000000E+00 0.  1.
         -3    1    1    2    0  502 -0.79522501903E+02  0.36538821082E+01  0.20398848878E+03  0.21897141987E+03  0.00000000000E+00 0.  1.
<scales pt_clust_5="13000.00000" pt_clust_6="13000.00000" pt_clust_7="13000.00000" pt_clust_8="13000.00000" pt_clust_9="79.60640"></scales>
<clustering>
<clus scale="   79.606">  1  9  2 -1</clus>
<clus scale="   90.363">  5  6 -1 -1</clus>
<clus scale="   94.924">  7  8 -1 -1</clus>
<clus scale="  120.851">  2  5  1 -1</clus>
<clus scale="   79.606">  1  5  2 -1</clus>
</clustering>
</event>
<event>
 9    1  0.1315259E-005  0.1186056E+03  0.7546771E-02  0.1248234E+00
         21   -1    0    0  501  502  0.00000000000E+00  0.00000000000E+00  0.98943256507E+03  0.98943256507E+03  0.00000000000E+00 0.  1.
         -1   -1    0    0    0  501 -0.00000000000E+00 -0.00000000000E+00 -0.24787622721E+02  0.24787622721E+02  0.00000000000E+00 0.  1.
         23    2    1    2    0    0  0.24111350442E+02  0.48009394334E+02  0.38328716377E+03  0.39929806791E+03  0.98202026257E+02 0.  0.
         23    2    1    2    0    0 -0.87962831138E+02 -0.28837453988E+02  0.44071456305E+03  0.45927800995E+03  0.90210342644E+02 0.  0.
        -11    1    4    4    0    0 -0.86952155530E+02  0.12477162909E+02  0.29180742040E+03  0.30474239539E+03  0.00000000000E+00 0.  1.
         11    1    4    4    0    0 -0.10106756078E+01 -0.41314616898E+02  0.14890714265E+03  0.15453561456E+03  0.00000000000E+00 0. -1.
        -11    1    3    3    0    0 -0.24662272778E+02  0.40167128010E+02  0.87249965960E+02  0.99167446428E+02  0.00000000000E+00 0.  1.
         11    1    3    3    0    0  0.48773623221E+02  0.78422663234E+01  0.29603719781E+03  0.30013062148E+03  0.00000000000E+00 0. -1.
         -1    1    1    2    0  502  0.63851480695E+02 -0.19171940345E+02  0.14064321552E+03  0.15564410993E+03  0.00000000000E+00 0.  1.
<scales pt_clust_5="13000.00000" pt_clust_6="13000.00000" pt_clust_7="13000.00000" pt_clust_8="13000.00000" pt_clust_9="66.66768"></scales>
<clustering>
<clus scale="   66.668">  1  9  2 -1</clus>
<clus scale="   90.210">  5  6 -1 -1</clus>
<clus scale="   98.202">  7  8 -1 -1</clus>
<clus scale="  112.078">  1  5  2 -1</clus>
<clus scale="   66.668">  1  5  2 -1</clus>
</clustering>
</event>
<event>
 9    1  0.1315259E-005  0.1023861E+03  0.7546771E-02  0.1276727E+00
         -3   -1    0    0    0  501 -0.00000000000E+00  0.00000000000E+00  0.21042995488E+03  0.21042995488E+03  0.00000000000E+00 0.  1.
         21   -1    0    0  501  502  0.00000000000E+00 -0.00000000000E+00 -0.25302999440E+03  0.25302999440E+03  0.00000000000E+00 0.  1.
         23    2    1    2    0    0 -0.61223043224E+02 -0.51961404024E+02  0.10661649383E+03  0.15964623317E+03  0.87587638856E+02 0.  0.
         23    2    1    2    0    0  0.16267881555E+02 -0.37760678972E+01  0.40800185736E+02  0.10075218388E+03  0.90594948767E+02 0.  0.
        -13    1    3    3    0    0 -0.74769074904E+02 -0.26833089337E+02  0.43954003195E+02  0.90787574272E+02  0.00000000000E+00 0. -1.
         13    1    3    3    0    0  0.13546031680E+02 -0.25128314686E+02  0.62662490634E+02  0.68858658902E+02  0.00000000000E+00 0.  1.
        -13    1    4    4    0    0  0.39748685421E+02 -0.41420259871E+01  0.58847605031E+02  0.71134766394E+02  0.00000000000E+00 0.  1.
         13    1    4    4    0    0 -0.23480803867E+02  0.36595808990E+00 -0.18047419295E+02  0.29617417490E+02  0.00000000000E+00 0. -1.
         -3    1    1    2    0  502  0.44955161669E+02  0.55737471921E+02 -0.19001671909E+03  0.20306153222E+03  0.00000000000E+00 0.  1.
<scales pt_clust_5="13000.00000" pt_clust_6="13000.00000" pt_clust_7="13000.00000" pt_clust_8="13000.00000" pt_clust_9="71.60749"></scales>
<clustering>
<clus scale="   71.607">  2  9  1 -1</clus>
<clus scale="   87.588">  5  6 -1 -1</clus>
<clus scale="   90.595">  7  8 -1 -1</clus>
<clus scale="   99.735">  1  5  2 -1</clus>
<clus scale="   71.607">  2  5  1 -1</clus>
</clustering>
</event>
<event>
 9    1  0.1315259E-005  0.1028106E+03  0.7546771E-02  0.1277774E+00
         -2   -1    0    0    0  501 -0.00000000000E+00  0.00000000000E+00  0.29748902284E+03  0.29748902284E+03  0.00000000000E+00 0.  1.
         21   -1    0    0  501  502  0.00000000000E+00 -0.00000000000E+00 -0.15223419694E+03  0.15223419694E+03  0.00000000000E+00 0.  1.
         23    2    1    2    0    0  0.63570764910E+02  0.39556655213E+02  0.17729346879E+03  0.21282701532E+03  0.90864697508E+02 0.  0.
         23    2    1    2    0    0  0.77969314504E+01 -0.31681143893E+02  0.68758111031E+02  0.11314097279E+03  0.83718067783E+02 0.  0.
        -11    1    3    3    0    0  0.13294608778E+02  0.31405640916E+02  0.15233899731E+03  0.15610967621E+03  0.00000000000E+00 0.  1.
         11    1    3    3    0    0  0.50276156131E+02  0.81510142970E+01  0.24954471476E+02  0.56717339113E+02  0.00000000000E+00 0. -1.
        -13    1    4    4    0    0  0.37292140272E+02 -0.85748644746E+01  0.41965394144E+01  0.38494713531E+02  0.00000000000E+00 0.  1.
         13    1    4    4    0    0 -0.29495208821E+02 -0.23106279418E+02  0.64561571616E+02  0.74646259260E+02  0.00000000000E+00 0. -1.
         -2    1    1    2    0  502 -0.71367696360E+02 -0.78755113203E+01 -0.10079675393E+03  0.12375523166E+03  0.00000000000E+00 0.  1.
<scales pt_clust_5="13000.00000" pt_clust_6="13000.00000" pt_clust_7="13000.00000" pt_clust_8="13000.00000" pt_clust_9="71.80092"></scales>
<clustering>
<clus scale="   71.801">  2  9  1 -1</clus>
<clus scale="   83.718">  7  8 -1 -1</clus>
<clus scale="   90.865">  5  6 -1 -1</clus>
<clus scale="   96.552">  2  7  1 -1</clus>
<clus scale="   71.801">  2  5  1 -1</clus>
</clustering>
</event>
<event>
 9    1  0.1315259E-005  0.1201296E+03  0.7546771E-02  0.1243058E+00
         21   -1    0    0  501  502  0.00000000000E+00  0.00000000000E+00  0.11001980041E+03  0.11001980041E+03  0.00000000000E+00 0.  1.
          1   -1    0    0  502    0 -0.00000000000E+00 -0.00000000000E+00 -0.29356304491E+03  0.29356304491E+03  0.00000000000E+00 0. -1.
         23    2    1    2    0    0 -0.19017973936E+02 -0.70430148188E+02 -0.13064539794E+03  0.17467964743E+03  0.90125857092E+02 0.  0.
         23    2    1    2    0    0 -0.13116938213E+02  0.89916297657E+02 -0.10417505525E+03  0.16532871612E+03  0.90687086102E+02 0.  0.
        -11    1    4    4    0    0 -0.52013257835E+02  0.58016416596E+02 -0.67258034881E+02  0.10293166102E+03  0.00000000000E+00 0. -1.
         11    1    4    4    0    0  0.38896319622E+02  0.31899881061E+02 -0.36917020367E+02  0.62397055096E+02  0.00000000000E+00 0.  1.
        -13    1    3    3    0    0 -0.49241325148E+02 -0.16619810655E+02 -0.77053136298E+02  0.92941444049E+02  0.00000000000E+00 0.  1.
         13    1    3    3    0    0  0.30223351213E+02 -0.53810337533E+02 -0.53592261645E+02  0.81738203382E+02  0.00000000000E+00 0. -1.
          1    1    1    2  501    0  0.32134912148E+02 -0.19486149468E+02  0.51277208696E+02  0.63574481764E+02  0.00000000000E+00 0. -1.
<scales pt_clust_5="13000.00000" pt_clust_6="13000.00000" pt_clust_7="13000.00000" pt_clust_8="13000.00000" pt_clust_9="37.58141"></scales>
<clustering>
<clus scale="   37.581">  1  9  2 -1</clus>
<clus scale="   90.126">  7  8 -1 -1</clus>
<clus scale="   90.687">  5  6 -1 -1</clus>
<clus scale="  119.706">  2  7  1 -1</clus>
<clus scale="   37.581">  1  5  2 -1</clus>
</clustering>
</event>
<event>
 9    1  0.1315259E-005  0.1497622E+03  0.7546771E-02  0.1219531E+00
         21   -1    0    0  501  502  0.00000000000E+00  0.00000000000E+00  0.74909323180E+02  0.74909323180E+02  0.00000000000E+00 0. -1.
          1   -1    0    0  502    0 -0.00000000000E+00 -0.00000000000E+00 -0.58596491418E+03  0.58596491418E+03  0.00000000000E+00 0. -1.
         23    2    1    2    0    0  0.36671013141E+01  0.38806656055E+02 -0.90576568895E+02  0.13516447937E+03  0.92444131584E+02 0.  0.
         23    2    1    2    0    0  0.46874428126E+02 -0.13841603938E+03 -0.35874702961E+03  0.39808799518E+03  0.91751886548E+02 0.  0.
        -13    1    3    3    0    0 -0.37005371638E+02  0.43187770120E+02 -0.37379825002E+02  0.68057566333E+02  0.00000000000E+00 0.  1.
         13    1    3    3    0    0  0.40672472952E+02 -0.43811140646E+01 -0.53196743894E+02  0.67106913037E+02  0.00000000000E+00 0. -1.
        -13    1    4    4    0    0  0.54290678673E+02 -0.11977121840E+03 -0.35376188026E+03  0.37741236132E+03  0.00000000000E+00 0. -1.
         13    1    4    4    0    0 -0.74162505467E+01 -0.18644820986E+02 -0.49851493453E+01  0.20675633867E+02  0.00000000000E+00 0.  1.
          1    1    1    2  501    0 -0.50541529440E+02  0.99609383327E+02 -0.61731992501E+02  0.12762176281E+03  0.00000000000E+00 0. -1.
<scales pt_clust_5="13000.00000" pt_clust_6="13000.00000" pt_clust_7="13000.00000" pt_clust_8="13000.00000" pt_clust_9="118.36509"></scales>
<clustering>
<clus scale="   91.752">  7  8 -1 -1</clus>
<clus scale="   92.444">  5  6 -1 -1</clus>
<clus scale="  100.326">  2  5  1 -1</clus>
<clus scale="  118.365">  1  9  2 -1</clus>
<clus scale="  118.365">  1  5  2 -1</clus>
</clustering>
</event>
<event>
 9    1  0.1315259E-005  0.1247357E+03  0.7546771E-02  0.1236216E+00
         21   -1    0    0  501  502  0.00000000000E+00  0.00000000000E+00  0.43677511674E+03  0.43677511674E+03  0.00000000000E+00 0. -1.
         -2   -1    0    0    0  501 -0.00000000000E+00 -0.00000000000E+00 -0.70658013201E+02  0.70658013201E+02  0.00000000000E+00 0.  1.
         23    2    1    2    0    0  0.56309195674E+02  0.42271143035E+02  0.31834063846E+02  0.12216664895E+03  0.94624032069E+02 0.  0.
         23    2    1    2    0    0 -0.71343836420E+02 -0.70119821518E+02  0.17931251418E+03  0.22709741608E+03  0.97023328556E+02 0.  0.
        -13    1    4    4    0    0 -0.11968923727E+02 -0.77358831822E+02  0.11654479262E+03  0.14039349231E+03  0.00000000000E+00 0.  1.
         13    1    4    4    0    0 -0.59374912692E+02  0.72390103038E+01  0.62767721559E+02  0.86703923770E+02  0.00000000000E+00 0. -1.
        -13    1    3    3    0    0  0.69141280823E+02  0.33597795489E+01 -0.16647259974E+01  0.69242877938E+02  0.00000000000E+00 0.  1.
         13    1    3    3    0    0 -0.12832085149E+02  0.38911363486E+02  0.33498789844E+02  0.52923771017E+02  0.00000000000E+00 0. -1.
         -2    1    1    2    0  502  0.15034640746E+02  0.27848678483E+02  0.15497052551E+03  0.15816906490E+03  0.00000000000E+00 0.  1.
<scales pt_clust_5="13000.00000" pt_clust_6="13000.00000" pt_clust_7="13000.00000" pt_clust_8="13000.00000" pt_clust_9="31.64790"></scales>
<clustering>
<clus scale="   31.648">  1  9  2 -1</clus>
<clus scale="   94.624">  7  8 -1 -1</clus>
<clus scale="   97.023">  5  6 -1 -1</clus>
<clus scale="  122.879">  2  7  1 -1</clus>
<clus scale="   31.648">  1  5  2 -1</clus>
</clustering>
</event>
<event>
 9    1  0.1315259E-005  0.9238279E+02  0.7546771E-02  0.1297665E+00
         21   -1    0    0  501  502  0.00000000000E+00  0.00000000000E+00  0.39149432242E+03  0.39149432242E+03  0.00000000000E+00 0.  1.
         -2   -1    0    0    0  501 -0.00000000000E+00 -0.00000000000E+00 -0.51122264802E+02  0.51122264802E+02  0.00000000000E+00 0.  1.
         23    2    1    2    0    0  0.16427013796E+02 -0.79126441272E+01  0.45386052308E+02  0.10260698527E+03  0.90198907771E+02 0.  0.
         23    2    1    2    0    0 -0.12502357080E+02 -0.24216609813E+02  0.84848336032E+02  0.12739367607E+03  0.91033814878E+02 0.  0.
        -11    1    4    4    0    0 -0.40500710773E+02 -0.28611542608E+02  0.85730661794E+02  0.99038751583E+02  0.00000000000E+00 0.  1.
         11    1    4    4    0    0  0.27998353693E+02  0.43949327945E+01 -0.88232576173E+00  0.28354924485E+02  0.00000000000E+00 0. -1.
        -11    1    3    3    0    0 -0.34657598230E+02  0.85236858115E+01  0.30420171303E+02  0.46895513186E+02  0.00000000000E+00 0. -1.
         11    1    3    3    0    0  0.51084612026E+02 -0.16436329939E+02  0.14965881004E+02  0.55711472085E+02  0.00000000000E+00 0.  1.
         -2    1    1    2    0  502 -0.39246567165E+01  0.32129253940E+02  0.21013766927E+03  0.21261592588E+03  0.00000000000E+00 0.  1.
<scales pt_clust_5="13000.00000" pt_clust_6="13000.00000" pt_clust_7="13000.00000" pt_clust_8="13000.00000" pt_clust_9="32.36807"></scales>
<clustering>
<clus scale="   32.368">  1  9  2 -1</clus>
<clus scale="   90.199">  7  8 -1 -1</clus>
<clus scale="   91.034">  5  6 -1 -1</clus>
<clus scale="   91.560">  2  7  1 -1</clus>
<clus scale="   32.368">  1  5  2 -1</clus>
</clustering>
</event>
<event>
 9    1  0.1315259E-005  0.9737770E+02  0.7546771E-02  0.1286789E+00
          2   -1    0    0  502    0 -0.00000000000E+00  0.00000000000E+00  0.62460953514E+03  0.62460953514E+03  0.00000000000E+00 0. -1.
         21   -1    0    0  501  502  0.00000000000E+00 -0.00000000000E+00 -0.21536487829E+02  0.21536487829E+02  0.00000000000E+00 0. -1.
         23    2    1    2    0    0  0.32272045102E+02 -0.29341724144E+02  0.30691415349E+03  0.32324007956E+03  0.91571992174E+02 0.  0.
         23    2    1    2    0    0 -0.23781065470E+02 -0.11154234664E+01  0.18092886684E+03  0.20341663973E+03  0.89868188023E+02 0.  0.
        -11    1    4    4    0    0 -0.55199777603E+02  0.10402010274E+02  0.85594378349E+02  0.10237975811E+03  0.00000000000E+00 0.  1.
         11    1    4    4    0    0  0.31418712133E+02 -0.11517433740E+02  0.95334488489E+02  0.10103688162E+03  0.00000000000E+00 0. -1.
        -11    1    3    3    0    0  0.43097071898E+02  0.15110516430E+02  0.22334959796E+03  0.22797089337E+03  0.00000000000E+00 0.  1.
         11    1    3    3    0    0 -0.10825026796E+02 -0.44452240574E+02  0.83564555526E+02  0.95269186190E+02  0.00000000000E+00 0. -1.
          2    1    1    2  501    0 -0.84909796322E+01  0.30457147610E+02  0.11523002698E+03  0.11948930368E+03  0.00000000000E+00 0. -1.
<scales pt_clust_5="13000.00000" pt_clust_6="13000.00000" pt_clust_7="13000.00000" pt_clust_8="13000.00000" pt_clust_9="31.61860"></scales>
<clustering>
<clus scale="   31.619">  2  9  1 -1</clus>
<clus scale="   89.868">  5  6 -1 -1</clus>
<clus scale="   91.572">  7  8 -1 -1</clus>
<clus scale="   95.777">  2  5  1 -1</clus>
<clus scale="   31.619">  2  5  1 -1</clus>
</clustering>
</event>
<event>
 9    1  0.1315259E-005  0.9279493E+02  0.7546771E-02  0.1297246E+00
         21   -1    0    0  501  502  0.00000000000E+00  0.00000000000E+00  0.21264667280E+02  0.21264667280E+02  0.00000000000E+00 0.  1.
          2   -1    0    0  502    0 -0.00000000000E+00 -0.00000000000E+00 -0.82484582181E+03  0.82484582181E+03  0.00000000000E+00 0. -1.
         23    2    1    2    0    0  0.36778767122E+02  0.68880939653E+01 -0.37663075714E+03  0.38940083535E+03  0.91554135901E+02 0.  0.
         23    2    1    2    0    0  0.21306606349E+02  0.18369434363E+02 -0.19898402185E+03  0.22010762136E+03  0.89784834106E+02 0.  0.
        -11    1    4    4    0    0  0.17673638446E+02  0.54689265439E+02 -0.11636923434E+03  0.12978856634E+03  0.00000000000E+00 0.  1.
         11    1    4    4    0    0  0.36329679032E+01 -0.36319831076E+02 -0.82614787511E+02  0.90319055025E+02  0.00000000000E+00 0. -1.
        -13    1    3    3    0    0 -0.21193016458E+02 -0.21565029685E+02 -0.17760813446E+03  0.18016338107E+03  0.00000000000E+00 0.  1.
         13    1    3    3    0    0  0.57971783580E+02  0.28453123650E+02 -0.19902262268E+03  0.20923745428E+03  0.00000000000E+00 0. -1.
          2    1    1    2  501    0 -0.58085373471E+02 -0.25257528328E+02 -0.22796637554E+03  0.23660203238E+03  0.00000000000E+00 0. -1.
<scales pt_clust_5="13000.00000" pt_clust_6="13000.00000" pt_clust_7="13000.00000" pt_clust_8="13000.00000" pt_clust_9="63.33922"></scales>
<clustering>
<clus scale="   63.339">  1  9  2 -1</clus>
<clus scale="   89.785">  5  6 -1 -1</clus>
<clus scale="   91.050">  1  5  2 -1</clus>
<clus scale="   91.554">  7  8 -1 -1</clus>
<clus scale="   63.339">  1  5  2 -1</clus>
</clustering>
</event>
<event>
 9    1  0.1315259E-005  0.9616519E+02  0.7546771E-02  0.1288592E+00
         -3   -1    0    0    0  501 -0.00000000000E+00  0.00000000000E+00  0.37724230261E+03  0.37724230261E+03  0.00000000000E+00 0.  1.
         21   -1    0    0  501  502  0.00000000000E+00 -0.00000000000E+00 -0.11140133804E+03  0.11140133804E+03  0.00000000000E+00 0.  1.
         23    2    1    2    0    0  0.12269261766E+02  0.16650109622E+01  0.22714793156E+03  0.24542163382E+03  0.92099340334E+02 0.  0.
         23    2    1    2    0    0 -0.10035792329E+03  0.73232599707E+01  0.64673200168E+02  0.15094324227E+03  0.92064633073E+02 0.  0.
        -11    1    3    3    0    0  0.50050299885E+02  0.15947998071E+02  0.12995069315E+03  0.14016616500E+03  0.00000000000E+00 0. -1.
         11    1    3    3    0    0 -0.37781038118E+02 -0.14282987109E+02  0.97197238413E+02  0.10525546882E+03  0.00000000000E+00 0.  1.
        -13    1    4    4    0    0  0.31079680105E+01  0.29167505851E+02  0.23026692070E+02  0.37291170676E+02  0.00000000000E+00 0. -1.
         13    1    4    4    0    0 -0.10346589130E+03 -0.21844245880E+02  0.41646508097E+02  0.11365207159E+03  0.00000000000E+00 0.  1.
         -3    1    1    2    0  502  0.88088661521E+02 -0.89882709329E+01 -0.25980167168E+02  0.92278764561E+02  0.00000000000E+00 0.  1.
<scales pt_clust_5="13000.00000" pt_clust_6="13000.00000" pt_clust_7="13000.00000" pt_clust_8="13000.00000" pt_clust_9="88.54604"></scales>
<clustering>
<clus scale="   88.546">  2  9  1 -1</clus>
<clus scale="   92.065">  7  8 -1 -1</clus>
<clus scale="   92.099">  5  6 -1 -1</clus>
<clus scale="   96.132">  2  7  1 -1</clus>
<clus scale="   88.546">  2  5  1 -1</clus>
</clustering>
</event>
<event>
 9    1  0.1315259E-005  0.1206041E+03  0.7546771E-02  0.1242228E+00
         21   -1    0    0  501  502  0.00000000000E+00  0.00000000000E+00  0.41244254145E+03  0.41244254145E+03  0.00000000000E+00 0. -1.
          1   -1    0    0  502    0 -0.00000000000E+00 -0.00000000000E+00 -0.18661341103E+03  0.18661341103E+03  0.00000000000E+00 0. -1.
         23    2    1    2    0    0  0.56490893838E+01  0.79886324315E+02 -0.13619165274E+03  0.18351600170E+03  0.93360696132E+02 0.  0.
         23    2    1    2    0    0 -0.66716870310E+02 -0.40178844119E+02  0.15987475984E+03  0.20067028659E+03  0.92968515022E+02 0.  0.
        -11    1    3    3    0    0  0.42551289463E+02  0.69721826553E+02 -0.72539405693E+02  0.10924152467E+03  0.00000000000E+00 0. -1.
         11    1    3    3    0    0 -0.36902200079E+02  0.10164497762E+02 -0.63652247044E+02  0.74274477038E+02  0.00000000000E+00 0.  1.
        -13    1    4    4    0    0 -0.86396946321E+02 -0.26205795403E+02  0.14895193594E+03  0.17417765432E+03  0.00000000000E+00 0. -1.
         13    1    4    4    0    0  0.19680076010E+02 -0.13973048715E+02  0.10922823905E+02  0.26492632263E+02  0.00000000000E+00 0.  1.
          1    1    1    2  501    0  0.61067780926E+02 -0.39707480196E+02  0.20214602331E+03  0.21486966419E+03  0.00000000000E+00 0. -1.
<scales pt_clust_5="13000.00000" pt_clust_6="13000.00000" pt_clust_7="13000.00000" pt_clust_8="13000.00000" pt_clust_9="72.84201"></scales>
<clustering>
<clus scale="   72.842">  1  9  2 -1</clus>
<clus scale="   92.969">  7  8 -1 -1</clus>
<clus scale="   93.361">  5  6 -1 -1</clus>
<clus scale="  120.301">  1  7  2 -1</clus>
<clus scale="   72.842">  1  5  2 -1</clus>
</clustering>
</event>
<event>
 9    1  0.1315259E-005  0.9932018E+02  0.7546771E-02  0.1281735E+00
         -2   -1    0    0    0  501 -0.00000000000E+00  0.00000000000E+00  0.16301699758E+03  0.16301699758E+03  0.00000000000E+00 0.  1.
         21   -1    0    0  501  502  0.00000000000E+00 -0.00000000000E+00 -0.20051860179E+03  0.20051860179E+03  0.00000000000E+00 0.  1.
         23    2    1    2    0    0  0.33321939465E+02  0.97729226687E+01  0.61095780131E+02  0.11594574127E+03  0.92221791900E+02 0.  0.
         23    2    1    2    0    0 -0.41456072091E+02  0.13250367291E+02  0.38005278611E+02  0.10882198171E+03  0.92215206741E+02 0.  0.
        -11    1    3    3    0    0  0.62850931852E+02  0.88035575968E+01  0.22489355024E+02  0.67331369735E+02  0.00000000000E+00 0.  1.
         11    1    3    3    0    0 -0.29528992387E+02  0.96936507196E+00  0.38606425107E+02  0.48614371533E+02  0.00000000000E+00 0. -1.
        -13    1    4    4    0    0 -0.21290056876E+00  0.26204588335E+02  0.56130365545E+02  0.61946297006E+02  0.00000000000E+00 0.  1.
         13    1    4    4    0    0 -0.41243171522E+02 -0.12954221044E+02 -0.18125086934E+02  0.46875684704E+02  0.00000000000E+00 0. -1.
         -2    1    1    2    0  502  0.81341326264E+01 -0.23023289960E+02 -0.13660266295E+03  0.13876787640E+03  0.00000000000E+00 0.  1.
<scales pt_clust_5="13000.00000" pt_clust_6="13000.00000" pt_clust_7="13000.00000" pt_clust_8="13000.00000" pt_clust_9="24.41794"></scales>
<clustering>
<clus scale="   24.418">  2  9  1 -1</clus>
<clus scale="   92.215">  7  8 -1 -1</clus>
<clus scale="   92.222">  5  6 -1 -1</clus>
<clus scale="   99.314">  2  7  1 -1</clus>
<clus scale="   24.418">  2  5  1 -1</clus>
</clustering>
</event>
<event>
 9    1  0.1315259E-005  0.1597757E+03  0.7546771E-02  0.1189848E+00
         -1   -1    0    0    0  501 -0.00000000000E+00  0.00000000000E+00  0.28726326161E+03  0.28726326161E+03  0.00000000000E+00 0.  1.
         21   -1    0    0  501  502  0.00000000000E+00 -0.00000000000E+00 -0.18719011285E+03  0.18719011285E+03  0.00000000000E+00 0. -1.
         23    2    1    2    0    0  0.12133873510E+03  0.29423333848E+02  0.14882051042E+03  0.21455325000E+03  0.91086396094E+02 0.  0.
         23    2    1    2    0    0 -0.13705010962E+03 -0.47276369064E+02  0.35816403706E+02  0.17205589546E+03  0.85455419786E+02 0.  0.
        -13    1    3    3    0    0  0.14877097451E+02 -0.28065004010E+02  0.18643375485E+02  0.36831344371E+02  0.00000000000E+00 0. -1.
         13    1    3    3    0    0  0.10646163765E+03  0.57488337858E+02  0.13017713493E+03  0.17772190563E+03  0.00000000000E+00 0.  1.
        -13    1    4    4    0    0 -0.66965926066E+02  0.20575880179E+02  0.22630124220E+02  0.73620137335E+02  0.00000000000E+00 0.  1.
         13    1    4    4    0    0 -0.70084183554E+02 -0.67852249243E+02  0.13186279487E+02  0.98435758129E+02  0.00000000000E+00 0. -1.
         -1    1    1    2    0  502  0.15711374517E+02  0.17853035216E+02 -0.84563765364E+02  0.87844228998E+02  0.00000000000E+00 0.  1.
<scales pt_clust_5="13000.00000" pt_clust_6="13000.00000" pt_clust_7="13000.00000" pt_clust_8="13000.00000" pt_clust_9="23.78189"></scales>
<clustering>
<clus scale="   23.782">  2  9  1 -1</clus>
<clus scale="   85.455">  7  8 -1 -1</clus>
<clus scale="   91.086">  5  6 -1 -1</clus>
<clus scale="  156.634">  2  7  1 -1</clus>
<clus scale="   23.782">  2  5  1 -1</clus>
</clustering>
</event>
<event>
 9    1  0.1315259E-005  0.9499093E+02  0.7546771E-02  0.1291986E+00
         21   -1    0    0  501  502  0.00000000000E+00  0.00000000000E+00  0.86174202539E+02  0.86174202539E+02  0.00000000000E+00 0. -1.
          1   -1    0    0  502    0 -0.00000000000E+00 -0.00000000000E+00 -0.54719147177E+03  0.54719147177E+03  0.00000000000E+00 0. -1.
         23    2    1    2    0    0  0.54391589579E+00  0.34789258964E+02 -0.45302142834E+03  0.46321858136E+03  0.90180104197E+02 0.  0.
         23    2    1    2    0    0  0.13419082849E+02 -0.63445671188E+01 -0.60797978291E+02  0.10856680760E+03  0.88713202133E+02 0.  0.
        -11    1    3    3    0    0  0.12710305640E+02 -0.28612780851E+02 -0.12145290133E+03  0.12542348400E+03  0.00000000000E+00 0.  1.
         11    1    3    3    0    0 -0.12166389745E+02  0.63402039815E+02 -0.33156852702E+03  0.33779509736E+03  0.00000000000E+00 0. -1.
        -13    1    4    4    0    0  0.39712266382E+02 -0.32535438533E+02 -0.25391189394E+02  0.57274177083E+02  0.00000000000E+00 0.  1.
         13    1    4    4    0    0 -0.26293183533E+02  0.26190871414E+02 -0.35406788897E+02  0.51292630521E+02  0.00000000000E+00 0. -1.
          1    1    1    2  501    0 -0.13962998745E+02 -0.28444691845E+02  0.52802137408E+02  0.61580285343E+02  0.00000000000E+00 0. -1.
<scales pt_clust_5="13000.00000" pt_clust_6="13000.00000" pt_clust_7="13000.00000" pt_clust_8="13000.00000" pt_clust_9="31.68700"></scales>
<clustering>
<clus scale="   31.687">  1  9  2 -1</clus>
<clus scale="   88.713">  7  8 -1 -1</clus>
<clus scale="   90.180">  5  6 -1 -1</clus>
<clus scale="   93.599">  1  7  2 -1</clus>
<clus scale="   31.687">  1  5  2 -1</clus>
</clustering>
</event>
<event>
 9    1  0.1315259E-005  0.1104724E+03  0.7546771E-02  0.1259928E+00
          3   -1    0    0  502    0 -0.00000000000E+00  0.00000000000E+00  0.11268100591E+03  0.11268100591E+03  0.00000000000E+00 0. -1.
         21   -1    0    0  501  502  0.00000000000E+00 -0.00000000000E+00 -0.16690999731E+03  0.16690999731E+03  0.00000000000E+00 0.  1.
         23    2    1    2    0    0  0.59120349249E+02 -0.13270150987E+02  0.12089487188E+02  0.11058183383E+03  0.91710815450E+02 0.  0.
         23    2    1    2    0    0 -0.52889093443E+02  0.39868286185E+02 -0.18798669170E+02  0.11419656471E+03  0.91108336503E+02 0.  0.
        -11    1    3    3    0    0  0.65216544699E+02 -0.42786640477E+02  0.17555980486E+02  0.79950652009E+02  0.00000000000E+00 0.  1.
         11    1    3    3    0    0 -0.60961954505E+01  0.29516489491E+02 -0.54664932983E+01  0.30631181822E+02  0.00000000000E+00 0. -1.
        -13    1    4    4    0    0 -0.54315311333E+02 -0.88485043551E+01  0.12290929884E+02  0.56387197412E+02  0.00000000000E+00 0. -1.
         13    1    4    4    0    0  0.14262178908E+01  0.48716790540E+02 -0.31089599054E+02  0.57809367298E+02  0.00000000000E+00 0.  1.
          3    1    1    2  501    0 -0.62312558062E+01 -0.26598135198E+02 -0.47519809420E+02  0.54812604684E+02  0.00000000000E+00 0. -1.
<scales pt_clust_5="13000.00000" pt_clust_6="13000.00000" pt_clust_7="13000.00000" pt_clust_8="13000.00000" pt_clust_9="27.31830"></scales>
<clustering>
<clus scale="   27.318">  2  9  1 -1</clus>
<clus scale="   91.108">  7  8 -1 -1</clus>
<clus scale="   91.711">  5  6 -1 -1</clus>
<clus scale="  109.973">  2  7  1 -1</clus>
<clus scale="   27.318">  2  5  1 -1</clus>
</clustering>
</event>
<event>
 9    1  0.1315259E-005  0.1038759E+03  0.7546771E-02  0.1272954E+00
         21   -1    0    0  501  502  0.00000000000E+00  0.00000000000E+00  0.16624847370E+03  0.16624847370E+03  0.00000000000E+00 0.  1.
         -3   -1    0    0    0  501 -0.00000000000E+00 -0.00000000000E+00 -0.27996001670E+03  0.27996001670E+03  0.00000000000E+00 0.  1.
         23    2    1    2    0    0  0.16564015635E+02 -0.66978306085E+02 -0.16887468151E+03  0.20524077663E+03  0.94046043184E+02 0.  0.
         23    2    1    2    0    0 -0.26558711094E+02 -0.45428940799E+01 -0.53583160720E+02  0.11042678683E+03  0.92719561667E+02 0.  0.
        -13    1    3    3    0    0  0.38001369165E+02 -0.68246869694E+02 -0.16614687973E+03  0.18359336841E+03  0.00000000000E+00 0.  1.
         13    1    3    3    0    0 -0.21437353530E+02  0.12685636094E+01 -0.27278017753E+01  0.21647408217E+02  0.00000000000E+00 0. -1.
        -13    1    4    4    0    0 -0.31487005407E+02 -0.25296716881E+02 -0.71796661702E+02  0.82377885539E+02  0.00000000000E+00 0.  1.
         13    1    4    4    0    0  0.49282943135E+01  0.20753822801E+02  0.18213500982E+02  0.28048901292E+02  0.00000000000E+00 0. -1.
         -3    1    1    2    0  502  0.99946954586E+01  0.71521200165E+02  0.10874629922E+03  0.13054092694E+03  0.00000000000E+00 0.  1.
<scales pt_clust_5="13000.00000" pt_clust_6="13000.00000" pt_clust_7="13000.00000" pt_clust_8="13000.00000" pt_clust_9="72.21618"></scales>
<clustering>
<clus scale="   72.216">  1  9  2 -1</clus>
<clus scale="   92.720">  7  8 -1 -1</clus>
<clus scale="   94.046">  5  6 -1 -1</clus>
<clus scale="  102.676">  1  7  2 -1</clus>
<clus scale="   72.216">  1  5  2 -1</clus>
</clustering>
</event>
<event>
 9    1  0.1315259E-005  0.1173133E+03  0.7546771E-02  0.1248264E+00
          1   -1    0    0  502    0 -0.00000000000E+00  0.00000000000E+00  0.27383674981E+03  0.27383674981E+03  0.00000000000E+00 0. -1.
         21   -1    0    0  501  502  0.00000000000E+00 -0.00000000000E+00 -0.19451276959E+03  0.19451276959E+03  0.00000000000E+00 0.  1.
         23    2    1    2    0    0 -0.65633672655E+02  0.34524795658E+02  0.19083567028E+03  0.22395483199E+03  0.90762179455E+02 0.  0.
         23    2    1    2    0    0  0.88037923600E+02  0.14768741338E+02 -0.62502947888E+01  0.12602338773E+03  0.88735767074E+02 0.  0.
        -11    1    3    3    0    0 -0.17911491534E+02 -0.90577225126E+01 -0.23845352486E+01  0.20212616715E+02  0.00000000000E+00 0.  1.
         11    1    3    3    0    0 -0.47722181121E+02  0.43582518171E+02  0.19322020553E+03  0.20374221528E+03  0.00000000000E+00 0. -1.
        -11    1    4    4    0    0 -0.84544826102E+01  0.26270903381E+02 -0.83237293167E+01  0.28825736945E+02  0.00000000000E+00 0. -1.
         11    1    4    4    0    0  0.96492406210E+02 -0.11502162044E+02  0.20734345280E+01  0.97197650788E+02  0.00000000000E+00 0.  1.
          1    1    1    2  501    0 -0.22404250944E+02 -0.49293536996E+02 -0.10526139528E+03  0.11837129967E+03  0.00000000000E+00 0. -1.
<scales pt_clust_5="13000.00000" pt_clust_6="13000.00000" pt_clust_7="13000.00000" pt_clust_8="13000.00000" pt_clust_9="54.14613"></scales>
<clustering>
<clus scale="   54.146">  2  9  1 -1</clus>
<clus scale="   88.736">  7  8 -1 -1</clus>
<clus scale="   90.762">  5  6 -1 -1</clus>
<clus scale="  115.753">  2  7  1 -1</clus>
<clus scale="   54.146">  2  5  1 -1</clus>
</clustering>
</event>
<event>
 9    1  0.1315259E-005  0.9769305E+02  0.7546771E-02  0.1287644E+00
         -1   -1    0    0    0  501 -0.00000000000E+00  0.00000000000E+00  0.79718055284E+02  0.79718055284E+02  0.00000000000E+00 0.  1.
         21   -1    0    0  501  502  0.00000000000E+00 -0.00000000000E+00 -0.33639690042E+03  0.33639690042E+03  0.00000000000E+00 0.  1.
         23    2    1    2    0    0  0.26610267258E+02  0.97649303226E+00 -0.83021976265E+01  0.10066845853E+03  0.96727205047E+02 0.  0.
         23    2    1    2    0    0  0.35413420744E+02  0.39095343938E+02 -0.84911924954E+02  0.13607703067E+03  0.92327498561E+02 0.  0.
        -11    1    4    4    0    0  0.63593210476E+02  0.40428770515E+02 -0.46969615504E+02  0.88795983494E+02  0.00000000000E+00 0.  1.
         11    1    4    4    0    0 -0.28179789733E+02 -0.13334265763E+01 -0.37942309450E+02  0.47281047177E+02  0.00000000000E+00 0. -1.
        -13    1    3    3    0    0  0.53468734613E+02 -0.22137110020E+02  0.13015249575E+02  0.59315714129E+02  0.00000000000E+00 0. -1.
         13    1    3    3    0    0 -0.26858467355E+02  0.23113603052E+02 -0.21317447202E+02  0.41352744406E+02  0.00000000000E+00 0.  1.
         -1    1    1    2    0  502 -0.62023688002E+02 -0.40071836971E+02 -0.16346472256E+03  0.17936946650E+03  0.00000000000E+00 0.  1.
<scales pt_clust_5="13000.00000" pt_clust_6="13000.00000" pt_clust_7="13000.00000" pt_clust_8="13000.00000" pt_clust_9="73.84233"></scales>
<clustering>
<clus scale="   73.842">  2  9  1 -1</clus>
<clus scale="   92.327">  5  6 -1 -1</clus>
<clus scale="   93.339">  2  5  1 -1</clus>
<clus scale="   96.727">  7  8 -1 -1</clus>
<clus scale="   73.842">  2  5  1 -1</clus>
</clustering>
</event>
<event>
 9    1  0.1315259E-005  0.9627018E+02  0.7546771E-02  0.1288487E+00
         21   -1    0    0  501  502  0.00000000000E+00  0.00000000000E+00  0.69345967720E+02  0.69345967720E+02  0.00000000000E+00 0.  1.
          1   -1    0    0  502    0 -0.00000000000E+00 -0.00000000000E+00 -0.23009144885E+03  0.23009144885E+03  0.00000000000E+00 0. -1.
         23    2    1    2    0    0  0.33672764907E+02 -0.83958867498E+01 -0.97265512677E+02  0.13858676034E+03  0.92419501050E+02 0.  0.
         23    2    1    2    0    0  0.21312320670E+01  0.25771546470E+02 -0.13833129748E+02  0.97221666427E+02  0.92692945722E+02 0.  0.
        -11    1    4    4    0    0  0.29615473733E+02 -0.16264748965E+02  0.17474239972E+02  0.38039024777E+02  0.00000000000E+00 0.  1.
         11    1    4    4    0    0 -0.27484241666E+02  0.42036295435E+02 -0.31307369720E+02  0.59182641650E+02  0.00000000000E+00 0. -1.
        -13    1    3    3    0    0 -0.20386569926E+02 -0.20766310607E+01 -0.78319665536E+02  0.80956127869E+02  0.00000000000E+00 0.  1.
         13    1    3    3    0    0  0.54059334833E+02 -0.63192556891E+01 -0.18945847141E+02  0.57630632471E+02  0.00000000000E+00 0. -1.
          1    1    1    2  501    0 -0.35803996974E+02 -0.17375659720E+02 -0.49646838705E+02  0.63628989804E+02  0.00000000000E+00 0. -1.
<scales pt_clust_5="13000.00000" pt_clust_6="13000.00000" pt_clust_7="13000.00000" pt_clust_8="13000.00000" pt_clust_9="39.79750"></scales>
<clustering>
<clus scale="   39.798">  1  9  2 -1</clus>
<clus scale="   92.420">  7  8 -1 -1</clus>
<clus scale="   92.693">  5  6 -1 -1</clus>
<clus scale="   96.007">  2  7  1 -1</clus>
<clus scale="   39.798">  1  5  2 -1</clus>
</clustering>
</event>
<event>
 9    1  0.1315259E-005  0.2286742E+03  0.7546771E-02  0.1153041E+00
          1   -1    0    0  502    0 -0.00000000000E+00  0.00000000000E+00  0.14215939443E+04  0.14215939443E+04  0.00000000000E+00 0. -1.
         21   -1    0    0  501  502  0.00000000000E+00 -0.00000000000E+00 -0.61407069417E+02  0.61407069417E+02  0.00000000000E+00 0.  1.
         23    2    1    2    0    0  0.82860025582E+02  0.35518122703E+01  0.16905292323E+03  0.20951069459E+03  0.91855544642E+02 0.  0.
         23    2    1    2    0    0 -0.28761908510E+02 -0.21128830218E+03  0.70583525474E+03  0.74283423396E+03  0.90162621341E+02 0.  0.
        -11    1    4    4    0    0  0.51521827387E+01 -0.19109248175E+03  0.60773013724E+03  0.63708618042E+03  0.00000000000E+00 0.  1.
         11    1    4    4    0    0 -0.33914091249E+02 -0.20195820429E+02  0.98105117499E+02  0.10574805354E+03  0.00000000000E+00 0. -1.
        -11    1    3    3    0    0  0.60208806473E+02 -0.41522726321E+02  0.10544349718E+03  0.12832602337E+03  0.00000000000E+00 0.  1.
         11    1    3    3    0    0  0.22651219110E+02  0.45074538591E+02  0.63609426057E+02  0.81184671211E+02  0.00000000000E+00 0. -1.
          1    1    1    2  501    0 -0.54098117072E+02  0.20773648991E+03  0.48529869687E+03  0.53065608514E+03  0.00000000000E+00 0. -1.
<scales pt_clust_5="13000.00000" pt_clust_6="13000.00000" pt_clust_7="13000.00000" pt_clust_8="13000.00000" pt_clust_9="210.14893"></scales>
<clustering>
<clus scale="   90.163">  5  6 -1 -1</clus>
<clus scale="   91.856">  7  8 -1 -1</clus>
<clus scale="  123.757">  1  7  2 -1</clus>
<clus scale="  210.149">  2  9  1 -1</clus>
<clus scale="  210.149">  2  5  1 -1</clus>
</clustering>
</event>
<event>
 9    1  0.1315259E-005  0.9792060E+02  0.7546771E-02  0.1285827E+00
         -3   -1    0    0    0  501 -0.00000000000E+00  0.00000000000E+00  0.62030604341E+03  0.62030604341E+03  0.00000000000E+00 0.  1.
         21   -1    0    0  501  502  0.00000000000E+00 -0.00000000000E+00 -0.19274727819E+02  0.19274727819E+02  0.00000000000E+00 0. -1.
         23    2    1    2    0    0  0.35577529390E+02 -0.14112895836E+02  0.33563316826E+03  0.34943098752E+03  0.89372573966E+02 0.  0.
         23    2    1    2    0    0 -0.32246000858E+02 -0.56090171153E+01  0.21641325081E+03  0.23723879222E+03  0.91522039778E+02 0.  0.
        -11    1    4    4    0    0 -0.20053642214E+01 -0.45315871953E+02  0.12671796250E+03  0.13459194537E+03  0.00000000000E+00 0.  1.
         11    1    4    4    0    0 -0.30240636636E+02  0.39706854838E+02  0.89695288304E+02  0.10264684685E+03  0.00000000000E+00 0. -1.
        -13    1    3    3    0    0 -0.28726925906E+02 -0.13557159808E+02  0.13757351288E+03  0.14119314537E+03  0.00000000000E+00 0. -1.
         13    1    3    3    0    0  0.64304455296E+02 -0.55573602785E+00  0.19805965538E+03  0.20823784215E+03  0.00000000000E+00 0.  1.
         -3    1    1    2    0  502 -0.33315285320E+01  0.19721912951E+02  0.48984896530E+02  0.52910991494E+02  0.00000000000E+00 0.  1.
<scales pt_clust_5="13000.00000" pt_clust_6="13000.00000" pt_clust_7="13000.00000" pt_clust_8="13000.00000" pt_clust_9="20.00132"></scales>
<clustering>
<clus scale="   20.001">  2  9  1 -1</clus>
<clus scale="   89.373">  7  8 -1 -1</clus>
<clus scale="   91.522">  5  6 -1 -1</clus>
<clus scale="   95.915">  1  7  2 -1</clus>
<clus scale="   20.001">  2  5  1 -1</clus>
</clustering>
</event>
<event>
 9    1  0.1315259E-005  0.1385237E+03  0.7546771E-02  0.1215766E+00
         21   -1    0    0  501  502  0.00000000000E+00  0.00000000000E+00  0.44200692688E+02  0.44200692688E+02  0.00000000000E+00 0.  1.
          1   -1    0    0  502    0 -0.00000000000E+00 -0.00000000000E+00 -0.68618031311E+03  0.68618031311E+03  0.00000000000E+00 0. -1.
         23    2    1    2    0    0  0.27490226509E+02  0.89420772737E+02 -0.34335630616E+03  0.36772815175E+03  0.92621020614E+02 0.  0.
         23    2    1    2    0    0 -0.44858848315E+02 -0.11807869494E+03 -0.17291726619E+03  0.23255690465E+03  0.90705228529E+02 0.  0.
        -11    1    3    3    0    0  0.46496401077E+02  0.61899903078E+02 -0.31342507878E+03  0.32284484404E+03  0.00000000000E+00 0. -1.
         11    1    3    3    0    0 -0.19006174568E+02  0.27520869659E+02 -0.29931227375E+02  0.44883307707E+02  0.00000000000E+00 0.  1.
        -13    1    4    4    0    0 -0.29627680950E+02 -0.66280408821E+02 -0.27834805881E+02  0.77753896946E+02  0.00000000000E+00 0.  1.
         13    1    4    4    0    0 -0.15231167365E+02 -0.51798286118E+02 -0.14508246031E+03  0.15480300770E+03  0.00000000000E+00 0. -1.
          1    1    1    2  501    0  0.17368621806E+02  0.28657922202E+02 -0.12570604807E+03  0.13009594940E+03  0.00000000000E+00 0. -1.
<scales pt_clust_5="13000.00000" pt_clust_6="13000.00000" pt_clust_7="13000.00000" pt_clust_8="13000.00000" pt_clust_9="33.51040"></scales>
<clustering>
<clus scale="   33.510">  1  9  2 -1</clus>
<clus scale="   90.705">  7  8 -1 -1</clus>
<clus scale="   92.621">  5  6 -1 -1</clus>
<clus scale="  137.250">  1  7  2 -1</clus>
<clus scale="   33.510">  1  5  2 -1</clus>
</clustering>
</event>
<event>
 9    1  0.1315259E-005  0.1238128E+03  0.7546771E-02  0.1237300E+00
          2   -1    0    0  502    0 -0.00000000000E+00  0.00000000000E+00  0.53927028008E+03  0.53927028008E+03  0.00000000000E+00 0. -1.
         21   -1    0    0  501  502  0.00000000000E+00 -0.00000000000E+00 -0.43983989233E+02  0.43983989233E+02  0.00000000000E+00 0. -1.
         23    2    1    2    0    0 -0.66554793003E+02 -0.45449856167E+02  0.28315151767E+03  0.30828006361E+03  0.91469042645E+02 0.  0.
         23    2    1    2    0    0  0.83358572649E+02  0.23753497649E+02  0.21252132904E+03  0.24752883434E+03  0.92694812419E+02 0.  0.
        -11    1    3    3    0    0  0.10137995791E+02  0.19052684306E+02  0.55472880498E+02  0.59523308113E+02  0.00000000000E+00 0. -1.
         11    1    3    3    0    0 -0.76692788793E+02 -0.64502540474E+02  0.22767863718E+03  0.24875675550E+03  0.00000000000E+00 0.  1.
        -11    1    4    4    0    0  0.73366789365E+02 -0.16811708523E+02  0.17825965232E+03  0.19349889656E+03  0.00000000000E+00 0. -1.
         11    1    4    4    0    0  0.99917832843E+01  0.40565206172E+02  0.34261676719E+02  0.54029937780E+02  0.00000000000E+00 0.  1.
          2    1    1    2  501    0 -0.16803779647E+02  0.21696358518E+02 -0.38655587008E+00  0.27445371355E+02  0.00000000000E+00 0. -1.
<scales pt_clust_5="13000.00000" pt_clust_6="13000.00000" pt_clust_7="13000.00000" pt_clust_8="13000.00000" pt_clust_9="27.44265"></scales>
<clustering>
<clus scale="   27.443">  2  9  1 -1</clus>
<clus scale="   91.469">  5  6 -1 -1</clus>
<clus scale="   92.695">  7  8 -1 -1</clus>
<clus scale="  122.898">  1  5  2 -1</clus>
<clus scale="   27.443">  2  5  1 -1</clus>
</clustering>
</event>
<event>
 9    1  0.1315259E-005  0.1520478E+03  0.7546771E-02  0.1200158E+00
         21   -1    0    0  501  502  0.00000000000E+00  0.00000000000E+00  0.12081419005E+03  0.12081419005E+03  0.00000000000E+00 0.  1.
          2   -1    0    0  502    0 -0.00000000000E+00 -0.00000000000E+00 -0.52470053619E+03  0.52470053619E+03  0.00000000000E+00 0. -1.
         23    2    1    2    0    0 -0.47516409001E+00 -0.12578027314E+03 -0.45186291845E+03  0.47768385849E+03  0.90448154777E+02 0.  0.
         23    2    1    2    0    0 -0.40452986082E+01  0.10176929457E+03  0.18644575823E+02  0.12965590615E+03  0.78036401979E+02 0.  0.
        -11    1    4    4    0    0  0.30899013179E+02  0.60539654607E+02  0.30219334301E+02  0.74384184885E+02  0.00000000000E+00 0. -1.
         11    1    4    4    0    0 -0.34944311788E+02  0.41229639959E+02 -0.11574758478E+02  0.55271721262E+02  0.00000000000E+00 0.  1.
        -11    1    3    3    0    0 -0.33068910771E+02 -0.98838169824E+01 -0.97659002919E+02  0.10357858634E+03  0.00000000000E+00 0. -1.
         11    1    3    3    0    0  0.32593746681E+02 -0.11589645616E+03 -0.35420391553E+03  0.37410527215E+03  0.00000000000E+00 0.  1.
          2    1    1    2  501    0  0.45204626982E+01  0.24010978576E+02  0.29331996491E+02  0.38174961602E+02  0.00000000000E+00 0. -1.
<scales pt_clust_5="13000.00000" pt_clust_6="13000.00000" pt_clust_7="13000.00000" pt_clust_8="13000.00000" pt_clust_9="24.43280"></scales>
<clustering>
<clus scale="   24.433">  1  9  2 -1</clus>
<clus scale="   78.036">  5  6 -1 -1</clus>
<clus scale="   90.448">  7  8 -1 -1</clus>
<clus scale="  145.008">  1  5  2 -1</clus>
<clus scale="   24.433">  1  5  2 -1</clus>
</clustering>
</event>
<event>
 9    1  0.1315259E-005  0.1194659E+03  0.7546771E-02  0.1245099E+00
         -1   -1    0    0    0  501 -0.00000000000E+00  0.00000000000E+00  0.21107501844E+03  0.21107501844E+03  0.00000000000E+00 0.  1.
         21   -1    0    0  501  502  0.00000000000E+00 -0.00000000000E+00 -0.11706811281E+03  0.11706811281E+03  0.00000000000E+00 0.  1.
         23    2    1    2    0    0 -0.67652809389E+02  0.16199462959E+02  0.76980424828E+02  0.13744095578E+03  0.90137147176E+02 0.  0.
         23    2    1    2    0    0  0.82316609522E+02 -0.38345286534E+02  0.60860572278E+02  0.13944895985E+03  0.86577236869E+02 0.  0.
        -11    1    3    3    0    0 -0.28040984508E+02  0.48542421731E+02  0.63195710103E+02  0.84476986778E+02  0.00000000000E+00 0. -1.
         11    1    3    3    0    0 -0.39611824881E+02 -0.32342958772E+02  0.13784714725E+02  0.52963969004E+02  0.00000000000E+00 0.  1.
        -13    1    4    4    0    0 -0.10718668114E+02 -0.23357308264E+02 -0.26114267777E+01  0.25831632648E+02  0.00000000000E+00 0. -1.
         13    1    4    4    0    0  0.93035277636E+02 -0.14987978270E+02  0.63471999055E+02  0.11361732721E+03  0.00000000000E+00 0.  1.
         -1    1    1    2    0  502 -0.14663800133E+02  0.22145823575E+02 -0.43834091474E+02  0.51253215621E+02  0.00000000000E+00 0.  1.
<scales pt_clust_5="13000.00000" pt_clust_6="13000.00000" pt_clust_7="13000.00000" pt_clust_8="13000.00000" pt_clust_9="26.56058"></scales>
<clustering>
<clus scale="   26.561">  2  9  1 -1</clus>
<clus scale="   86.577">  7  8 -1 -1</clus>
<clus scale="   90.137">  5  6 -1 -1</clus>
<clus scale="  116.803">  2  7  1 -1</clus>
<clus scale="   26.561">  2  5  1 -1</clus>
</clustering>
</event>
<event>
 9    1  0.1315259E-005  0.1007741E+03  0.7546771E-02  0.1281935E+00
         21   -1    0    0  501  502  0.00000000000E+00  0.00000000000E+00  0.15561740781E+03  0.15561740781E+03  0.00000000000E+00 0.  1.
          1   -1    0    0  502    0 -0.00000000000E+00 -0.00000000000E+00 -0.18748668831E+03  0.18748668831E+03  0.00000000000E+00 0. -1.
         23    2    1    2    0    0  0.12361833331E+02 -0.17041814875E+02 -0.72256715064E+02  0.12454676005E+03  0.99235196324E+02 0.  0.
         23    2    1    2    0    0  0.22071145570E+02  0.16890601031E+02 -0.58808822244E+02  0.11355471579E+03  0.93079364171E+02 0.  0.
        -13    1    3    3    0    0  0.69176399984E+01 -0.42823286902E+02 -0.84885305779E+02  0.95326820892E+02  0.00000000000E+00 0.  1.
         13    1    3    3    0    0  0.54441933327E+01  0.25781472026E+02  0.12628590715E+02  0.29219939157E+02  0.00000000000E+00 0. -1.
        -13    1    4    4    0    0 -0.29039968633E+02  0.31577509617E+02 -0.18008754115E+02  0.46527133123E+02  0.00000000000E+00 0. -1.
         13    1    4    4    0    0  0.51111114203E+02 -0.14686908587E+02 -0.40800068129E+02  0.67027582667E+02  0.00000000000E+00 0.  1.
          1    1    1    2  501    0 -0.34432978901E+02  0.15121384477E+00  0.99196256810E+02  0.10500262029E+03  0.00000000000E+00 0. -1.
<scales pt_clust_5="13000.00000" pt_clust_6="13000.00000" pt_clust_7="13000.00000" pt_clust_8="13000.00000" pt_clust_9="34.43331"></scales>
<clustering>
<clus scale="   34.433">  1  9  2 -1</clus>
<clus scale="   93.079">  7  8 -1 -1</clus>
<clus scale="   94.718">  1  7  2 -1</clus>
<clus scale="   99.235">  5  6 -1 -1</clus>
<clus scale="   34.433">  1  5  2 -1</clus>
</clustering>
</event>
<event>
 9    1  0.1315259E-005  0.2184626E+03  0.7546771E-02  0.1135101E+00
         21   -1    0    0  501  502  0.00000000000E+00  0.00000000000E+00  0.11815035745E+03  0.11815035745E+03  0.00000000000E+00 0.  1.
          2   -1    0    0  502    0 -0.00000000000E+00 -0.00000000000E+00 -0.71862451392E+03  0.71862451392E+03  0.00000000000E+00 0. -1.
         23    2    1    2    0    0 -0.67177892103E+02 -0.17514423703E+03 -0.29405080531E+03  0.36052427488E+03  0.91233238029E+02 0.  0.
         23    2    1    2    0    0  0.55292875135E+02  0.20269242720E+03 -0.35313594848E+03  0.42073282314E+03  0.90385774742E+02 0.  0.
        -11    1    3    3    0    0 -0.41673130870E+02 -0.19892660850E+02 -0.37114630083E+02  0.59244101465E+02  0.00000000000E+00 0.  1.
         11    1    3    3    0    0 -0.25504761233E+02 -0.15525157618E+03 -0.25693617523E+03  0.30128017342E+03  0.00000000000E+00 0. -1.
        -13    1    4    4    0    0  0.24525729740E+02  0.68465113117E+02 -0.20942952110E+03  0.22169733296E+03  0.00000000000E+00 0.  1.
         13    1    4    4    0    0  0.30767145395E+02  0.13422731408E+03 -0.14370642737E+03  0.19903549018E+03  0.00000000000E+00 0. -1.
          2    1    1    2  501    0  0.11885016968E+02 -0.27548190170E+02  0.46712597317E+02  0.55517773353E+02  0.00000000000E+00 0. -1.
<scales pt_clust_5="13000.00000" pt_clust_6="13000.00000" pt_clust_7="13000.00000" pt_clust_8="13000.00000" pt_clust_9="30.00261"></scales>
<clustering>
<clus scale="   30.003">  1  9  2 -1</clus>
<clus scale="   90.386">  7  8 -1 -1</clus>
<clus scale="   91.233">  5  6 -1 -1</clus>
<clus scale="  218.110">  1  7  2 -1</clus>
<clus scale="   30.003">  1  5  2 -1</clus>
</clustering>
</event>
<event>
 9    1  0.1315259E-005  0.1280358E+03  0.7546771E-02  0.1230570E+00
         21   -1    0    0  501  502  0.00000000000E+00  0.00000000000E+00  0.21813417992E+03  0.21813417992E+03  0.00000000000E+00 0.  1.
          2   -1    0    0  502    0 -0.00000000000E+00 -0.00000000000E+00 -0.19229890022E+03  0.19229890022E+03  0.00000000000E+00 0. -1.
         23    2    1    2    0    0 -0.53322706491E+02  0.69149462706E+02 -0.10627574290E+03  0.16591189930E+03  0.92775350062E+02 0.  0.
         23    2    1    2    0    0  0.74621722229E+02 -0.60546595862E+02  0.16015529205E+03  0.20827013343E+03  0.92154431301E+02 0.  0.
        -13    1    3    3    0    0 -0.47120770465E+02  0.91582633815E+02 -0.94716492804E+02  0.13992483638E+03  0.00000000000E+00 0. -1.
         13    1    3    3    0    0 -0.62019360261E+01 -0.22433171109E+02 -0.11559250097E+02  0.25987062921E+02  0.00000000000E+00 0.  1.
        -13    1    4    4    0    0  0.73832616537E+02 -0.82616549561E+02  0.13815706379E+03  0.17709919198E+03  0.00000000000E+00 0.  1.
         13    1    4    4    0    0  0.78910569178E+00  0.22069953699E+02  0.21998228261E+02  0.31170941447E+02  0.00000000000E+00 0. -1.
          2    1    1    2  501    0 -0.21299015738E+02 -0.86028668438E+01 -0.28044269456E+02  0.36251047414E+02  0.00000000000E+00 0. -1.
<scales pt_clust_5="13000.00000" pt_clust_6="13000.00000" pt_clust_7="13000.00000" pt_clust_8="13000.00000" pt_clust_9="22.97081"></scales>
<clustering>
<clus scale="   22.971">  1  9  2 -1</clus>
<clus scale="   92.154">  7  8 -1 -1</clus>
<clus scale="   92.775">  5  6 -1 -1</clus>
<clus scale="  127.587">  1  7  2 -1</clus>
<clus scale="   22.971">  1  5  2 -1</clus>
</clustering>
</event>
<event>
 9    1  0.1315259E-005  0.1004370E+03  0.7546771E-02  0.1286195E+00
         21   -1    0    0  501  502  0.00000000000E+00  0.00000000000E+00  0.33387872339E+03  0.33387872339E+03  0.00000000000E+00 0. -1.
         -3   -1    0    0    0  501 -0.00000000000E+00 -0.00000000000E+00 -0.39149870251E+02  0.39149870251E+02  0.00000000000E+00 0.  1.
         23    2    1    2    0    0  0.33105904521E+02 -0.80725345244E+01  0.10532681395E+03  0.14293252278E+03  0.90414609461E+02 0.  0.
         23    2    1    2    0    0 -0.41803267452E+02  0.39679663537E+02  0.12242965789E+03  0.15553096788E+03  0.76673802362E+02 0.  0.
        -11    1    4    4    0    0 -0.24116430636E+02 -0.15502796286E+02  0.12526270108E+02  0.31286520454E+02  0.00000000000E+00 0.  1.
         11    1    4    4    0    0 -0.17686836816E+02  0.55182459822E+02  0.10990338779E+03  0.12424444742E+03  0.00000000000E+00 0. -1.
        -13    1    3    3    0    0  0.34969395367E+01 -0.43376207706E+02  0.24619020439E+02  0.49998201452E+02  0.00000000000E+00 0.  1.
         13    1    3    3    0    0  0.29608964985E+02  0.35303673181E+02  0.80707793512E+02  0.92934321330E+02  0.00000000000E+00 0. -1.
         -3    1    1    2    0  502  0.86973629311E+01 -0.31607129013E+02  0.66972381294E+02  0.74565102981E+02  0.00000000000E+00 0.  1.
<scales pt_clust_5="13000.00000" pt_clust_6="13000.00000" pt_clust_7="13000.00000" pt_clust_8="13000.00000" pt_clust_9="32.78193"></scales>
<clustering>
<clus scale="   32.782">  1  9  2 -1</clus>
<clus scale="   76.674">  5  6 -1 -1</clus>
<clus scale="   88.270">  1  5  2 -1</clus>
<clus scale="   90.415">  7  8 -1 -1</clus>
<clus scale="   32.782">  1  5  2 -1</clus>
</clustering>
</event>
<event>
 9    1  0.1315259E-005  0.1161219E+03  0.7546771E-02  0.1249788E+00
          2   -1    0    0  502    0 -0.00000000000E+00  0.00000000000E+00  0.53772987898E+03  0.53772987898E+03  0.00000000000E+00 0. -1.
         21   -1    0    0  501  502  0.00000000000E+00 -0.00000000000E+00 -0.32346048336E+02  0.32346048336E+02  0.00000000000E+00 0.  1.
         23    2    1    2    0    0 -0.84697129465E+02  0.99747729286E+01  0.25719085146E+03  0.28446342165E+03  0.86597946545E+02 0.  0.
         23    2    1    2    0    0  0.69729940685E+02  0.14715682575E+02  0.20782653377E+03  0.23598302604E+03  0.86123774289E+02 0.  0.
        -11    1    3    3    0    0 -0.73009816161E+02 -0.30190627905E+02  0.15314170523E+03  0.17232030975E+03  0.00000000000E+00 0.  1.
         11    1    3    3    0    0 -0.11687313304E+02  0.40165400833E+02  0.10404914623E+03  0.11214311190E+03  0.00000000000E+00 0. -1.
        -13    1    4    4    0    0  0.57227589061E+02 -0.23893552784E+02  0.76222698338E+02  0.98263922965E+02  0.00000000000E+00 0.  1.
         13    1    4    4    0    0  0.12502351624E+02  0.38609235360E+02  0.13160383543E+03  0.13771910307E+03  0.00000000000E+00 0. -1.
          2    1    1    2  501    0  0.14967188780E+02 -0.24690455504E+02  0.40366445415E+02  0.49629479631E+02  0.00000000000E+00 0. -1.
<scales pt_clust_5="13000.00000" pt_clust_6="13000.00000" pt_clust_7="13000.00000" pt_clust_8="13000.00000" pt_clust_9="28.87274"></scales>
<clustering>
<clus scale="   28.873">  2  9  1 -1</clus>
<clus scale="   86.124">  7  8 -1 -1</clus>
<clus scale="   86.598">  5  6 -1 -1</clus>
<clus scale="  115.769">  2  7  1 -1</clus>
<clus scale="   28.873">  2  5  1 -1</clus>
</clustering>
</event>
<event>
 9    1  0.1315259E-005  0.1303217E+03  0.7546771E-02  0.1230527E+00
         21   -1    0    0  501  502  0.00000000000E+00  0.00000000000E+00  0.85598549885E+02  0.85598549885E+02  0.00000000000E+00 0. -1.
          3   -1    0    0  502    0 -0.00000000000E+00 -0.00000000000E+00 -0.36061511415E+03  0.36061511415E+03  0.00000000000E+00 0. -1.
         23    2    1    2    0    0 -0.10462140425E+03  0.47804528545E+02 -0.20547461769E+03  0.25081128930E+03  0.86345660868E+02 0.  0.
         23    2    1    2    0    0  0.36147887207E+02 -0.18073488089E+02 -0.51635973939E+02  0.11863531696E+03  0.98867304530E+02 0.  0.
        -11    1    4    4    0    0  0.69805920576E+02 -0.10163939745E+02 -0.44275558764E+02  0.83285636952E+02  0.00000000000E+00 0. -1.
         11    1    4    4    0    0 -0.33658033370E+02 -0.79095483440E+01 -0.73604151750E+01  0.35349680011E+02  0.00000000000E+00 0.  1.
        -13    1    3    3    0    0 -0.58334264883E+02  0.38310230632E+02 -0.43851377095E+02  0.82422712304E+02  0.00000000000E+00 0. -1.
         13    1    3    3    0    0 -0.46287139368E+02  0.94942979133E+01 -0.16162324059E+03  0.16838857700E+03  0.00000000000E+00 0.  1.
          3    1    1    2  501    0  0.68473517044E+02 -0.29731040456E+02 -0.17905972643E+02  0.76767057774E+02  0.00000000000E+00 0. -1.
<scales pt_clust_5="13000.00000" pt_clust_6="13000.00000" pt_clust_7="13000.00000" pt_clust_8="13000.00000" pt_clust_9="74.64956"></scales>
<clustering>
<clus scale="   74.650">  1  9  2 -1</clus>
<clus scale="   86.346">  7  8 -1 -1</clus>
<clus scale="   98.867">  5  6 -1 -1</clus>
<clus scale="  121.097">  2  7  1 -1</clus>
<clus scale="   74.650">  1  5  2 -1</clus>
</clustering>
</event>
<event>
 9    1  0.1315259E-005  0.1357007E+03  0.7546771E-02  0.1219367E+00
         21   -1    0    0  501  502  0.00000000000E+00  0.00000000000E+00  0.30406100956E+02  0.30406100956E+02  0.00000000000E+00 0. -1.
          1   -1    0    0  502    0 -0.00000000000E+00 -0.00000000000E+00 -0.12934281112E+04  0.12934281112E+04  0.00000000000E+00 0. -1.
         23    2    1    2    0    0  0.60392411184E+02  0.63361260103E+02 -0.53498027777E+03  0.54985864434E+03  0.92080065983E+02 0.  0.
         23    2    1    2    0    0 -0.21711948120E+02 -0.12208649175E+03 -0.65379260574E+03  0.67171235900E+03  0.91521591721E+02 0.  0.
        -11    1    4    4    0    0 -0.26985274183E+02  0.43625444889E+01 -0.10287488494E+03  0.10644472165E+03  0.00000000000E+00 0.  1.
         11    1    4    4    0    0  0.52733260634E+01 -0.12644903624E+03 -0.55091772080E+03  0.56526763735E+03  0.00000000000E+00 0. -1.
        -13    1    3    3    0    0  0.36203696837E+01  0.63380185581E+02 -0.19231131114E+03  0.20251862974E+03  0.00000000000E+00 0.  1.
         13    1    3    3    0    0  0.56772041500E+02 -0.18925477380E-01 -0.34266896663E+03  0.34734001460E+03  0.00000000000E+00 0. -1.
          1    1    1    2  501    0 -0.38680463064E+02  0.58725231651E+02 -0.74249126737E+02  0.10226320881E+03  0.00000000000E+00 0. -1.
<scales pt_clust_5="13000.00000" pt_clust_6="13000.00000" pt_clust_7="13000.00000" pt_clust_8="13000.00000" pt_clust_9="70.31949"></scales>
<clustering>
<clus scale="   70.319">  1  9  2 -1</clus>
<clus scale="   91.522">  5  6 -1 -1</clus>
<clus scale="   92.080">  7  8 -1 -1</clus>
<clus scale="  135.322">  1  5  2 -1</clus>
<clus scale="   70.319">  1  5  2 -1</clus>
</clustering>
</event>
<event>
 9    1  0.1315259E-005  0.1108457E+03  0.7546771E-02  0.1260889E+00
          1   -1    0    0  502    0 -0.00000000000E+00  0.00000000000E+00  0.85701475205E+03  0.85701475205E+03  0.00000000000E+00 0. -1.
         21   -1    0    0  501  502  0.00000000000E+00 -0.00000000000E+00 -0.14477356320E+03  0.14477356320E+03  0.00000000000E+00 0. -1.
         23    2    1    2    0    0 -0.46746487258E+02 -0.90209578272E+01  0.48066658690E+03  0.49149054057E+03  0.90862379215E+02 0.  0.
         23    2    1    2    0    0  0.69169750889E+02  0.18212749099E+02  0.36017339379E+03  0.37943547665E+03  0.95552334745E+02 0.  0.
        -11    1    4    4    0    0  0.87319890403E+02 -0.76734945727E+01  0.25819853310E+03  0.27267219931E+03  0.00000000000E+00 0.  1.
         11    1    4    4    0    0 -0.18150139513E+02  0.25886243671E+02  0.10197486069E+03  0.10676327734E+03  0.00000000000E+00 0. -1.
        -13    1    3    3    0    0 -0.51624782955E+01  0.38831370366E+02  0.18018047993E+03  0.18438961970E+03  0.00000000000E+00 0.  1.
         13    1    3    3    0    0 -0.41584008962E+02 -0.47852328194E+02  0.30048610698E+03  0.30710092087E+03  0.00000000000E+00 0. -1.
          1    1    1    2  501    0 -0.22423263632E+02 -0.91917912714E+01 -0.12859879185E+03  0.13086229802E+03  0.00000000000E+00 0. -1.
<scales pt_clust_5="13000.00000" pt_clust_6="13000.00000" pt_clust_7="13000.00000" pt_clust_8="13000.00000" pt_clust_9="24.23410"></scales>
<clustering>
<clus scale="   24.234">  2  9  1 -1</clus>
<clus scale="   90.862">  7  8 -1 -1</clus>
<clus scale="   95.552">  5  6 -1 -1</clus>
<clus scale="  106.829">  1  7  2 -1</clus>
<clus scale="   24.234">  2  5  1 -1</clus>
</clustering>
</event>
<event>
 9    1  0.1315259E-005  0.1267434E+03  0.7546771E-02  0.1243988E+00
         -3   -1    0    0    0  501 -0.00000000000E+00  0.00000000000E+00  0.42995209542E+03  0.42995209542E+03  0.00000000000E+00 0.  1.
         21   -1    0    0  501  502  0.00000000000E+00 -0.00000000000E+00 -0.13752221193E+03  0.13752221193E+03  0.00000000000E+00 0.  1.
         23    2    1    2    0    0 -0.34123409830E+02  0.18459494226E+02  0.32482053707E+03  0.33987462659E+03  0.92202063278E+02 0.  0.
         23    2    1    2    0    0 -0.55885877633E+02  0.48226577329E+02 -0.14770725152E+02  0.11420141866E+03  0.85876397360E+02 0.  0.
        -11    1    3    3    0    0  0.29012437265E+02  0.85469540926E+01  0.56920478784E+02  0.64457062028E+02  0.00000000000E+00 0. -1.
         11    1    3    3    0    0 -0.63135847095E+02  0.99125401338E+01  0.26790005829E+03  0.27541756456E+03  0.00000000000E+00 0.  1.
        -11    1    4    4    0    0  0.36068764038E+01  0.45436797358E+02  0.14511591920E+02  0.47834071660E+02  0.00000000000E+00 0. -1.
         11    1    4    4    0    0 -0.59492754037E+02  0.27897799711E+01 -0.29282317072E+02  0.66367347004E+02  0.00000000000E+00 0.  1.
         -3    1    1    2    0  502  0.90009287463E+02 -0.66686071555E+02 -0.17619928430E+02  0.11339826210E+03  0.00000000000E+00 0.  1.
<scales pt_clust_5="13000.00000" pt_clust_6="13000.00000" pt_clust_7="13000.00000" pt_clust_8="13000.00000" pt_clust_9="93.21554"></scales>
<clustering>
<clus scale="   85.876">  7  8 -1 -1</clus>
<clus scale="   92.202">  5  6 -1 -1</clus>
<clus scale="  100.032">  1  5  2 -1</clus>
<clus scale="   93.216">  2  9  1 -1</clus>
<clus scale="   93.216">  2  5  1 -1</clus>
</clustering>
</event>
<event>
 9    1  0.1315259E-005  0.9389373E+02  0.7546771E-02  0.1297154E+00
         21   -1    0    0  501  502  0.00000000000E+00  0.00000000000E+00  0.51091427983E+02  0.51091427983E+02  0.00000000000E+00 0.  1.
          2   -1    0    0  502    0 -0.00000000000E+00 -0.00000000000E+00 -0.41687711172E+03  0.41687711172E+03  0.00000000000E+00 0. -1.
         23    2    1    2    0    0 -0.23827407054E+02 -0.13458832984E+02 -0.29136697261E+03  0.30665417371E+03  0.91614322113E+02 0.  0.
         23    2    1    2    0    0 -0.39126642449E+01  0.14535884374E+02 -0.93475409941E+02  0.12764198318E+03  0.85605039160E+02 0.  0.
        -11    1    3    3    0    0  0.94366849317E+01  0.33866858262E+02 -0.77488235218E+02  0.85090785096E+02  0.00000000000E+00 0.  1.
         11    1    3    3    0    0 -0.33264091986E+02 -0.47325691246E+02 -0.21387873739E+03  0.22156338861E+03  0.00000000000E+00 0. -1.
        -13    1    4    4    0    0 -0.17877427965E+02 -0.27121176742E+02 -0.71466161405E+02  0.78502056562E+02  0.00000000000E+00 0. -1.
         13    1    4    4    0    0  0.13964763720E+02  0.41657061116E+02 -0.22009248536E+02  0.49139926614E+02  0.00000000000E+00 0.  1.
          2    1    1    2  501    0  0.27740071299E+02 -0.10770513901E+01  0.19056698807E+02  0.33672382820E+02  0.00000000000E+00 0. -1.
<scales pt_clust_5="13000.00000" pt_clust_6="13000.00000" pt_clust_7="13000.00000" pt_clust_8="13000.00000" pt_clust_9="27.76097"></scales>
<clustering>
<clus scale="   27.761">  1  9  2 -1</clus>
<clus scale="   85.605">  7  8 -1 -1</clus>
<clus scale="   88.040">  1  7  2 -1</clus>
<clus scale="   91.614">  5  6 -1 -1</clus>
<clus scale="   27.761">  1  5  2 -1</clus>
</clustering>
</event>
<event>
 9    1  0.1315259E-005  0.1408344E+03  0.7546771E-02  0.1212882E+00
         21   -1    0    0  501  502  0.00000000000E+00  0.00000000000E+00  0.10699926899E+03  0.10699926899E+03  0.00000000000E+00 0. -1.
          1   -1    0    0  502    0 -0.00000000000E+00 -0.00000000000E+00 -0.89953962036E+03  0.89953962036E+03  0.00000000000E+00 0. -1.
         23    2    1    2    0    0 -0.10404941870E+03 -0.81593753304E+02 -0.54803831699E+03  0.57078076835E+03  0.89223688101E+02 0.  0.
         23    2    1    2    0    0  0.94597006803E+02 -0.21318806097E+02 -0.29259673114E+03  0.32176933720E+03  0.92301539002E+02 0.  0.
        -13    1    4    4    0    0  0.91686967251E+01 -0.35268707869E+02 -0.15487520162E+03  0.15910460343E+03  0.00000000000E+00 0. -1.
         13    1    4    4    0    0  0.85428310078E+02  0.13949901772E+02 -0.13772152952E+03  0.16266473378E+03  0.00000000000E+00 0.  1.
        -13    1    3    3    0    0 -0.23331467759E+02 -0.16256097999E+02 -0.26056287541E+02  0.38568746808E+02  0.00000000000E+00 0.  1.
         13    1    3    3    0    0 -0.80717950937E+02 -0.65337655305E+02 -0.52198202945E+03  0.53221202154E+03  0.00000000000E+00 0. -1.
          1    1    1    2  501    0  0.94524118929E+01  0.10291255940E+03  0.48094696765E+02  0.11398878379E+03  0.00000000000E+00 0. -1.
<scales pt_clust_5="13000.00000" pt_clust_6="13000.00000" pt_clust_7="13000.00000" pt_clust_8="13000.00000" pt_clust_9="103.34574"></scales>
<clustering>
<clus scale="   89.224">  7  8 -1 -1</clus>
<clus scale="   92.302">  5  6 -1 -1</clus>
<clus scale="  103.346">  1  9  2 -1</clus>
<clus scale="  138.837">  2  7  1 -1</clus>
<clus scale="  103.346">  1  5  2 -1</clus>
</clustering>
</event>
<event>
 9    1  0.1315259E-005  0.3837363E+03  0.7546771E-02  0.1049568E+00
         21   -1    0    0  501  502  0.00000000000E+00  0.00000000000E+00  0.21014268699E+03  0.21014268699E+03  0.00000000000E+00 0. -1.
          1   -1    0    0  502    0 -0.00000000000E+00 -0.00000000000E+00 -0.95069629100E+03  0.95069629100E+03  0.00000000000E+00 0. -1.
         23    2    1    2    0    0  0.36960506790E+03  0.19720092814E+02 -0.60238816454E+03  0.71298468374E+03  0.92080780752E+02 0.  0.
         23    2    1    2    0    0 -0.37865275595E+03  0.95887436459E+00 -0.15539113739E+03  0.41946054473E+03  0.91770986579E+02 0.  0.
        -13    1    3    3    0    0  0.12431443100E+03 -0.10466879379E+02 -0.28191456775E+03  0.30828470093E+03  0.00000000000E+00 0.  1.
         13    1    3    3    0    0  0.24529063690E+03  0.30186972193E+02 -0.32047359680E+03  0.40469998281E+03  0.00000000000E+00 0. -1.
        -13    1    4    4    0    0 -0.34526708269E+03  0.18513339549E+02 -0.16085352008E+03  0.38134755414E+03  0.00000000000E+00 0. -1.
         13    1    4    4    0    0 -0.33385673261E+02 -0.17554465185E+02  0.54623826840E+01  0.38112990588E+02  0.00000000000E+00 0.  1.
          1    1    1    2  501    0  0.90476880492E+01 -0.20678967178E+02  0.17225697929E+02  0.28393749519E+02  0.00000000000E+00 0. -1.
<scales pt_clust_5="13000.00000" pt_clust_6="13000.00000" pt_clust_7="13000.00000" pt_clust_8="13000.00000" pt_clust_9="22.57167"></scales>
<clustering>
<clus scale="   22.572">  1  9  2 -1</clus>
<clus scale="   91.771">  7  8 -1 -1</clus>
<clus scale="   92.081">  5  6 -1 -1</clus>
<clus scale="  383.662">  1  7  2 -1</clus>
<clus scale="   22.572">  1  5  2 -1</clus>
</clustering>
</event>
<event>
 9    1  0.1315259E-005  0.1243601E+03  0.7546771E-02  0.1236105E+00
         -4   -1    0    0    0  501 -0.00000000000E+00  0.00000000000E+00  0.89931233039E+02  0.89931233039E+02  0.00000000000E+00 0.  1.
         21   -1    0    0  501  502  0.00000000000E+00 -0.00000000000E+00 -0.26425351957E+03  0.26425351957E+03  0.00000000000E+00 0. -1.
         23    2    1    2    0    0 -0.17936850558E+02  0.80672237905E+02 -0.16417425711E+02  0.12348157054E+03  0.90268631426E+02 0.  0.
         23    2    1    2    0    0  0.44837219146E+02 -0.81443456674E+02 -0.90128833772E+02  0.15777983566E+03  0.90154628327E+02 0.  0.
        -11    1    4    4    0    0 -0.17714810683E+02 -0.59119664186E+02 -0.54888035864E+02  0.82593254519E+02  0.00000000000E+00 0. -1.
         11    1    4    4    0    0  0.62552029829E+02 -0.22323792488E+02 -0.35240797908E+02  0.75186581143E+02  0.00000000000E+00 0.  1.
        -11    1    3    3    0    0  0.23643779424E+02  0.62747720517E+02 -0.33661805057E+02  0.75029473244E+02  0.00000000000E+00 0. -1.
         11    1    3    3    0    0 -0.41580629983E+02  0.17924517388E+02  0.17244379347E+02  0.48452097296E+02  0.00000000000E+00 0.  1.
         -4    1    1    2    0  502 -0.26900368588E+02  0.77121876883E+00 -0.67776027048E+02  0.72923346405E+02  0.00000000000E+00 0.  1.
<scales pt_clust_5="13000.00000" pt_clust_6="13000.00000" pt_clust_7="13000.00000" pt_clust_8="13000.00000" pt_clust_9="26.91142"></scales>
<clustering>
<clus scale="   26.911">  2  9  1 -1</clus>
<clus scale="   90.155">  5  6 -1 -1</clus>
<clus scale="   90.269">  7  8 -1 -1</clus>
<clus scale="  124.277">  2  5  1 -1</clus>
<clus scale="   26.911">  2  5  1 -1</clus>
</clustering>
</event>
<event>
 9    1  0.1315259E-005  0.1699586E+03  0.7546771E-02  0.1181404E+00
         21   -1    0    0  501  502  0.00000000000E+00  0.00000000000E+00  0.91296674111E+02  0.91296674111E+02  0.00000000000E+00 0.  1.
          2   -1    0    0  502    0 -0.00000000000E+00 -0.00000000000E+00 -0.41021382303E+03  0.41021382303E+03  0.00000000000E+00 0. -1.
         23    2    1    2    0    0 -0.72606091201E+02  0.92785808212E+02 -0.16773178074E+03  0.22218213257E+03  0.85732718826E+02 0.  0.
         23    2    1    2    0    0  0.95349034056E+02 -0.12101679940E+03 -0.15402403456E+03  0.24296508172E+03  0.10757380572E+03 0.  0.
        -11    1    3    3    0    0 -0.53784552092E+02  0.26615562335E+02 -0.27554574013E+02  0.66033482047E+02  0.00000000000E+00 0.  1.
         11    1    3    3    0    0 -0.18821539109E+02  0.66170245877E+02 -0.14017720673E+03  0.15614865052E+03  0.00000000000E+00 0. -1.
        -11    1    4    4    0    0  0.66362026124E+02 -0.30676558613E+01 -0.55888747336E+02  0.86815212391E+02  0.00000000000E+00 0. -1.
         11    1    4    4    0    0  0.28987007933E+02 -0.11794914354E+03 -0.98135287227E+02  0.15614986933E+03  0.00000000000E+00 0.  1.
          2    1    1    2  501    0 -0.22742942856E+02  0.28230991192E+02  0.28386663816E+01  0.36363282858E+02  0.00000000000E+00 0. -1.
<scales pt_clust_5="13000.00000" pt_clust_6="13000.00000" pt_clust_7="13000.00000" pt_clust_8="13000.00000" pt_clust_9="36.25231"></scales>
<clustering>
<clus scale="   36.252">  1  9  2 -1</clus>
<clus scale="   85.733">  5  6 -1 -1</clus>
<clus scale="  107.574">  7  8 -1 -1</clus>
<clus scale="  157.047">  2  5  1 -1</clus>
<clus scale="   36.252">  1  5  2 -1</clus>
</clustering>
</event>
<event>
 9    1  0.1315259E-005  0.1706533E+03  0.7546771E-02  0.1177340E+00
          2   -1    0    0  502    0 -0.00000000000E+00  0.00000000000E+00  0.10326752611E+04  0.10326752611E+04  0.00000000000E+00 0. -1.
         21   -1    0    0  501  502  0.00000000000E+00 -0.00000000000E+00 -0.55554631025E+02  0.55554631025E+02  0.00000000000E+00 0. -1.
         23    2    1    2    0    0 -0.12679663224E+03 -0.26897838529E+01  0.40666132791E+03  0.43577953657E+03  0.91900750775E+02 0.  0.
         23    2    1    2    0    0  0.15685656908E+03 -0.45204745473E+02  0.56524020808E+03  0.59566369619E+03  0.93119782314E+02 0.  0.
        -11    1    3    3    0    0 -0.34376613832E+02 -0.41523893763E+02  0.18091491976E+03  0.18877551092E+03  0.00000000000E+00 0. -1.
         11    1    3    3    0    0 -0.92420018411E+02  0.38834109911E+02  0.22574640815E+03  0.24700402565E+03  0.00000000000E+00 0.  1.
        -11    1    4    4    0    0  0.63498143200E+02 -0.45209373928E+02  0.13943002617E+03  0.15973926843E+03  0.00000000000E+00 0.  1.
         11    1    4    4    0    0  0.93358425878E+02  0.46284552454E-02  0.42581018191E+03  0.43592442777E+03  0.00000000000E+00 0. -1.
          2    1    1    2  501    0 -0.30059936835E+02  0.47894529326E+02  0.52190941239E+01  0.56786659396E+02  0.00000000000E+00 0. -1.
<scales pt_clust_5="13000.00000" pt_clust_6="13000.00000" pt_clust_7="13000.00000" pt_clust_8="13000.00000" pt_clust_9="56.54632"></scales>
<clustering>
<clus scale="   56.546">  2  9  1 -1</clus>
<clus scale="   91.901">  5  6 -1 -1</clus>
<clus scale="   93.120">  7  8 -1 -1</clus>
<clus scale="  169.991">  1  5  2 -1</clus>
<clus scale="   56.546">  2  5  1 -1</clus>
</clustering>
</event>
<event>
 9    1  0.1315259E-005  0.9360410E+02  0.7546771E-02  0.1299593E+00
         21   -1    0    0  501  502  0.00000000000E+00  0.00000000000E+00  0.28399397376E+02  0.28399397376E+02  0.00000000000E+00 0.  1.
          2   -1    0    0  502    0 -0.00000000000E+00 -0.00000000000E+00 -0.42348537564E+03  0.42348537564E+03  0.00000000000E+00 0. -1.
         23    2    1    2    0    0  0.17660382001E+02  0.38501776502E+02 -0.23042554019E+03  0.25056103761E+03  0.88829207549E+02 0.  0.
         23    2    1    2    0    0 -0.14718689139E+02 -0.99852202871E+01 -0.14555395998E+03  0.16687224719E+03  0.79649527178E+02 0.  0.
        -11    1    3    3    0    0  0.43831513727E+02  0.51975721182E+02 -0.14362382567E+03  0.15890399771E+03  0.00000000000E+00 0. -1.
         11    1    3    3    0    0 -0.26171131726E+02 -0.13473944681E+02 -0.86801714516E+02  0.91657039904E+02  0.00000000000E+00 0.  1.
        -13    1    4    4    0    0 -0.40856867329E+02 -0.22586886102E+02 -0.56958926537E+02  0.73646251391E+02  0.00000000000E+00 0.  1.
         13    1    4    4    0    0  0.26138178190E+02  0.12601665815E+02 -0.88595033446E+02  0.93225995794E+02  0.00000000000E+00 0. -1.
          2    1    1    2  501    0 -0.29416928623E+01 -0.28516556215E+02 -0.19106478096E+02  0.34451488218E+02  0.00000000000E+00 0. -1.
<scales pt_clust_5="13000.00000" pt_clust_6="13000.00000" pt_clust_7="13000.00000" pt_clust_8="13000.00000" pt_clust_9="28.66788"></scales>
<clustering>
<clus scale="   28.668">  1  9  2 -1</clus>
<clus scale="   79.650">  7  8 -1 -1</clus>
<clus scale="   84.942">  1  7  2 -1</clus>
<clus scale="   88.829">  5  6 -1 -1</clus>
<clus scale="   28.668">  1  5  2 -1</clus>
</clustering>
</event>
<event>
 9    1  0.1315259E-005  0.9261177E+02  0.7546771E-02  0.1297361E+00
         21   -1    0    0  501  502  0.00000000000E+00  0.00000000000E+00  0.17107129651E+03  0.17107129651E+03  0.00000000000E+00 0. -1.
          2   -1    0    0  502    0 -0.00000000000E+00 -0.00000000000E+00 -0.18522896821E+03  0.18522896821E+03  0.00000000000E+00 0. -1.
         23    2    1    2    0    0  0.19890888087E+02 -0.23819296190E+02 -0.80450800131E+02  0.12478734698E+03  0.90202796100E+02 0.  0.
         23    2    1    2    0    0 -0.82390885609E+01  0.58808765281E+01 -0.57161001052E+02  0.10621936875E+03  0.88953397726E+02 0.  0.
        -11    1    4    4    0    0 -0.39641108294E+02 -0.21747336267E+02 -0.42054432970E+02  0.61749003506E+02  0.00000000000E+00 0.  1.
         11    1    4    4    0    0  0.31402019733E+02  0.27628212795E+02 -0.15106568081E+02  0.44470365242E+02  0.00000000000E+00 0. -1.
        -13    1    3    3    0    0  0.36093209953E+02  0.67535769140E+01 -0.82317714164E+02  0.90136211764E+02  0.00000000000E+00 0. -1.
         13    1    3    3    0    0 -0.16202321866E+02 -0.30572873104E+02  0.18669140329E+01  0.34651135215E+02  0.00000000000E+00 0.  1.
          2    1    1    2  501    0 -0.11651799526E+02  0.17938419661E+02  0.12345412949E+03  0.12529354900E+03  0.00000000000E+00 0. -1.
<scales pt_clust_5="13000.00000" pt_clust_6="13000.00000" pt_clust_7="13000.00000" pt_clust_8="13000.00000" pt_clust_9="21.39045"></scales>
<clustering>
<clus scale="   21.390">  1  9  2 -1</clus>
<clus scale="   88.953">  5  6 -1 -1</clus>
<clus scale="   90.203">  7  8 -1 -1</clus>
<clus scale="   91.395">  1  5  2 -1</clus>
<clus scale="   21.390">  1  5  2 -1</clus>
</clustering>
</event>
<event>
 9    1  0.1315259E-005  0.1038189E+03  0.7546771E-02  0.1273027E+00
          1   -1    0    0  502    0 -0.00000000000E+00  0.00000000000E+00  0.55060431952E+02  0.55060431952E+02  0.00000000000E+00 0. -1.
         21   -1    0    0  501  502  0.00000000000E+00 -0.00000000000E+00 -0.42353893214E+03  0.42353893214E+03  0.00000000000E+00 0. -1.
         23    2    1    2    0    0  0.11940593242E+02  0.56511586526E+02 -0.33356068087E+02  0.11125446073E+03  0.89043756524E+02 0.  0.
         23    2    1    2    0    0  0.30743754015E+02 -0.32379717696E+02 -0.24096878361E+03  0.26118836744E+03  0.90331523204E+02 0.  0.
        -11    1    4    4    0    0 -0.10458529946E+02  0.25040575163E+02 -0.41645642101E+02  0.49706848212E+02  0.00000000000E+00 0.  1.
         11    1    4    4    0    0  0.41202283961E+02 -0.57420292859E+02 -0.19932314151E+03  0.21148151923E+03  0.00000000000E+00 0. -1.
        -11    1    3    3    0    0  0.19085890701E+02 -0.19254132126E+02  0.23108642446E+01  0.27209059545E+02  0.00000000000E+00 0.  1.
         11    1    3    3    0    0 -0.71452974590E+01  0.75765718652E+02 -0.35666932332E+02  0.84045401186E+02  0.00000000000E+00 0. -1.
          1    1    1    2  501    0 -0.42684347257E+02 -0.24131868830E+02 -0.94153648493E+02  0.10615653592E+03  0.00000000000E+00 0. -1.
<scales pt_clust_5="13000.00000" pt_clust_6="13000.00000" pt_clust_7="13000.00000" pt_clust_8="13000.00000" pt_clust_9="49.03367"></scales>
<clustering>
<clus scale="   49.034">  2  9  1 -1</clus>
<clus scale="   89.044">  7  8 -1 -1</clus>
<clus scale="   90.332">  5  6 -1 -1</clus>
<clus scale="  102.700">  1  7  2 -1</clus>
<clus scale="   49.034">  2  5  1 -1</clus>
</clustering>
</event>
<event>
 9    1  0.1315259E-005  0.9692384E+02  0.7546771E-02  0.1286999E+00
          2   -1    0    0  502    0 -0.00000000000E+00  0.00000000000E+00  0.20756033617E+03  0.20756033617E+03  0.00000000000E+00 0. -1.
         21   -1    0    0  501  502  0.00000000000E+00 -0.00000000000E+00 -0.89438463984E+02  0.89438463984E+02  0.00000000000E+00 0.  1.
         23    2    1    2    0    0  0.35710521452E+02  0.10152572400E+02  0.13669648488E+03  0.16851371974E+03  0.91283233352E+02 0.  0.
         23    2    1    2    0    0 -0.88733923480E+01 -0.26382989764E+02 -0.89126310552E+01  0.95667221935E+02  0.91093266051E+02 0.  0.
        -11    1    3    3    0    0  0.93303973996E+01  0.42033691526E+02  0.25910149915E+02  0.50251601045E+02  0.00000000000E+00 0.  1.
         11    1    3    3    0    0  0.26380124052E+02 -0.31881119126E+02  0.11078633497E+03  0.11826211869E+03  0.00000000000E+00 0. -1.
        -13    1    4    4    0    0 -0.41944266116E+02 -0.13427805886E+02 -0.30985737486E+02  0.53849265162E+02  0.00000000000E+00 0.  1.
         13    1    4    4    0    0  0.33070873768E+02 -0.12955183878E+02  0.22073106431E+02  0.41817956773E+02  0.00000000000E+00 0. -1.
          2    1    1    2  501    0 -0.26837129104E+02  0.16230417364E+02 -0.96619816390E+01  0.32817858485E+02  0.00000000000E+00 0. -1.
<scales pt_clust_5="13000.00000" pt_clust_6="13000.00000" pt_clust_7="13000.00000" pt_clust_8="13000.00000" pt_clust_9="31.36332"></scales>
<clustering>
<clus scale="   31.363">  2  9  1 -1</clus>
<clus scale="   91.093">  7  8 -1 -1</clus>
<clus scale="   91.283">  5  6 -1 -1</clus>
<clus scale="   96.745">  2  7  1 -1</clus>
<clus scale="   31.363">  2  5  1 -1</clus>
</clustering>
</event>
<event>
 9    1  0.1315259E-005  0.1630184E+03  0.7546771E-02  0.1185411E+00
         21   -1    0    0  501  502  0.00000000000E+00  0.00000000000E+00  0.14991240326E+03  0.14991240326E+03  0.00000000000E+00 0.  1.
          2   -1    0    0  502    0 -0.00000000000E+00 -0.00000000000E+00 -0.95117192472E+03  0.95117192472E+03  0.00000000000E+00 0. -1.
         23    2    1    2    0    0 -0.44218497426E-01  0.13190508884E+03 -0.81456323201E+03  0.83022707618E+03  0.91459196712E+02 0.  0.
         23    2    1    2    0    0  0.33655997664E+02 -0.18133735522E+03  0.32254004880E+02  0.20814828662E+03  0.90936383333E+02 0.  0.
        -13    1    3    3    0    0 -0.35661292873E+02  0.11320958869E+03 -0.65528575523E+03  0.66594861647E+03  0.00000000000E+00 0.  1.
         13    1    3    3    0    0  0.35617074375E+02  0.18695500145E+02 -0.15927747678E+03  0.16427845970E+03  0.00000000000E+00 0. -1.
        -13    1    4    4    0    0  0.40644376633E+02 -0.88989277729E+02  0.55750730626E+02  0.11260195766E+03  0.00000000000E+00 0. -1.
         13    1    4    4    0    0 -0.69883789693E+01 -0.92348077496E+02 -0.23496725747E+02  0.95546328964E+02  0.00000000000E+00 0.  1.
          2    1    1    2  501    0 -0.33611779167E+02  0.49432266388E+02 -0.18950294333E+02  0.62708965183E+02  0.00000000000E+00 0. -1.
<scales pt_clust_5="13000.00000" pt_clust_6="13000.00000" pt_clust_7="13000.00000" pt_clust_8="13000.00000" pt_clust_9="59.77709"></scales>
<clustering>
<clus scale="   59.777">  1  9  2 -1</clus>
<clus scale="   90.936">  7  8 -1 -1</clus>
<clus scale="   91.459">  5  6 -1 -1</clus>
<clus scale="  162.726">  1  7  2 -1</clus>
<clus scale="   59.777">  1  5  2 -1</clus>
</clustering>
</event>
<event>
 9    1  0.1315259E-005  0.1488170E+03  0.7546771E-02  0.1202406E+00
          3   -1    0    0  502    0 -0.00000000000E+00  0.00000000000E+00  0.74223133300E+03  0.74223133300E+03  0.00000000000E+00 0. -1.
         21   -1    0    0  501  502  0.00000000000E+00 -0.00000000000E+00 -0.55994485691E+02  0.55994485691E+02  0.00000000000E+00 0.  1.
         23    2    1    2    0    0 -0.11897776687E+03  0.10269500113E+02  0.54771395398E+03  0.56776022790E+03  0.89999607525E+02 0.  0.
         23    2    1    2    0    0  0.10358482912E+03 -0.40482368641E+02  0.13226434295E+03  0.19598473509E+03  0.92452804047E+02 0.  0.
        -11    1    4    4    0    0  0.48407489022E+02 -0.51130965951E+02  0.24685016636E+02  0.74612403251E+02  0.00000000000E+00 0.  1.
         11    1    4    4    0    0  0.55177340103E+02  0.10648597310E+02  0.10757932632E+03  0.12137233184E+03  0.00000000000E+00 0. -1.
        -11    1    3    3    0    0 -0.24413187918E+02  0.29958520128E+02  0.66210917208E+02  0.76664217404E+02  0.00000000000E+00 0.  1.
         11    1    3    3    0    0 -0.94564578957E+02 -0.19689020015E+02  0.48150303677E+03  0.49109601049E+03  0.00000000000E+00 0. -1.
          3    1    1    2  501    0  0.15392937750E+02  0.30212868528E+02  0.62585503776E+01  0.34480855704E+02  0.00000000000E+00 0. -1.
<scales pt_clust_5="13000.00000" pt_clust_6="13000.00000" pt_clust_7="13000.00000" pt_clust_8="13000.00000" pt_clust_9="33.90811"></scales>
<clustering>
<clus scale="   33.908">  2  9  1 -1</clus>
<clus scale="   90.000">  7  8 -1 -1</clus>
<clus scale="   92.453">  5  6 -1 -1</clus>
<clus scale="  147.305">  1  7  2 -1</clus>
<clus scale="   33.908">  2  5  1 -1</clus>
</clustering>
</event>
<event>
 9    1  0.1315259E-005  0.1181789E+03  0.7546771E-02  0.1252545E+00
         21   -1    0    0  501  502  0.00000000000E+00  0.00000000000E+00  0.36438339189E+02  0.36438339189E+02  0.00000000000E+00 0.  1.
          3   -1    0    0  502    0 -0.00000000000E+00 -0.00000000000E+00 -0.43924300122E+03  0.43924300122E+03  0.00000000000E+00 0. -1.
         23    2    1    2    0    0  0.32746376043E+02 -0.14904085243E+02 -0.19407589913E+03  0.22492931421E+03  0.10785770658E+03 0.  0.
         23    2    1    2    0    0 -0.51611850860E+02  0.31025161682E+02 -0.19044147714E+03  0.21992638645E+03  0.92050613434E+02 0.  0.
        -13    1    3    3    0    0  0.48244637901E+02 -0.41705066391E+02 -0.60820902838E+02  0.88125137565E+02  0.00000000000E+00 0. -1.
         13    1    3    3    0    0 -0.15498261858E+02  0.26800981148E+02 -0.13325499629E+03  0.13680417665E+03  0.00000000000E+00 0.  1.
        -13    1    4    4    0    0 -0.23462636600E+02  0.48406671208E+02 -0.43138034761E+02  0.68953543613E+02  0.00000000000E+00 0.  1.
         13    1    4    4    0    0 -0.28149214260E+02 -0.17381509526E+02 -0.14730344238E+03  0.15097284283E+03  0.00000000000E+00 0. -1.
          3    1    1    2  501    0  0.18865474817E+02 -0.16121076439E+02 -0.18287285762E+02  0.30825639752E+02  0.00000000000E+00 0. -1.
<scales pt_clust_5="13000.00000" pt_clust_6="13000.00000" pt_clust_7="13000.00000" pt_clust_8="13000.00000" pt_clust_9="24.81522"></scales>
<clustering>
<clus scale="   24.815">  1  9  2 -1</clus>
<clus scale="   92.051">  7  8 -1 -1</clus>
<clus scale="  103.953">  1  7  2 -1</clus>
<clus scale="  107.858">  5  6 -1 -1</clus>
<clus scale="   24.815">  1  5  2 -1</clus>
</clustering>
</event>
<event>
 9    1  0.1315259E-005  0.1017617E+03  0.7546771E-02  0.1277504E+00
          3   -1    0    0  502    0 -0.00000000000E+00  0.00000000000E+00  0.20142844032E+03  0.20142844032E+03  0.00000000000E+00 0. -1.
         21   -1    0    0  501  502  0.00000000000E+00 -0.00000000000E+00 -0.34147942142E+03  0.34147942142E+03  0.00000000000E+00 0. -1.
         23    2    1    2    0    0  0.28283332074E+02 -0.36629162833E+02  0.17575970297E+03  0.20344720310E+03  0.91420177292E+02 0.  0.
         23    2    1    2    0    0 -0.99091435451E+01  0.19851759985E+02 -0.19000597620E+03  0.21121902510E+03  0.89548434235E+02 0.  0.
        -13    1    3    3    0    0 -0.15882939821E+02 -0.15042994009E+02  0.99330329908E+00  0.21898540991E+02  0.00000000000E+00 0.  1.
         13    1    3    3    0    0  0.44166271895E+02 -0.21586168825E+02  0.17476639967E+03  0.18154866211E+03  0.00000000000E+00 0. -1.
        -13    1    4    4    0    0 -0.33136516571E+02  0.39033868564E+02 -0.16267994828E+03  0.17054746318E+03  0.00000000000E+00 0.  1.
         13    1    4    4    0    0  0.23227373026E+02 -0.19182108580E+02 -0.27326027918E+02  0.40671561920E+02  0.00000000000E+00 0. -1.
          3    1    1    2  501    0 -0.18374188529E+02  0.16777402849E+02 -0.12580470787E+03  0.12824163354E+03  0.00000000000E+00 0. -1.
<scales pt_clust_5="13000.00000" pt_clust_6="13000.00000" pt_clust_7="13000.00000" pt_clust_8="13000.00000" pt_clust_9="24.88156"></scales>
<clustering>
<clus scale="   24.882">  2  9  1 -1</clus>
<clus scale="   89.548">  7  8 -1 -1</clus>
<clus scale="   91.420">  5  6 -1 -1</clus>
<clus scale="  100.084">  2  7  1 -1</clus>
<clus scale="   24.882">  2  5  1 -1</clus>
</clustering>
</event>
<event>
 9    1  0.1943988E-005  0.1112502E+03  0.7546771E-02  0.1259049E+00
          2   -1    0    0  502    0 -0.00000000000E+00  0.00000000000E+00  0.20573434746E+03  0.20573434746E+03  0.00000000000E+00 0. -1.
         21   -1    0    0  501  502  0.00000000000E+00 -0.00000000000E+00 -0.29743323837E+03  0.29743323837E+03  0.00000000000E+00 0.  1.
         23    2    1    2    0    0  0.12221289907E+02 -0.57129956102E+02  0.17018354231E+03  0.20229434630E+03  0.92452001917E+02 0.  0.
         23    2    1    2    0    0 -0.38402817314E+02  0.57485530199E+02 -0.23890868225E+03  0.26603946218E+03  0.94447204421E+02 0.  0.
        -11    1    3    3    0    0  0.23913250570E+02 -0.76149520263E+02  0.96117891250E+02  0.12493695213E+03  0.00000000000E+00 0.  1.
         11    1    3    3    0    0 -0.11691960663E+02  0.19019564161E+02  0.74065651063E+02  0.77357394168E+02  0.00000000000E+00 0. -1.
        -11    1    4    4    0    0  0.28794529413E+02  0.24783274958E+02 -0.49338701107E+02  0.62270724010E+02  0.00000000000E+00 0. -1.
         11    1    4    4    0    0 -0.67197346728E+02  0.32702255241E+02 -0.18956998115E+03  0.20376873817E+03  0.00000000000E+00 0.  1.
          2    1    1    2  501    0  0.26181527408E+02 -0.35557409768E+00 -0.22973750975E+02  0.34833777346E+02  0.00000000000E+00 0. -1.
<scales pt_clust_5="13000.00000" pt_clust_6="13000.00000" pt_clust_7="13000.00000" pt_clust_8="13000.00000" pt_clust_9="26.18394"></scales>
<clustering>
<clus scale="   26.184">  2  9  1 -1</clus>
<clus scale="   92.452">  5  6 -1 -1</clus>
<clus scale="   94.447">  7  8 -1 -1</clus>
<clus scale="  109.561">  1  5  2 -1</clus>
<clus scale="   26.184">  2  5  1 -1</clus>
</clustering>
</event>
<event>
 9    1  0.1315259E-005  0.9313587E+02  0.7546771E-02  0.1295673E+00
          2   -1    0    0  502    0 -0.00000000000E+00  0.00000000000E+00  0.38785434802E+03  0.38785434802E+03  0.00000000000E+00 0. -1.
         21   -1    0    0  501  502  0.00000000000E+00 -0.00000000000E+00 -0.44610694288E+02  0.44610694288E+02  0.00000000000E+00 0. -1.
         23    2    1    2    0    0 -0.39985640274E+02  0.53576541592E+01  0.18254296662E+03  0.20784686854E+03  0.90834080673E+02 0.  0.
         23    2    1    2    0    0 -0.17152631034E+02 -0.23953158236E+02  0.11443004749E+03  0.14877921999E+03  0.90404944507E+02 0.  0.
        -11    1    3    3    0    0 -0.35488215295E+02 -0.39724139204E+02  0.11177819716E+03  0.12382158948E+03  0.00000000000E+00 0.  1.
         11    1    3    3    0    0 -0.44974249782E+01  0.45081793363E+02  0.70764769461E+02  0.84025279060E+02  0.00000000000E+00 0. -1.
        -13    1    4    4    0    0 -0.26937501169E+02  0.12494739480E+02  0.10604025176E+03  0.11011940101E+03  0.00000000000E+00 0.  1.
         13    1    4    4    0    0  0.97848701348E+01 -0.36447897717E+02  0.83897957274E+01  0.38659818984E+02  0.00000000000E+00 0. -1.
          2    1    1    2  501    0  0.57138271308E+02  0.18595504077E+02  0.46270639625E+02  0.75838953785E+02  0.00000000000E+00 0. -1.
<scales pt_clust_5="13000.00000" pt_clust_6="13000.00000" pt_clust_7="13000.00000" pt_clust_8="13000.00000" pt_clust_9="60.08806"></scales>
<clustering>
<clus scale="   60.088">  2  9  1 -1</clus>
<clus scale="   90.405">  7  8 -1 -1</clus>
<clus scale="   90.834">  5  6 -1 -1</clus>
<clus scale="   92.717">  2  7  1 -1</clus>
<clus scale="   60.088">  2  5  1 -1</clus>
</clustering>
</event>
<event>
 9    1  0.1315259E-005  0.1632958E+03  0.7546771E-02  0.1185757E+00
         21   -1    0    0  501  502  0.00000000000E+00  0.00000000000E+00  0.33517396336E+02  0.33517396336E+02  0.00000000000E+00 0. -1.
          3   -1    0    0  502    0 -0.00000000000E+00 -0.00000000000E+00 -0.14859250334E+04  0.14859250334E+04  0.00000000000E+00 0. -1.
         23    2    1    2    0    0 -0.10763919556E+03 -0.33054613782E+02 -0.50199252536E+03  0.52215506979E+03  0.89278314699E+02 0.  0.
         23    2    1    2    0    0  0.12575214672E+03  0.11065285856E+03 -0.84261017009E+03  0.86322964092E+03  0.84355537595E+02 0.  0.
        -11    1    3    3    0    0 -0.65239502482E+02  0.64651308667E+01 -0.39562816094E+03  0.40102323166E+03  0.00000000000E+00 0. -1.
         11    1    3    3    0    0 -0.42399693081E+02 -0.39519744649E+02 -0.10636436442E+03  0.12113183813E+03  0.00000000000E+00 0.  1.
        -13    1    4    4    0    0  0.60688608842E+02  0.17072730118E+02 -0.17610853211E+03  0.18705293486E+03  0.00000000000E+00 0. -1.
         13    1    4    4    0    0  0.65063537877E+02  0.93580128438E+02 -0.66650163798E+03  0.67617670607E+03  0.00000000000E+00 0.  1.
          3    1    1    2  501    0 -0.18112951157E+02 -0.77598244774E+02 -0.10780494159E+03  0.13405771900E+03  0.00000000000E+00 0. -1.
<scales pt_clust_5="13000.00000" pt_clust_6="13000.00000" pt_clust_7="13000.00000" pt_clust_8="13000.00000" pt_clust_9="79.68417"></scales>
<clustering>
<clus scale="   79.684">  1  9  2 -1</clus>
<clus scale="   84.356">  7  8 -1 -1</clus>
<clus scale="   89.278">  5  6 -1 -1</clus>
<clus scale="  160.657">  1  7  2 -1</clus>
<clus scale="   79.684">  1  5  2 -1</clus>
</clustering>
</event>
<event>
 9    1  0.1315259E-005  0.1023441E+03  0.7546771E-02  0.1275505E+00
         -1   -1    0    0    0  501 -0.00000000000E+00  0.00000000000E+00  0.58735478372E+03  0.58735478372E+03  0.00000000000E+00 0.  1.
         21   -1    0    0  501  502  0.00000000000E+00 -0.00000000000E+00 -0.42059844875E+02  0.42059844875E+02  0.00000000000E+00 0. -1.
         23    2    1    2    0    0  0.43981032234E+02 -0.31811694455E+02  0.33404492049E+03  0.35054885497E+03  0.91390238618E+02 0.  0.
         23    2    1    2    0    0 -0.17690173192E+02  0.33293950239E+02  0.22737511826E+03  0.24798818956E+03  0.91527418882E+02 0.  0.
        -13    1    4    4    0    0 -0.20512896099E+02  0.59799417688E+02  0.20010713242E+03  0.20985617386E+03  0.00000000000E+00 0.  1.
         13    1    4    4    0    0  0.28227229074E+01 -0.26505467449E+02  0.27267985831E+02  0.38132015690E+02  0.00000000000E+00 0. -1.
        -13    1    3    3    0    0 -0.12027543951E+01 -0.54932871954E+02  0.19203451097E+03  0.19974063293E+03  0.00000000000E+00 0. -1.
         13    1    3    3    0    0  0.45183786629E+02  0.23121177498E+02  0.14201040951E+03  0.15080822203E+03  0.00000000000E+00 0.  1.
         -1    1    1    2    0  502 -0.26290859042E+02 -0.14822557833E+01 -0.16125099899E+02  0.30877584072E+02  0.00000000000E+00 0.  1.
<scales pt_clust_5="13000.00000" pt_clust_6="13000.00000" pt_clust_7="13000.00000" pt_clust_8="13000.00000" pt_clust_9="26.33261"></scales>
<clustering>
<clus scale="   26.333">  2  9  1 -1</clus>
<clus scale="   91.390">  7  8 -1 -1</clus>
<clus scale="   91.527">  5  6 -1 -1</clus>
<clus scale="  102.221">  1  7  2 -1</clus>
<clus scale="   26.333">  2  5  1 -1</clus>
</clustering>
</event>
<event>
 9    1  0.1315259E-005  0.1249842E+03  0.7546771E-02  0.1235163E+00
          2   -1    0    0  502    0 -0.00000000000E+00  0.00000000000E+00  0.40290225545E+03  0.40290225545E+03  0.00000000000E+00 0. -1.
         21   -1    0    0  501  502  0.00000000000E+00 -0.00000000000E+00 -0.11077935247E+03  0.11077935247E+03  0.00000000000E+00 0. -1.
         23    2    1    2    0    0  0.22728964947E+02  0.73166791314E+02  0.16829981196E+03  0.20712026300E+03  0.93295184447E+02 0.  0.
         23    2    1    2    0    0 -0.65683448764E+02 -0.68708454243E+02  0.18733441846E+03  0.22975865512E+03  0.93057445343E+02 0.  0.
        -11    1    3    3    0    0  0.10198555710E+02  0.94607077463E+02  0.12360048733E+03  0.15598586511E+03  0.00000000000E+00 0. -1.
         11    1    3    3    0    0  0.12530409237E+02 -0.21440286149E+02  0.44699324622E+02  0.51134397888E+02  0.00000000000E+00 0.  1.
        -11    1    4    4    0    0  0.20316361657E+02 -0.12502668414E+02  0.69215808501E+02  0.73211333924E+02  0.00000000000E+00 0.  1.
         11    1    4    4    0    0 -0.85999810421E+02 -0.56205785828E+02  0.11811860996E+03  0.15654732119E+03  0.00000000000E+00 0. -1.
          2    1    1    2  501    0  0.42954483817E+02 -0.44583370713E+01 -0.63511327431E+02  0.76802689806E+02  0.00000000000E+00 0. -1.
<scales pt_clust_5="13000.00000" pt_clust_6="13000.00000" pt_clust_7="13000.00000" pt_clust_8="13000.00000" pt_clust_9="43.18523"></scales>
<clustering>
<clus scale="   43.185">  2  9  1 -1</clus>
<clus scale="   93.057">  7  8 -1 -1</clus>
<clus scale="   93.295">  5  6 -1 -1</clus>
<clus scale="  124.807">  2  7  1 -1</clus>
<clus scale="   43.185">  2  5  1 -1</clus>
</clustering>
</event>
<event>
 9    1  0.1315259E-005  0.1336367E+03  0.7546771E-02  0.1223470E+00
         21   -1    0    0  501  502  0.00000000000E+00  0.00000000000E+00  0.22933023029E+02  0.22933023029E+02  0.00000000000E+00 0.  1.
          1   -1    0    0  502    0 -0.00000000000E+00 -0.00000000000E+00 -0.91509337144E+03  0.91509337144E+03  0.00000000000E+00 0. -1.
         23    2    1    2    0    0 -0.14530267520E+02  0.10337891815E+03 -0.50343341108E+03  0.52175751099E+03  0.88810874818E+02 0.  0.
         23    2    1    2    0    0  0.20246580144E+02 -0.80843796628E+02 -0.32955150359E+03  0.35269027159E+03  0.94024415416E+02 0.  0.
        -13    1    3    3    0    0 -0.25691297673E+02  0.20838403248E+02 -0.45177541281E+02  0.55993678770E+02  0.00000000000E+00 0.  1.
         13    1    3    3    0    0  0.11161030153E+02  0.82540514902E+02 -0.45825586980E+03  0.46576383222E+03  0.00000000000E+00 0. -1.
        -13    1    4    4    0    0  0.56646029067E+02 -0.41098485782E+02 -0.21478608986E+03  0.22590024909E+03  0.00000000000E+00 0.  1.
         13    1    4    4    0    0 -0.36399448922E+02 -0.39745310846E+02 -0.11476541373E+03  0.12679002250E+03  0.00000000000E+00 0. -1.
          1    1    1    2  501    0 -0.57163126245E+01 -0.22535121523E+02 -0.59175433735E+02  0.63578611889E+02  0.00000000000E+00 0. -1.
<scales pt_clust_5="13000.00000" pt_clust_6="13000.00000" pt_clust_7="13000.00000" pt_clust_8="13000.00000" pt_clust_9="23.24883"></scales>
<clustering>
<clus scale="   23.249">  1  9  2 -1</clus>
<clus scale="   88.811">  5  6 -1 -1</clus>
<clus scale="   94.024">  7  8 -1 -1</clus>
<clus scale="  130.021">  2  5  1 -1</clus>
<clus scale="   23.249">  1  5  2 -1</clus>
</clustering>
</event>
<event>
 9    1  0.1315259E-005  0.9505968E+02  0.7546771E-02  0.1293678E+00
          2   -1    0    0  502    0 -0.00000000000E+00  0.00000000000E+00  0.11055589987E+03  0.11055589987E+03  0.00000000000E+00 0. -1.
         21   -1    0    0  501  502  0.00000000000E+00 -0.00000000000E+00 -0.13965491139E+03  0.13965491139E+03  0.00000000000E+00 0. -1.
         23    2    1    2    0    0  0.12932701476E+02 -0.18842629547E+02  0.26206278183E+02  0.95704054297E+02  0.89163880226E+02 0.  0.
         23    2    1    2    0    0  0.30584861005E+02  0.80588325497E+01 -0.43677756231E+02  0.10818971845E+03  0.93791738888E+02 0.  0.
        -11    1    4    4    0    0  0.15954942529E+02  0.50968671937E+02 -0.19876574203E+02  0.56986348472E+02  0.00000000000E+00 0.  1.
         11    1    4    4    0    0  0.14629918476E+02 -0.42909839387E+02 -0.23801182027E+02  0.51203369975E+02  0.00000000000E+00 0. -1.
        -13    1    3    3    0    0 -0.74408817982E+01 -0.50352502390E+02  0.28086472401E+02  0.58134251099E+02  0.00000000000E+00 0. -1.
         13    1    3    3    0    0  0.20373583274E+02  0.31509872843E+02 -0.18801942187E+01  0.37569803198E+02  0.00000000000E+00 0.  1.
          2    1    1    2  501    0 -0.43517562480E+02  0.10783796998E+02 -0.11627533470E+02  0.46317038512E+02  0.00000000000E+00 0. -1.
<scales pt_clust_5="13000.00000" pt_clust_6="13000.00000" pt_clust_7="13000.00000" pt_clust_8="13000.00000" pt_clust_9="44.83379"></scales>
<clustering>
<clus scale="   44.834">  2  9  1 -1</clus>
<clus scale="   89.164">  7  8 -1 -1</clus>
<clus scale="   90.497">  1  7  2 -1</clus>
<clus scale="   93.792">  5  6 -1 -1</clus>
<clus scale="   44.834">  2  5  1 -1</clus>
</clustering>
</event>
<event>
 9    1  0.1315259E-005  0.9791896E+02  0.7546771E-02  0.1286383E+00
          1   -1    0    0  502    0 -0.00000000000E+00  0.00000000000E+00  0.49235781131E+03  0.49235781131E+03  0.00000000000E+00 0. -1.
         21   -1    0    0  501  502  0.00000000000E+00 -0.00000000000E+00 -0.34587497506E+02  0.34587497506E+02  0.00000000000E+00 0.  1.
         23    2    1    2    0    0  0.15021355092E+02  0.11679073271E+02  0.22230411567E+03  0.23999782610E+03  0.88418294665E+02 0.  0.
         23    2    1    2    0    0 -0.57711602410E+02 -0.14395543086E+02  0.21116808262E+03  0.23775160034E+03  0.91629709343E+02 0.  0.
        -11    1    4    4    0    0 -0.25314497942E+02  0.35321581772E+02  0.51336991161E+02  0.67260126423E+02  0.00000000000E+00 0.  1.
         11    1    4    4    0    0 -0.32397104468E+02 -0.49717124858E+02  0.15983109146E+03  0.17049147392E+03  0.00000000000E+00 0. -1.
        -13    1    3    3    0    0  0.37469495972E+02  0.33058828491E+02  0.79743967100E+02  0.94106054845E+02  0.00000000000E+00 0.  1.
         13    1    3    3    0    0 -0.22448140880E+02 -0.21379755219E+02  0.14256014857E+03  0.14589177126E+03  0.00000000000E+00 0. -1.
          1    1    1    2  501    0  0.42690247318E+02  0.27164698142E+01  0.24298115516E+02  0.49195882368E+02  0.00000000000E+00 0. -1.
<scales pt_clust_5="13000.00000" pt_clust_6="13000.00000" pt_clust_7="13000.00000" pt_clust_8="13000.00000" pt_clust_9="42.77659"></scales>
<clustering>
<clus scale="   42.777">  2  9  1 -1</clus>
<clus scale="   88.418">  7  8 -1 -1</clus>
<clus scale="   91.630">  5  6 -1 -1</clus>
<clus scale="   94.921">  1  7  2 -1</clus>
<clus scale="   42.777">  2  5  1 -1</clus>
</clustering>
</event>
<event>
 9    1  0.1315259E-005  0.1067597E+03  0.7546771E-02  0.1269145E+00
         21   -1    0    0  501  502  0.00000000000E+00  0.00000000000E+00  0.22810843640E+03  0.22810843640E+03  0.00000000000E+00 0.  1.
         -2   -1    0    0    0  501 -0.00000000000E+00 -0.00000000000E+00 -0.92148037489E+02  0.92148037489E+02  0.00000000000E+00 0.  1.
         23    2    1    2    0    0  0.43511411500E+02 -0.36866975430E+01 -0.15101977809E+02  0.10220117116E+03  0.91160161158E+02 0.  0.
         23    2    1    2    0    0 -0.41403695002E+02  0.43100927289E+02  0.88352848875E+02  0.14395800955E+03  0.96673298874E+02 0.  0.
        -11    1    4    4    0    0  0.14535862882E+02  0.43896262491E+02  0.72181479883E+02  0.85722454518E+02  0.00000000000E+00 0.  1.
         11    1    4    4    0    0 -0.55939557884E+02 -0.79533520231E+00  0.16171368992E+02  0.58235555028E+02  0.00000000000E+00 0. -1.
        -13    1    3    3    0    0  0.65480633375E+02  0.19246839710E+02 -0.33321275865E+01  0.68331963680E+02  0.00000000000E+00 0.  1.
         13    1    3    3    0    0 -0.21969221876E+02 -0.22933537253E+02 -0.11769850223E+02  0.33869207476E+02  0.00000000000E+00 0. -1.
         -2    1    1    2    0  502 -0.21077164977E+01 -0.39414229746E+02  0.62709527850E+02  0.74097293192E+02  0.00000000000E+00 0.  1.
<scales pt_clust_5="13000.00000" pt_clust_6="13000.00000" pt_clust_7="13000.00000" pt_clust_8="13000.00000" pt_clust_9="39.47055"></scales>
<clustering>
<clus scale="   39.471">  1  9  2 -1</clus>
<clus scale="   91.160">  7  8 -1 -1</clus>
<clus scale="   96.673">  5  6 -1 -1</clus>
<clus scale="  101.794">  2  7  1 -1</clus>
<clus scale="   39.471">  1  5  2 -1</clus>
</clustering>
</event>
<event>
 9    1  0.1315259E-005  0.1028009E+03  0.7546771E-02  0.1275185E+00
          1   -1    0    0  502    0 -0.00000000000E+00  0.00000000000E+00  0.54603461772E+02  0.54603461772E+02  0.00000000000E+00 0. -1.
         21   -1    0    0  501  502  0.00000000000E+00 -0.00000000000E+00 -0.32803257423E+03  0.32803257423E+03  0.00000000000E+00 0.  1.
         23    2    1    2    0    0  0.30142685541E+01 -0.42697767221E+02 -0.28704961766E+02  0.10478764638E+03  0.91237551827E+02 0.  0.
         23    2    1    2    0    0 -0.91414340570E+01  0.62563014402E+02 -0.21704045904E+03  0.24322820785E+03  0.89753571765E+02 0.  0.
        -11    1    4    4    0    0  0.31312631187E+02  0.74095739199E+01 -0.12175247966E+03  0.12593271601E+03  0.00000000000E+00 0. -1.
         11    1    4    4    0    0 -0.40454065244E+02  0.55153440482E+02 -0.95287979383E+02  0.11729549184E+03  0.00000000000E+00 0.  1.
        -13    1    3    3    0    0  0.16413973103E+02  0.21269980758E+02 -0.28861711328E+02  0.39431319725E+02  0.00000000000E+00 0.  1.
         13    1    3    3    0    0 -0.13399704549E+02 -0.63967747979E+02  0.15674956206E+00  0.65356326656E+02  0.00000000000E+00 0. -1.
          1    1    1    2  501    0  0.61271655030E+01 -0.19865247180E+02 -0.27683691649E+02  0.34620181772E+02  0.00000000000E+00 0. -1.
<scales pt_clust_5="13000.00000" pt_clust_6="13000.00000" pt_clust_7="13000.00000" pt_clust_8="13000.00000" pt_clust_9="20.78870"></scales>
<clustering>
<clus scale="   20.789">  2  9  1 -1</clus>
<clus scale="   89.754">  5  6 -1 -1</clus>
<clus scale="   91.238">  7  8 -1 -1</clus>
<clus scale="  101.486">  2  5  1 -1</clus>
<clus scale="   20.789">  2  5  1 -1</clus>
</clustering>
</event>
<event>
 9    1  0.1498484E-005  0.1009988E+03  0.7546771E-02  0.1278861E+00
         -1   -1    0    0    0  501 -0.00000000000E+00  0.00000000000E+00  0.48801053091E+03  0.48801053091E+03  0.00000000000E+00 0.  1.
         21   -1    0    0  501  502  0.00000000000E+00 -0.00000000000E+00 -0.10984026494E+03  0.10984026494E+03  0.00000000000E+00 0.  1.
         23    2    1    2    0    0  0.23646381384E+02 -0.26604717129E+02  0.38167474290E+03  0.39423738358E+03  0.92089863300E+02 0.  0.
         23    2    1    2    0    0 -0.43821373203E+02  0.64531892575E+02  0.54466962935E+02  0.13145948811E+03  0.90720830321E+02 0.  0.
        -11    1    3    3    0    0  0.39529675665E+01  0.33927091576E+02  0.15994384284E+03  0.16355031751E+03  0.00000000000E+00 0. -1.
         11    1    3    3    0    0  0.19693413817E+02 -0.60531808705E+02  0.22173090006E+03  0.23068706607E+03  0.00000000000E+00 0.  1.
        -13    1    4    4    0    0  0.17888874247E+01 -0.21676656347E+02  0.14002613117E+02  0.25867947787E+02  0.00000000000E+00 0. -1.
         13    1    4    4    0    0 -0.45610260627E+02  0.86208548922E+02  0.40464349818E+02  0.10559154032E+03  0.00000000000E+00 0.  1.
         -1    1    1    2    0  502  0.20174991819E+02 -0.37927175446E+02 -0.57971439865E+02  0.72153924164E+02  0.00000000000E+00 0.  1.
<scales pt_clust_5="13000.00000" pt_clust_6="13000.00000" pt_clust_7="13000.00000" pt_clust_8="13000.00000" pt_clust_9="42.95929"></scales>
<clustering>
<clus scale="   42.959">  2  9  1 -1</clus>
<clus scale="   90.721">  7  8 -1 -1</clus>
<clus scale="   92.090">  5  6 -1 -1</clus>
<clus scale="   99.752">  2  7  1 -1</clus>
<clus scale="   42.959">  2  5  1 -1</clus>
</clustering>
</event>
<event>
 9    1  0.1315259E-005  0.1142328E+03  0.7546771E-02  0.1256603E+00
          1   -1    0    0  502    0 -0.00000000000E+00  0.00000000000E+00  0.36444295993E+03  0.36444295993E+03  0.00000000000E+00 0. -1.
         21   -1    0    0  501  502  0.00000000000E+00 -0.00000000000E+00 -0.22860731463E+03  0.22860731463E+03  0.00000000000E+00 0. -1.
         23    2    1    2    0    0 -0.72959906410E+02  0.70232460562E+02  0.23879432361E+03  0.27506816247E+03  0.91564286472E+02 0.  0.
         23    2    1    2    0    0  0.44777500427E+02  0.18564623278E+02  0.72552283395E+02  0.11927814186E+03  0.81325097712E+02 0.  0.
        -11    1    3    3    0    0 -0.83266801407E+02  0.24086882871E+02  0.17860656982E+03  0.19852920421E+03  0.00000000000E+00 0.  1.
         11    1    3    3    0    0  0.10306894997E+02  0.46145577691E+02  0.60187753794E+02  0.76538958261E+02  0.00000000000E+00 0. -1.
        -11    1    4    4    0    0 -0.96012094680E+01 -0.22682112623E+02  0.30130967048E+02  0.38917048084E+02  0.00000000000E+00 0.  1.
         11    1    4    4    0    0  0.54378709896E+02  0.41246735901E+02  0.42421316347E+02  0.80361093777E+02  0.00000000000E+00 0. -1.
          1    1    1    2  501    0  0.28182405982E+02 -0.88797083841E+02 -0.17551096171E+03  0.19870397023E+03  0.00000000000E+00 0. -1.
<scales pt_clust_5="13000.00000" pt_clust_6="13000.00000" pt_clust_7="13000.00000" pt_clust_8="13000.00000" pt_clust_9="93.16206"></scales>
<clustering>
<clus scale="   81.325">  7  8 -1 -1</clus>
<clus scale="   91.564">  5  6 -1 -1</clus>
<clus scale="   93.162">  2  9  1 -1</clus>
<clus scale="  106.202">  2  7  1 -1</clus>
<clus scale="   93.162">  2  5  1 -1</clus>
</clustering>
</event>
<event>
 9    1  0.1315259E-005  0.1775807E+03  0.7546771E-02  0.1170818E+00
         21   -1    0    0  501  502  0.00000000000E+00  0.00000000000E+00  0.48637004089E+03  0.48637004089E+03  0.00000000000E+00 0.  1.
          1   -1    0    0  502    0 -0.00000000000E+00 -0.00000000000E+00 -0.19256281380E+03  0.19256281380E+03  0.00000000000E+00 0. -1.
         23    2    1    2    0    0  0.50868574341E+02  0.14184214708E+03 -0.54379324741E+02  0.18645031286E+03  0.95392880553E+02 0.  0.
         23    2    1    2    0    0 -0.10050000344E+03 -0.11565073153E+03  0.38585737836E+03  0.42489289638E+03  0.90403067207E+02 0.  0.
        -11    1    4    4    0    0 -0.60217276425E+02 -0.10722100633E+02  0.94064404645E+02  0.11220158663E+03  0.00000000000E+00 0. -1.
         11    1    4    4    0    0 -0.40282727011E+02 -0.10492863090E+03  0.29179297372E+03  0.31269130974E+03  0.00000000000E+00 0.  1.
        -13    1    3    3    0    0  0.62066570921E+02  0.35714774672E+02 -0.23167381129E+02  0.75263084604E+02  0.00000000000E+00 0. -1.
         13    1    3    3    0    0 -0.11197996580E+02  0.10612737241E+03 -0.31211943613E+02  0.11118722825E+03  0.00000000000E+00 0.  1.
          1    1    1    2  501    0  0.49631429095E+02 -0.26191415551E+02 -0.37670826533E+02  0.67589645466E+02  0.00000000000E+00 0. -1.
<scales pt_clust_5="13000.00000" pt_clust_6="13000.00000" pt_clust_7="13000.00000" pt_clust_8="13000.00000" pt_clust_9="56.11838"></scales>
<clustering>
<clus scale="   56.118">  1  9  2 -1</clus>
<clus scale="   90.403">  5  6 -1 -1</clus>
<clus scale="   95.393">  7  8 -1 -1</clus>
<clus scale="  174.951">  1  5  2 -1</clus>
<clus scale="   56.118">  1  5  2 -1</clus>
</clustering>
</event>
<event>
 9    1  0.1315259E-005  0.9250825E+02  0.7546771E-02  0.1297897E+00
         21   -1    0    0  501  502  0.00000000000E+00  0.00000000000E+00  0.13512241618E+03  0.13512241618E+03  0.00000000000E+00 0.  1.
         -2   -1    0    0    0  501 -0.00000000000E+00 -0.00000000000E+00 -0.22488211279E+03  0.22488211279E+03  0.00000000000E+00 0.  1.
         23    2    1    2    0    0 -0.25511233543E+01  0.88145263115E+01 -0.16934938111E+03  0.19298329751E+03  0.92082224843E+02 0.  0.
         23    2    1    2    0    0 -0.21216205421E+02 -0.80494418556E+01  0.10267808051E+02  0.93734166936E+02  0.90364513402E+02 0.  0.
        -11    1    4    4    0    0 -0.36315408642E+02 -0.21300975668E+02 -0.27966218755E+02  0.50543544204E+02  0.00000000000E+00 0.  1.
         11    1    4    4    0    0  0.15099203221E+02  0.13251533813E+02  0.38234026805E+02  0.43190622733E+02  0.00000000000E+00 0. -1.
        -13    1    3    3    0    0  0.12505719689E+02 -0.29175635848E+02 -0.18594941337E+02  0.36788348636E+02  0.00000000000E+00 0.  1.
         13    1    3    3    0    0 -0.15056843043E+02  0.37990162159E+02 -0.15075443977E+03  0.15619494887E+03  0.00000000000E+00 0. -1.
         -2    1    1    2    0  502  0.23767328775E+02 -0.76508445597E+00  0.69321876451E+02  0.73287064521E+02  0.00000000000E+00 0.  1.
<scales pt_clust_5="13000.00000" pt_clust_6="13000.00000" pt_clust_7="13000.00000" pt_clust_8="13000.00000" pt_clust_9="23.77964"></scales>
<clustering>
<clus scale="   23.780">  1  9  2 -1</clus>
<clus scale="   90.365">  5  6 -1 -1</clus>
<clus scale="   90.799">  1  5  2 -1</clus>
<clus scale="   92.082">  7  8 -1 -1</clus>
<clus scale="   23.780">  1  5  2 -1</clus>
</clustering>
</event>
<event>
 9    1  0.1315259E-005  0.1491749E+03  0.7546771E-02  0.1208429E+00
         21   -1    0    0  501  502  0.00000000000E+00  0.00000000000E+00  0.34195983652E+03  0.34195983652E+03  0.00000000000E+00 0.  1.
         -3   -1    0    0    0  501 -0.00000000000E+00 -0.00000000000E+00 -0.28918563594E+03  0.28918563594E+03  0.00000000000E+00 0.  1.
         23    2    1    2    0    0  0.87845402666E+02  0.39338774220E+02 -0.24758224195E+03  0.29098912782E+03  0.11879962987E+03 0.  0.
         23    2    1    2    0    0 -0.42177525183E+02 -0.10460646875E+02  0.15561362436E+03  0.18565720326E+03  0.91458341735E+02 0.  0.
        -11    1    3    3    0    0  0.51063012716E+02 -0.36559554194E+02 -0.14615422189E+03  0.15907573306E+03  0.00000000000E+00 0.  1.
         11    1    3    3    0    0  0.36782389951E+02  0.75898328413E+02 -0.10142802006E+03  0.13191339477E+03  0.00000000000E+00 0. -1.
        -11    1    4    4    0    0 -0.43708519003E+02 -0.38820092545E+02  0.14317951060E+03  0.15465382787E+03  0.00000000000E+00 0. -1.
         11    1    4    4    0    0  0.15309938195E+01  0.28359445670E+02  0.12434113758E+02  0.31003375392E+02  0.00000000000E+00 0.  1.
         -3    1    1    2    0  502 -0.45667877483E+02 -0.28878127345E+02  0.14474281817E+03  0.15449914137E+03  0.00000000000E+00 0.  1.
<scales pt_clust_5="13000.00000" pt_clust_6="13000.00000" pt_clust_7="13000.00000" pt_clust_8="13000.00000" pt_clust_9="54.03241"></scales>
<clustering>
<clus scale="   54.032">  1  9  2 -1</clus>
<clus scale="   91.458">  7  8 -1 -1</clus>
<clus scale="  118.800">  5  6 -1 -1</clus>
<clus scale="  128.470">  1  7  2 -1</clus>
<clus scale="   54.032">  1  5  2 -1</clus>
</clustering>
</event>
<event>
 9    1  0.1315259E-005  0.1054152E+03  0.7546771E-02  0.1269592E+00
          2   -1    0    0  502    0 -0.00000000000E+00  0.00000000000E+00  0.93417966930E+03  0.93417966930E+03  0.00000000000E+00 0. -1.
         21   -1    0    0  501  502  0.00000000000E+00 -0.00000000000E+00 -0.31595319322E+02  0.31595319322E+02  0.00000000000E+00 0. -1.
         23    2    1    2    0    0 -0.49476696226E+02  0.11453956577E+02  0.49393861706E+03  0.50471602700E+03  0.90464213347E+02 0.  0.
         23    2    1    2    0    0  0.57276630328E+02  0.95240009798E+01  0.42157929782E+03  0.43520957525E+03  0.91142476711E+02 0.  0.
        -11    1    3    3    0    0  0.15041658569E+02  0.32504844623E+02  0.16240425505E+03  0.16630682029E+03  0.00000000000E+00 0. -1.
         11    1    3    3    0    0 -0.64518354794E+02 -0.21050888046E+02  0.33153436201E+03  0.33840920671E+03  0.00000000000E+00 0.  1.
        -11    1    4    4    0    0  0.85629150027E+00 -0.34449386086E+02  0.17971207962E+03  0.18298613335E+03  0.00000000000E+00 0.  1.
         11    1    4    4    0    0  0.56420338828E+02  0.43973387066E+02  0.24186721820E+03  0.25222344190E+03  0.00000000000E+00 0. -1.
          2    1    1    2  501    0 -0.77999341026E+01 -0.20977957557E+02 -0.12933564896E+02  0.25849386379E+02  0.00000000000E+00 0. -1.
<scales pt_clust_5="13000.00000" pt_clust_6="13000.00000" pt_clust_7="13000.00000" pt_clust_8="13000.00000" pt_clust_9="22.38110"></scales>
<clustering>
<clus scale="   22.381">  2  9  1 -1</clus>
<clus scale="   90.464">  5  6 -1 -1</clus>
<clus scale="   91.142">  7  8 -1 -1</clus>
<clus scale="  104.829">  1  5  2 -1</clus>
<clus scale="   22.381">  2  5  1 -1</clus>
</clustering>
</event>
<event>
 9    1  0.1315259E-005  0.9506708E+02  0.7546771E-02  0.1291125E+00
          4   -1    0    0  502    0 -0.00000000000E+00  0.00000000000E+00  0.16996632873E+03  0.16996632873E+03  0.00000000000E+00 0. -1.
         21   -1    0    0  501  502  0.00000000000E+00 -0.00000000000E+00 -0.34925282923E+03  0.34925282923E+03  0.00000000000E+00 0. -1.
         23    2    1    2    0    0  0.17186075633E+02 -0.15899324026E+02  0.95842316056E+02  0.13484004649E+03  0.91912669914E+02 0.  0.
         23    2    1    2    0    0  0.82024043887E+01  0.45048044176E+02 -0.31348354145E+03  0.32992447231E+03  0.92095716230E+02 0.  0.
        -11    1    4    4    0    0  0.25502794209E+02  0.62655653634E+02 -0.28154962776E+03  0.28956228404E+03  0.00000000000E+00 0. -1.
         11    1    4    4    0    0 -0.17300389820E+02 -0.17607609458E+02 -0.31933913689E+02  0.40362188274E+02  0.00000000000E+00 0.  1.
        -13    1    3    3    0    0  0.32460722672E+02 -0.38531166270E+02  0.94988173620E+02  0.10752256702E+03  0.00000000000E+00 0. -1.
         13    1    3    3    0    0 -0.15274647038E+02  0.22631842244E+02  0.85414243595E+00  0.27317479474E+02  0.00000000000E+00 0.  1.
          4    1    1    2  501    0 -0.25388480022E+02 -0.29148720151E+02  0.38354724887E+02  0.54454639154E+02  0.00000000000E+00 0. -1.
<scales pt_clust_5="13000.00000" pt_clust_6="13000.00000" pt_clust_7="13000.00000" pt_clust_8="13000.00000" pt_clust_9="38.65520"></scales>
<clustering>
<clus scale="   38.655">  2  9  1 -1</clus>
<clus scale="   91.913">  7  8 -1 -1</clus>
<clus scale="   92.096">  5  6 -1 -1</clus>
<clus scale="   94.890">  1  7  2 -1</clus>
<clus scale="   38.655">  2  5  1 -1</clus>
</clustering>
</event>
<event>
 9    1  0.1315259E-005  0.1065546E+03  0.7546771E-02  0.1270157E+00
         21   -1    0    0  501  502  0.00000000000E+00  0.00000000000E+00  0.85940301456E+02  0.85940301456E+02  0.00000000000E+00 0. -1.
          2   -1    0    0  502    0 -0.00000000000E+00 -0.00000000000E+00 -0.30611651076E+03  0.30611651076E+03  0.00000000000E+00 0. -1.
         23    2    1    2    0    0  0.58664252664E+02 -0.23997455281E+02 -0.21271790685E+03  0.23741066804E+03  0.84246928743E+02 0.  0.
         23    2    1    2    0    0 -0.34995512399E+02 -0.16404979438E+02 -0.28469012071E+02  0.10332347943E+03  0.91495614735E+02 0.  0.
        -11    1    3    3    0    0  0.66957126998E+02  0.96080465878E+01 -0.11123923572E+03  0.13019116321E+03  0.00000000000E+00 0.  1.
         11    1    3    3    0    0 -0.82928743338E+01 -0.33605501869E+02 -0.10147867113E+03  0.10721950483E+03  0.00000000000E+00 0. -1.
        -11    1    4    4    0    0  0.17755914203E+02 -0.26759874304E+02 -0.36889233327E+02  0.48909905923E+02  0.00000000000E+00 0.  1.
         11    1    4    4    0    0 -0.52751426603E+02  0.10354894865E+02  0.84202212563E+01  0.54413573511E+02  0.00000000000E+00 0. -1.
          2    1    1    2  501    0 -0.23668740265E+02  0.40402434720E+02  0.21010709623E+02  0.51322664739E+02  0.00000000000E+00 0. -1.
<scales pt_clust_5="13000.00000" pt_clust_6="13000.00000" pt_clust_7="13000.00000" pt_clust_8="13000.00000" pt_clust_9="46.82484"></scales>
<clustering>
<clus scale="   46.825">  1  9  2 -1</clus>
<clus scale="   84.247">  5  6 -1 -1</clus>
<clus scale="   91.496">  7  8 -1 -1</clus>
<clus scale="  100.399">  2  5  1 -1</clus>
<clus scale="   46.825">  1  5  2 -1</clus>
</clustering>
</event>
<event>
 9    1  0.1315259E-005  0.2966864E+03  0.7546771E-02  0.1086928E+00
          2   -1    0    0  502    0 -0.00000000000E+00  0.00000000000E+00  0.12207431944E+04  0.12207431944E+04  0.00000000000E+00 0. -1.
         21   -1    0    0  501  502  0.00000000000E+00 -0.00000000000E+00 -0.21817576602E+03  0.21817576602E+03  0.00000000000E+00 0. -1.
         23    2    1    2    0    0  0.17334471475E+03 -0.20402892567E+03  0.66974266382E+03  0.72707343329E+03  0.91675236638E+02 0.  0.
         23    2    1    2    0    0 -0.18953988394E+03  0.24178433902E+03  0.46988317172E+03  0.56876246841E+03  0.91189452333E+02 0.  0.
        -11    1    3    3    0    0  0.84570725104E+02 -0.43845675963E+02  0.17060581263E+03  0.19539957561E+03  0.00000000000E+00 0. -1.
         11    1    3    3    0    0  0.88773989645E+02 -0.16018324970E+03  0.49913685119E+03  0.53167385768E+03  0.00000000000E+00 0.  1.
        -13    1    4    4    0    0 -0.58738633470E+02  0.83689846196E+02  0.86518008873E+02  0.13393872957E+03  0.00000000000E+00 0. -1.
         13    1    4    4    0    0 -0.13080125047E+03  0.15809449282E+03  0.38336516285E+03  0.43482373885E+03  0.00000000000E+00 0.  1.
          2    1    1    2  501    0  0.16195169188E+02 -0.37755413350E+02 -0.13705840711E+03  0.14308305876E+03  0.00000000000E+00 0. -1.
<scales pt_clust_5="13000.00000" pt_clust_6="13000.00000" pt_clust_7="13000.00000" pt_clust_8="13000.00000" pt_clust_9="41.08229"></scales>
<clustering>
<clus scale="   41.082">  2  9  1 -1</clus>
<clus scale="   91.189">  7  8 -1 -1</clus>
<clus scale="   91.675">  5  6 -1 -1</clus>
<clus scale="  296.537">  2  7  1 -1</clus>
<clus scale="   41.082">  2  5  1 -1</clus>
</clustering>
</event>
<event>
 9    1  0.1315259E-005  0.1188950E+03  0.7546771E-02  0.1263413E+00
          1   -1    0    0  502    0 -0.00000000000E+00  0.00000000000E+00  0.41451380004E+03  0.41451380004E+03  0.00000000000E+00 0. -1.
         21   -1    0    0  501  502  0.00000000000E+00 -0.00000000000E+00 -0.75630885454E+02  0.75630885454E+02  0.00000000000E+00 0.  1.
         23    2    1    2    0    0 -0.41394183587E+01  0.52518473831E+02  0.23422040411E+03  0.24828952156E+03  0.63349537775E+02 0.  0.
         23    2    1    2    0    0  0.69816082691E+02  0.23634230503E+01  0.16204299253E+02  0.11876860100E+03  0.94675921429E+02 0.  0.
        -11    1    3    3    0    0  0.21002196957E+02  0.15025741397E+02  0.15477562356E+03  0.15691513257E+03  0.00000000000E+00 0. -1.
         11    1    3    3    0    0 -0.25141615315E+02  0.37492732434E+02  0.79444780549E+02  0.91374388985E+02  0.00000000000E+00 0.  1.
        -13    1    4    4    0    0  0.21441891330E+02 -0.17134878251E+02 -0.35803416246E+02  0.45113671668E+02  0.00000000000E+00 0.  1.
         13    1    4    4    0    0  0.48374191361E+02  0.19498301301E+02  0.52007715499E+02  0.73654929332E+02  0.00000000000E+00 0. -1.
          1    1    1    2  501    0 -0.65676664332E+02 -0.54881896881E+02  0.88458211225E+02  0.12308656294E+03  0.00000000000E+00 0. -1.
<scales pt_clust_5="13000.00000" pt_clust_6="13000.00000" pt_clust_7="13000.00000" pt_clust_8="13000.00000" pt_clust_9="71.92014"></scales>
<clustering>
<clus scale="   63.350">  5  6 -1 -1</clus>
<clus scale="   82.392">  1  5  2 -1</clus>
<clus scale="   71.920">  2  9  1 -1</clus>
<clus scale="   94.676">  7  8 -1 -1</clus>
<clus scale="   71.920">  2  5  1 -1</clus>
</clustering>
</event>
<event>
 9    1  0.1329446E-005  0.2523050E+03  0.7546771E-02  0.1146580E+00
          2   -1    0    0  502    0 -0.00000000000E+00  0.00000000000E+00  0.18463943935E+04  0.18463943935E+04  0.00000000000E+00 0. -1.
         21   -1    0    0  501  502  0.00000000000E+00 -0.00000000000E+00 -0.71864158931E+02  0.71864158931E+02  0.00000000000E+00 0. -1.
         23    2    1    2    0    0  0.37613128347E+02  0.43217384161E+02  0.31332769851E+03  0.33121925664E+03  0.90826535751E+02 0.  0.
         23    2    1    2    0    0 -0.13174050160E+03 -0.24862651407E+03  0.12255020167E+04  0.12605310909E+04  0.88953554575E+02 0.  0.
        -11    1    4    4    0    0 -0.29983224230E+02 -0.81451120834E+01  0.84512508018E+02  0.90042770935E+02  0.00000000000E+00 0.  1.
         11    1    4    4    0    0 -0.10175727737E+03 -0.24048140199E+03  0.11409895087E+04  0.11704883200E+04  0.00000000000E+00 0. -1.
        -11    1    3    3    0    0  0.42660919827E+02 -0.17246017557E+02  0.11674017166E+03  0.12548165955E+03  0.00000000000E+00 0. -1.
         11    1    3    3    0    0 -0.50477914807E+01  0.60463401718E+02  0.19658752685E+03  0.20573759709E+03  0.00000000000E+00 0.  1.
          2    1    1    2  501    0  0.94127373258E+02  0.20540912991E+03  0.23570051932E+03  0.32650820488E+03  0.00000000000E+00 0. -1.
<scales pt_clust_5="13000.00000" pt_clust_6="13000.00000" pt_clust_7="13000.00000" pt_clust_8="13000.00000" pt_clust_9="236.10398"></scales>
<clustering>
<clus scale="   88.954">  5  6 -1 -1</clus>
<clus scale="   90.827">  7  8 -1 -1</clus>
<clus scale="  107.387">  1  7  2 -1</clus>
<clus scale="  236.104">  2  9  1 -1</clus>
<clus scale="  236.104">  2  5  1 -1</clus>
</clustering>
</event>
<event>
 9    1  0.1315259E-005  0.1370288E+03  0.7546771E-02  0.1218658E+00
         -2   -1    0    0    0  501 -0.00000000000E+00  0.00000000000E+00  0.41570018696E+03  0.41570018696E+03  0.00000000000E+00 0.  1.
         21   -1    0    0  501  502  0.00000000000E+00 -0.00000000000E+00 -0.62015095663E+02  0.62015095663E+02  0.00000000000E+00 0. -1.
         23    2    1    2    0    0  0.21426983805E+02 -0.93237380364E+02  0.17416151926E+03  0.21843715609E+03  0.90720624107E+02 0.  0.
         23    2    1    2    0    0  0.15158395638E+02  0.11546234252E+03  0.13739769002E+03  0.19921958120E+03  0.85140981964E+02 0.  0.
        -11    1    4    4    0    0  0.48191879551E+02  0.84588609910E+02  0.79065413713E+02  0.12541542898E+03  0.00000000000E+00 0.  1.
         11    1    4    4    0    0 -0.33033483913E+02  0.30873732614E+02  0.58332276309E+02  0.73804152216E+02  0.00000000000E+00 0. -1.
        -13    1    3    3    0    0  0.54078133041E+02 -0.79707588978E+02  0.13233880755E+03  0.16368049425E+03  0.00000000000E+00 0.  1.
         13    1    3    3    0    0 -0.32651149236E+02 -0.13529791386E+02  0.41822711708E+02  0.54756661841E+02  0.00000000000E+00 0. -1.
         -2    1    1    2    0  502 -0.36585379443E+02 -0.22224962160E+02  0.42125882018E+02  0.60058545335E+02  0.00000000000E+00 0.  1.
<scales pt_clust_5="13000.00000" pt_clust_6="13000.00000" pt_clust_7="13000.00000" pt_clust_8="13000.00000" pt_clust_9="42.80700"></scales>
<clustering>
<clus scale="   42.807">  2  9  1 -1</clus>
<clus scale="   85.141">  5  6 -1 -1</clus>
<clus scale="   90.721">  7  8 -1 -1</clus>
<clus scale="  133.400">  2  5  1 -1</clus>
<clus scale="   42.807">  2  5  1 -1</clus>
</clustering>
</event>
<event>
 9    1  0.1315259E-005  0.2695406E+03  0.7546771E-02  0.1101768E+00
         21   -1    0    0  501  502  0.00000000000E+00  0.00000000000E+00  0.15066588830E+03  0.15066588830E+03  0.00000000000E+00 0.  1.
         -3   -1    0    0    0  501 -0.00000000000E+00 -0.00000000000E+00 -0.87484231441E+03  0.87484231441E+03  0.00000000000E+00 0.  1.
         23    2    1    2    0    0 -0.21289430473E+03 -0.37594938231E+02 -0.29908346303E+03  0.38079836988E+03  0.93910150035E+02 0.  0.
         23    2    1    2    0    0  0.32277152162E+03  0.91418611158E+02 -0.23706121003E+03  0.42037541568E+03  0.89323318218E+02 0.  0.
        -11    1    4    4    0    0  0.30863195534E+03  0.69949166268E+02 -0.23577762297E+03  0.39463610734E+03  0.00000000000E+00 0.  1.
         11    1    4    4    0    0  0.14139566275E+02  0.21469444890E+02 -0.12835870543E+01  0.25739308344E+02  0.00000000000E+00 0. -1.
        -11    1    3    3    0    0 -0.11011422927E+03 -0.19045332539E+02 -0.22961513069E+03  0.25536439928E+03  0.00000000000E+00 0.  1.
         11    1    3    3    0    0 -0.10278007545E+03 -0.18549605692E+02 -0.69468332339E+02  0.12543397059E+03  0.00000000000E+00 0. -1.
         -3    1    1    2    0  502 -0.10987721689E+03 -0.53823672927E+02 -0.18803175306E+03  0.22433441715E+03  0.00000000000E+00 0.  1.
<scales pt_clust_5="13000.00000" pt_clust_6="13000.00000" pt_clust_7="13000.00000" pt_clust_8="13000.00000" pt_clust_9="122.35197"></scales>
<clustering>
<clus scale="   89.323">  5  6 -1 -1</clus>
<clus scale="   93.910">  7  8 -1 -1</clus>
<clus scale="  122.352">  1  9  2 -1</clus>
<clus scale="  267.977">  1  5  2 -1</clus>
<clus scale="  122.352">  1  5  2 -1</clus>
</clustering>
</event>
<event>
 9    1  0.1315259E-005  0.9437289E+02  0.7546771E-02  0.1296090E+00
          2   -1    0    0  502    0 -0.00000000000E+00  0.00000000000E+00  0.35876941691E+03  0.35876941691E+03  0.00000000000E+00 0. -1.
         21   -1    0    0  501  502  0.00000000000E+00 -0.00000000000E+00 -0.59521005776E+02  0.59521005776E+02  0.00000000000E+00 0. -1.
         23    2    1    2    0    0 -0.56489959971E+02 -0.16172871896E+02  0.18811636292E+03  0.21601741745E+03  0.88448184164E+02 0.  0.
         23    2    1    2    0    0 -0.27992416692E+01 -0.34394361360E+02  0.74826135035E+02  0.11630572168E+03  0.82080829454E+02 0.  0.
        -11    1    3    3    0    0  0.95882710220E+01  0.17654695112E+02  0.94133004501E+02  0.96253029755E+02  0.00000000000E+00 0.  1.
         11    1    3    3    0    0 -0.66078230993E+02 -0.33827567008E+02  0.93983358418E+02  0.11976438770E+03  0.00000000000E+00 0. -1.
        -13    1    4    4    0    0  0.53193815547E+01 -0.55121292989E+02  0.23117030603E+02  0.60008748235E+02  0.00000000000E+00 0. -1.
         13    1    4    4    0    0 -0.81186232239E+01  0.20726931629E+02  0.51709104433E+02  0.56296973445E+02  0.00000000000E+00 0.  1.
          2    1    1    2  501    0  0.59289201640E+02  0.50567233256E+02  0.36305913184E+02  0.85967283558E+02  0.00000000000E+00 0. -1.
<scales pt_clust_5="13000.00000" pt_clust_6="13000.00000" pt_clust_7="13000.00000" pt_clust_8="13000.00000" pt_clust_9="77.92467"></scales>
<clustering>
<clus scale="   77.925">  2  9  1 -1</clus>
<clus scale="   82.081">  7  8 -1 -1</clus>
<clus scale="   88.433">  2  7  1 -1</clus>
<clus scale="   88.448">  5  6 -1 -1</clus>
<clus scale="   77.925">  2  5  1 -1</clus>
</clustering>
</event>
<event>
 9    1  0.1315259E-005  0.1275265E+03  0.7546771E-02  0.1231649E+00
         21   -1    0    0  501  502  0.00000000000E+00  0.00000000000E+00  0.40128083825E+03  0.40128083825E+03  0.00000000000E+00 0.  1.
          1   -1    0    0  502    0 -0.00000000000E+00 -0.00000000000E+00 -0.41067143849E+03  0.41067143849E+03  0.00000000000E+00 0. -1.
         23    2    1    2    0    0  0.51402921509E+02 -0.69250418444E+02 -0.36363449813E+03  0.38501809475E+03  0.92579718442E+02 0.  0.
         23    2    1    2    0    0 -0.22891531529E+02  0.13624218865E+03  0.23920448439E+03  0.29079137721E+03  0.90856389572E+02 0.  0.
        -11    1    4    4    0    0  0.22688352233E+02  0.27327536150E+02  0.11081122054E+03  0.11636443683E+03  0.00000000000E+00 0.  1.
         11    1    4    4    0    0 -0.45579883762E+02  0.10891465250E+03  0.12839326385E+03  0.17442694039E+03  0.00000000000E+00 0. -1.
        -13    1    3    3    0    0  0.42254029528E+02 -0.50344527058E+02 -0.35698823294E+03  0.36298839220E+03  0.00000000000E+00 0. -1.
         13    1    3    3    0    0  0.91488919817E+01 -0.18905891386E+02 -0.66462651849E+01  0.22029702551E+02  0.00000000000E+00 0.  1.
          1    1    1    2  501    0 -0.28511389980E+02 -0.66991770203E+02  0.11503941349E+03  0.13614280477E+03  0.00000000000E+00 0. -1.
<scales pt_clust_5="13000.00000" pt_clust_6="13000.00000" pt_clust_7="13000.00000" pt_clust_8="13000.00000" pt_clust_9="72.80657"></scales>
<clustering>
<clus scale="   72.807">  1  9  2 -1</clus>
<clus scale="   90.856">  5  6 -1 -1</clus>
<clus scale="   92.580">  7  8 -1 -1</clus>
<clus scale="  126.281">  1  5  2 -1</clus>
<clus scale="   72.807">  1  5  2 -1</clus>
</clustering>
</event>
<event>
 9    1  0.1315259E-005  0.1039303E+03  0.7546771E-02  0.1272360E+00
         -3   -1    0    0    0  501 -0.00000000000E+00  0.00000000000E+00  0.79647584247E+02  0.79647584247E+02  0.00000000000E+00 0.  1.
         21   -1    0    0  501  502  0.00000000000E+00 -0.00000000000E+00 -0.19228162276E+03  0.19228162276E+03  0.00000000000E+00 0.  1.
         23    2    1    2    0    0 -0.44085518113E+02 -0.10065653638E+02 -0.36380671528E+02  0.10740183295E+03  0.90370073423E+02 0.  0.
         23    2    1    2    0    0  0.44046049859E+02  0.45253417978E+02 -0.60779365959E+02  0.12608748560E+03  0.90642133417E+02 0.  0.
        -11    1    4    4    0    0  0.29774212626E+02  0.71655954992E+02 -0.56008667198E+02  0.95697703341E+02  0.00000000000E+00 0.  1.
         11    1    4    4    0    0  0.14271837233E+02 -0.26402537014E+02 -0.47706987609E+01  0.30389782254E+02  0.00000000000E+00 0. -1.
        -11    1    3    3    0    0 -0.66275197270E+02 -0.27431057471E+02 -0.18657870633E+02  0.74114646486E+02  0.00000000000E+00 0.  1.
         11    1    3    3    0    0  0.22189679157E+02  0.17365403833E+02 -0.17722800895E+02  0.33287186468E+02  0.00000000000E+00 0. -1.
         -3    1    1    2    0  502  0.39468254714E-01 -0.35187764341E+02 -0.15474001027E+02  0.38439888460E+02  0.00000000000E+00 0.  1.
<scales pt_clust_5="13000.00000" pt_clust_6="13000.00000" pt_clust_7="13000.00000" pt_clust_8="13000.00000" pt_clust_9="35.18780"></scales>
<clustering>
<clus scale="   35.188">  2  9  1 -1</clus>
<clus scale="   90.370">  7  8 -1 -1</clus>
<clus scale="   90.642">  5  6 -1 -1</clus>
<clus scale="  103.693">  1  7  2 -1</clus>
<clus scale="   35.188">  2  5  1 -1</clus>
</clustering>
</event>
<event>
 9    1  0.1315259E-005  0.1205956E+03  0.7546771E-02  0.1242886E+00
          3   -1    0    0  502    0 -0.00000000000E+00  0.00000000000E+00  0.22165375399E+03  0.22165375399E+03  0.00000000000E+00 0. -1.
         21   -1    0    0  501  502  0.00000000000E+00 -0.00000000000E+00 -0.93248282299E+02  0.93248282299E+02  0.00000000000E+00 0. -1.
         23    2    1    2    0    0  0.54969712052E+02  0.63617818313E+02  0.13137336105E+03  0.18145096278E+03  0.92717829192E+02 0.  0.
         23    2    1    2    0    0 -0.40817640902E+02 -0.47592281311E+02  0.64045904145E+01  0.11010707362E+03  0.90285346722E+02 0.  0.
        -13    1    4    4    0    0 -0.51681538593E+02  0.45025880676E+01 -0.12970350628E+02  0.53474150073E+02  0.00000000000E+00 0. -1.
         13    1    4    4    0    0  0.10863897691E+02 -0.52094869378E+02  0.19374941043E+02  0.56632923543E+02  0.00000000000E+00 0.  1.
        -13    1    3    3    0    0  0.39667325851E+02 -0.13439013019E+02  0.70754672794E+02  0.82221210970E+02  0.00000000000E+00 0.  1.
         13    1    3    3    0    0  0.15302386201E+02  0.77056831332E+02  0.60618688258E+02  0.99229751811E+02  0.00000000000E+00 0. -1.
          3    1    1    2  501    0 -0.14152071150E+02 -0.16025537002E+02 -0.93724797720E+01  0.23343999896E+02  0.00000000000E+00 0. -1.
<scales pt_clust_5="13000.00000" pt_clust_6="13000.00000" pt_clust_7="13000.00000" pt_clust_8="13000.00000" pt_clust_9="21.37987"></scales>
<clustering>
<clus scale="   21.380">  2  9  1 -1</clus>
<clus scale="   90.285">  5  6 -1 -1</clus>
<clus scale="   92.718">  7  8 -1 -1</clus>
<clus scale="  118.736">  2  5  1 -1</clus>
<clus scale="   21.380">  2  5  1 -1</clus>
</clustering>
</event>
<event>
 9    1  0.1315259E-005  0.9593311E+02  0.7546771E-02  0.1291561E+00
         21   -1    0    0  501  502  0.00000000000E+00  0.00000000000E+00  0.13247141171E+03  0.13247141171E+03  0.00000000000E+00 0.  1.
          1   -1    0    0  502    0 -0.00000000000E+00 -0.00000000000E+00 -0.15642659948E+03  0.15642659948E+03  0.00000000000E+00 0. -1.
         23    2    1    2    0    0 -0.36952243685E+02 -0.79375022500E+01 -0.76540755624E+02  0.12287958652E+03  0.88387970087E+02 0.  0.
         23    2    1    2    0    0 -0.50268195524E+01 -0.23880498161E+02  0.68767138835E+01  0.96276570434E+02  0.92878101367E+02 0.  0.
        -11    1    4    4    0    0  0.18095020986E+02  0.25271756402E+02  0.24058054767E+02  0.39304980032E+02  0.00000000000E+00 0.  1.
         11    1    4    4    0    0 -0.23121840538E+02 -0.49152254562E+02 -0.17181340884E+02  0.56971590403E+02  0.00000000000E+00 0. -1.
        -13    1    3    3    0    0 -0.50247443029E+02  0.22880856764E+02 -0.23266424351E+02  0.59913818434E+02  0.00000000000E+00 0.  1.
         13    1    3    3    0    0  0.13295199344E+02 -0.30818359014E+02 -0.53274331273E+02  0.62965768085E+02  0.00000000000E+00 0. -1.
          1    1    1    2  501    0  0.41979063237E+02  0.31818000411E+02  0.45708853970E+02  0.69741854231E+02  0.00000000000E+00 0. -1.
<scales pt_clust_5="13000.00000" pt_clust_6="13000.00000" pt_clust_7="13000.00000" pt_clust_8="13000.00000" pt_clust_9="52.67473"></scales>
<clustering>
<clus scale="   52.675">  1  9  2 -1</clus>
<clus scale="   88.388">  7  8 -1 -1</clus>
<clus scale="   91.593">  2  7  1 -1</clus>
<clus scale="   92.878">  5  6 -1 -1</clus>
<clus scale="   52.675">  1  5  2 -1</clus>
</clustering>
</event>
<event>
 9    1  0.1315259E-005  0.2205933E+03  0.7546771E-02  0.1133708E+00
         21   -1    0    0  501  502  0.00000000000E+00  0.00000000000E+00  0.17410971795E+03  0.17410971795E+03  0.00000000000E+00 0. -1.
          1   -1    0    0  502    0 -0.00000000000E+00 -0.00000000000E+00 -0.45027195778E+03  0.45027195778E+03  0.00000000000E+00 0. -1.
         23    2    1    2    0    0  0.34080328109E+01 -0.21862073496E+03 -0.26105268014E+03  0.35212785105E+03  0.89659808395E+02 0.  0.
         23    2    1    2    0    0 -0.11175132017E+02  0.15785380821E+03  0.45786619989E+02  0.18587505462E+03  0.86083755818E+02 0.  0.
        -11    1    3    3    0    0 -0.54032959714E+01 -0.39664036744E+02 -0.60697495963E+01  0.40487939912E+02  0.00000000000E+00 0. -1.
         11    1    3    3    0    0  0.88113287823E+01 -0.17895669821E+03 -0.25498293054E+03  0.31163991114E+03  0.00000000000E+00 0.  1.
        -13    1    4    4    0    0 -0.29822894988E+02  0.10486195251E+03 -0.63868823785E+01  0.10920726357E+03  0.00000000000E+00 0.  1.
         13    1    4    4    0    0  0.18647762971E+02  0.52991855700E+02  0.52173502368E+02  0.76667791044E+02  0.00000000000E+00 0. -1.
          1    1    1    2  501    0  0.77670992058E+01  0.60766926742E+02 -0.60896179686E+02  0.86378770054E+02  0.00000000000E+00 0. -1.
<scales pt_clust_5="13000.00000" pt_clust_6="13000.00000" pt_clust_7="13000.00000" pt_clust_8="13000.00000" pt_clust_9="61.26133"></scales>
<clustering>
<clus scale="   61.261">  1  9  2 -1</clus>
<clus scale="   86.084">  7  8 -1 -1</clus>
<clus scale="   89.660">  5  6 -1 -1</clus>
<clus scale="  219.164">  1  7  2 -1</clus>
<clus scale="   61.261">  1  5  2 -1</clus>
</clustering>
</event>
<event>
 9    1  0.1315259E-005  0.1177035E+03  0.7546771E-02  0.1247538E+00
         -1   -1    0    0    0  501 -0.00000000000E+00  0.00000000000E+00  0.40894148740E+03  0.40894148740E+03  0.00000000000E+00 0.  1.
         21   -1    0    0  501  502  0.00000000000E+00 -0.00000000000E+00 -0.77273133271E+02  0.77273133271E+02  0.00000000000E+00 0.  1.
         23    2    1    2    0    0 -0.69243396284E+02 -0.72821769823E+01  0.19955009570E+03  0.22987622792E+03  0.90416599345E+02 0.  0.
         23    2    1    2    0    0  0.73724102889E+02  0.28410350054E+02  0.17225282941E+03  0.21076142250E+03  0.92233121152E+02 0.  0.
        -11    1    4    4    0    0  0.32453845214E+02  0.10578872546E+02  0.16077914492E+03  0.16436270275E+03  0.00000000000E+00 0.  1.
         11    1    4    4    0    0  0.41270257675E+02  0.17831477509E+02  0.11473684488E+02  0.46398719750E+02  0.00000000000E+00 0. -1.
        -11    1    3    3    0    0  0.35103061851E+01 -0.29966500052E+02  0.10032164378E+03  0.10476041993E+03  0.00000000000E+00 0. -1.
         11    1    3    3    0    0 -0.72753702469E+02  0.22684323069E+02  0.99228451928E+02  0.12511580799E+03  0.00000000000E+00 0.  1.
         -1    1    1    2    0  502 -0.44807066051E+01 -0.21128173072E+02 -0.40134570985E+02  0.45576970250E+02  0.00000000000E+00 0.  1.
<scales pt_clust_5="13000.00000" pt_clust_6="13000.00000" pt_clust_7="13000.00000" pt_clust_8="13000.00000" pt_clust_9="21.59807"></scales>
<clustering>
<clus scale="   21.598">  2  9  1 -1</clus>
<clus scale="   90.417">  7  8 -1 -1</clus>
<clus scale="   92.233">  5  6 -1 -1</clus>
<clus scale="  116.286">  1  7  2 -1</clus>
<clus scale="   21.598">  2  5  1 -1</clus>
</clustering>
</event>
<event>
 9    1  0.1315259E-005  0.1562951E+03  0.7546771E-02  0.1193536E+00
          1   -1    0    0  502    0 -0.00000000000E+00  0.00000000000E+00  0.13835729731E+04  0.13835729731E+04  0.00000000000E+00 0. -1.
         21   -1    0    0  501  502  0.00000000000E+00 -0.00000000000E+00 -0.23415128617E+02  0.23415128617E+02  0.00000000000E+00 0. -1.
         23    2    1    2    0    0  0.12249138217E+03  0.72869309911E+02  0.79344615765E+03  0.81145961859E+03  0.92713712454E+02 0.  0.
         23    2    1    2    0    0 -0.78598194571E+02 -0.71360675561E+02  0.41324645176E+03  0.43590246310E+03  0.89265364154E+02 0.  0.
        -13    1    4    4    0    0 -0.73166794528E+02 -0.91893025959E+02  0.34981462622E+03  0.36900945890E+03  0.00000000000E+00 0.  1.
         13    1    4    4    0    0 -0.54314000430E+01  0.20532350398E+02  0.63431825539E+02  0.66893004197E+02  0.00000000000E+00 0. -1.
        -13    1    3    3    0    0  0.90961475657E+02  0.76476073263E+00  0.45187914253E+03  0.46094396012E+03  0.00000000000E+00 0.  1.
         13    1    3    3    0    0  0.31529906511E+02  0.72104549179E+02  0.34156701512E+03  0.35051565847E+03  0.00000000000E+00 0. -1.
          1    1    1    2  501    0 -0.43893187597E+02 -0.15086343500E+01  0.15346523509E+03  0.15962602005E+03  0.00000000000E+00 0. -1.
<scales pt_clust_5="13000.00000" pt_clust_6="13000.00000" pt_clust_7="13000.00000" pt_clust_8="13000.00000" pt_clust_9="43.91911"></scales>
<clustering>
<clus scale="   43.919">  2  9  1 -1</clus>
<clus scale="   89.265">  5  6 -1 -1</clus>
<clus scale="   92.714">  7  8 -1 -1</clus>
<clus scale="  154.274">  2  5  1 -1</clus>
<clus scale="   43.919">  2  5  1 -1</clus>
</clustering>
</event>
<event>
 9    1  0.1315259E-005  0.1069206E+03  0.7546771E-02  0.1266748E+00
         21   -1    0    0  501  502  0.00000000000E+00  0.00000000000E+00  0.78979379842E+03  0.78979379842E+03  0.00000000000E+00 0. -1.
          3   -1    0    0  502    0 -0.00000000000E+00 -0.00000000000E+00 -0.91713722916E+02  0.91713722916E+02  0.00000000000E+00 0. -1.
         23    2    1    2    0    0  0.39634778412E+02 -0.27082198021E+02  0.36805130934E+02  0.10846376413E+03  0.90030046968E+02 0.  0.
         23    2    1    2    0    0 -0.71085249112E+02 -0.49421669667E+02  0.20814342226E+02  0.12726379698E+03  0.90924271262E+02 0.  0.
        -11    1    4    4    0    0 -0.20247660966E+02 -0.74366665475E+01  0.50531632443E+02  0.54942858146E+02  0.00000000000E+00 0.  1.
         11    1    4    4    0    0 -0.50837588147E+02 -0.41985003119E+02 -0.29717290216E+02  0.72320938830E+02  0.00000000000E+00 0. -1.
        -11    1    3    3    0    0  0.42395327417E+02 -0.54639852353E+02  0.41081725527E+02  0.80439949181E+02  0.00000000000E+00 0. -1.
         11    1    3    3    0    0 -0.27605490050E+01  0.27557654332E+02 -0.42765945929E+01  0.28023814951E+02  0.00000000000E+00 0.  1.
          3    1    1    2  501    0  0.31450470700E+02  0.76503867688E+02  0.64046060234E+03  0.64577996023E+03  0.00000000000E+00 0. -1.
<scales pt_clust_5="13000.00000" pt_clust_6="13000.00000" pt_clust_7="13000.00000" pt_clust_8="13000.00000" pt_clust_9="82.71623"></scales>
<clustering>
<clus scale="   82.716">  1  9  2 -1</clus>
<clus scale="   90.030">  7  8 -1 -1</clus>
<clus scale="   90.924">  5  6 -1 -1</clus>
<clus scale="  106.161">  2  7  1 -1</clus>
<clus scale="   82.716">  1  5  2 -1</clus>
</clustering>
</event>
<event>
 9    1  0.1315259E-005  0.1348502E+03  0.7546771E-02  0.1220722E+00
         21   -1    0    0  501  502  0.00000000000E+00  0.00000000000E+00  0.89462609547E+02  0.89462609547E+02  0.00000000000E+00 0.  1.
         -1   -1    0    0    0  501 -0.00000000000E+00 -0.00000000000E+00 -0.46131262839E+03  0.46131262839E+03  0.00000000000E+00 0.  1.
         23    2    1    2    0    0  0.82750614489E+02  0.75988243809E+02 -0.28403033328E+03  0.31801738637E+03  0.88543494456E+02 0.  0.
         23    2    1    2    0    0 -0.55414403463E+02 -0.63339505480E+02 -0.13124356658E+03  0.17991002799E+03  0.89778033709E+02 0.  0.
        -11    1    4    4    0    0 -0.36316958399E+02 -0.83935683780E+02 -0.11674197326E+03  0.14829972623E+03  0.00000000000E+00 0. -1.
         11    1    4    4    0    0 -0.19097445064E+02  0.20596178301E+02 -0.14501593323E+02  0.31610301762E+02  0.00000000000E+00 0.  1.
        -11    1    3    3    0    0  0.67699278477E+02  0.28614372858E+01 -0.12035933078E+03  0.13812222354E+03  0.00000000000E+00 0. -1.
         11    1    3    3    0    0  0.15051336013E+02  0.73126806523E+02 -0.16367100250E+03  0.17989516282E+03  0.00000000000E+00 0.  1.
         -1    1    1    2    0  502 -0.27336211027E+02 -0.12648738330E+02  0.43423881019E+02  0.52847823582E+02  0.00000000000E+00 0.  1.
<scales pt_clust_5="13000.00000" pt_clust_6="13000.00000" pt_clust_7="13000.00000" pt_clust_8="13000.00000" pt_clust_9="30.12074"></scales>
<clustering>
<clus scale="   30.121">  1  9  2 -1</clus>
<clus scale="   88.543">  7  8 -1 -1</clus>
<clus scale="   89.778">  5  6 -1 -1</clus>
<clus scale="  134.031">  2  7  1 -1</clus>
<clus scale="   30.121">  1  5  2 -1</clus>
</clustering>
</event>
<event>
 9    1  0.1315259E-005  0.1068529E+03  0.7546771E-02  0.1271731E+00
          2   -1    0    0  502    0 -0.00000000000E+00  0.00000000000E+00  0.22080172219E+03  0.22080172219E+03  0.00000000000E+00 0. -1.
         21   -1    0    0  501  502  0.00000000000E+00 -0.00000000000E+00 -0.70657443845E+02  0.70657443845E+02  0.00000000000E+00 0. -1.
         23    2    1    2    0    0 -0.58155283636E+02 -0.41267555863E+02  0.10484598002E+03  0.15644839738E+03  0.91642639269E+02 0.  0.
         23    2    1    2    0    0  0.20064509165E+02  0.31849341662E+02  0.33091319526E+02  0.93917944590E+02  0.79426568576E+02 0.  0.
        -11    1    4    4    0    0  0.28331777135E+02 -0.76088349655E+01  0.43326800517E+02  0.52323948706E+02  0.00000000000E+00 0.  1.
         11    1    4    4    0    0 -0.82672679702E+01  0.39458176628E+02 -0.10235480991E+02  0.41593995884E+02  0.00000000000E+00 0. -1.
        -13    1    3    3    0    0  0.23182013566E+02 -0.74346566929E+00  0.10514216521E+02  0.25465805372E+02  0.00000000000E+00 0.  1.
         13    1    3    3    0    0 -0.81337297202E+02 -0.40524090194E+02  0.94331763503E+02  0.13098259200E+03  0.00000000000E+00 0. -1.
          2    1    1    2  501    0  0.38090774471E+02  0.94182142013E+01  0.12206978791E+02  0.41092824066E+02  0.00000000000E+00 0. -1.
<scales pt_clust_5="13000.00000" pt_clust_6="13000.00000" pt_clust_7="13000.00000" pt_clust_8="13000.00000" pt_clust_9="39.23786"></scales>
<clustering>
<clus scale="   39.238">  2  9  1 -1</clus>
<clus scale="   79.427">  5  6 -1 -1</clus>
<clus scale="   91.643">  7  8 -1 -1</clus>
<clus scale="   96.580">  2  5  1 -1</clus>
<clus scale="   39.238">  2  5  1 -1</clus>
</clustering>
</event>
<event>
 9    1  0.1315259E-005  0.1002525E+03  0.7546771E-02  0.1281563E+00
          1   -1    0    0  502    0 -0.00000000000E+00  0.00000000000E+00  0.49413929383E+03  0.49413929383E+03  0.00000000000E+00 0. -1.
         21   -1    0    0  501  502  0.00000000000E+00 -0.00000000000E+00 -0.33306496681E+02  0.33306496681E+02  0.00000000000E+00 0.  1.
         23    2    1    2    0    0  0.69476111511E+01 -0.31425839490E+02  0.31152741400E+03  0.32593742404E+03  0.90277472455E+02 0.  0.
         23    2    1    2    0    0  0.15850479306E+02  0.44444625382E+02  0.13661634706E+03  0.17234926237E+03  0.93881199055E+02 0.  0.
        -11    1    4    4    0    0  0.24340231122E+02 -0.12346348785E+02  0.10135406917E+03  0.10496440595E+03  0.00000000000E+00 0. -1.
         11    1    4    4    0    0 -0.84897518155E+01  0.56790974168E+02  0.35262277894E+02  0.67384856422E+02  0.00000000000E+00 0.  1.
        -13    1    3    3    0    0  0.33587396878E+02  0.14112204874E+02  0.18986146240E+03  0.19332522458E+03  0.00000000000E+00 0.  1.
         13    1    3    3    0    0 -0.26639785727E+02 -0.45538044364E+02  0.12166595160E+03  0.13261219946E+03  0.00000000000E+00 0. -1.
          1    1    1    2  501    0 -0.22798090457E+02 -0.13018785893E+02  0.12689036086E+02  0.29159104092E+02  0.00000000000E+00 0. -1.
<scales pt_clust_5="13000.00000" pt_clust_6="13000.00000" pt_clust_7="13000.00000" pt_clust_8="13000.00000" pt_clust_9="26.25341"></scales>
<clustering>
<clus scale="   26.253">  2  9  1 -1</clus>
<clus scale="   90.277">  7  8 -1 -1</clus>
<clus scale="   93.881">  5  6 -1 -1</clus>
<clus scale="   96.886">  1  7  2 -1</clus>
<clus scale="   26.253">  2  5  1 -1</clus>
</clustering>
</event>
<event>
 9    1  0.1315259E-005  0.9558598E+02  0.7546771E-02  0.1290201E+00
         21   -1    0    0  501  502  0.00000000000E+00  0.00000000000E+00  0.33102805846E+02  0.33102805846E+02  0.00000000000E+00 0.  1.
          1   -1    0    0  502    0 -0.00000000000E+00 -0.00000000000E+00 -0.39940032681E+03  0.39940032681E+03  0.00000000000E+00 0. -1.
         23    2    1    2    0    0 -0.11156259324E+00  0.35504229353E+02 -0.23163439794E+03  0.25105205257E+03  0.90067064133E+02 0.  0.
         23    2    1    2    0    0  0.14348904160E+02 -0.17489935884E+02 -0.83392471061E+02  0.12527371439E+03  0.90705073617E+02 0.  0.
        -11    1    4    4    0    0  0.49150907943E+02  0.31378364271E+01 -0.27914694648E+02  0.56611729759E+02  0.00000000000E+00 0.  1.
         11    1    4    4    0    0 -0.34802003783E+02 -0.20627772311E+02 -0.55477776413E+02  0.68661984632E+02  0.00000000000E+00 0. -1.
        -13    1    3    3    0    0 -0.41874849296E+02  0.34221505643E+02 -0.14778067371E+03  0.15736499602E+03  0.00000000000E+00 0. -1.
         13    1    3    3    0    0  0.41763286703E+02  0.12827237101E+01 -0.83853724229E+02  0.93687056542E+02  0.00000000000E+00 0.  1.
          1    1    1    2  501    0 -0.14237341567E+02 -0.18014293469E+02 -0.51270651964E+02  0.56177365699E+02  0.00000000000E+00 0. -1.
<scales pt_clust_5="13000.00000" pt_clust_6="13000.00000" pt_clust_7="13000.00000" pt_clust_8="13000.00000" pt_clust_9="22.96121"></scales>
<clustering>
<clus scale="   22.961">  1  9  2 -1</clus>
<clus scale="   90.067">  7  8 -1 -1</clus>
<clus scale="   90.705">  5  6 -1 -1</clus>
<clus scale="   94.981">  2  7  1 -1</clus>
<clus scale="   22.961">  1  5  2 -1</clus>
</clustering>
</event>
<event>
 9    1  0.1315259E-005  0.1801212E+03  0.7546771E-02  0.1167701E+00
         -4   -1    0    0    0  501 -0.00000000000E+00  0.00000000000E+00  0.30174996903E+03  0.30174996903E+03  0.00000000000E+00 0.  1.
         21   -1    0    0  501  502  0.00000000000E+00 -0.00000000000E+00 -0.21885687492E+03  0.21885687492E+03  0.00000000000E+00 0.  1.
         23    2    1    2    0    0 -0.10718994018E+03 -0.16815522800E+03  0.14177825664E+03  0.26129818742E+03  0.91704987386E+02 0.  0.
         23    2    1    2    0    0  0.81651041846E+02  0.52050177006E+02 -0.36383031439E+02  0.13831706964E+03  0.91824687406E+02 0.  0.
        -11    1    3    3    0    0 -0.26746536206E+02 -0.21485866207E+02  0.72559607724E+02  0.80261549441E+02  0.00000000000E+00 0. -1.
         11    1    3    3    0    0 -0.80443403978E+02 -0.14666936179E+03  0.69218648918E+02  0.18103663798E+03  0.00000000000E+00 0.  1.
        -13    1    4    4    0    0  0.99185396244E+02  0.33254181529E+02 -0.40704006254E+02  0.11225150129E+03  0.00000000000E+00 0.  1.
         13    1    4    4    0    0 -0.17534354398E+02  0.18795995477E+02  0.43209748148E+01  0.26065568351E+02  0.00000000000E+00 0. -1.
         -4    1    1    2    0  502  0.25538898337E+02  0.11610505099E+03 -0.22502131095E+02  0.12099158689E+03  0.00000000000E+00 0.  1.
<scales pt_clust_5="13000.00000" pt_clust_6="13000.00000" pt_clust_7="13000.00000" pt_clust_8="13000.00000" pt_clust_9="118.88069"></scales>
<clustering>
<clus scale="   91.705">  5  6 -1 -1</clus>
<clus scale="   91.825">  7  8 -1 -1</clus>
<clus scale="  118.881">  2  9  1 -1</clus>
<clus scale="  180.060">  1  5  2 -1</clus>
<clus scale="  118.881">  2  5  1 -1</clus>
</clustering>
</event>
<event>
 9    1  0.1315259E-005  0.9614850E+02  0.7546771E-02  0.1290169E+00
         21   -1    0    0  501  502  0.00000000000E+00  0.00000000000E+00  0.35195162229E+03  0.35195162229E+03  0.00000000000E+00 0. -1.
         -2   -1    0    0    0  501 -0.00000000000E+00 -0.00000000000E+00 -0.60778242521E+02  0.60778242521E+02  0.00000000000E+00 0.  1.
         23    2    1    2    0    0 -0.20488772724E+02 -0.14511414926E+02 -0.59417222318E+00  0.95017195023E+02  0.91638110732E+02 0.  0.
         23    2    1    2    0    0  0.40574124734E+02  0.26733285848E+02  0.21887212213E+03  0.24111933333E+03  0.88727667004E+02 0.  0.
        -11    1    4    4    0    0  0.49538070261E+02 -0.10835070946E+02  0.64815672565E+02  0.82295143099E+02  0.00000000000E+00 0.  1.
         11    1    4    4    0    0 -0.89639455266E+01  0.37568356794E+02  0.15405644956E+03  0.15882419024E+03  0.00000000000E+00 0. -1.
        -11    1    3    3    0    0  0.21511499770E+01 -0.49932947461E+02 -0.12118566044E+02  0.51427486146E+02  0.00000000000E+00 0.  1.
         11    1    3    3    0    0 -0.22639922701E+02  0.35421532535E+02  0.11524393821E+02  0.43589708877E+02  0.00000000000E+00 0. -1.
         -2    1    1    2    0  502 -0.20085352010E+02 -0.12221870921E+02  0.72895429862E+02  0.76593336452E+02  0.00000000000E+00 0.  1.
<scales pt_clust_5="13000.00000" pt_clust_6="13000.00000" pt_clust_7="13000.00000" pt_clust_8="13000.00000" pt_clust_9="23.51160"></scales>
<clustering>
<clus scale="   23.512">  1  9  2 -1</clus>
<clus scale="   88.728">  5  6 -1 -1</clus>
<clus scale="   91.638">  7  8 -1 -1</clus>
<clus scale="   93.379">  1  5  2 -1</clus>
<clus scale="   23.512">  1  5  2 -1</clus>
</clustering>
</event>
<event>
 9    1  0.1315259E-005  0.1353176E+03  0.7546771E-02  0.1219805E+00
          1   -1    0    0  502    0 -0.00000000000E+00  0.00000000000E+00  0.85979743084E+03  0.85979743084E+03  0.00000000000E+00 0. -1.
         21   -1    0    0  501  502  0.00000000000E+00 -0.00000000000E+00 -0.57177085447E+02  0.57177085447E+02  0.00000000000E+00 0.  1.
         23    2    1    2    0    0  0.68434577904E+02 -0.63471772942E+02  0.59097365202E+03  0.60510543701E+03  0.90502901073E+02 0.  0.
         23    2    1    2    0    0 -0.12625764931E+03  0.55818543108E+02  0.18424790786E+03  0.24742706688E+03  0.90643025723E+02 0.  0.
        -13    1    4    4    0    0 -0.13534740314E+03  0.35886306186E+02  0.13975727034E+03  0.19783538895E+03  0.00000000000E+00 0.  1.
         13    1    4    4    0    0  0.90897538292E+01  0.19932236922E+02  0.44490637522E+02  0.49591677936E+02  0.00000000000E+00 0. -1.
        -13    1    3    3    0    0 -0.18484523296E+02 -0.27631913557E+02  0.10558250627E+03  0.11069266407E+03  0.00000000000E+00 0.  1.
         13    1    3    3    0    0  0.86919101200E+02 -0.35839859385E+02  0.48539114576E+03  0.49441277295E+03  0.00000000000E+00 0. -1.
          1    1    1    2  501    0  0.57823071403E+02  0.76532298342E+01  0.27398785506E+02  0.64442012388E+02  0.00000000000E+00 0. -1.
<scales pt_clust_5="13000.00000" pt_clust_6="13000.00000" pt_clust_7="13000.00000" pt_clust_8="13000.00000" pt_clust_9="58.32735"></scales>
<clustering>
<clus scale="   58.327">  2  9  1 -1</clus>
<clus scale="   90.503">  7  8 -1 -1</clus>
<clus scale="   90.643">  5  6 -1 -1</clus>
<clus scale="  135.224">  1  7  2 -1</clus>
<clus scale="   58.327">  2  5  1 -1</clus>
</clustering>
</event>
<event>
 9    1  0.1315259E-005  0.9998564E+02  0.7546771E-02  0.1280819E+00
         21   -1    0    0  501  502  0.00000000000E+00  0.00000000000E+00  0.98725649327E+02  0.98725649327E+02  0.00000000000E+00 0.  1.
          2   -1    0    0  502    0 -0.00000000000E+00 -0.00000000000E+00 -0.20586087377E+03  0.20586087377E+03  0.00000000000E+00 0. -1.
         23    2    1    2    0    0 -0.10376460770E+02 -0.42251468542E+02 -0.12925168030E+03  0.16442352744E+03  0.91849017319E+02 0.  0.
         23    2    1    2    0    0  0.17618531060E+02  0.17298695849E+02 -0.12488931662E+02  0.96889201131E+02  0.92854113355E+02 0.  0.
        -11    1    3    3    0    0 -0.27795878789E+02  0.17253327163E+02 -0.75812013120E+02  0.82569664582E+02  0.00000000000E+00 0. -1.
         11    1    3    3    0    0  0.17419418019E+02 -0.59504795705E+02 -0.53439667179E+02  0.81853862854E+02  0.00000000000E+00 0.  1.
        -11    1    4    4    0    0 -0.37270558416E+02  0.67955837805E+01  0.52713917077E+01  0.38249994171E+02  0.00000000000E+00 0. -1.
         11    1    4    4    0    0  0.54889089476E+02  0.10503112068E+02 -0.17760323370E+02  0.58639206960E+02  0.00000000000E+00 0.  1.
          2    1    1    2  501    0 -0.72420702908E+01  0.24952772693E+02  0.34605387521E+02  0.43273794526E+02  0.00000000000E+00 0. -1.
<scales pt_clust_5="13000.00000" pt_clust_6="13000.00000" pt_clust_7="13000.00000" pt_clust_8="13000.00000" pt_clust_9="25.98246"></scales>
<clustering>
<clus scale="   25.982">  1  9  2 -1</clus>
<clus scale="   91.849">  5  6 -1 -1</clus>
<clus scale="   92.854">  7  8 -1 -1</clus>
<clus scale="   99.053">  2  5  1 -1</clus>
<clus scale="   25.982">  1  5  2 -1</clus>
</clustering>
</event>
<event>
 9    1  0.1315259E-005  0.1106318E+03  0.7546771E-02  0.1259771E+00
          1   -1    0    0  502    0 -0.00000000000E+00  0.00000000000E+00  0.83644947771E+03  0.83644947771E+03  0.00000000000E+00 0. -1.
         21   -1    0    0  501  502  0.00000000000E+00 -0.00000000000E+00 -0.40839895782E+02  0.40839895782E+02  0.00000000000E+00 0. -1.
         23    2    1    2    0    0  0.62804081088E+02  0.20670562076E+02  0.65785580581E+03  0.66756454241E+03  0.92176636479E+02 0.  0.
         23    2    1    2    0    0 -0.45968609511E+02 -0.44570957008E+01  0.15137548154E+03  0.18267191158E+03  0.91222322406E+02 0.  0.
        -11    1    3    3    0    0 -0.22233351365E+02  0.17451346935E+02  0.15372014915E+03  0.15629701110E+03  0.00000000000E+00 0.  1.
         11    1    3    3    0    0  0.85037432452E+02  0.32192151411E+01  0.50413565666E+03  0.51126753131E+03  0.00000000000E+00 0. -1.
        -11    1    4    4    0    0 -0.69507697381E+02  0.99554632168E+01  0.13003907098E+03  0.14778562591E+03  0.00000000000E+00 0. -1.
         11    1    4    4    0    0  0.23539087870E+02 -0.14412558918E+02  0.21336410560E+02  0.34886285671E+02  0.00000000000E+00 0.  1.
          1    1    1    2  501    0 -0.16835471577E+02 -0.16213466375E+02 -0.13621705420E+02  0.27052919503E+02  0.00000000000E+00 0. -1.
<scales pt_clust_5="13000.00000" pt_clust_6="13000.00000" pt_clust_7="13000.00000" pt_clust_8="13000.00000" pt_clust_9="23.37327"></scales>
<clustering>
<clus scale="   23.373">  2  9  1 -1</clus>
<clus scale="   91.222">  7  8 -1 -1</clus>
<clus scale="   92.177">  5  6 -1 -1</clus>
<clus scale="  109.838">  2  7  1 -1</clus>
<clus scale="   23.373">  2  5  1 -1</clus>
</clustering>
</event>
<event>
 9    1  0.1315259E-005  0.9320668E+02  0.7546771E-02  0.1296945E+00
         21   -1    0    0  501  502  0.00000000000E+00  0.00000000000E+00  0.48655497805E+03  0.48655497805E+03  0.00000000000E+00 0.  1.
          1   -1    0    0  502    0 -0.00000000000E+00 -0.00000000000E+00 -0.44188128650E+02  0.44188128650E+02  0.00000000000E+00 0. -1.
         23    2    1    2    0    0  0.24590843976E+02  0.41054502773E+01  0.84504017993E+02  0.12609759007E+03  0.90211467313E+02 0.  0.
         23    2    1    2    0    0  0.48707943055E+02  0.16619975996E+02  0.15523500971E+03  0.18817314056E+03  0.93072741829E+02 0.  0.
        -11    1    4    4    0    0  0.20899555065E+02 -0.12256632084E+02  0.14471117241E+03  0.14672538926E+03  0.00000000000E+00 0.  1.
         11    1    4    4    0    0  0.27808387990E+02  0.28876608080E+02  0.10523837296E+02  0.41447751305E+02  0.00000000000E+00 0. -1.
        -11    1    3    3    0    0 -0.32759861798E+02  0.37273503267E+00  0.15351388396E+02  0.36180279188E+02  0.00000000000E+00 0. -1.
         11    1    3    3    0    0  0.57350705774E+02  0.37327152446E+01  0.69152629597E+02  0.89917310881E+02  0.00000000000E+00 0.  1.
          1    1    1    2  501    0 -0.73298787031E+02 -0.20725426273E+02  0.20262782169E+03  0.21647237606E+03  0.00000000000E+00 0. -1.
<scales pt_clust_5="13000.00000" pt_clust_6="13000.00000" pt_clust_7="13000.00000" pt_clust_8="13000.00000" pt_clust_9="76.17254"></scales>
<clustering>
<clus scale="   76.173">  1  9  2 -1</clus>
<clus scale="   90.211">  7  8 -1 -1</clus>
<clus scale="   90.350">  2  7  1 -1</clus>
<clus scale="   93.073">  5  6 -1 -1</clus>
<clus scale="   76.173">  1  5  2 -1</clus>
</clustering>
</event>
<event>
 9    1  0.1315259E-005  0.1013924E+03  0.7546771E-02  0.1277729E+00
         -1   -1    0    0    0  501 -0.00000000000E+00  0.00000000000E+00  0.37097775299E+03  0.37097775299E+03  0.00000000000E+00 0.  1.
         21   -1    0    0  501  502  0.00000000000E+00 -0.00000000000E+00 -0.98371910567E+02  0.98371910567E+02  0.00000000000E+00 0. -1.
         23    2    1    2    0    0  0.25807144245E+02 -0.33780856208E+02  0.30791670474E+03  0.32394983077E+03  0.91233989594E+02 0.  0.
         23    2    1    2    0    0 -0.46882928035E+02  0.20117789024E+02 -0.49860319278E+02  0.11637303887E+03  0.91945083397E+02 0.  0.
        -13    1    4    4    0    0 -0.10372147756E+02  0.43095981778E+02 -0.57458359101E+02  0.72569333227E+02  0.00000000000E+00 0. -1.
         13    1    4    4    0    0 -0.36510780279E+02 -0.22978192755E+02  0.75980398227E+01  0.43803705642E+02  0.00000000000E+00 0.  1.
        -13    1    3    3    0    0  0.43970983945E+02 -0.51827182812E+02  0.26833168279E+03  0.27680570134E+03  0.00000000000E+00 0.  1.
         13    1    3    3    0    0 -0.18163839700E+02  0.18046326604E+02  0.39585021951E+02  0.47144129427E+02  0.00000000000E+00 0. -1.
         -1    1    1    2    0  502  0.21075783791E+02  0.13663067184E+02  0.14549456960E+02  0.29026793917E+02  0.00000000000E+00 0.  1.
<scales pt_clust_5="13000.00000" pt_clust_6="13000.00000" pt_clust_7="13000.00000" pt_clust_8="13000.00000" pt_clust_9="25.11709"></scales>
<clustering>
<clus scale="   25.117">  2  9  1 -1</clus>
<clus scale="   91.234">  7  8 -1 -1</clus>
<clus scale="   91.945">  5  6 -1 -1</clus>
<clus scale="  100.748">  1  7  2 -1</clus>
<clus scale="   25.117">  2  5  1 -1</clus>
</clustering>
</event>
<event>
 9    1  0.1315259E-005  0.1117722E+03  0.7546771E-02  0.1257488E+00
          2   -1    0    0  502    0 -0.00000000000E+00  0.00000000000E+00  0.35290101939E+03  0.35290101939E+03  0.00000000000E+00 0. -1.
         21   -1    0    0  501  502  0.00000000000E+00 -0.00000000000E+00 -0.13775159285E+03  0.13775159285E+03  0.00000000000E+00 0. -1.
         23    2    1    2    0    0  0.30884661634E+02  0.53829722556E+02  0.23061581763E+03  0.25494060980E+03  0.89216354055E+02 0.  0.
         23    2    1    2    0    0 -0.21384608294E+01 -0.88838205237E+02  0.66032445292E+02  0.14247039021E+03  0.89670109466E+02 0.  0.
        -13    1    3    3    0    0  0.60714022122E+02  0.23065606194E+02  0.15441098666E+03  0.16751408142E+03  0.00000000000E+00 0.  1.
         13    1    3    3    0    0 -0.29829360488E+02  0.30764116362E+02  0.76204830968E+02  0.87426528385E+02  0.00000000000E+00 0. -1.
        -13    1    4    4    0    0  0.22578998490E+02 -0.37273692682E+02 -0.12489624615E+02  0.45333542349E+02  0.00000000000E+00 0.  1.
         13    1    4    4    0    0 -0.24717459319E+02 -0.51564512556E+02  0.78522069907E+02  0.97136847863E+02  0.00000000000E+00 0. -1.
          2    1    1    2  501    0 -0.28746200805E+02  0.35008482682E+02 -0.81498836379E+02  0.93241612232E+02  0.00000000000E+00 0. -1.
<scales pt_clust_5="13000.00000" pt_clust_6="13000.00000" pt_clust_7="13000.00000" pt_clust_8="13000.00000" pt_clust_9="45.29832"></scales>
<clustering>
<clus scale="   45.298">  2  9  1 -1</clus>
<clus scale="   89.216">  5  6 -1 -1</clus>
<clus scale="   89.670">  7  8 -1 -1</clus>
<clus scale="  111.408">  1  5  2 -1</clus>
<clus scale="   45.298">  2  5  1 -1</clus>
</clustering>
</event>
<event>
 9    1  0.1315259E-005  0.1092929E+03  0.7546771E-02  0.1266458E+00
         -3   -1    0    0    0  501 -0.00000000000E+00  0.00000000000E+00  0.53994439222E+03  0.53994439222E+03  0.00000000000E+00 0.  1.
         21   -1    0    0  501  502  0.00000000000E+00 -0.00000000000E+00 -0.36427266985E+02  0.36427266985E+02  0.00000000000E+00 0.  1.
         23    2    1    2    0    0 -0.34320533371E+02  0.99639671611E+01  0.27631725154E+03  0.29240331163E+03  0.88720310549E+02 0.  0.
         23    2    1    2    0    0  0.60187933811E+02 -0.24646968347E+02  0.22477823282E+03  0.25412580623E+03  0.99119175827E+02 0.  0.
        -11    1    4    4    0    0  0.22461325362E+02 -0.29662853338E+02  0.21004492110E+03  0.21331494295E+03  0.00000000000E+00 0.  1.
         11    1    4    4    0    0  0.37726608449E+02  0.50158849905E+01  0.14733311717E+02  0.40810863278E+02  0.00000000000E+00 0. -1.
        -11    1    3    3    0    0  0.30198426008E+01 -0.33915925257E+02  0.65083309427E+02  0.73452342381E+02  0.00000000000E+00 0.  1.
         11    1    3    3    0    0 -0.37340375972E+02  0.43879892418E+02  0.21123394211E+03  0.21895096925E+03  0.00000000000E+00 0. -1.
         -3    1    1    2    0  502 -0.25867400440E+02  0.14683001186E+02  0.24216408786E+01  0.29842541345E+02  0.00000000000E+00 0.  1.
<scales pt_clust_5="13000.00000" pt_clust_6="13000.00000" pt_clust_7="13000.00000" pt_clust_8="13000.00000" pt_clust_9="29.74412"></scales>
<clustering>
<clus scale="   29.744">  2  9  1 -1</clus>
<clus scale="   88.720">  7  8 -1 -1</clus>
<clus scale="   99.119">  5  6 -1 -1</clus>
<clus scale="   99.958">  1  7  2 -1</clus>
<clus scale="   29.744">  2  5  1 -1</clus>
</clustering>
</event>
<event>
 9    1  0.1315259E-005  0.2133077E+03  0.7546771E-02  0.1139199E+00
          2   -1    0    0  502    0 -0.00000000000E+00  0.00000000000E+00  0.16764681945E+04  0.16764681945E+04  0.00000000000E+00 0. -1.
         21   -1    0    0  501  502  0.00000000000E+00 -0.00000000000E+00 -0.37422445214E+02  0.37422445214E+02  0.00000000000E+00 0. -1.
         23    2    1    2    0    0  0.15240605249E+03 -0.10204552920E+03  0.84397634796E+03  0.86832561321E+03  0.89735164659E+02 0.  0.
         23    2    1    2    0    0 -0.19865840266E+03  0.74099060636E+02  0.69543663396E+03  0.73222053686E+03  0.86942342974E+02 0.  0.
        -13    1    4    4    0    0 -0.52244153838E+02  0.62485553716E+02  0.27879133194E+03  0.29044535252E+03  0.00000000000E+00 0.  1.
         13    1    4    4    0    0 -0.14641424882E+03  0.11613506920E+02  0.41664530202E+03  0.44177518434E+03  0.00000000000E+00 0. -1.
        -13    1    3    3    0    0  0.94419471536E+01 -0.28800665501E+02  0.51703830053E+02  0.59932584973E+02  0.00000000000E+00 0.  1.
         13    1    3    3    0    0  0.14296410534E+03 -0.73244863697E+02  0.79227251791E+03  0.80839302824E+03  0.00000000000E+00 0. -1.
          2    1    1    2  501    0  0.46252350165E+02  0.27946468562E+02  0.99632767352E+02  0.11334448964E+03  0.00000000000E+00 0. -1.
<scales pt_clust_5="13000.00000" pt_clust_6="13000.00000" pt_clust_7="13000.00000" pt_clust_8="13000.00000" pt_clust_9="54.03966"></scales>
<clustering>
<clus scale="   54.040">  2  9  1 -1</clus>
<clus scale="   86.942">  5  6 -1 -1</clus>
<clus scale="   89.735">  7  8 -1 -1</clus>
<clus scale="  212.148">  2  5  1 -1</clus>
<clus scale="   54.040">  2  5  1 -1</clus>
</clustering>
</event>
<event>
 9    1  0.1315259E-005  0.1540269E+03  0.7546771E-02  0.1195725E+00
          1   -1    0    0  502    0 -0.00000000000E+00  0.00000000000E+00  0.98995335044E+03  0.98995335044E+03  0.00000000000E+00 0. -1.
         21   -1    0    0  501  502  0.00000000000E+00 -0.00000000000E+00 -0.79202022662E+02  0.79202022662E+02  0.00000000000E+00 0. -1.
         23    2    1    2    0    0 -0.16888901806E+02 -0.14130232151E+03  0.83808786872E+03  0.85504980716E+03  0.92018019709E+02 0.  0.
         23    2    1    2    0    0 -0.58718536073E+01  0.49455577057E+02  0.51572299061E+02  0.11715860373E+03  0.92661230457E+02 0.  0.
        -11    1    3    3    0    0  0.35636410111E+02 -0.70611035905E+02  0.32700363578E+03  0.33643312847E+03  0.00000000000E+00 0.  1.
         11    1    3    3    0    0 -0.52525311917E+02 -0.70691285604E+02  0.51108423294E+03  0.51861667869E+03  0.00000000000E+00 0. -1.
        -11    1    4    4    0    0  0.22852981482E+02  0.66910063482E+02  0.27727405698E+02  0.75947510719E+02  0.00000000000E+00 0.  1.
         11    1    4    4    0    0 -0.28724835089E+02 -0.17454486425E+02  0.23844893363E+02  0.41211093006E+02  0.00000000000E+00 0. -1.
          1    1    1    2  501    0  0.22760755413E+02  0.91846744453E+02  0.21091159993E+02  0.96946962219E+02  0.00000000000E+00 0. -1.
<scales pt_clust_5="13000.00000" pt_clust_6="13000.00000" pt_clust_7="13000.00000" pt_clust_8="13000.00000" pt_clust_9="94.62493"></scales>
<clustering>
<clus scale="   92.018">  5  6 -1 -1</clus>
<clus scale="   92.661">  7  8 -1 -1</clus>
<clus scale="   94.625">  2  9  1 -1</clus>
<clus scale="  153.641">  1  5  2 -1</clus>
<clus scale="   94.625">  2  5  1 -1</clus>
</clustering>
</event>
<event>
 9    1  0.1315259E-005  0.1083993E+03  0.7546771E-02  0.1263832E+00
         21   -1    0    0  501  502  0.00000000000E+00  0.00000000000E+00  0.15660509768E+03  0.15660509768E+03  0.00000000000E+00 0.  1.
          1   -1    0    0  502    0 -0.00000000000E+00 -0.00000000000E+00 -0.19952496333E+03  0.19952496333E+03  0.00000000000E+00 0. -1.
         23    2    1    2    0    0 -0.43256276332E+02 -0.29433271586E+02 -0.89143173369E+02  0.13748399853E+03  0.90652752712E+02 0.  0.
         23    2    1    2    0    0  0.19087486264E+02  0.10177768284E+03  0.24620437003E+02  0.13937104577E+03  0.89972738231E+02 0.  0.
        -11    1    4    4    0    0 -0.28662226859E+02  0.11295400395E+02 -0.82825816937E+01  0.31901574853E+02  0.00000000000E+00 0. -1.
         11    1    4    4    0    0  0.47749713123E+02  0.90482282444E+02  0.32903018696E+02  0.10746947092E+03  0.00000000000E+00 0.  1.
        -11    1    3    3    0    0  0.18390681570E+02 -0.26029797683E+02 -0.37242492484E+01  0.32087966101E+02  0.00000000000E+00 0.  1.
         11    1    3    3    0    0 -0.61646957902E+02 -0.34034739034E+01 -0.85418924120E+02  0.10539603243E+03  0.00000000000E+00 0. -1.
          1    1    1    2  501    0  0.24168790067E+02 -0.72344411253E+02  0.21602870717E+02  0.79275016721E+02  0.00000000000E+00 0. -1.
<scales pt_clust_5="13000.00000" pt_clust_6="13000.00000" pt_clust_7="13000.00000" pt_clust_8="13000.00000" pt_clust_9="76.27479"></scales>
<clustering>
<clus scale="   76.275">  1  9  2 -1</clus>
<clus scale="   89.973">  5  6 -1 -1</clus>
<clus scale="   90.653">  7  8 -1 -1</clus>
<clus scale="  107.831">  1  5  2 -1</clus>
<clus scale="   76.275">  1  5  2 -1</clus>
</clustering>
</event>
<event>
 9    1  0.1315259E-005  0.9166756E+02  0.7546771E-02  0.1299609E+00
         21   -1    0    0  501  502  0.00000000000E+00  0.00000000000E+00  0.41392639975E+03  0.41392639975E+03  0.00000000000E+00 0.  1.
         -1   -1    0    0    0  501 -0.00000000000E+00 -0.00000000000E+00 -0.36485092209E+02  0.36485092209E+02  0.00000000000E+00 0.  1.
         23    2    1    2    0    0  0.10662322632E+02 -0.12422522654E+02  0.98689628891E+02  0.13524803626E+03  0.91018592987E+02 0.  0.
         23    2    1    2    0    0 -0.11119744494E+02 -0.13146563140E+02  0.10358164395E+03  0.13813654124E+03  0.89755591601E+02 0.  0.
        -11    1    4    4    0    0  0.32973998613E+02 -0.28188021104E+02  0.37866403287E+02  0.57582233512E+02  0.00000000000E+00 0.  1.
         11    1    4    4    0    0 -0.44093743107E+02  0.15041457964E+02  0.65715240662E+02  0.80554307732E+02  0.00000000000E+00 0. -1.
        -13    1    3    3    0    0  0.48856165587E+02 -0.56240399564E+01  0.33896063780E+02  0.59728534897E+02  0.00000000000E+00 0.  1.
         13    1    3    3    0    0 -0.38193842955E+02 -0.67984826973E+01  0.64793565112E+02  0.75519501366E+02  0.00000000000E+00 0. -1.
         -1    1    1    2    0  502  0.45742186224E+00  0.25569085794E+02  0.17517003470E+03  0.17702691445E+03  0.00000000000E+00 0.  1.
<scales pt_clust_5="13000.00000" pt_clust_6="13000.00000" pt_clust_7="13000.00000" pt_clust_8="13000.00000" pt_clust_9="25.57318"></scales>
<clustering>
<clus scale="   25.573">  1  9  2 -1</clus>
<clus scale="   89.756">  5  6 -1 -1</clus>
<clus scale="   90.414">  1  5  2 -1</clus>
<clus scale="   91.019">  7  8 -1 -1</clus>
<clus scale="   25.573">  1  5  2 -1</clus>
</clustering>
</event>
<event>
 9    1  0.1315259E-005  0.9362758E+02  0.7546771E-02  0.1295095E+00
          1   -1    0    0  502    0 -0.00000000000E+00  0.00000000000E+00  0.78438256714E+02  0.78438256714E+02  0.00000000000E+00 0. -1.
         21   -1    0    0  501  502  0.00000000000E+00 -0.00000000000E+00 -0.16598911063E+03  0.16598911063E+03  0.00000000000E+00 0.  1.
         23    2    1    2    0    0  0.17864741467E+02  0.96942490515E+01 -0.17296678228E+02  0.95236229462E+02  0.91420111967E+02 0.  0.
         23    2    1    2    0    0 -0.15232110035E+01 -0.25983632265E+02 -0.22807859154E+02  0.96431848879E+02  0.90007964768E+02 0.  0.
        -11    1    3    3    0    0  0.52833944656E+02 -0.93533110864E+01 -0.70326649683E+01  0.54114402083E+02  0.00000000000E+00 0.  1.
         11    1    3    3    0    0 -0.34969203189E+02  0.19047560138E+02 -0.10264013260E+02  0.41121827380E+02  0.00000000000E+00 0. -1.
        -13    1    4    4    0    0  0.13064851623E+02 -0.44873873776E+02  0.17236537494E+02  0.49814185935E+02  0.00000000000E+00 0. -1.
         13    1    4    4    0    0 -0.14588062627E+02  0.18890241510E+02 -0.40044396648E+02  0.46617662944E+02  0.00000000000E+00 0.  1.
          1    1    1    2  501    0 -0.16341530464E+02  0.16289383214E+02 -0.47446316538E+02  0.52759289006E+02  0.00000000000E+00 0. -1.
<scales pt_clust_5="13000.00000" pt_clust_6="13000.00000" pt_clust_7="13000.00000" pt_clust_8="13000.00000" pt_clust_9="23.07357"></scales>
<clustering>
<clus scale="   23.074">  2  9  1 -1</clus>
<clus scale="   90.008">  7  8 -1 -1</clus>
<clus scale="   91.420">  5  6 -1 -1</clus>
<clus scale="   92.249">  2  7  1 -1</clus>
<clus scale="   23.074">  2  5  1 -1</clus>
</clustering>
</event>
<event>
 9    1  0.2125956E-005  0.1450752E+03  0.7546771E-02  0.1206887E+00
         21   -1    0    0  501  502  0.00000000000E+00  0.00000000000E+00  0.43932895113E+03  0.43932895113E+03  0.00000000000E+00 0. -1.
          1   -1    0    0  502    0 -0.00000000000E+00 -0.00000000000E+00 -0.21437523682E+03  0.21437523682E+03  0.00000000000E+00 0. -1.
         23    2    1    2    0    0  0.86906299984E+02  0.84932513919E+02 -0.16175143019E+03  0.22161895200E+03  0.90472083102E+02 0.  0.
         23    2    1    2    0    0 -0.60048899401E+02 -0.23259704804E+02  0.15771982403E+03  0.19342411145E+03  0.91599453122E+02 0.  0.
        -13    1    3    3    0    0  0.22415926778E+02 -0.83941809281E+01  0.14196139450E+00  0.23936503500E+02  0.00000000000E+00 0.  1.
         13    1    3    3    0    0  0.64490373206E+02  0.93326694847E+02 -0.16189339158E+03  0.19768244850E+03  0.00000000000E+00 0. -1.
        -13    1    4    4    0    0 -0.40111702228E+02 -0.50129516905E+02  0.52257151257E+02  0.82781199425E+02  0.00000000000E+00 0.  1.
         13    1    4    4    0    0 -0.19937197172E+02  0.26869812101E+02  0.10546267277E+03  0.11064291203E+03  0.00000000000E+00 0. -1.
          1    1    1    2  501    0 -0.26857400584E+02 -0.61672809115E+02  0.22898532048E+03  0.23866112449E+03  0.00000000000E+00 0. -1.
<scales pt_clust_5="13000.00000" pt_clust_6="13000.00000" pt_clust_7="13000.00000" pt_clust_8="13000.00000" pt_clust_9="67.26705"></scales>
<clustering>
<clus scale="   67.267">  1  9  2 -1</clus>
<clus scale="   90.472">  5  6 -1 -1</clus>
<clus scale="   91.599">  7  8 -1 -1</clus>
<clus scale="  144.366">  2  5  1 -1</clus>
<clus scale="   67.267">  1  5  2 -1</clus>
</clustering>
</event>
<event>
 9    1  0.1315259E-005  0.1573782E+03  0.7546771E-02  0.1204024E+00
         21   -1    0    0  501  502  0.00000000000E+00  0.00000000000E+00  0.14780800685E+03  0.14780800685E+03  0.00000000000E+00 0.  1.
         -1   -1    0    0    0  501 -0.00000000000E+00 -0.00000000000E+00 -0.32239162636E+03  0.32239162636E+03  0.00000000000E+00 0.  1.
         23    2    1    2    0    0  0.78606648546E+02  0.50948594695E+01 -0.92544763307E+01  0.12062626875E+03  0.90885029523E+02 0.  0.
         23    2    1    2    0    0 -0.78410872522E+02  0.13065819899E+03 -0.10920646976E+03  0.20267651057E+03  0.77018731527E+02 0.  0.
        -11    1    3    3    0    0  0.92379218179E+02  0.20856569793E+02  0.57404808957E+01  0.94878182823E+02  0.00000000000E+00 0.  1.
         11    1    3    3    0    0 -0.13772569633E+02 -0.15761710323E+02 -0.14994957226E+02  0.25748085926E+02  0.00000000000E+00 0. -1.
        -13    1    4    4    0    0 -0.41370326635E+01  0.47543735250E+02 -0.16078548392E+01  0.47750465945E+02  0.00000000000E+00 0. -1.
         13    1    4    4    0    0 -0.74273839859E+02  0.83114463742E+02 -0.10759861492E+03  0.15492604462E+03  0.00000000000E+00 0.  1.
         -1    1    1    2    0  502 -0.19577602366E+00 -0.13575305846E+03 -0.56122673418E+02  0.14689685389E+03  0.00000000000E+00 0.  1.
<scales pt_clust_5="13000.00000" pt_clust_6="13000.00000" pt_clust_7="13000.00000" pt_clust_8="13000.00000" pt_clust_9="137.24439"></scales>
<clustering>
<clus scale="   77.019">  7  8 -1 -1</clus>
<clus scale="   90.885">  5  6 -1 -1</clus>
<clus scale="  120.271">  2  5  1 -1</clus>
<clus scale="  137.244">  1  9  2 -1</clus>
<clus scale="  137.244">  1  5  2 -1</clus>
</clustering>
</event>
<event>
 9    1  0.1315259E-005  0.1825844E+03  0.7546771E-02  0.1170300E+00
         21   -1    0    0  501  502  0.00000000000E+00  0.00000000000E+00  0.24696200219E+03  0.24696200219E+03  0.00000000000E+00 0.  1.
          1   -1    0    0  502    0 -0.00000000000E+00 -0.00000000000E+00 -0.32135283413E+03  0.32135283413E+03  0.00000000000E+00 0. -1.
         23    2    1    2    0    0 -0.20356756832E+00  0.13034170391E+03 -0.23411433598E+03  0.29541764752E+03  0.12439076709E+03 0.  0.
         23    2    1    2    0    0 -0.31522460280E+02 -0.15048952994E+03  0.11057567040E+03  0.21102647450E+03  0.93082919658E+02 0.  0.
        -11    1    3    3    0    0 -0.25477315711E+02  0.67775648209E+02 -0.26483891376E+02  0.77097526604E+02  0.00000000000E+00 0.  1.
         11    1    3    3    0    0  0.25273748143E+02  0.62566055705E+02 -0.20763044460E+03  0.21832012092E+03  0.00000000000E+00 0. -1.
        -13    1    4    4    0    0 -0.41769626314E+02 -0.18227637718E+02  0.16806160755E+02  0.48573609075E+02  0.00000000000E+00 0. -1.
         13    1    4    4    0    0  0.10247166034E+02 -0.13226189222E+03  0.93769509647E+02  0.16245286543E+03  0.00000000000E+00 0.  1.
          1    1    1    2  501    0  0.31726027849E+02  0.20147826027E+02  0.49147833632E+02  0.61870714295E+02  0.00000000000E+00 0. -1.
<scales pt_clust_5="13000.00000" pt_clust_6="13000.00000" pt_clust_7="13000.00000" pt_clust_8="13000.00000" pt_clust_9="37.58292"></scales>
<clustering>
<clus scale="   37.583">  1  9  2 -1</clus>
<clus scale="   93.083">  7  8 -1 -1</clus>
<clus scale="  124.391">  5  6 -1 -1</clus>
<clus scale="  162.876">  1  7  2 -1</clus>
<clus scale="   37.583">  1  5  2 -1</clus>
</clustering>
</event>
<event>
 9    1  0.1315259E-005  0.1211297E+03  0.7546771E-02  0.1242597E+00
         21   -1    0    0  501  502  0.00000000000E+00  0.00000000000E+00  0.44831359310E+03  0.44831359310E+03  0.00000000000E+00 0. -1.
         -4   -1    0    0    0  501 -0.00000000000E+00 -0.00000000000E+00 -0.19875135533E+03  0.19875135533E+03  0.00000000000E+00 0.  1.
         23    2    1    2    0    0 -0.60208690174E+02 -0.37404516768E+02 -0.16146137162E+03  0.20192016542E+03  0.98375781727E+02 0.  0.
         23    2    1    2    0    0  0.42826361009E+02  0.59752791839E+02  0.20614892491E+03  0.23832305518E+03  0.94318641118E+02 0.  0.
        -11    1    4    4    0    0  0.29697896904E+02 -0.21277465156E+02  0.50163232619E+02  0.62056792624E+02  0.00000000000E+00 0.  1.
         11    1    4    4    0    0  0.13128464105E+02  0.81030256995E+02  0.15598569229E+03  0.17626626256E+03  0.00000000000E+00 0. -1.
        -13    1    3    3    0    0 -0.30477552206E+02  0.31195099750E+02 -0.81599112986E+02  0.92522595494E+02  0.00000000000E+00 0. -1.
         13    1    3    3    0    0 -0.29731137969E+02 -0.68599616519E+02 -0.79862258630E+02  0.10939756992E+03  0.00000000000E+00 0.  1.
         -4    1    1    2    0  502  0.17382329165E+02 -0.22348275071E+02  0.20487468447E+03  0.20682172783E+03  0.00000000000E+00 0.  1.
<scales pt_clust_5="13000.00000" pt_clust_6="13000.00000" pt_clust_7="13000.00000" pt_clust_8="13000.00000" pt_clust_9="28.31238"></scales>
<clustering>
<clus scale="   28.312">  1  9  2 -1</clus>
<clus scale="   94.319">  5  6 -1 -1</clus>
<clus scale="   98.376">  7  8 -1 -1</clus>
<clus scale="  117.858">  1  5  2 -1</clus>
<clus scale="   28.312">  1  5  2 -1</clus>
</clustering>
</event>
<event>
 9    1  0.1315259E-005  0.1669473E+03  0.7546771E-02  0.1181121E+00
          1   -1    0    0  502    0 -0.00000000000E+00  0.00000000000E+00  0.54340418086E+03  0.54340418086E+03  0.00000000000E+00 0. -1.
         21   -1    0    0  501  502  0.00000000000E+00 -0.00000000000E+00 -0.34490496786E+03  0.34490496786E+03  0.00000000000E+00 0.  1.
         23    2    1    2    0    0 -0.13773066949E+03  0.81268178190E+01  0.48014902748E+03  0.50776645549E+03  0.90817962137E+02 0.  0.
         23    2    1    2    0    0  0.18258182021E+03 -0.24876034627E+02 -0.24844488889E+03  0.32227838968E+03  0.90463028196E+02 0.  0.
        -11    1    4    4    0    0  0.15579000684E+03 -0.14687387857E+02 -0.24844178173E+03  0.29361465307E+03  0.00000000000E+00 0.  1.
         11    1    4    4    0    0  0.26791813370E+02 -0.10188646769E+02 -0.31071652824E-02  0.28663736608E+02  0.00000000000E+00 0. -1.
        -13    1    3    3    0    0 -0.11183894603E+03 -0.30874955254E+02  0.30056065455E+03  0.32217684550E+03  0.00000000000E+00 0. -1.
         13    1    3    3    0    0 -0.25891723464E+02  0.39001773073E+02  0.17958837293E+03  0.18558960999E+03  0.00000000000E+00 0.  1.
          1    1    1    2  501    0 -0.44851150713E+02  0.16749216808E+02 -0.33204925594E+02  0.58264303546E+02  0.00000000000E+00 0. -1.
<scales pt_clust_5="13000.00000" pt_clust_6="13000.00000" pt_clust_7="13000.00000" pt_clust_8="13000.00000" pt_clust_9="47.87653"></scales>
<clustering>
<clus scale="   47.877">  2  9  1 -1</clus>
<clus scale="   90.463">  5  6 -1 -1</clus>
<clus scale="   90.818">  7  8 -1 -1</clus>
<clus scale="  166.754">  2  5  1 -1</clus>
<clus scale="   47.877">  2  5  1 -1</clus>
</clustering>
</event>
<event>
 9    1  0.1315259E-005  0.9720442E+02  0.7546771E-02  0.1286314E+00
          1   -1    0    0  502    0 -0.00000000000E+00  0.00000000000E+00  0.52902358658E+03  0.52902358658E+03  0.00000000000E+00 0. -1.
         21   -1    0    0  501  502  0.00000000000E+00 -0.00000000000E+00 -0.14857873440E+03  0.14857873440E+03  0.00000000000E+00 0. -1.
         23    2    1    2    0    0 -0.41752122318E+02 -0.11967870791E+02  0.44290921126E+03  0.45391171382E+03  0.89335350648E+02 0.  0.
         23    2    1    2    0    0  0.10778427068E+02 -0.54617131958E+02  0.26331988880E+02  0.10846160127E+03  0.89282359504E+02 0.  0.
        -13    1    3    3    0    0 -0.34395662715E+02 -0.48961578064E+02  0.31158388093E+03  0.31727718575E+03  0.00000000000E+00 0. -1.
         13    1    3    3    0    0 -0.73564596031E+01  0.36993707273E+02  0.13132533033E+03  0.13663452807E+03  0.00000000000E+00 0.  1.
        -13    1    4    4    0    0  0.30933016016E+02  0.37709429748E+01 -0.14547721399E+02  0.34390517423E+02  0.00000000000E+00 0.  1.
         13    1    4    4    0    0 -0.20154588948E+02 -0.58388074933E+02  0.40879710278E+02  0.74071083848E+02  0.00000000000E+00 0. -1.
          1    1    1    2  501    0  0.30973695250E+02  0.66585002749E+02 -0.88796347953E+02  0.11522900589E+03  0.00000000000E+00 0. -1.
<scales pt_clust_5="13000.00000" pt_clust_6="13000.00000" pt_clust_7="13000.00000" pt_clust_8="13000.00000" pt_clust_9="73.43659"></scales>
<clustering>
<clus scale="   73.437">  2  9  1 -1</clus>
<clus scale="   89.282">  7  8 -1 -1</clus>
<clus scale="   89.335">  5  6 -1 -1</clus>
<clus scale="   97.156">  2  7  1 -1</clus>
<clus scale="   73.437">  2  5  1 -1</clus>
</clustering>
</event>
<event>
 9    1  0.1315259E-005  0.1079221E+03  0.7546771E-02  0.1264967E+00
         21   -1    0    0  501  502  0.00000000000E+00  0.00000000000E+00  0.97662532061E+02  0.97662532061E+02  0.00000000000E+00 0.  1.
         -4   -1    0    0    0  501 -0.00000000000E+00 -0.00000000000E+00 -0.49467895202E+03  0.49467895202E+03  0.00000000000E+00 0.  1.
         23    2    1    2    0    0 -0.56164440095E+02 -0.12649239998E+02 -0.36233659868E+03  0.37785570071E+03  0.90402832967E+02 0.  0.
         23    2    1    2    0    0  0.57581667701E+02 -0.85182798966E+01 -0.98896457430E+02  0.14685554761E+03  0.91639691307E+02 0.  0.
        -13    1    4    4    0    0 -0.14621437194E+02 -0.18101576643E+02 -0.59847662438E+02  0.64212118808E+02  0.00000000000E+00 0.  1.
         13    1    4    4    0    0  0.72203104896E+02  0.95832967468E+01 -0.39048794993E+02  0.82643428798E+02  0.00000000000E+00 0. -1.
        -13    1    3    3    0    0 -0.13445368199E+02 -0.43694177939E+02 -0.95938810643E+02  0.10627424194E+03  0.00000000000E+00 0. -1.
         13    1    3    3    0    0 -0.42719071896E+02  0.31044937941E+02 -0.26639778804E+03  0.27158145877E+03  0.00000000000E+00 0.  1.
         -4    1    1    2    0  502 -0.14172276061E+01  0.21167519894E+02  0.64216636148E+02  0.67630235774E+02  0.00000000000E+00 0.  1.
<scales pt_clust_5="13000.00000" pt_clust_6="13000.00000" pt_clust_7="13000.00000" pt_clust_8="13000.00000" pt_clust_9="21.21491"></scales>
<clustering>
<clus scale="   21.215">  1  9  2 -1</clus>
<clus scale="   90.403">  7  8 -1 -1</clus>
<clus scale="   91.640">  5  6 -1 -1</clus>
<clus scale="  106.874">  2  7  1 -1</clus>
<clus scale="   21.215">  1  5  2 -1</clus>
</clustering>
</event>
<event>
 9    1  0.1315259E-005  0.1269898E+03  0.7546771E-02  0.1234214E+00
          3   -1    0    0  502    0 -0.00000000000E+00  0.00000000000E+00  0.45431262767E+03  0.45431262767E+03  0.00000000000E+00 0. -1.
         21   -1    0    0  501  502  0.00000000000E+00 -0.00000000000E+00 -0.51971636202E+02  0.51971636202E+02  0.00000000000E+00 0. -1.
         23    2    1    2    0    0 -0.89347062926E+02 -0.49447428467E+02  0.26709684882E+03  0.30172178310E+03  0.96267138287E+02 0.  0.
         23    2    1    2    0    0  0.56103184476E+02  0.16784578603E+02  0.10225595171E+03  0.14746398729E+03  0.88656970974E+02 0.  0.
        -11    1    3    3    0    0 -0.39875655429E+02  0.22027778847E+02  0.14394716668E+03  0.15098370022E+03  0.00000000000E+00 0. -1.
         11    1    3    3    0    0 -0.49471407497E+02 -0.71475207314E+02  0.12314968214E+03  0.15073808288E+03  0.00000000000E+00 0.  1.
        -11    1    4    4    0    0  0.48287332207E+02 -0.27943823871E+02  0.33522339361E+02  0.65086642104E+02  0.00000000000E+00 0. -1.
         11    1    4    4    0    0  0.78158522687E+01  0.44728402474E+02  0.68733612346E+02  0.82377345190E+02  0.00000000000E+00 0.  1.
          3    1    1    2  501    0  0.33243878450E+02  0.32662849864E+02  0.32988190947E+02  0.57098493479E+02  0.00000000000E+00 0. -1.
<scales pt_clust_5="13000.00000" pt_clust_6="13000.00000" pt_clust_7="13000.00000" pt_clust_8="13000.00000" pt_clust_9="46.60491"></scales>
<clustering>
<clus scale="   46.605">  2  9  1 -1</clus>
<clus scale="   88.657">  7  8 -1 -1</clus>
<clus scale="   96.267">  5  6 -1 -1</clus>
<clus scale="  121.322">  2  7  1 -1</clus>
<clus scale="   46.605">  2  5  1 -1</clus>
</clustering>
</event>
<event>
 9    1  0.1315259E-005  0.9832703E+02  0.7546771E-02  0.1285273E+00
          1   -1    0    0  502    0 -0.00000000000E+00  0.00000000000E+00  0.15763745435E+03  0.15763745435E+03  0.00000000000E+00 0. -1.
         21   -1    0    0  501  502  0.00000000000E+00 -0.00000000000E+00 -0.22748075045E+03  0.22748075045E+03  0.00000000000E+00 0. -1.
         23    2    1    2    0    0  0.14967533952E+02  0.26641705017E+02  0.11779772082E+03  0.15194559166E+03  0.90979955354E+02 0.  0.
         23    2    1    2    0    0  0.68839111425E+01 -0.26845314976E+02 -0.18736397417E+03  0.21131846337E+03  0.93713259337E+02 0.  0.
        -13    1    4    4    0    0 -0.27511921985E+02 -0.49015743791E+02 -0.96754566277E+02  0.11189680552E+03  0.00000000000E+00 0. -1.
         13    1    4    4    0    0  0.34395833128E+02  0.22170428815E+02 -0.90609407889E+02  0.99421657844E+02  0.00000000000E+00 0.  1.
        -13    1    3    3    0    0  0.39475967870E+02  0.42189042420E+02  0.43933984178E+02  0.72584173932E+02  0.00000000000E+00 0. -1.
         13    1    3    3    0    0 -0.24508433918E+02 -0.15547337403E+02  0.73863736642E+02  0.79361417730E+02  0.00000000000E+00 0.  1.
          1    1    1    2  501    0 -0.21851445094E+02  0.20360995899E+00 -0.27704275353E+00  0.21854149775E+02  0.00000000000E+00 0. -1.
<scales pt_clust_5="13000.00000" pt_clust_6="13000.00000" pt_clust_7="13000.00000" pt_clust_8="13000.00000" pt_clust_9="21.85240"></scales>
<clustering>
<clus scale="   21.852">  2  9  1 -1</clus>
<clus scale="   90.980">  7  8 -1 -1</clus>
<clus scale="   93.713">  5  6 -1 -1</clus>
<clus scale="   95.726">  1  7  2 -1</clus>
<clus scale="   21.852">  2  5  1 -1</clus>
</clustering>
</event>
<event>
 9    1  0.1315259E-005  0.1452927E+03  0.7546771E-02  0.1208170E+00
         21   -1    0    0  501  502  0.00000000000E+00  0.00000000000E+00  0.31082152973E+02  0.31082152973E+02  0.00000000000E+00 0.  1.
          2   -1    0    0  502    0 -0.00000000000E+00 -0.00000000000E+00 -0.77760842842E+03  0.77760842842E+03  0.00000000000E+00 0. -1.
         23    2    1    2    0    0 -0.85202103183E+02 -0.62192608364E+02 -0.36301933449E+03  0.38681389420E+03  0.81942861848E+02 0.  0.
         23    2    1    2    0    0  0.93659535694E+02  0.82013129876E+02 -0.33984179143E+03  0.37318349957E+03  0.90968231012E+02 0.  0.
        -11    1    3    3    0    0 -0.52433484194E+02  0.80029691990E+01 -0.10857506936E+03  0.12083817057E+03  0.00000000000E+00 0.  1.
         11    1    3    3    0    0 -0.32768618989E+02 -0.70195577563E+02 -0.25444426513E+03  0.26597572362E+03  0.00000000000E+00 0. -1.
        -11    1    4    4    0    0  0.39658095810E+02 -0.13481020994E+02 -0.12704937120E+03  0.13377610105E+03  0.00000000000E+00 0. -1.
         11    1    4    4    0    0  0.54001439884E+02  0.95494150870E+02 -0.21279242023E+03  0.23940739852E+03  0.00000000000E+00 0.  1.
          2    1    1    2  501    0 -0.84574325116E+01 -0.19820521512E+02 -0.43665149536E+02  0.48693187632E+02  0.00000000000E+00 0. -1.
<scales pt_clust_5="13000.00000" pt_clust_6="13000.00000" pt_clust_7="13000.00000" pt_clust_8="13000.00000" pt_clust_9="21.54951"></scales>
<clustering>
<clus scale="   21.550">  1  9  2 -1</clus>
<clus scale="   81.943">  5  6 -1 -1</clus>
<clus scale="   90.968">  7  8 -1 -1</clus>
<clus scale="  139.819">  2  5  1 -1</clus>
<clus scale="   21.550">  1  5  2 -1</clus>
</clustering>
</event>
<event>
 9    1  0.1315259E-005  0.1714195E+03  0.7546771E-02  0.1193074E+00
         21   -1    0    0  501  502  0.00000000000E+00  0.00000000000E+00  0.40490226027E+03  0.40490226027E+03  0.00000000000E+00 0.  1.
         -3   -1    0    0    0  501 -0.00000000000E+00 -0.00000000000E+00 -0.31260006745E+03  0.31260006745E+03  0.00000000000E+00 0.  1.
         23    2    1    2    0    0 -0.48259702188E+02 -0.58970036296E+02 -0.11725493386E+03  0.16644410442E+03  0.90268800502E+02 0.  0.
         23    2    1    2    0    0 -0.77649918974E+02  0.80839644675E+02 -0.11733151555E+03  0.20007717411E+03  0.11704543132E+03 0.  0.
        -11    1    4    4    0    0  0.20423793518E+02  0.13479389374E+02 -0.66198056387E+02  0.70576256269E+02  0.00000000000E+00 0. -1.
         11    1    4    4    0    0 -0.98073712493E+02  0.67360255301E+02 -0.51133459158E+02  0.12950091784E+03  0.00000000000E+00 0.  1.
        -13    1    3    3    0    0 -0.74827887605E+02 -0.46851080352E+02 -0.95306526428E+02  0.12991370395E+03  0.00000000000E+00 0.  1.
         13    1    3    3    0    0  0.26568185417E+02 -0.12118955945E+02 -0.21948407433E+02  0.36530400469E+02  0.00000000000E+00 0. -1.
         -3    1    1    2    0  502  0.12590962116E+03 -0.21869608378E+02  0.32688864223E+03  0.35098104919E+03  0.00000000000E+00 0.  1.
<scales pt_clust_5="13000.00000" pt_clust_6="13000.00000" pt_clust_7="13000.00000" pt_clust_8="13000.00000" pt_clust_9="125.23985"></scales>
<clustering>
<clus scale="   90.269">  7  8 -1 -1</clus>
<clus scale="  117.045">  5  6 -1 -1</clus>
<clus scale="  118.131">  2  7  1 -1</clus>
<clus scale="  125.240">  1  9  2 -1</clus>
<clus scale="  125.240">  1  5  2 -1</clus>
</clustering>
</event>
<event>
 9    1  0.1315259E-005  0.9576010E+02  0.7546771E-02  0.1301650E+00
          1   -1    0    0  502    0 -0.00000000000E+00  0.00000000000E+00  0.22259718630E+03  0.22259718630E+03  0.00000000000E+00 0. -1.
         21   -1    0    0  501  502  0.00000000000E+00 -0.00000000000E+00 -0.91831721948E+02  0.91831721948E+02  0.00000000000E+00 0. -1.
         23    2    1    2    0    0  0.15265288024E+02  0.15421147352E+02  0.15923342702E+03  0.17669223130E+03  0.73443988973E+02 0.  0.
         23    2    1    2    0    0  0.13164986158E+02 -0.31644729421E+02 -0.96668555674E+01  0.99987945396E+02  0.93431447422E+02 0.  0.
        -11    1    3    3    0    0 -0.29455284744E+02  0.20602040358E+01  0.53297808032E+02  0.60930407688E+02  0.00000000000E+00 0.  1.
         11    1    3    3    0    0  0.44720572768E+02  0.13360943316E+02  0.10593561899E+03  0.11576182361E+03  0.00000000000E+00 0. -1.
        -13    1    4    4    0    0  0.30224032831E+02  0.12206823202E+02  0.25384705230E+02  0.41314427902E+02  0.00000000000E+00 0. -1.
         13    1    4    4    0    0 -0.17059046673E+02 -0.43851552623E+02 -0.35051560797E+02  0.58673517494E+02  0.00000000000E+00 0.  1.
          1    1    1    2  501    0 -0.28430274182E+02  0.16223582069E+02 -0.18801107105E+02  0.37748731550E+02  0.00000000000E+00 0. -1.
<scales pt_clust_5="13000.00000" pt_clust_6="13000.00000" pt_clust_7="13000.00000" pt_clust_8="13000.00000" pt_clust_9="32.73355"></scales>
<clustering>
<clus scale="   32.734">  2  9  1 -1</clus>
<clus scale="   73.444">  5  6 -1 -1</clus>
<clus scale="   76.384">  1  5  2 -1</clus>
<clus scale="   93.431">  7  8 -1 -1</clus>
<clus scale="   32.734">  2  5  1 -1</clus>
</clustering>
</event>
<event>
 9    1  0.1315259E-005  0.1627998E+03  0.7546771E-02  0.1185820E+00
         21   -1    0    0  501  502  0.00000000000E+00  0.00000000000E+00  0.14837325392E+03  0.14837325392E+03  0.00000000000E+00 0. -1.
          2   -1    0    0  502    0 -0.00000000000E+00 -0.00000000000E+00 -0.72895933344E+03  0.72895933344E+03  0.00000000000E+00 0. -1.
         23    2    1    2    0    0  0.13228077357E+03 -0.76998164138E+02 -0.52371385758E+03  0.55261182952E+03  0.87616831532E+02 0.  0.
         23    2    1    2    0    0 -0.11039383106E+03  0.96365607416E+01 -0.15063288194E+03  0.20721465066E+03  0.89263570889E+02 0.  0.
        -13    1    3    3    0    0  0.48275939938E+02 -0.19360840837E+02 -0.67794891618E+02  0.85449141975E+02  0.00000000000E+00 0.  1.
         13    1    3    3    0    0  0.84004833634E+02 -0.57637323302E+02 -0.45591896596E+03  0.46716268754E+03  0.00000000000E+00 0. -1.
        -13    1    4    4    0    0 -0.45606632433E+02  0.35555409877E+02 -0.23964023085E+02  0.62597336172E+02  0.00000000000E+00 0. -1.
         13    1    4    4    0    0 -0.64787198625E+02 -0.25918849136E+02 -0.12666885885E+03  0.14461731448E+03  0.00000000000E+00 0.  1.
          2    1    1    2  501    0 -0.21886942514E+02  0.67361603397E+02  0.93760659987E+02  0.11750610719E+03  0.00000000000E+00 0. -1.
<scales pt_clust_5="13000.00000" pt_clust_6="13000.00000" pt_clust_7="13000.00000" pt_clust_8="13000.00000" pt_clust_9="70.82813"></scales>
<clustering>
<clus scale="   70.828">  1  9  2 -1</clus>
<clus scale="   87.617">  5  6 -1 -1</clus>
<clus scale="   89.264">  7  8 -1 -1</clus>
<clus scale="  161.903">  2  5  1 -1</clus>
<clus scale="   70.828">  1  5  2 -1</clus>
</clustering>
</event>
<event>
 9    1  0.1315259E-005  0.1220132E+03  0.7546771E-02  0.1241335E+00
         -1   -1    0    0    0  501 -0.00000000000E+00  0.00000000000E+00  0.18010911910E+03  0.18010911910E+03  0.00000000000E+00 0.  1.
         21   -1    0    0  501  502  0.00000000000E+00 -0.00000000000E+00 -0.16976917300E+03  0.16976917300E+03  0.00000000000E+00 0. -1.
         23    2    1    2    0    0 -0.48117949201E+02 -0.53578572547E+02  0.10474900317E+03  0.15596571021E+03  0.90371171416E+02 0.  0.
         23    2    1    2    0    0  0.67288802593E+02  0.63042240681E+02 -0.44788479143E+02  0.13988217944E+03  0.95178302134E+02 0.  0.
        -11    1    3    3    0    0 -0.26023606842E+02 -0.31511253459E+02  0.11583209095E+03  0.12283021005E+03  0.00000000000E+00 0.  1.
         11    1    3    3    0    0 -0.22094342359E+02 -0.22067319088E+02 -0.11083087775E+02  0.33135500157E+02  0.00000000000E+00 0. -1.
        -11    1    4    4    0    0 -0.14124754048E+02  0.47170349676E+02 -0.21497351255E+02  0.53727894770E+02  0.00000000000E+00 0. -1.
         11    1    4    4    0    0  0.81413556641E+02  0.15871891005E+02 -0.23291127888E+02  0.86154284672E+02  0.00000000000E+00 0.  1.
         -1    1    1    2    0  502 -0.19170853392E+02 -0.94636681340E+01 -0.49620577933E+02  0.54030402449E+02  0.00000000000E+00 0.  1.
<scales pt_clust_5="13000.00000" pt_clust_6="13000.00000" pt_clust_7="13000.00000" pt_clust_8="13000.00000" pt_clust_9="21.37949"></scales>
<clustering>
<clus scale="   21.379">  2  9  1 -1</clus>
<clus scale="   90.371">  5  6 -1 -1</clus>
<clus scale="   95.178">  7  8 -1 -1</clus>
<clus scale="  118.302">  1  5  2 -1</clus>
<clus scale="   21.379">  2  5  1 -1</clus>
</clustering>
</event>
<event>
 9    1  0.1315259E-005  0.1814152E+03  0.7546771E-02  0.1167989E+00
          2   -1    0    0  502    0 -0.00000000000E+00  0.00000000000E+00  0.21126614899E+03  0.21126614899E+03  0.00000000000E+00 0. -1.
         21   -1    0    0  501  502  0.00000000000E+00 -0.00000000000E+00 -0.34326086899E+03  0.34326086899E+03  0.00000000000E+00 0. -1.
         23    2    1    2    0    0  0.12446629735E+03 -0.85671799990E+02  0.11574135305E+03  0.21177018722E+03  0.92838757534E+02 0.  0.
         23    2    1    2    0    0 -0.15780759918E+03  0.83161586551E+02 -0.17335183677E+03  0.26120342380E+03  0.79732562088E+02 0.  0.
        -11    1    3    3    0    0 -0.14452736159E+02 -0.16794599968E+02  0.11858672686E+02  0.25131022431E+02  0.00000000000E+00 0.  1.
         11    1    3    3    0    0  0.13891903351E+03 -0.68877200022E+02  0.10388268036E+03  0.18663916479E+03  0.00000000000E+00 0. -1.
        -11    1    4    4    0    0 -0.52254289135E+02 -0.53625797548E+01 -0.76523697076E+02  0.92817801141E+02  0.00000000000E+00 0.  1.
         11    1    4    4    0    0 -0.10555331005E+03  0.88524166306E+02 -0.96828139690E+02  0.16838562266E+03  0.00000000000E+00 0. -1.
          2    1    1    2  501    0  0.33341301828E+02  0.25102134383E+01 -0.74384236285E+02  0.81553406960E+02  0.00000000000E+00 0. -1.
<scales pt_clust_5="13000.00000" pt_clust_6="13000.00000" pt_clust_7="13000.00000" pt_clust_8="13000.00000" pt_clust_9="33.43566"></scales>
<clustering>
<clus scale="   33.436">  2  9  1 -1</clus>
<clus scale="   79.733">  7  8 -1 -1</clus>
<clus scale="   92.839">  5  6 -1 -1</clus>
<clus scale="  175.071">  2  7  1 -1</clus>
<clus scale="   33.436">  2  5  1 -1</clus>
</clustering>
</event>
<event>
 9    1  0.1315259E-005  0.9259745E+02  0.7546771E-02  0.1297480E+00
         21   -1    0    0  501  502  0.00000000000E+00  0.00000000000E+00  0.50683582725E+03  0.50683582725E+03  0.00000000000E+00 0. -1.
          3   -1    0    0  502    0 -0.00000000000E+00 -0.00000000000E+00 -0.35805098296E+02  0.35805098296E+02  0.00000000000E+00 0. -1.
         23    2    1    2    0    0  0.68377804775E+01  0.37405341460E+01  0.12058576952E+03  0.14995663998E+03  0.88799319965E+02 0.  0.
         23    2    1    2    0    0  0.19937337584E+02 -0.48576691938E+02  0.12514774504E+03  0.16141383175E+03  0.87380058155E+02 0.  0.
        -13    1    3    3    0    0 -0.29326550769E+02  0.60291969644E+01  0.10723920863E+03  0.11134022483E+03  0.00000000000E+00 0.  1.
         13    1    3    3    0    0  0.36164331247E+02 -0.22886628184E+01  0.13346560889E+02  0.38616415157E+02  0.00000000000E+00 0. -1.
        -13    1    4    4    0    0  0.47225386679E+02 -0.27763620000E+01  0.45996163762E+02  0.65981758190E+02  0.00000000000E+00 0.  1.
         13    1    4    4    0    0 -0.27288049096E+02 -0.45800329938E+02  0.79151581277E+02  0.95432073563E+02  0.00000000000E+00 0. -1.
          3    1    1    2  501    0 -0.26775118061E+02  0.44836157792E+02  0.22529721439E+03  0.23127045381E+03  0.00000000000E+00 0. -1.
<scales pt_clust_5="13000.00000" pt_clust_6="13000.00000" pt_clust_7="13000.00000" pt_clust_8="13000.00000" pt_clust_9="52.22249"></scales>
<clustering>
<clus scale="   52.222">  1  9  2 -1</clus>
<clus scale="   87.380">  7  8 -1 -1</clus>
<clus scale="   88.799">  5  6 -1 -1</clus>
<clus scale="   91.237">  1  7  2 -1</clus>
<clus scale="   52.222">  1  5  2 -1</clus>
</clustering>
</event>
<event>
 9    1  0.1315259E-005  0.1033970E+03  0.7546771E-02  0.1276050E+00
          1   -1    0    0  502    0 -0.00000000000E+00  0.00000000000E+00  0.35377515040E+02  0.35377515040E+02  0.00000000000E+00 0. -1.
         21   -1    0    0  501  502  0.00000000000E+00 -0.00000000000E+00 -0.40681146653E+03  0.40681146653E+03  0.00000000000E+00 0. -1.
         23    2    1    2    0    0  0.46255650373E+02 -0.25947571441E+02 -0.11877995720E+03  0.15575741965E+03  0.85666994165E+02 0.  0.
         23    2    1    2    0    0 -0.44790970633E+02 -0.26187292511E+00 -0.15704370917E+03  0.18728315355E+03  0.91683986534E+02 0.  0.
        -11    1    3    3    0    0 -0.18504348440E+02 -0.25646832635E+02 -0.62129405312E+02  0.69715378072E+02  0.00000000000E+00 0.  1.
         11    1    3    3    0    0  0.64759998813E+02 -0.30073880564E+00 -0.56650551891E+02  0.86042041582E+02  0.00000000000E+00 0. -1.
        -13    1    4    4    0    0 -0.26748572879E+02  0.44688834979E+02 -0.97385991275E+02  0.11043826067E+03  0.00000000000E+00 0.  1.
         13    1    4    4    0    0 -0.18042397754E+02 -0.44950707904E+02 -0.59657717892E+02  0.76844892881E+02  0.00000000000E+00 0. -1.
          1    1    1    2  501    0 -0.14646797402E+01  0.26209444366E+02 -0.95610285123E+02  0.99148408368E+02  0.00000000000E+00 0. -1.
<scales pt_clust_5="13000.00000" pt_clust_6="13000.00000" pt_clust_7="13000.00000" pt_clust_8="13000.00000" pt_clust_9="26.25034"></scales>
<clustering>
<clus scale="   26.250">  2  9  1 -1</clus>
<clus scale="   85.667">  5  6 -1 -1</clus>
<clus scale="   91.684">  7  8 -1 -1</clus>
<clus scale="   98.101">  1  5  2 -1</clus>
<clus scale="   26.250">  2  5  1 -1</clus>
</clustering>
</event>
<event>
 9    1  0.1315259E-005  0.9289971E+02  0.7546771E-02  0.1296321E+00
         21   -1    0    0  501  502  0.00000000000E+00  0.00000000000E+00  0.64789011471E+02  0.64789011471E+02  0.00000000000E+00 0.  1.
          1   -1    0    0  502    0 -0.00000000000E+00 -0.00000000000E+00 -0.18732319612E+03  0.18732319612E+03  0.00000000000E+00 0. -1.
         23    2    1    2    0    0 -0.14533603393E+02 -0.93836302722E-01 -0.96513482856E+02  0.13418303987E+03  0.92081493168E+02 0.  0.
         23    2    1    2    0    0  0.31190067960E+01 -0.18237411826E+02 -0.19306616005E+02  0.95314866456E+02  0.91486867650E+02 0.  0.
        -13    1    4    4    0    0  0.44357692706E+02 -0.10063804407E+01  0.46382407924E+01  0.44610884115E+02  0.00000000000E+00 0. -1.
         13    1    4    4    0    0 -0.41238685911E+02 -0.17231031385E+02 -0.23944856797E+02  0.50703982341E+02  0.00000000000E+00 0.  1.
        -13    1    3    3    0    0 -0.13459987606E+02 -0.41528639361E+02 -0.76673837362E+02  0.88230813718E+02  0.00000000000E+00 0.  1.
         13    1    3    3    0    0 -0.10736157875E+01  0.41434803059E+02 -0.19839645494E+02  0.45952226156E+02  0.00000000000E+00 0. -1.
          1    1    1    2  501    0  0.11414596597E+02  0.18331248128E+02 -0.67140857850E+01  0.22614301257E+02  0.00000000000E+00 0. -1.
<scales pt_clust_5="13000.00000" pt_clust_6="13000.00000" pt_clust_7="13000.00000" pt_clust_8="13000.00000" pt_clust_9="21.59462"></scales>
<clustering>
<clus scale="   21.595">  1  9  2 -1</clus>
<clus scale="   91.487">  5  6 -1 -1</clus>
<clus scale="   92.081">  7  8 -1 -1</clus>
<clus scale="   92.310">  1  5  2 -1</clus>
<clus scale="   21.595">  1  5  2 -1</clus>
</clustering>
</event>
<event>
 9    1  0.1315259E-005  0.1544096E+03  0.7546771E-02  0.1195174E+00
         21   -1    0    0  501  502  0.00000000000E+00  0.00000000000E+00  0.54388531953E+02  0.54388531953E+02  0.00000000000E+00 0. -1.
         -2   -1    0    0    0  501 -0.00000000000E+00 -0.00000000000E+00 -0.67196926374E+03  0.67196926374E+03  0.00000000000E+00 0.  1.
         23    2    1    2    0    0  0.36110056777E+02  0.11143318515E+03 -0.42650061833E+03  0.45172034162E+03  0.91799774761E+02 0.  0.
         23    2    1    2    0    0 -0.44245590543E+02 -0.13598617318E+03 -0.17605171483E+03  0.24472276043E+03  0.91897288307E+02 0.  0.
        -13    1    4    4    0    0 -0.26140828385E+02 -0.11408983812E+02 -0.84171699321E+02  0.88872846173E+02  0.00000000000E+00 0.  1.
         13    1    4    4    0    0 -0.18104762158E+02 -0.12457718936E+03 -0.91880015511E+02  0.15584991425E+03  0.00000000000E+00 0. -1.
        -13    1    3    3    0    0  0.23372096040E+02 -0.10043826993E+02 -0.97970608157E+02  0.10121943191E+03  0.00000000000E+00 0. -1.
         13    1    3    3    0    0  0.12737960737E+02  0.12147701215E+03 -0.32853001017E+03  0.35050090971E+03  0.00000000000E+00 0.  1.
         -2    1    1    2    0  502  0.81355337664E+01  0.24552988023E+02 -0.15028398623E+02  0.29914693642E+02  0.00000000000E+00 0.  1.
<scales pt_clust_5="13000.00000" pt_clust_6="13000.00000" pt_clust_7="13000.00000" pt_clust_8="13000.00000" pt_clust_9="25.86573"></scales>
<clustering>
<clus scale="   25.866">  1  9  2 -1</clus>
<clus scale="   91.800">  7  8 -1 -1</clus>
<clus scale="   91.897">  5  6 -1 -1</clus>
<clus scale="  154.352">  2  7  1 -1</clus>
<clus scale="   25.866">  1  5  2 -1</clus>
</clustering>
</event>
<event>
 9    1  0.1315259E-005  0.1450773E+03  0.7546771E-02  0.1206977E+00
          2   -1    0    0  502    0 -0.00000000000E+00  0.00000000000E+00  0.78266627387E+03  0.78266627387E+03  0.00000000000E+00 0. -1.
         21   -1    0    0  501  502  0.00000000000E+00 -0.00000000000E+00 -0.56172802177E+02  0.56172802177E+02  0.00000000000E+00 0. -1.
         23    2    1    2    0    0 -0.88460999423E+02 -0.75043084625E+02  0.34910415914E+03  0.37938380135E+03  0.92744497545E+02 0.  0.
         23    2    1    2    0    0  0.26346022254E+02  0.11631820829E+03  0.34853183058E+03  0.37948865361E+03  0.91176547572E+02 0.  0.
        -11    1    4    4    0    0  0.25074734754E+02 -0.12409259062E+01  0.25750467924E+02  0.35963437244E+02  0.00000000000E+00 0. -1.
         11    1    4    4    0    0  0.12712875000E+01  0.11755913420E+03  0.32278136265E+03  0.34352521637E+03  0.00000000000E+00 0.  1.
        -11    1    3    3    0    0 -0.99977947460E+02 -0.34393889170E+02  0.23423710029E+03  0.25699328540E+03  0.00000000000E+00 0. -1.
         11    1    3    3    0    0  0.11516948037E+02 -0.40649195456E+02  0.11486705885E+03  0.12239051594E+03  0.00000000000E+00 0.  1.
          2    1    1    2  501    0  0.62114977168E+02 -0.41275123667E+02  0.28857481975E+02  0.79966621088E+02  0.00000000000E+00 0. -1.
<scales pt_clust_5="13000.00000" pt_clust_6="13000.00000" pt_clust_7="13000.00000" pt_clust_8="13000.00000" pt_clust_9="74.57819"></scales>
<clustering>
<clus scale="   74.578">  2  9  1 -1</clus>
<clus scale="   91.177">  5  6 -1 -1</clus>
<clus scale="   92.744">  7  8 -1 -1</clus>
<clus scale="  144.080">  2  5  1 -1</clus>
<clus scale="   74.578">  2  5  1 -1</clus>
</clustering>
</event>
<event>
 9    1  0.1315259E-005  0.1735081E+03  0.7546771E-02  0.1174521E+00
         21   -1    0    0  501  502  0.00000000000E+00  0.00000000000E+00  0.90800969963E+03  0.90800969963E+03  0.00000000000E+00 0.  1.
          3   -1    0    0  502    0 -0.00000000000E+00 -0.00000000000E+00 -0.69489618553E+02  0.69489618553E+02  0.00000000000E+00 0. -1.
         23    2    1    2    0    0  0.13745322404E+03  0.75804718356E+00  0.10602420281E+03  0.19668968224E+03  0.92475597224E+02 0.  0.
         23    2    1    2    0    0 -0.17362172780E+03  0.53770219945E+02  0.54639363677E+03  0.58353942311E+03  0.94533121746E+02 0.  0.
        -11    1    3    3    0    0  0.47087941490E+02  0.92289386590E+01  0.93466051246E+02  0.10506355352E+03  0.00000000000E+00 0.  1.
         11    1    3    3    0    0  0.90365282552E+02 -0.84708914754E+01  0.12558151563E+02  0.91626128718E+02  0.00000000000E+00 0. -1.
        -13    1    4    4    0    0 -0.16584213370E+03  0.17219398102E+02  0.42548539960E+03  0.45698790603E+03  0.00000000000E+00 0.  1.
         13    1    4    4    0    0 -0.77795941037E+01  0.36550821843E+02  0.12090823716E+03  0.12655151708E+03  0.00000000000E+00 0. -1.
          3    1    1    2  501    0  0.36168503758E+02 -0.54528267129E+02  0.18610224150E+03  0.19727021283E+03  0.00000000000E+00 0. -1.
<scales pt_clust_5="13000.00000" pt_clust_6="13000.00000" pt_clust_7="13000.00000" pt_clust_8="13000.00000" pt_clust_9="65.43312"></scales>
<clustering>
<clus scale="   65.433">  1  9  2 -1</clus>
<clus scale="   92.476">  5  6 -1 -1</clus>
<clus scale="   94.533">  7  8 -1 -1</clus>
<clus scale="  172.396">  2  5  1 -1</clus>
<clus scale="   65.433">  1  5  2 -1</clus>
</clustering>
</event>
<event>
 9    1  0.1315259E-005  0.1019505E+03  0.7546771E-02  0.1278143E+00
         21   -1    0    0  501  502  0.00000000000E+00  0.00000000000E+00  0.42240539602E+03  0.42240539602E+03  0.00000000000E+00 0. -1.
          4   -1    0    0  502    0 -0.00000000000E+00 -0.00000000000E+00 -0.98292491165E+02  0.98292491165E+02  0.00000000000E+00 0. -1.
         23    2    1    2    0    0 -0.13332107219E+02  0.25820275620E+02 -0.15157603538E+02  0.98499126109E+02  0.92886453174E+02 0.  0.
         23    2    1    2    0    0 -0.34708366045E+02 -0.44026891872E+02  0.40283384464E+02  0.11882989612E+03  0.96719983808E+02 0.  0.
        -13    1    4    4    0    0 -0.40027193509E+02 -0.59710764565E+00 -0.19674123000E+02  0.44604975884E+02  0.00000000000E+00 0. -1.
         13    1    4    4    0    0  0.53188274643E+01 -0.43429784226E+02  0.59957507464E+02  0.74224920241E+02  0.00000000000E+00 0.  1.
        -13    1    3    3    0    0 -0.47537195192E+01  0.59967938425E+02  0.25898130928E-01  0.60156065022E+02  0.00000000000E+00 0.  1.
         13    1    3    3    0    0 -0.85783876995E+01 -0.34147662805E+02 -0.15183501669E+02  0.38343061087E+02  0.00000000000E+00 0. -1.
          4    1    1    2  501    0  0.48040473264E+02  0.18206616251E+02  0.29898712393E+03  0.30336886495E+03  0.00000000000E+00 0. -1.
<scales pt_clust_5="13000.00000" pt_clust_6="13000.00000" pt_clust_7="13000.00000" pt_clust_8="13000.00000" pt_clust_9="51.37478"></scales>
<clustering>
<clus scale="   51.375">  1  9  2 -1</clus>
<clus scale="   92.886">  7  8 -1 -1</clus>
<clus scale="   96.720">  5  6 -1 -1</clus>
<clus scale="   98.321">  2  7  1 -1</clus>
<clus scale="   51.375">  1  5  2 -1</clus>
</clustering>
</event>
<event>
 9    1  0.1315259E-005  0.1190337E+03  0.7546771E-02  0.1245657E+00
         21   -1    0    0  501  502  0.00000000000E+00  0.00000000000E+00  0.14946547530E+03  0.14946547530E+03  0.00000000000E+00 0. -1.
          1   -1    0    0  502    0 -0.00000000000E+00 -0.00000000000E+00 -0.16531440880E+03  0.16531440880E+03  0.00000000000E+00 0. -1.
         23    2    1    2    0    0 -0.21076631712E+02 -0.75182259622E+02 -0.73180010547E+02  0.13996391007E+03  0.90210784352E+02 0.  0.
         23    2    1    2    0    0  0.42041395181E+02  0.56034576906E+02  0.66548754298E+01  0.11672783005E+03  0.93132949183E+02 0.  0.
        -11    1    3    3    0    0 -0.41864849306E+02 -0.12396777204E+02 -0.33578864441E+01  0.43790650758E+02  0.00000000000E+00 0.  1.
         11    1    3    3    0    0  0.20788217594E+02 -0.62785482417E+02 -0.69822124103E+02  0.96173259316E+02  0.00000000000E+00 0. -1.
        -11    1    4    4    0    0  0.65928661265E+02  0.15525047186E+02  0.13904515910E+02  0.69144421533E+02  0.00000000000E+00 0.  1.
         11    1    4    4    0    0 -0.23887266085E+02  0.40509529720E+02 -0.72496404805E+01  0.47583408518E+02  0.00000000000E+00 0. -1.
          1    1    1    2  501    0 -0.20964763469E+02  0.19147682715E+02  0.50676201616E+02  0.58088143979E+02  0.00000000000E+00 0. -1.
<scales pt_clust_5="13000.00000" pt_clust_6="13000.00000" pt_clust_7="13000.00000" pt_clust_8="13000.00000" pt_clust_9="28.39287"></scales>
<clustering>
<clus scale="   28.393">  1  9  2 -1</clus>
<clus scale="   90.211">  5  6 -1 -1</clus>
<clus scale="   93.133">  7  8 -1 -1</clus>
<clus scale="  116.762">  2  5  1 -1</clus>
<clus scale="   28.393">  1  5  2 -1</clus>
</clustering>
</event>
<event>
 9    1  0.1315259E-005  0.1397951E+03  0.7546771E-02  0.1215241E+00
         21   -1    0    0  501  502  0.00000000000E+00  0.00000000000E+00  0.37189635313E+03  0.37189635313E+03  0.00000000000E+00 0.  1.
          1   -1    0    0  502    0 -0.00000000000E+00 -0.00000000000E+00 -0.70236716974E+02  0.70236716974E+02  0.00000000000E+00 0. -1.
         23    2    1    2    0    0 -0.10753068855E+03  0.11230951745E+01  0.80137627387E+02  0.16638371073E+03  0.98475324577E+02 0.  0.
         23    2    1    2    0    0  0.86930071253E+02  0.21485968557E+02  0.14573842821E+03  0.19402600728E+03  0.91585576979E+02 0.  0.
        -11    1    4    4    0    0  0.14015294191E+02  0.45714915178E+02  0.78546594518E+02  0.91955692871E+02  0.00000000000E+00 0.  1.
         11    1    4    4    0    0  0.72914777062E+02 -0.24228946622E+02  0.67191833693E+02  0.10207031441E+03  0.00000000000E+00 0. -1.
        -13    1    3    3    0    0 -0.19325042337E+02 -0.13099963584E+02  0.73127728042E+02  0.76764125188E+02  0.00000000000E+00 0.  1.
         13    1    3    3    0    0 -0.88205646210E+02  0.14223058758E+02  0.70098993447E+01  0.89619585541E+02  0.00000000000E+00 0. -1.
          1    1    1    2  501    0  0.20600617294E+02 -0.22609063731E+02  0.75783580559E+02  0.81723352097E+02  0.00000000000E+00 0. -1.
<scales pt_clust_5="13000.00000" pt_clust_6="13000.00000" pt_clust_7="13000.00000" pt_clust_8="13000.00000" pt_clust_9="30.58685"></scales>
<clustering>
<clus scale="   30.587">  1  9  2 -1</clus>
<clus scale="   91.586">  5  6 -1 -1</clus>
<clus scale="   98.475">  7  8 -1 -1</clus>
<clus scale="  135.030">  1  5  2 -1</clus>
<clus scale="   30.587">  1  5  2 -1</clus>
</clustering>
</event>
<event>
 9    1  0.1315259E-005  0.1122897E+03  0.7546771E-02  0.1256601E+00
         21   -1    0    0  501  502  0.00000000000E+00  0.00000000000E+00  0.10639654129E+03  0.10639654129E+03  0.00000000000E+00 0. -1.
         -2   -1    0    0    0  501 -0.00000000000E+00 -0.00000000000E+00 -0.33899343501E+03  0.33899343501E+03  0.00000000000E+00 0.  1.
         23    2    1    2    0    0  0.45400084608E+02 -0.44669243471E+02 -0.26588770210E+03  0.28830330775E+03  0.91465939787E+02 0.  0.
         23    2    1    2    0    0 -0.35077093702E+02  0.67595918086E+02  0.42170531345E+01  0.11864866920E+03  0.90885161173E+02 0.  0.
        -13    1    3    3    0    0  0.22376840684E+02 -0.69196824029E+02 -0.21776859715E+03  0.22959112648E+03  0.00000000000E+00 0.  1.
         13    1    3    3    0    0  0.23023243925E+02  0.24527580558E+02 -0.48119104944E+02  0.58712181270E+02  0.00000000000E+00 0. -1.
        -13    1    4    4    0    0  0.10221078011E+02  0.34897971082E+02 -0.34937045738E+02  0.50427532026E+02  0.00000000000E+00 0.  1.
         13    1    4    4    0    0 -0.45298171714E+02  0.32697947004E+02  0.39154098872E+02  0.68221137175E+02  0.00000000000E+00 0. -1.
         -2    1    1    2    0  502 -0.10322990906E+02 -0.22926674615E+02  0.29073755241E+02  0.38437999349E+02  0.00000000000E+00 0.  1.
<scales pt_clust_5="13000.00000" pt_clust_6="13000.00000" pt_clust_7="13000.00000" pt_clust_8="13000.00000" pt_clust_9="25.14352"></scales>
<clustering>
<clus scale="   25.144">  1  9  2 -1</clus>
<clus scale="   90.885">  7  8 -1 -1</clus>
<clus scale="   91.466">  5  6 -1 -1</clus>
<clus scale="  111.817">  1  7  2 -1</clus>
<clus scale="   25.144">  1  5  2 -1</clus>
</clustering>
</event>
<event>
 9    1  0.1315259E-005  0.1032608E+03  0.7546771E-02  0.1274734E+00
         21   -1    0    0  501  502  0.00000000000E+00  0.00000000000E+00  0.60439448794E+02  0.60439448794E+02  0.00000000000E+00 0.  1.
          1   -1    0    0  502    0 -0.00000000000E+00 -0.00000000000E+00 -0.31107700082E+03  0.31107700082E+03  0.00000000000E+00 0. -1.
         23    2    1    2    0    0 -0.45101838933E+02 -0.39016616481E+02 -0.18001478429E+03  0.20996637423E+03  0.90133697955E+02 0.  0.
         23    2    1    2    0    0  0.67107206997E+00  0.28241517985E+02 -0.62049850161E+02  0.11503458649E+03  0.92653863962E+02 0.  0.
        -13    1    4    4    0    0  0.11470785339E+02 -0.31667238441E+02 -0.10539735959E+02  0.35291343710E+02  0.00000000000E+00 0.  1.
         13    1    4    4    0    0 -0.10799713269E+02  0.59908756426E+02 -0.51510114202E+02  0.79743242775E+02  0.00000000000E+00 0. -1.
        -13    1    3    3    0    0  0.20222325212E+02 -0.31296142429E+02 -0.36811578965E+02  0.52378271390E+02  0.00000000000E+00 0.  1.
         13    1    3    3    0    0 -0.65324164146E+02 -0.77204740520E+01 -0.14320320533E+03  0.15758810284E+03  0.00000000000E+00 0. -1.
          1    1    1    2  501    0  0.44430766864E+02  0.10775098495E+02 -0.85729175724E+01  0.46515488897E+02  0.00000000000E+00 0. -1.
<scales pt_clust_5="13000.00000" pt_clust_6="13000.00000" pt_clust_7="13000.00000" pt_clust_8="13000.00000" pt_clust_9="45.71866"></scales>
<clustering>
<clus scale="   45.719">  1  9  2 -1</clus>
<clus scale="   90.134">  7  8 -1 -1</clus>
<clus scale="   92.654">  5  6 -1 -1</clus>
<clus scale="  101.006">  2  7  1 -1</clus>
<clus scale="   45.719">  1  5  2 -1</clus>
</clustering>
</event>
<event>
 9    1  0.1315259E-005  0.1200546E+03  0.7546771E-02  0.1249611E+00
         -1   -1    0    0    0  501 -0.00000000000E+00  0.00000000000E+00  0.33588187347E+03  0.33588187347E+03  0.00000000000E+00 0.  1.
         21   -1    0    0  501  502  0.00000000000E+00 -0.00000000000E+00 -0.70779246796E+02  0.70779246796E+02  0.00000000000E+00 0. -1.
         23    2    1    2    0    0  0.36859250387E+02  0.77648377836E+02  0.17706886367E+03  0.22413387885E+03  0.10721351710E+03 0.  0.
         23    2    1    2    0    0 -0.26051987890E+01 -0.21371753367E+02  0.62746707912E+02  0.11195930487E+03  0.90189787068E+02 0.  0.
        -11    1    4    4    0    0  0.18436945497E+02 -0.27422035590E+02  0.78377034925E+02  0.85057913205E+02  0.00000000000E+00 0.  1.
         11    1    4    4    0    0 -0.21042144286E+02  0.60502822238E+01 -0.15630327013E+02  0.26901391668E+02  0.00000000000E+00 0. -1.
        -11    1    3    3    0    0  0.41995570570E+02 -0.13143982488E+02  0.78728682519E+02  0.90192004493E+02  0.00000000000E+00 0.  1.
         11    1    3    3    0    0 -0.51363201838E+01  0.90792360324E+02  0.98340181149E+02  0.13394187436E+03  0.00000000000E+00 0. -1.
         -1    1    1    2    0  502 -0.34254051598E+02 -0.56276624470E+02  0.25287055097E+02  0.70567936544E+02  0.00000000000E+00 0.  1.
<scales pt_clust_5="13000.00000" pt_clust_6="13000.00000" pt_clust_7="13000.00000" pt_clust_8="13000.00000" pt_clust_9="65.88170"></scales>
<clustering>
<clus scale="   65.882">  2  9  1 -1</clus>
<clus scale="   90.190">  5  6 -1 -1</clus>
<clus scale="  105.131">  2  5  1 -1</clus>
<clus scale="  107.214">  7  8 -1 -1</clus>
<clus scale="   65.882">  2  5  1 -1</clus>
</clustering>
</event>
<event>
 9    1  0.1315259E-005  0.1144747E+03  0.7546771E-02  0.1253411E+00
         21   -1    0    0  501  502  0.00000000000E+00  0.00000000000E+00  0.27738372091E+03  0.27738372091E+03  0.00000000000E+00 0.  1.
         -1   -1    0    0    0  501 -0.00000000000E+00 -0.00000000000E+00 -0.11299745416E+03  0.11299745416E+03  0.00000000000E+00 0.  1.
         23    2    1    2    0    0 -0.71855334360E+01  0.73231501693E+02  0.56976005378E+02  0.12925746198E+03  0.89703631803E+02 0.  0.
         23    2    1    2    0    0  0.95256366067E+02 -0.18778063289E+02  0.69173872874E+02  0.15074405047E+03  0.92262414477E+02 0.  0.
        -11    1    4    4    0    0  0.10151157988E+03  0.42110783852E+01  0.31868294678E+02  0.10647967992E+03  0.00000000000E+00 0.  1.
         11    1    4    4    0    0 -0.62552138144E+01 -0.22989141674E+02  0.37305578197E+02  0.44264370540E+02  0.00000000000E+00 0. -1.
        -13    1    3    3    0    0  0.27480785089E+02  0.71326511282E+02  0.21019064969E+02  0.79274623007E+02  0.00000000000E+00 0.  1.
         13    1    3    3    0    0 -0.34666318525E+02  0.19049904110E+01  0.35956940410E+02  0.49982838977E+02  0.00000000000E+00 0. -1.
         -1    1    1    2    0  502 -0.88070832631E+02 -0.54453438405E+02  0.38236388498E+02  0.11037966262E+03  0.00000000000E+00 0.  1.
<scales pt_clust_5="13000.00000" pt_clust_6="13000.00000" pt_clust_7="13000.00000" pt_clust_8="13000.00000" pt_clust_9="103.54545"></scales>
<clustering>
<clus scale="   89.704">  7  8 -1 -1</clus>
<clus scale="   92.262">  5  6 -1 -1</clus>
<clus scale="  103.545">  1  9  2 -1</clus>
<clus scale="  112.423">  2  7  1 -1</clus>
<clus scale="  103.545">  1  5  2 -1</clus>
</clustering>
</event>
<event>
 9    1  0.1315259E-005  0.9473272E+02  0.7546771E-02  0.1302370E+00
          1   -1    0    0  502    0 -0.00000000000E+00  0.00000000000E+00  0.23543909673E+03  0.23543909673E+03  0.00000000000E+00 0. -1.
         21   -1    0    0  501  502  0.00000000000E+00 -0.00000000000E+00 -0.34792748131E+03  0.34792748131E+03  0.00000000000E+00 0. -1.
         23    2    1    2    0    0 -0.16377515024E+02 -0.26225675194E+02  0.21789737046E+03  0.23773809861E+03  0.89911792545E+02 0.  0.
         23    2    1    2    0    0  0.27916465405E+01  0.55468185608E+00 -0.25013086242E+03  0.26027964516E+03  0.71916231748E+02 0.  0.
        -11    1    4    4    0    0 -0.27740792747E+02  0.21047518786E+02 -0.10836518419E+03  0.11382250557E+03  0.00000000000E+00 0. -1.
         11    1    4    4    0    0  0.30532439288E+02 -0.20492836930E+02 -0.14176567823E+03  0.14645713959E+03  0.00000000000E+00 0.  1.
        -13    1    3    3    0    0  0.30446047967E+02  0.11104485666E+02  0.51030498685E+02  0.60451494893E+02  0.00000000000E+00 0.  1.
         13    1    3    3    0    0 -0.46823562991E+02 -0.37330160860E+02  0.16686687177E+03  0.17728660371E+03  0.00000000000E+00 0. -1.
          1    1    1    2  501    0  0.13585868483E+02  0.25670993338E+02 -0.80254892621E+02  0.85348834268E+02  0.00000000000E+00 0. -1.
<scales pt_clust_5="13000.00000" pt_clust_6="13000.00000" pt_clust_7="13000.00000" pt_clust_8="13000.00000" pt_clust_9="29.04438"></scales>
<clustering>
<clus scale="   29.044">  2  9  1 -1</clus>
<clus scale="   71.916">  5  6 -1 -1</clus>
<clus scale="   77.859">  2  5  1 -1</clus>
<clus scale="   89.912">  7  8 -1 -1</clus>
<clus scale="   29.044">  2  5  1 -1</clus>
</clustering>
</event>
<event>
 9    1  0.1315259E-005  0.2485651E+03  0.7546771E-02  0.1151589E+00
         21   -1    0    0  501  502  0.00000000000E+00  0.00000000000E+00  0.15400208561E+04  0.15400208561E+04  0.00000000000E+00 0. -1.
          1   -1    0    0  502    0 -0.00000000000E+00 -0.00000000000E+00 -0.49898607429E+03  0.49898607429E+03  0.00000000000E+00 0. -1.
         23    2    1    2    0    0 -0.64928988154E+02  0.47444763534E+01  0.20297586270E+03  0.22614937545E+03  0.75538438050E+02 0.  0.
         23    2    1    2    0    0  0.29432448121E+03  0.34871997797E+01 -0.42723665920E+03  0.52690928488E+03  0.91995492986E+02 0.  0.
        -13    1    4    4    0    0  0.21078029276E+03  0.42269981462E+02 -0.27618613207E+03  0.34999123231E+03  0.00000000000E+00 0. -1.
         13    1    4    4    0    0  0.83544188454E+02 -0.38782781682E+02 -0.15105052713E+03  0.17691805257E+03  0.00000000000E+00 0.  1.
        -13    1    3    3    0    0 -0.11037173710E+02 -0.25262211016E+02  0.23019066703E+02  0.35914842904E+02  0.00000000000E+00 0.  1.
         13    1    3    3    0    0 -0.53891814444E+02  0.30006687370E+02  0.17995679599E+03  0.19023453255E+03  0.00000000000E+00 0. -1.
          1    1    1    2  501    0 -0.22939549306E+03 -0.82316761331E+01  0.12652955783E+04  0.12859482700E+04  0.00000000000E+00 0. -1.
<scales pt_clust_5="13000.00000" pt_clust_6="13000.00000" pt_clust_7="13000.00000" pt_clust_8="13000.00000" pt_clust_9="230.91432"></scales>
<clustering>
<clus scale="   75.538">  7  8 -1 -1</clus>
<clus scale="   91.995">  5  6 -1 -1</clus>
<clus scale="   99.721">  2  7  1 -1</clus>
<clus scale="  230.914">  1  9  2 -1</clus>
<clus scale="  230.914">  1  5  2 -1</clus>
</clustering>
</event>
<event>
 9    1  0.1315259E-005  0.4662698E+03  0.7546771E-02  0.1061639E+00
         -1   -1    0    0    0  501 -0.00000000000E+00  0.00000000000E+00  0.57202129506E+03  0.57202129506E+03  0.00000000000E+00 0.  1.
         21   -1    0    0  501  502  0.00000000000E+00 -0.00000000000E+00 -0.83904421471E+03  0.83904421471E+03  0.00000000000E+00 0.  1.
         23    2    1    2    0    0 -0.34835383814E+02  0.11709612349E+03  0.15462590136E+03  0.21690620424E+03  0.90631815400E+02 0.  0.
         23    2    1    2    0    0 -0.44746688892E+03 -0.68273357560E+02 -0.52429380630E+03  0.69864428280E+03  0.91279628261E+02 0.  0.
        -11    1    3    3    0    0  0.10133440664E+02  0.78292437556E+02  0.13107093028E+03  0.15300974205E+03  0.00000000000E+00 0.  1.
         11    1    3    3    0    0 -0.44968824479E+02  0.38803685936E+02  0.23554971079E+02  0.63896462185E+02  0.00000000000E+00 0. -1.
        -13    1    4    4    0    0 -0.23850949471E+03 -0.69650426854E+02 -0.33188623930E+03  0.41459189194E+03  0.00000000000E+00 0.  1.
         13    1    4    4    0    0 -0.20895739420E+03  0.13770692939E+01 -0.19240756700E+03  0.28405239086E+03  0.00000000000E+00 0. -1.
         -1    1    1    2    0  502  0.48230227273E+03 -0.48822765932E+02  0.10264498529E+03  0.49551502274E+03  0.00000000000E+00 0.  1.
<scales pt_clust_5="13000.00000" pt_clust_6="13000.00000" pt_clust_7="13000.00000" pt_clust_8="13000.00000" pt_clust_9="457.24803"></scales>
<clustering>
<clus scale="   90.632">  5  6 -1 -1</clus>
<clus scale="   91.280">  7  8 -1 -1</clus>
<clus scale="  152.116">  1  5  2 -1</clus>
<clus scale="  457.248">  2  9  1 -1</clus>
<clus scale="  457.248">  2  5  1 -1</clus>
</clustering>
</event>
<event>
 9    1  0.1315259E-005  0.2136067E+03  0.7546771E-02  0.1139433E+00
         21   -1    0    0  501  502  0.00000000000E+00  0.00000000000E+00  0.43911199635E+03  0.43911199635E+03  0.00000000000E+00 0. -1.
          2   -1    0    0  502    0 -0.00000000000E+00 -0.00000000000E+00 -0.71090491722E+03  0.71090491722E+03  0.00000000000E+00 0. -1.
         23    2    1    2    0    0  0.14976156770E+03  0.14797438680E+03 -0.50491007193E+03  0.55586019424E+03  0.98597304713E+02 0.  0.
         23    2    1    2    0    0 -0.12392344688E+03 -0.90892206559E+02 -0.13310402249E+03  0.22261408147E+03  0.90674883894E+02 0.  0.
        -11    1    3    3    0    0  0.12490277687E+03  0.56149961533E+02 -0.31392189238E+03  0.34249157123E+03  0.00000000000E+00 0. -1.
         11    1    3    3    0    0  0.24858790833E+02  0.91824425266E+02 -0.19098817955E+03  0.21336862301E+03  0.00000000000E+00 0.  1.
        -13    1    4    4    0    0 -0.52123421083E+02 -0.84356088275E+02 -0.10713730979E+03  0.14598357375E+03  0.00000000000E+00 0. -1.
         13    1    4    4    0    0 -0.71800025794E+02 -0.65361182849E+01 -0.25966712693E+02  0.76630507726E+02  0.00000000000E+00 0.  1.
          2    1    1    2  501    0 -0.25838120824E+02 -0.57082180240E+02  0.36622117354E+03  0.37154263785E+03  0.00000000000E+00 0. -1.
<scales pt_clust_5="13000.00000" pt_clust_6="13000.00000" pt_clust_7="13000.00000" pt_clust_8="13000.00000" pt_clust_9="62.65767"></scales>
<clustering>
<clus scale="   62.658">  1  9  2 -1</clus>
<clus scale="   90.675">  7  8 -1 -1</clus>
<clus scale="   98.597">  5  6 -1 -1</clus>
<clus scale="  210.067">  1  7  2 -1</clus>
<clus scale="   62.658">  1  5  2 -1</clus>
</clustering>
</event>
<event>
 9    1  0.1315259E-005  0.9923981E+02  0.7546771E-02  0.1284374E+00
         21   -1    0    0  501  502  0.00000000000E+00  0.00000000000E+00  0.19498249322E+03  0.19498249322E+03  0.00000000000E+00 0. -1.
         -3   -1    0    0    0  501 -0.00000000000E+00 -0.00000000000E+00 -0.85636756836E+02  0.85636756836E+02  0.00000000000E+00 0.  1.
         23    2    1    2    0    0  0.65398275427E+01  0.32196444626E+02 -0.22803498873E+02  0.95858629072E+02  0.87117718151E+02 0.  0.
         23    2    1    2    0    0 -0.24740272362E+01 -0.53630828847E+02  0.11674041052E+03  0.15805115751E+03  0.92029660051E+02 0.  0.
        -11    1    4    4    0    0 -0.30178469042E+02 -0.38568436742E+02  0.11665428613E+03  0.12651674505E+03  0.00000000000E+00 0. -1.
         11    1    4    4    0    0  0.27704441806E+02 -0.15062392105E+02  0.86124388867E-01  0.31534412459E+02  0.00000000000E+00 0.  1.
        -11    1    3    3    0    0  0.45012131281E+02  0.96103661292E+01 -0.22531299803E+02  0.51245590741E+02  0.00000000000E+00 0.  1.
         11    1    3    3    0    0 -0.38472303738E+02  0.22586078497E+02 -0.27219906994E+00  0.44613038331E+02  0.00000000000E+00 0. -1.
         -3    1    1    2    0  502 -0.40658003065E+01  0.21434384221E+02  0.15408824738E+02  0.26709463471E+02  0.00000000000E+00 0.  1.
<scales pt_clust_5="13000.00000" pt_clust_6="13000.00000" pt_clust_7="13000.00000" pt_clust_8="13000.00000" pt_clust_9="21.81659"></scales>
<clustering>
<clus scale="   21.817">  1  9  2 -1</clus>
<clus scale="   87.118">  7  8 -1 -1</clus>
<clus scale="   92.030">  5  6 -1 -1</clus>
<clus scale="   94.703">  2  7  1 -1</clus>
<clus scale="   21.817">  1  5  2 -1</clus>
</clustering>
</event>
<event>
 9    1  0.1315259E-005  0.1299417E+03  0.7546771E-02  0.1231038E+00
          1   -1    0    0  502    0 -0.00000000000E+00  0.00000000000E+00  0.87794768385E+03  0.87794768385E+03  0.00000000000E+00 0. -1.
         21   -1    0    0  501  502  0.00000000000E+00 -0.00000000000E+00 -0.86647940241E+02  0.86647940241E+02  0.00000000000E+00 0. -1.
         23    2    1    2    0    0  0.21863167989E+02  0.51279486396E+02  0.56638860147E+03  0.57817271559E+03  0.10188256644E+03 0.  0.
         23    2    1    2    0    0 -0.32597229857E+02 -0.87340624475E+02  0.28226369068E+03  0.31783033901E+03  0.11248275086E+03 0.  0.
        -11    1    4    4    0    0  0.52370489457E+01 -0.10317026427E+03  0.17821548099E+03  0.20599098955E+03  0.00000000000E+00 0. -1.
         11    1    4    4    0    0 -0.37834278803E+02  0.15829639793E+02  0.10404820969E+03  0.11183934946E+03  0.00000000000E+00 0.  1.
        -13    1    3    3    0    0  0.12949988184E+02  0.81190194083E+02  0.46044000400E+03  0.46772272458E+03  0.00000000000E+00 0.  1.
         13    1    3    3    0    0  0.89131798057E+01 -0.29910707687E+02  0.10594859747E+03  0.11044999102E+03  0.00000000000E+00 0. -1.
          1    1    1    2  501    0  0.10734061868E+02  0.36061138079E+02 -0.57352548543E+02  0.68592569482E+02  0.00000000000E+00 0. -1.
<scales pt_clust_5="13000.00000" pt_clust_6="13000.00000" pt_clust_7="13000.00000" pt_clust_8="13000.00000" pt_clust_9="37.62480"></scales>
<clustering>
<clus scale="   37.625">  2  9  1 -1</clus>
<clus scale="  101.883">  7  8 -1 -1</clus>
<clus scale="  112.483">  5  6 -1 -1</clus>
<clus scale="  120.882">  1  7  2 -1</clus>
<clus scale="   37.625">  2  5  1 -1</clus>
</clustering>
</event>
<event>
 9    1  0.1315259E-005  0.1297183E+03  0.7546771E-02  0.1228644E+00
         21   -1    0    0  501  502  0.00000000000E+00  0.00000000000E+00  0.31761396306E+03  0.31761396306E+03  0.00000000000E+00 0.  1.
         -3   -1    0    0    0  501 -0.00000000000E+00 -0.00000000000E+00 -0.12405684443E+03  0.12405684443E+03  0.00000000000E+00 0.  1.
         23    2    1    2    0    0  0.55939486846E+02 -0.50554663890E+02 -0.32461753870E+01  0.11797824799E+03  0.90682573383E+02 0.  0.
         23    2    1    2    0    0 -0.13684379534E+03  0.50120298348E+02  0.15600898888E+03  0.23308422028E+03  0.93547744493E+02 0.  0.
        -11    1    3    3    0    0  0.13028152917E+02 -0.53479607371E+02  0.30843517444E+02  0.63096146802E+02  0.00000000000E+00 0.  1.
         11    1    3    3    0    0  0.42911333929E+02  0.29249434805E+01 -0.34089692831E+02  0.54882101192E+02  0.00000000000E+00 0. -1.
        -13    1    4    4    0    0 -0.19350042769E+02  0.49247997285E+02  0.30133113988E+02  0.60891657477E+02  0.00000000000E+00 0. -1.
         13    1    4    4    0    0 -0.11749375257E+03  0.87230106252E+00  0.12587587489E+03  0.17219256280E+03  0.00000000000E+00 0.  1.
         -3    1    1    2    0  502  0.80904308495E+02  0.43436554229E+00  0.40794305132E+02  0.90608339228E+02  0.00000000000E+00 0.  1.
<scales pt_clust_5="13000.00000" pt_clust_6="13000.00000" pt_clust_7="13000.00000" pt_clust_8="13000.00000" pt_clust_9="80.90547"></scales>
<clustering>
<clus scale="   80.905">  1  9  2 -1</clus>
<clus scale="   90.683">  5  6 -1 -1</clus>
<clus scale="   93.548">  7  8 -1 -1</clus>
<clus scale="  127.668">  2  5  1 -1</clus>
<clus scale="   80.905">  1  5  2 -1</clus>
</clustering>
</event>
<event>
 9    1  0.1315259E-005  0.1148511E+03  0.7546771E-02  0.1251911E+00
          1   -1    0    0  502    0 -0.00000000000E+00  0.00000000000E+00  0.91626595244E+03  0.91626595244E+03  0.00000000000E+00 0. -1.
         21   -1    0    0  501  502  0.00000000000E+00 -0.00000000000E+00 -0.28804968193E+02  0.28804968193E+02  0.00000000000E+00 0. -1.
         23    2    1    2    0    0 -0.41332166212E+02 -0.20663053257E+02  0.31978093233E+03  0.33540577979E+03  0.90010458868E+02 0.  0.
         23    2    1    2    0    0  0.78768770853E+02  0.60041860144E+02  0.52147582531E+03  0.53834179013E+03  0.89807028653E+02 0.  0.
        -11    1    3    3    0    0 -0.56951727122E+02  0.17006846637E+02  0.16641300501E+03  0.17670885742E+03  0.00000000000E+00 0.  1.
         11    1    3    3    0    0  0.15619560910E+02 -0.37669899894E+02  0.15336792731E+03  0.15869692237E+03  0.00000000000E+00 0. -1.
        -13    1    4    4    0    0 -0.42252068538E+01  0.48785572083E+02  0.16206521022E+03  0.16930155575E+03  0.00000000000E+00 0.  1.
         13    1    4    4    0    0  0.82993977707E+02  0.11256288061E+02  0.35941061508E+03  0.36904023438E+03  0.00000000000E+00 0. -1.
          1    1    1    2  501    0 -0.37436604642E+02 -0.39378806886E+02  0.46204226616E+02  0.71323350707E+02  0.00000000000E+00 0. -1.
<scales pt_clust_5="13000.00000" pt_clust_6="13000.00000" pt_clust_7="13000.00000" pt_clust_8="13000.00000" pt_clust_9="54.33406"></scales>
<clustering>
<clus scale="   54.334">  2  9  1 -1</clus>
<clus scale="   89.807">  7  8 -1 -1</clus>
<clus scale="   90.010">  5  6 -1 -1</clus>
<clus scale="  114.692">  2  7  1 -1</clus>
<clus scale="   54.334">  2  5  1 -1</clus>
</clustering>
</event>
<event>
 9    1  0.1315259E-005  0.1540103E+03  0.7546771E-02  0.1196118E+00
         21   -1    0    0  501  502  0.00000000000E+00  0.00000000000E+00  0.15733854202E+03  0.15733854202E+03  0.00000000000E+00 0.  1.
         -2   -1    0    0    0  501 -0.00000000000E+00 -0.00000000000E+00 -0.35488296642E+03  0.35488296642E+03  0.00000000000E+00 0.  1.
         23    2    1    2    0    0  0.83249616765E+02  0.84548692735E+02 -0.24913116594E+03  0.29119560125E+03  0.93003011835E+02 0.  0.
         23    2    1    2    0    0 -0.81812991571E+02 -0.12346038081E+03  0.54943379512E+02  0.18194329751E+03  0.90270467706E+02 0.  0.
        -13    1    4    4    0    0  0.13515326140E+02 -0.47256901170E+02  0.29343581006E+02  0.57244427634E+02  0.00000000000E+00 0. -1.
         13    1    4    4    0    0 -0.95328317710E+02 -0.76203479636E+02  0.25599798506E+02  0.12469886988E+03  0.00000000000E+00 0.  1.
        -13    1    3    3    0    0  0.48867960733E+02  0.92585284331E+02 -0.12984090672E+03  0.16678960854E+03  0.00000000000E+00 0.  1.
         13    1    3    3    0    0  0.34381656032E+02 -0.80365915960E+01 -0.11929025923E+03  0.12440599271E+03  0.00000000000E+00 0. -1.
         -2    1    1    2    0  502 -0.14366251941E+01  0.38911688070E+02 -0.33566379634E+01  0.39082609673E+02  0.00000000000E+00 0.  1.
<scales pt_clust_5="13000.00000" pt_clust_6="13000.00000" pt_clust_7="13000.00000" pt_clust_8="13000.00000" pt_clust_9="38.93820"></scales>
<clustering>
<clus scale="   38.938">  1  9  2 -1</clus>
<clus scale="   90.270">  5  6 -1 -1</clus>
<clus scale="   93.003">  7  8 -1 -1</clus>
<clus scale="  152.376">  1  5  2 -1</clus>
<clus scale="   38.938">  1  5  2 -1</clus>
</clustering>
</event>
<event>
 9    1  0.1315259E-005  0.1316998E+03  0.7546771E-02  0.1225867E+00
         21   -1    0    0  501  502  0.00000000000E+00  0.00000000000E+00  0.12188050226E+03  0.12188050226E+03  0.00000000000E+00 0.  1.
         -3   -1    0    0    0  501 -0.00000000000E+00 -0.00000000000E+00 -0.29565286889E+03  0.29565286889E+03  0.00000000000E+00 0.  1.
         23    2    1    2    0    0 -0.21629719490E+02  0.99980498279E+02 -0.12772678356E+03  0.18776548000E+03  0.92074966409E+02 0.  0.
         23    2    1    2    0    0 -0.63213615331E+02 -0.81512583735E+02 -0.11784990187E+02  0.13642313471E+03  0.88499283727E+02 0.  0.
        -13    1    4    4    0    0  0.14701305198E+02 -0.33715135816E+02 -0.24415727854E+02  0.44147100972E+02  0.00000000000E+00 0. -1.
         13    1    4    4    0    0 -0.77914920529E+02 -0.47797447920E+02  0.12630737667E+02  0.92276033739E+02  0.00000000000E+00 0.  1.
        -13    1    3    3    0    0  0.18016958428E+02  0.68147321664E+02 -0.11575808532E+03  0.13553081774E+03  0.00000000000E+00 0.  1.
         13    1    3    3    0    0 -0.39646677918E+02  0.31833176615E+02 -0.11968698238E+02  0.52234662255E+02  0.00000000000E+00 0. -1.
         -3    1    1    2    0  502  0.84843334821E+02 -0.18467914544E+02 -0.34260592876E+02  0.93344756443E+02  0.00000000000E+00 0.  1.
<scales pt_clust_5="13000.00000" pt_clust_6="13000.00000" pt_clust_7="13000.00000" pt_clust_8="13000.00000" pt_clust_9="86.83004"></scales>
<clustering>
<clus scale="   86.830">  1  9  2 -1</clus>
<clus scale="   88.499">  5  6 -1 -1</clus>
<clus scale="   92.075">  7  8 -1 -1</clus>
<clus scale="  129.225">  1  5  2 -1</clus>
<clus scale="   86.830">  1  5  2 -1</clus>
</clustering>
</event>
<event>
 9    1  0.1315259E-005  0.1003858E+03  0.7546771E-02  0.1280833E+00
         21   -1    0    0  501  502  0.00000000000E+00  0.00000000000E+00  0.49929618044E+03  0.49929618044E+03  0.00000000000E+00 0. -1.
          3   -1    0    0  502    0 -0.00000000000E+00 -0.00000000000E+00 -0.81537156499E+02  0.81537156499E+02  0.00000000000E+00 0. -1.
         23    2    1    2    0    0 -0.15635173964E+02  0.26736949486E+02 -0.16184759131E+02  0.95303719634E+02  0.88665266115E+02 0.  0.
         23    2    1    2    0    0  0.36036483689E+02 -0.80149795575E+02  0.15257160669E+03  0.19840691321E+03  0.91458133340E+02 0.  0.
        -13    1    4    4    0    0  0.10172733848E+01 -0.38790536181E+02  0.13645889107E+03  0.14186884610E+03  0.00000000000E+00 0.  1.
         13    1    4    4    0    0  0.35019210304E+02 -0.41359259393E+02  0.16112715625E+02  0.56538067112E+02  0.00000000000E+00 0. -1.
        -13    1    3    3    0    0 -0.30371058733E+02 -0.22916296389E+02 -0.20700308823E+02  0.43313515606E+02  0.00000000000E+00 0.  1.
         13    1    3    3    0    0  0.14735884768E+02  0.49653245876E+02  0.45155496911E+01  0.51990204028E+02  0.00000000000E+00 0. -1.
          3    1    1    2  501    0 -0.20401309725E+02  0.53412846089E+02  0.28137217638E+03  0.28712270409E+03  0.00000000000E+00 0. -1.
<scales pt_clust_5="13000.00000" pt_clust_6="13000.00000" pt_clust_7="13000.00000" pt_clust_8="13000.00000" pt_clust_9="57.17644"></scales>
<clustering>
<clus scale="   57.176">  1  9  2 -1</clus>
<clus scale="   88.665">  7  8 -1 -1</clus>
<clus scale="   91.458">  5  6 -1 -1</clus>
<clus scale="   97.848">  2  7  1 -1</clus>
<clus scale="   57.176">  1  5  2 -1</clus>
</clustering>
</event>
<event>
 9    1  0.1315259E-005  0.9877299E+02  0.7546771E-02  0.1284482E+00
          1   -1    0    0  502    0 -0.00000000000E+00  0.00000000000E+00  0.66063907576E+03  0.66063907576E+03  0.00000000000E+00 0. -1.
         21   -1    0    0  501  502  0.00000000000E+00 -0.00000000000E+00 -0.31021630211E+02  0.31021630211E+02  0.00000000000E+00 0.  1.
         23    2    1    2    0    0  0.24225413065E+02 -0.15540773516E+02  0.48265103865E+03  0.49235038188E+03  0.92889650378E+02 0.  0.
         23    2    1    2    0    0 -0.42154209345E+02  0.26196373324E+02  0.14599275286E+03  0.17843135033E+03  0.89781042264E+02 0.  0.
        -11    1    4    4    0    0  0.22509376947E+02 -0.10361242983E+02  0.18676566267E+02  0.31029687949E+02  0.00000000000E+00 0. -1.
         11    1    4    4    0    0 -0.64663586292E+02  0.36557616307E+02  0.12731618660E+03  0.14740166238E+03  0.00000000000E+00 0.  1.
        -13    1    3    3    0    0  0.54285824367E+02 -0.31510157390E+02  0.28996616472E+03  0.29668201400E+03  0.00000000000E+00 0. -1.
         13    1    3    3    0    0 -0.30060411302E+02  0.15969383874E+02  0.19268487393E+03  0.19566836788E+03  0.00000000000E+00 0.  1.
          1    1    1    2  501    0  0.17928796280E+02 -0.10655599808E+02  0.97365403623E+00  0.20878973765E+02  0.00000000000E+00 0. -1.
<scales pt_clust_5="13000.00000" pt_clust_6="13000.00000" pt_clust_7="13000.00000" pt_clust_8="13000.00000" pt_clust_9="20.85626"></scales>
<clustering>
<clus scale="   20.856">  2  9  1 -1</clus>
<clus scale="   89.781">  5  6 -1 -1</clus>
<clus scale="   92.890">  7  8 -1 -1</clus>
<clus scale="   95.855">  2  5  1 -1</clus>
<clus scale="   20.856">  2  5  1 -1</clus>
</clustering>
</event>
<event>
 9    1  0.1315259E-005  0.2133611E+03  0.7546771E-02  0.1138974E+00
          2   -1    0    0  502    0 -0.00000000000E+00  0.00000000000E+00  0.13475098203E+04  0.13475098203E+04  0.00000000000E+00 0. -1.
         21   -1    0    0  501  502  0.00000000000E+00 -0.00000000000E+00 -0.69980280704E+02  0.69980280704E+02  0.00000000000E+00 0. -1.
         23    2    1    2    0    0 -0.11214853017E+03  0.15139937785E+03  0.65360870618E+03  0.68645208059E+03  0.92266211194E+02 0.  0.
         23    2    1    2    0    0  0.14490577428E+03 -0.13545509980E+03  0.65031044512E+03  0.68605281570E+03  0.91755236498E+02 0.  0.
        -11    1    3    3    0    0 -0.80257275194E+02  0.15602485603E+03  0.51221015754E+03  0.54142795588E+03  0.00000000000E+00 0. -1.
         11    1    3    3    0    0 -0.31891254981E+02 -0.46254781798E+01  0.14139854864E+03  0.14502412472E+03  0.00000000000E+00 0.  1.
        -11    1    4    4    0    0  0.28721833393E+02 -0.63214639644E+02  0.12260172499E+03  0.14089789689E+03  0.00000000000E+00 0.  1.
         11    1    4    4    0    0  0.11618394089E+03 -0.72240460158E+02  0.52770872013E+03  0.54515491881E+03  0.00000000000E+00 0. -1.
          2    1    1    2  501    0 -0.32757244104E+02 -0.15944278049E+02 -0.26389611650E+02  0.44985204754E+02  0.00000000000E+00 0. -1.
<scales pt_clust_5="13000.00000" pt_clust_6="13000.00000" pt_clust_7="13000.00000" pt_clust_8="13000.00000" pt_clust_9="36.43154"></scales>
<clustering>
<clus scale="   36.432">  2  9  1 -1</clus>
<clus scale="   91.755">  7  8 -1 -1</clus>
<clus scale="   92.266">  5  6 -1 -1</clus>
<clus scale="  213.141">  2  7  1 -1</clus>
<clus scale="   36.432">  2  5  1 -1</clus>
</clustering>
</event>
<event>
 9    1  0.1315259E-005  0.1244379E+03  0.7546771E-02  0.1237654E+00
         21   -1    0    0  501  502  0.00000000000E+00  0.00000000000E+00  0.26074838360E+03  0.26074838360E+03  0.00000000000E+00 0. -1.
          2   -1    0    0  502    0 -0.00000000000E+00 -0.00000000000E+00 -0.24835851585E+03  0.24835851585E+03  0.00000000000E+00 0. -1.
         23    2    1    2    0    0 -0.69957633506E+02 -0.53066919182E+02 -0.21095911642E+03  0.24559472551E+03  0.90015843070E+02 0.  0.
         23    2    1    2    0    0  0.38846558344E+02  0.54233093286E+02  0.18751227845E+03  0.21604083062E+03  0.84038695998E+02 0.  0.
        -11    1    4    4    0    0  0.56361686217E+02  0.64155485278E+02  0.13433199735E+03  0.15917804960E+03  0.00000000000E+00 0. -1.
         11    1    4    4    0    0 -0.17515127873E+02 -0.99223919918E+01  0.53180281103E+02  0.56862781021E+02  0.00000000000E+00 0.  1.
        -13    1    3    3    0    0  0.24835090474E+01 -0.52766897453E+02 -0.78470197790E+02  0.94594319202E+02  0.00000000000E+00 0.  1.
         13    1    3    3    0    0 -0.72441142554E+02 -0.30002172862E+00 -0.13248891863E+03  0.15100040631E+03  0.00000000000E+00 0. -1.
          2    1    1    2  501    0  0.31111075163E+02 -0.11661741042E+01  0.35836705713E+02  0.47471343315E+02  0.00000000000E+00 0. -1.
<scales pt_clust_5="13000.00000" pt_clust_6="13000.00000" pt_clust_7="13000.00000" pt_clust_8="13000.00000" pt_clust_9="31.13292"></scales>
<clustering>
<clus scale="   31.133">  1  9  2 -1</clus>
<clus scale="   84.039">  5  6 -1 -1</clus>
<clus scale="   90.016">  7  8 -1 -1</clus>
<clus scale="  120.185">  1  5  2 -1</clus>
<clus scale="   31.133">  1  5  2 -1</clus>
</clustering>
</event>
<event>
 9    1  0.1315259E-005  0.9769755E+02  0.7546771E-02  0.1285401E+00
          1   -1    0    0  502    0 -0.00000000000E+00  0.00000000000E+00  0.42145417280E+03  0.42145417280E+03  0.00000000000E+00 0. -1.
         21   -1    0    0  501  502  0.00000000000E+00 -0.00000000000E+00 -0.47753071683E+02  0.47753071683E+02  0.00000000000E+00 0.  1.
         23    2    1    2    0    0  0.32679439074E+02 -0.13127697234E+02  0.26470296958E+03  0.28247484760E+03  0.92109148568E+02 0.  0.
         23    2    1    2    0    0 -0.24265827863E+01  0.42181308534E+02  0.45852243024E+02  0.11092506954E+03  0.91743074766E+02 0.  0.
        -13    1    4    4    0    0  0.24168719754E+02 -0.77883146018E+01 -0.13624502586E+02  0.28816868838E+02  0.00000000000E+00 0. -1.
         13    1    4    4    0    0 -0.26595302541E+02  0.49969623136E+02  0.59476745610E+02  0.82108200698E+02  0.00000000000E+00 0.  1.
        -13    1    3    3    0    0  0.33382320326E+02  0.30935843014E+02  0.19314917847E+03  0.19843893478E+03  0.00000000000E+00 0.  1.
         13    1    3    3    0    0 -0.70288125207E+00 -0.44063540248E+02  0.71553791107E+02  0.84035912818E+02  0.00000000000E+00 0. -1.
          1    1    1    2  501    0 -0.30252856288E+02 -0.29053611299E+02  0.63145888516E+02  0.75807327348E+02  0.00000000000E+00 0. -1.
<scales pt_clust_5="13000.00000" pt_clust_6="13000.00000" pt_clust_7="13000.00000" pt_clust_8="13000.00000" pt_clust_9="41.94460"></scales>
<clustering>
<clus scale="   41.945">  2  9  1 -1</clus>
<clus scale="   91.743">  5  6 -1 -1</clus>
<clus scale="   92.109">  7  8 -1 -1</clus>
<clus scale="   97.352">  2  5  1 -1</clus>
<clus scale="   41.945">  2  5  1 -1</clus>
</clustering>
</event>
<event>
 9    1  0.1315259E-005  0.9068244E+02  0.7546771E-02  0.1301352E+00
         -4   -1    0    0    0  501 -0.00000000000E+00  0.00000000000E+00  0.11198924060E+03  0.11198924060E+03  0.00000000000E+00 0.  1.
         21   -1    0    0  501  502  0.00000000000E+00 -0.00000000000E+00 -0.21429576298E+03  0.21429576298E+03  0.00000000000E+00 0.  1.
         23    2    1    2    0    0  0.88930332117E+01 -0.26716079278E+01  0.61652240310E+02  0.10972335666E+03  0.90288386480E+02 0.  0.
         23    2    1    2    0    0  0.16388726988E+02  0.89186634164E+01 -0.61927656630E+02  0.11125951159E+03  0.90529063475E+02 0.  0.
        -11    1    3    3    0    0  0.36434866376E+02  0.22657834230E+02  0.57975017969E+02  0.72124750594E+02  0.00000000000E+00 0. -1.
         11    1    3    3    0    0 -0.27541833164E+02 -0.25329442158E+02  0.36772223414E+01  0.37598606067E+02  0.00000000000E+00 0.  1.
        -13    1    4    4    0    0  0.21969726560E+01  0.27598386459E+02 -0.78036380163E+02  0.82802018411E+02  0.00000000000E+00 0. -1.
         13    1    4    4    0    0  0.14191754332E+02 -0.18679723043E+02  0.16108723534E+02  0.28457493176E+02  0.00000000000E+00 0.  1.
         -4    1    1    2    0  502 -0.25281760199E+02 -0.62470554886E+01 -0.10203110606E+03  0.10530213533E+03  0.00000000000E+00 0.  1.
<scales pt_clust_5="13000.00000" pt_clust_6="13000.00000" pt_clust_7="13000.00000" pt_clust_8="13000.00000" pt_clust_9="26.04214"></scales>
<clustering>
<clus scale="   26.042">  2  9  1 -1</clus>
<clus scale="   90.288">  5  6 -1 -1</clus>
<clus scale="   90.442">  1  5  2 -1</clus>
<clus scale="   90.529">  7  8 -1 -1</clus>
<clus scale="   26.042">  2  5  1 -1</clus>
</clustering>
</event>
<event>
 9    1  0.1315259E-005  0.2024997E+03  0.7546771E-02  0.1147784E+00
         21   -1    0    0  501  502  0.00000000000E+00  0.00000000000E+00  0.68754598044E+03  0.68754598044E+03  0.00000000000E+00 0.  1.
         -2   -1    0    0    0  501 -0.00000000000E+00 -0.00000000000E+00 -0.13397229449E+03  0.13397229449E+03  0.00000000000E+00 0.  1.
         23    2    1    2    0    0 -0.18966015389E+03  0.11798313569E+03  0.56239165761E+02  0.24745071178E+03  0.90432387531E+02 0.  0.
         23    2    1    2    0    0  0.12354808972E+03 -0.17297605566E+02  0.19809958452E+03  0.25149985285E+03  0.91898819179E+02 0.  0.
        -11    1    3    3    0    0 -0.27925304970E+02  0.48877372024E+02  0.43442055706E+02  0.71105782871E+02  0.00000000000E+00 0.  1.
         11    1    3    3    0    0 -0.16173484891E+03  0.69105763667E+02  0.12797110055E+02  0.17634492891E+03  0.00000000000E+00 0. -1.
        -13    1    4    4    0    0  0.13157750333E+03  0.32591977907E+01  0.17982863868E+03  0.22284883002E+03  0.00000000000E+00 0.  1.
         13    1    4    4    0    0 -0.80294136140E+01 -0.20556803357E+02  0.18270945839E+02  0.28651022828E+02  0.00000000000E+00 0. -1.
         -2    1    1    2    0  502  0.66112064168E+02 -0.10068553012E+03  0.29923493567E+03  0.32256771031E+03  0.00000000000E+00 0.  1.
<scales pt_clust_5="13000.00000" pt_clust_6="13000.00000" pt_clust_7="13000.00000" pt_clust_8="13000.00000" pt_clust_9="120.45074"></scales>
<clustering>
<clus scale="   90.432">  5  6 -1 -1</clus>
<clus scale="   91.899">  7  8 -1 -1</clus>
<clus scale="  120.451">  1  9  2 -1</clus>
<clus scale="  201.838">  2  5  1 -1</clus>
<clus scale="  120.451">  1  5  2 -1</clus>
</clustering>
</event>
<event>
 9    1  0.1315259E-005  0.2584390E+03  0.7546771E-02  0.1108133E+00
          1   -1    0    0  502    0 -0.00000000000E+00  0.00000000000E+00  0.60600381546E+03  0.60600381546E+03  0.00000000000E+00 0. -1.
         21   -1    0    0  501  502  0.00000000000E+00 -0.00000000000E+00 -0.73191424308E+03  0.73191424308E+03  0.00000000000E+00 0. -1.
         23    2    1    2    0    0  0.24080739766E+03 -0.48068376199E+02  0.48215709984E+03  0.54870910405E+03  0.91145161072E+02 0.  0.
         23    2    1    2    0    0 -0.14070416847E+03  0.23598541243E+03 -0.36636458920E+03  0.46710061966E+03  0.92049979695E+02 0.  0.
        -11    1    4    4    0    0 -0.14894626208E+03  0.18267917922E+03 -0.30315283476E+03  0.38400301136E+03  0.00000000000E+00 0.  1.
         11    1    4    4    0    0  0.82420936104E+01  0.53306233211E+02 -0.63211754440E+02  0.83097608302E+02  0.00000000000E+00 0. -1.
        -13    1    3    3    0    0  0.10283812553E+03 -0.64618945247E+02  0.25445699201E+03  0.28195682104E+03  0.00000000000E+00 0. -1.
         13    1    3    3    0    0  0.13796927213E+03  0.16550569048E+02  0.22770010783E+03  0.26675228301E+03  0.00000000000E+00 0.  1.
          1    1    1    2  501    0 -0.10010322918E+03 -0.18791703623E+03 -0.24170293826E+03  0.32210833482E+03  0.00000000000E+00 0. -1.
<scales pt_clust_5="13000.00000" pt_clust_6="13000.00000" pt_clust_7="13000.00000" pt_clust_8="13000.00000" pt_clust_9="212.91658"></scales>
<clustering>
<clus scale="   91.145">  7  8 -1 -1</clus>
<clus scale="   92.050">  5  6 -1 -1</clus>
<clus scale="  212.917">  2  9  1 -1</clus>
<clus scale="  258.118">  1  7  2 -1</clus>
<clus scale="  212.917">  2  5  1 -1</clus>
</clustering>
</event>
<event>
 9    1  0.1315259E-005  0.9502345E+02  0.7546771E-02  0.1292196E+00
          2   -1    0    0  502    0 -0.00000000000E+00  0.00000000000E+00  0.44760288409E+03  0.44760288409E+03  0.00000000000E+00 0. -1.
         21   -1    0    0  501  502  0.00000000000E+00 -0.00000000000E+00 -0.40467436506E+02  0.40467436506E+02  0.00000000000E+00 0. -1.
         23    2    1    2    0    0 -0.23956781274E+02  0.11525702951E+02  0.28785545923E+03  0.30291208384E+03  0.90488650835E+02 0.  0.
         23    2    1    2    0    0  0.98207889252E+01 -0.45831686245E+02  0.10579147000E+03  0.14567828112E+03  0.88506130337E+02 0.  0.
        -11    1    4    4    0    0  0.18338736788E+01 -0.71095206096E+02  0.61283094027E+02  0.93880290988E+02  0.00000000000E+00 0. -1.
         11    1    4    4    0    0  0.79869152464E+01  0.25263519851E+02  0.44508375970E+02  0.51797990134E+02  0.00000000000E+00 0.  1.
        -13    1    3    3    0    0 -0.54176715714E+02  0.25918367649E+02  0.16546851690E+03  0.17603041894E+03  0.00000000000E+00 0. -1.
         13    1    3    3    0    0  0.30219934441E+02 -0.14392664699E+02  0.12238694233E+03  0.12688166490E+03  0.00000000000E+00 0.  1.
          2    1    1    2  501    0  0.14135992348E+02  0.34305983294E+02  0.13488518355E+02  0.39479955634E+02  0.00000000000E+00 0. -1.
<scales pt_clust_5="13000.00000" pt_clust_6="13000.00000" pt_clust_7="13000.00000" pt_clust_8="13000.00000" pt_clust_9="37.10427"></scales>
<clustering>
<clus scale="   37.104">  2  9  1 -1</clus>
<clus scale="   88.506">  5  6 -1 -1</clus>
<clus scale="   90.489">  7  8 -1 -1</clus>
<clus scale="   93.138">  2  5  1 -1</clus>
<clus scale="   37.104">  2  5  1 -1</clus>
</clustering>
</event>
<event>
 9    1  0.1315259E-005  0.1052020E+03  0.7546771E-02  0.1270851E+00
          2   -1    0    0  502    0 -0.00000000000E+00  0.00000000000E+00  0.26625503516E+03  0.26625503516E+03  0.00000000000E+00 0. -1.
         21   -1    0    0  501  502  0.00000000000E+00 -0.00000000000E+00 -0.67332602308E+02  0.67332602308E+02  0.00000000000E+00 0.  1.
         23    2    1    2    0    0 -0.34129481411E+02 -0.32222384287E+02  0.15389314725E+03  0.18466953832E+03  0.90645651088E+02 0.  0.
         23    2    1    2    0    0  0.38873896432E+02  0.60054399379E+02  0.39896046104E+02  0.12022174598E+03  0.87999221599E+02 0.  0.
        -11    1    3    3    0    0  0.14339995566E+02 -0.27712769781E+02  0.10001451840E+02  0.32766783802E+02  0.00000000000E+00 0.  1.
         11    1    3    3    0    0 -0.48469476977E+02 -0.45096145059E+01  0.14389169541E+03  0.15190275452E+03  0.00000000000E+00 0. -1.
        -13    1    4    4    0    0 -0.17626980749E+01 -0.21165632832E+02  0.54924741020E+00  0.21246006458E+02  0.00000000000E+00 0. -1.
         13    1    4    4    0    0  0.40636594507E+02  0.81220032212E+02  0.39346798694E+02  0.98975739518E+02  0.00000000000E+00 0.  1.
          2    1    1    2  501    0 -0.47444150215E+01 -0.27832015092E+02  0.51332395008E+01  0.28696353179E+02  0.00000000000E+00 0. -1.
<scales pt_clust_5="13000.00000" pt_clust_6="13000.00000" pt_clust_7="13000.00000" pt_clust_8="13000.00000" pt_clust_9="28.23350"></scales>
<clustering>
<clus scale="   28.234">  2  9  1 -1</clus>
<clus scale="   87.999">  7  8 -1 -1</clus>
<clus scale="   90.646">  5  6 -1 -1</clus>
<clus scale="  102.931">  2  7  1 -1</clus>
<clus scale="   28.234">  2  5  1 -1</clus>
</clustering>
</event>
<event>
 9    1  0.1315259E-005  0.1170346E+03  0.7546771E-02  0.1255514E+00
          1   -1    0    0  502    0 -0.00000000000E+00  0.00000000000E+00  0.78292780105E+02  0.78292780105E+02  0.00000000000E+00 0. -1.
         21   -1    0    0  501  502  0.00000000000E+00 -0.00000000000E+00 -0.27902892262E+03  0.27902892262E+03  0.00000000000E+00 0.  1.
         23    2    1    2    0    0  0.38107579506E+02  0.25333529067E+02 -0.24458600302E+02  0.11730083058E+03  0.10520117117E+03 0.  0.
         23    2    1    2    0    0 -0.68504227210E+02 -0.12902508580E+02 -0.17462805709E+03  0.20713915590E+03  0.86904359572E+02 0.  0.
        -13    1    4    4    0    0 -0.68322113270E+02  0.20277485424E+02 -0.14916043639E+03  0.16531159475E+03  0.00000000000E+00 0.  1.
         13    1    4    4    0    0 -0.18211394016E+00 -0.33179994005E+02 -0.25467620705E+02  0.41827561153E+02  0.00000000000E+00 0. -1.
        -13    1    3    3    0    0  0.54156666322E+02 -0.78956054605E+01  0.21114345575E+02  0.58660895678E+02  0.00000000000E+00 0. -1.
         13    1    3    3    0    0 -0.16049086816E+02  0.33229134527E+02 -0.45572945877E+02  0.58639934899E+02  0.00000000000E+00 0.  1.
          1    1    1    2  501    0  0.30396647704E+02 -0.12431020487E+02 -0.16494851238E+01  0.32881716244E+02  0.00000000000E+00 0. -1.
<scales pt_clust_5="13000.00000" pt_clust_6="13000.00000" pt_clust_7="13000.00000" pt_clust_8="13000.00000" pt_clust_9="32.84033"></scales>
<clustering>
<clus scale="   32.840">  2  9  1 -1</clus>
<clus scale="   86.904">  5  6 -1 -1</clus>
<clus scale="  100.907">  2  5  1 -1</clus>
<clus scale="  105.201">  7  8 -1 -1</clus>
<clus scale="   32.840">  2  5  1 -1</clus>
</clustering>
</event>
<event>
 9    1  0.1315259E-005  0.1032766E+03  0.7546771E-02  0.1280012E+00
         21   -1    0    0  501  502  0.00000000000E+00  0.00000000000E+00  0.48656611004E+02  0.48656611004E+02  0.00000000000E+00 0.  1.
          2   -1    0    0  502    0 -0.00000000000E+00 -0.00000000000E+00 -0.27121280265E+03  0.27121280265E+03  0.00000000000E+00 0. -1.
         23    2    1    2    0    0  0.65911249971E+01  0.17145745280E+02 -0.10431346186E+03  0.13712595609E+03  0.87090814667E+02 0.  0.
         23    2    1    2    0    0 -0.96558958784E+01 -0.37069977190E+02 -0.12216183414E+03  0.16220745949E+03  0.99600836648E+02 0.  0.
        -11    1    3    3    0    0  0.99465775302E+01 -0.33900914524E+02 -0.27203467976E+02  0.44589629737E+02  0.00000000000E+00 0.  1.
         11    1    3    3    0    0 -0.33554525331E+01  0.51046659804E+02 -0.77109993883E+02  0.92536326356E+02  0.00000000000E+00 0. -1.
        -13    1    4    4    0    0  0.36364342326E+02 -0.81986606645E+01 -0.11635049238E+02  0.39050708063E+02  0.00000000000E+00 0.  1.
         13    1    4    4    0    0 -0.46020238204E+02 -0.28871316526E+02 -0.11052678490E+03  0.12315675143E+03  0.00000000000E+00 0. -1.
          2    1    1    2  501    0  0.30647708813E+01  0.19924231911E+02  0.39191043510E+01  0.20535998069E+02  0.00000000000E+00 0. -1.
<scales pt_clust_5="13000.00000" pt_clust_6="13000.00000" pt_clust_7="13000.00000" pt_clust_8="13000.00000" pt_clust_9="20.15857"></scales>
<clustering>
<clus scale="   20.159">  1  9  2 -1</clus>
<clus scale="   87.091">  5  6 -1 -1</clus>
<clus scale="   91.272">  2  5  1 -1</clus>
<clus scale="   99.601">  7  8 -1 -1</clus>
<clus scale="   20.159">  1  5  2 -1</clus>
</clustering>
</event>
<event>
 9    1  0.1315259E-005  0.1767073E+03  0.7546771E-02  0.1185461E+00
          1   -1    0    0  502    0 -0.00000000000E+00  0.00000000000E+00  0.25726174187E+03  0.25726174187E+03  0.00000000000E+00 0. -1.
         21   -1    0    0  501  502  0.00000000000E+00 -0.00000000000E+00 -0.35251560197E+03  0.35251560197E+03  0.00000000000E+00 0. -1.
         23    2    1    2    0    0  0.76129496941E+02  0.46296133262E+02  0.14453181381E+03  0.19281293583E+03  0.91369309743E+02 0.  0.
         23    2    1    2    0    0 -0.71324342304E+02  0.12297382445E+03 -0.90254687681E+02  0.19105530252E+03  0.90257945184E+02 0.  0.
        -11    1    4    4    0    0  0.12075458373E+02  0.21858772849E+02 -0.46662731882E+02  0.52924788068E+02  0.00000000000E+00 0. -1.
         11    1    4    4    0    0 -0.83399800676E+02  0.10111505160E+03 -0.43591955800E+02  0.13813051446E+03  0.00000000000E+00 0.  1.
        -11    1    3    3    0    0  0.42707425730E+02 -0.24567737479E+02  0.56373163472E+02  0.74869429656E+02  0.00000000000E+00 0.  1.
         11    1    3    3    0    0  0.33422071211E+02  0.70863870741E+02  0.88158650333E+02  0.11794350618E+03  0.00000000000E+00 0. -1.
          1    1    1    2  501    0 -0.48051546373E+01 -0.16926995771E+03 -0.14953098623E+03  0.22590910548E+03  0.00000000000E+00 0. -1.
<scales pt_clust_5="13000.00000" pt_clust_6="13000.00000" pt_clust_7="13000.00000" pt_clust_8="13000.00000" pt_clust_9="151.91767"></scales>
<clustering>
<clus scale="   90.258">  5  6 -1 -1</clus>
<clus scale="   91.369">  7  8 -1 -1</clus>
<clus scale="  127.622">  1  7  2 -1</clus>
<clus scale="  151.918">  2  9  1 -1</clus>
<clus scale="  151.918">  2  5  1 -1</clus>
</clustering>
</event>
<event>
 9    1  0.1315259E-005  0.9752257E+02  0.7546771E-02  0.1287419E+00
         21   -1    0    0  501  502  0.00000000000E+00  0.00000000000E+00  0.10313873120E+03  0.10313873120E+03  0.00000000000E+00 0. -1.
         -3   -1    0    0    0  501 -0.00000000000E+00 -0.00000000000E+00 -0.13600891058E+03  0.13600891058E+03  0.00000000000E+00 0.  1.
         23    2    1    2    0    0  0.36599225399E+02 -0.32645690425E+01 -0.68426768712E+02  0.11778592969E+03  0.88550222160E+02 0.  0.
         23    2    1    2    0    0 -0.21233571279E+02 -0.10353429501E+02  0.24955447834E+02  0.98254626347E+02  0.92049656004E+02 0.  0.
        -11    1    4    4    0    0 -0.43453247478E+02 -0.18900459906E+02  0.46321973340E+02  0.66265657133E+02  0.00000000000E+00 0. -1.
         11    1    4    4    0    0  0.22219676200E+02  0.85470304049E+01 -0.21366525507E+02  0.31988969214E+02  0.00000000000E+00 0.  1.
        -11    1    3    3    0    0  0.51949923284E+02  0.23238947973E+02 -0.19683376305E+02  0.60218589612E+02  0.00000000000E+00 0.  1.
         11    1    3    3    0    0 -0.15350697885E+02 -0.26503517015E+02 -0.48743392407E+02  0.57567340073E+02  0.00000000000E+00 0. -1.
         -3    1    1    2    0  502 -0.15365654120E+02  0.13617998544E+02  0.10601141499E+02  0.23107085752E+02  0.00000000000E+00 0.  1.
<scales pt_clust_5="13000.00000" pt_clust_6="13000.00000" pt_clust_7="13000.00000" pt_clust_8="13000.00000" pt_clust_9="20.53176"></scales>
<clustering>
<clus scale="   20.532">  1  9  2 -1</clus>
<clus scale="   88.550">  7  8 -1 -1</clus>
<clus scale="   92.050">  5  6 -1 -1</clus>
<clus scale="   94.227">  2  7  1 -1</clus>
<clus scale="   20.532">  1  5  2 -1</clus>
</clustering>
</event>
<event>
 9    1  0.1315259E-005  0.9086143E+02  0.7546771E-02  0.1300962E+00
         21   -1    0    0  501  502  0.00000000000E+00  0.00000000000E+00  0.21664052048E+03  0.21664052048E+03  0.00000000000E+00 0. -1.
          2   -1    0    0  502    0 -0.00000000000E+00 -0.00000000000E+00 -0.29333794014E+03  0.29333794014E+03  0.00000000000E+00 0. -1.
         23    2    1    2    0    0 -0.30133019126E+01  0.98673522753E+00 -0.24724472184E+03  0.26342366071E+03  0.90840623680E+02 0.  0.
         23    2    1    2    0    0 -0.34909286494E+02 -0.68014071276E+01  0.31395007944E+02  0.10221044043E+03  0.90534027787E+02 0.  0.
        -11    1    3    3    0    0 -0.28020697848E+02 -0.31087461293E+02 -0.18029263557E+03  0.18508653165E+03  0.00000000000E+00 0.  1.
         11    1    3    3    0    0  0.25007395935E+02  0.32074196520E+02 -0.66952086273E+02  0.78337129065E+02  0.00000000000E+00 0. -1.
        -13    1    4    4    0    0  0.97010176091E+01  0.34427078680E+02  0.55467906658E+01  0.36195308754E+02  0.00000000000E+00 0.  1.
         13    1    4    4    0    0 -0.44610304103E+02 -0.41228485808E+02  0.25848217278E+02  0.66015131679E+02  0.00000000000E+00 0. -1.
          2    1    1    2  501    0  0.37922588406E+02  0.58146719001E+01  0.13915229424E+03  0.14434435948E+03  0.00000000000E+00 0. -1.
<scales pt_clust_5="13000.00000" pt_clust_6="13000.00000" pt_clust_7="13000.00000" pt_clust_8="13000.00000" pt_clust_9="38.36578"></scales>
<clustering>
<clus scale="   38.366">  1  9  2 -1</clus>
<clus scale="   90.534">  7  8 -1 -1</clus>
<clus scale="   90.555">  1  7  2 -1</clus>
<clus scale="   90.841">  5  6 -1 -1</clus>
<clus scale="   38.366">  1  5  2 -1</clus>
</clustering>
</event>
<event>
 9    1  0.1315259E-005  0.1105624E+03  0.7546771E-02  0.1261732E+00
         21   -1    0    0  501  502  0.00000000000E+00  0.00000000000E+00  0.31380766760E+02  0.31380766760E+02  0.00000000000E+00 0. -1.
          3   -1    0    0  502    0 -0.00000000000E+00 -0.00000000000E+00 -0.80017464781E+03  0.80017464781E+03  0.00000000000E+00 0. -1.
         23    2    1    2    0    0 -0.51957445651E+02  0.32429596270E+02 -0.43028150188E+03  0.44405706212E+03  0.91067275594E+02 0.  0.
         23    2    1    2    0    0  0.82377004562E+02  0.26606433572E+02 -0.20359253190E+03  0.23711894039E+03  0.85332289666E+02 0.  0.
        -11    1    3    3    0    0 -0.55884155214E+02  0.58724121417E+02 -0.28240700412E+03  0.29381163560E+03  0.00000000000E+00 0. -1.
         11    1    3    3    0    0  0.39267095623E+01 -0.26294525148E+02 -0.14787449776E+03  0.15024542651E+03  0.00000000000E+00 0.  1.
        -13    1    4    4    0    0  0.30910570939E+02  0.13310683704E+02 -0.17204582668E+03  0.17530660048E+03  0.00000000000E+00 0.  1.
         13    1    4    4    0    0  0.51466433623E+02  0.13295749868E+02 -0.31546705220E+02  0.61812339906E+02  0.00000000000E+00 0. -1.
          3    1    1    2  501    0 -0.30419558910E+02 -0.59036029842E+02 -0.13491984728E+03  0.15037941206E+03  0.00000000000E+00 0. -1.
<scales pt_clust_5="13000.00000" pt_clust_6="13000.00000" pt_clust_7="13000.00000" pt_clust_8="13000.00000" pt_clust_9="66.41237"></scales>
<clustering>
<clus scale="   66.412">  1  9  2 -1</clus>
<clus scale="   85.332">  7  8 -1 -1</clus>
<clus scale="   91.067">  5  6 -1 -1</clus>
<clus scale="  105.889">  1  7  2 -1</clus>
<clus scale="   66.412">  1  5  2 -1</clus>
</clustering>
</event>
<event>
 9    1  0.1383065E-005  0.1113605E+03  0.7546771E-02  0.1258887E+00
          2   -1    0    0  502    0 -0.00000000000E+00  0.00000000000E+00  0.31836591620E+03  0.31836591620E+03  0.00000000000E+00 0. -1.
         21   -1    0    0  501  502  0.00000000000E+00 -0.00000000000E+00 -0.17877868910E+03  0.17877868910E+03  0.00000000000E+00 0. -1.
         23    2    1    2    0    0 -0.49264901504E+02  0.46281056209E+02  0.26866569002E+03  0.29184807332E+03  0.91788224853E+02 0.  0.
         23    2    1    2    0    0  0.36994329825E+02 -0.13133718408E+02 -0.33549614005E+02  0.10343842524E+03  0.89626202740E+02 0.  0.
        -11    1    3    3    0    0 -0.73894951889E+02  0.17241636697E+02  0.17551716016E+03  0.19121718401E+03  0.00000000000E+00 0. -1.
         11    1    3    3    0    0  0.24630050385E+02  0.29039419512E+02  0.93148529861E+02  0.10063088931E+03  0.00000000000E+00 0.  1.
        -13    1    4    4    0    0  0.64772531050E+02 -0.22109482443E+02 -0.20371443631E+02  0.71409423104E+02  0.00000000000E+00 0.  1.
         13    1    4    4    0    0 -0.27778201225E+02  0.89757640356E+01 -0.13178170374E+02  0.32029002134E+02  0.00000000000E+00 0. -1.
          2    1    1    2  501    0  0.12270571680E+02 -0.33147337801E+02 -0.95528848919E+02  0.10185810674E+03  0.00000000000E+00 0. -1.
<scales pt_clust_5="13000.00000" pt_clust_6="13000.00000" pt_clust_7="13000.00000" pt_clust_8="13000.00000" pt_clust_9="35.34562"></scales>
<clustering>
<clus scale="   35.346">  2  9  1 -1</clus>
<clus scale="   89.626">  7  8 -1 -1</clus>
<clus scale="   91.788">  5  6 -1 -1</clus>
<clus scale="  109.585">  2  7  1 -1</clus>
<clus scale="   35.346">  2  5  1 -1</clus>
</clustering>
</event>
<event>
 9    1  0.1315259E-005  0.1312604E+03  0.7546771E-02  0.1225672E+00
          1   -1    0    0  502    0 -0.00000000000E+00  0.00000000000E+00  0.43170086367E+03  0.43170086367E+03  0.00000000000E+00 0. -1.
         21   -1    0    0  501  502  0.00000000000E+00 -0.00000000000E+00 -0.35011704731E+03  0.35011704731E+03  0.00000000000E+00 0. -1.
         23    2    1    2    0    0 -0.48468282206E+02 -0.85883693153E+02  0.35675580630E+03  0.38117658627E+03  0.91080741460E+02 0.  0.
         23    2    1    2    0    0  0.67524657738E+02  0.45553850414E+02 -0.95859933560E-01  0.12197213200E+03  0.90787989874E+02 0.  0.
        -13    1    4    4    0    0  0.37716420628E+02  0.19329436747E+02  0.45050237769E+02  0.61852077030E+02  0.00000000000E+00 0. -1.
         13    1    4    4    0    0  0.29808237110E+02  0.26224413667E+02 -0.45146097702E+02  0.60120054970E+02  0.00000000000E+00 0.  1.
        -13    1    3    3    0    0  0.53475116810E+01 -0.76383294207E+02  0.24653495853E+03  0.25815206622E+03  0.00000000000E+00 0.  1.
         13    1    3    3    0    0 -0.53815793887E+02 -0.95003989462E+01  0.11022084777E+03  0.12302452005E+03  0.00000000000E+00 0. -1.
          1    1    1    2  501    0 -0.19056375533E+02  0.40329842739E+02 -0.27507613000E+03  0.27866919270E+03  0.00000000000E+00 0. -1.
<scales pt_clust_5="13000.00000" pt_clust_6="13000.00000" pt_clust_7="13000.00000" pt_clust_8="13000.00000" pt_clust_9="44.60540"></scales>
<clustering>
<clus scale="   44.605">  2  9  1 -1</clus>
<clus scale="   90.788">  5  6 -1 -1</clus>
<clus scale="   91.081">  7  8 -1 -1</clus>
<clus scale="  131.057">  2  5  1 -1</clus>
<clus scale="   44.605">  2  5  1 -1</clus>
</clustering>
</event>
<event>
 9    1  0.1315259E-005  0.9775883E+02  0.7546771E-02  0.1286391E+00
         -1   -1    0    0    0  501 -0.00000000000E+00  0.00000000000E+00  0.27417071452E+03  0.27417071452E+03  0.00000000000E+00 0.  1.
         21   -1    0    0  501  502  0.00000000000E+00 -0.00000000000E+00 -0.14598625016E+03  0.14598625016E+03  0.00000000000E+00 0.  1.
         23    2    1    2    0    0  0.14964227292E+02 -0.16137252380E+02  0.19156893971E+03  0.21326501624E+03  0.91098679886E+02 0.  0.
         23    2    1    2    0    0 -0.13064112339E+02  0.85378209890E+02 -0.35401539014E+02  0.13218608951E+03  0.93593715275E+02 0.  0.
        -11    1    4    4    0    0  0.26470711894E+02  0.79949195794E+02 -0.37578263328E+02  0.92220921547E+02  0.00000000000E+00 0.  1.
         11    1    4    4    0    0 -0.39534824233E+02  0.54290140961E+01  0.21767243138E+01  0.39965167958E+02  0.00000000000E+00 0. -1.
        -11    1    3    3    0    0  0.33346743206E+02  0.26367587606E+02  0.12609876441E+03  0.13307198557E+03  0.00000000000E+00 0.  1.
         11    1    3    3    0    0 -0.18382515914E+02 -0.42504839986E+02  0.65470175297E+02  0.80193030663E+02  0.00000000000E+00 0. -1.
         -1    1    1    2    0  502 -0.19001149531E+01 -0.69240957510E+02 -0.27982936332E+02  0.74705858937E+02  0.00000000000E+00 0.  1.
<scales pt_clust_5="13000.00000" pt_clust_6="13000.00000" pt_clust_7="13000.00000" pt_clust_8="13000.00000" pt_clust_9="69.26702"></scales>
<clustering>
<clus scale="   69.267">  2  9  1 -1</clus>
<clus scale="   91.099">  7  8 -1 -1</clus>
<clus scale="   93.594">  5  6 -1 -1</clus>
<clus scale="   95.373">  1  7  2 -1</clus>
<clus scale="   69.267">  2  5  1 -1</clus>
</clustering>
</event>
<event>
 9    1  0.1315259E-005  0.1016633E+03  0.7546771E-02  0.1277109E+00
          3   -1    0    0  502    0 -0.00000000000E+00  0.00000000000E+00  0.31553271868E+03  0.31553271868E+03  0.00000000000E+00 0. -1.
         21   -1    0    0  501  502  0.00000000000E+00 -0.00000000000E+00 -0.65829690411E+02  0.65829690411E+02  0.00000000000E+00 0.  1.
         23    2    1    2    0    0  0.12766590002E+02  0.35463969141E+02  0.18930890056E+03  0.21351805211E+03  0.91276611572E+02 0.  0.
         23    2    1    2    0    0 -0.18171820803E+02 -0.57983565146E+02  0.81719820024E+02  0.13636207821E+03  0.90687256496E+02 0.  0.
        -13    1    3    3    0    0  0.38088312492E+02  0.23862529387E+02  0.17777974224E+03  0.18337332578E+03  0.00000000000E+00 0. -1.
         13    1    3    3    0    0 -0.25321722490E+02  0.11601439754E+02  0.11529158322E+02  0.30144726335E+02  0.00000000000E+00 0.  1.
        -13    1    4    4    0    0 -0.51275057219E+02 -0.12771302070E+02  0.34741156513E+02  0.63239114520E+02  0.00000000000E+00 0.  1.
         13    1    4    4    0    0  0.33103236416E+02 -0.45212263077E+02  0.46978663511E+02  0.73122963691E+02  0.00000000000E+00 0. -1.
          3    1    1    2  501    0  0.54052308008E+01  0.22519596005E+02 -0.21325692309E+02  0.31482278772E+02  0.00000000000E+00 0. -1.
<scales pt_clust_5="13000.00000" pt_clust_6="13000.00000" pt_clust_7="13000.00000" pt_clust_8="13000.00000" pt_clust_9="23.15920"></scales>
<clustering>
<clus scale="   23.159">  2  9  1 -1</clus>
<clus scale="   90.687">  7  8 -1 -1</clus>
<clus scale="   91.277">  5  6 -1 -1</clus>
<clus scale="  101.134">  2  7  1 -1</clus>
<clus scale="   23.159">  2  5  1 -1</clus>
</clustering>
</event>
<event>
 9    1  0.1315259E-005  0.2682752E+03  0.7546771E-02  0.1102505E+00
         21   -1    0    0  501  502  0.00000000000E+00  0.00000000000E+00  0.19061859488E+03  0.19061859488E+03  0.00000000000E+00 0.  1.
          2   -1    0    0  502    0 -0.00000000000E+00 -0.00000000000E+00 -0.11742687211E+04  0.11742687211E+04  0.00000000000E+00 0. -1.
         23    2    1    2    0    0 -0.23351931088E+03  0.11181471684E+03 -0.82450536570E+03  0.86897244103E+03  0.90940671582E+02 0.  0.
         23    2    1    2    0    0  0.22358755169E+03 -0.69414950463E+02 -0.27413376439E+03  0.37295613781E+03  0.95588343059E+02 0.  0.
        -13    1    4    4    0    0  0.41392902697E+02  0.16395012051E+02 -0.88472178109E+02  0.99042895319E+02  0.00000000000E+00 0. -1.
         13    1    4    4    0    0  0.18219464899E+03 -0.85809962514E+02 -0.18566158628E+03  0.27391324249E+03  0.00000000000E+00 0.  1.
        -13    1    3    3    0    0 -0.12049476999E+03  0.10501613694E+03 -0.52436662492E+03  0.54818585894E+03  0.00000000000E+00 0. -1.
         13    1    3    3    0    0 -0.11302454089E+03  0.67985798944E+01 -0.30013874079E+03  0.32078658210E+03  0.00000000000E+00 0.  1.
          2    1    1    2  501    0  0.99317591881E+01 -0.42399766374E+02  0.11498900387E+03  0.12295873715E+03  0.00000000000E+00 0. -1.
<scales pt_clust_5="13000.00000" pt_clust_6="13000.00000" pt_clust_7="13000.00000" pt_clust_8="13000.00000" pt_clust_9="43.54745"></scales>
<clustering>
<clus scale="   43.547">  1  9  2 -1</clus>
<clus scale="   90.941">  7  8 -1 -1</clus>
<clus scale="   95.588">  5  6 -1 -1</clus>
<clus scale="  266.655">  2  7  1 -1</clus>
<clus scale="   43.547">  1  5  2 -1</clus>
</clustering>
</event>
<event>
 9    1  0.1315259E-005  0.1673827E+03  0.7546771E-02  0.1180978E+00
         21   -1    0    0  501  502  0.00000000000E+00  0.00000000000E+00  0.13458422302E+03  0.13458422302E+03  0.00000000000E+00 0. -1.
          2   -1    0    0  502    0 -0.00000000000E+00 -0.00000000000E+00 -0.38917559608E+03  0.38917559608E+03  0.00000000000E+00 0. -1.
         23    2    1    2    0    0 -0.54109689294E+02  0.12265288391E+03 -0.17696242005E+03  0.23860275176E+03  0.87429895520E+02 0.  0.
         23    2    1    2    0    0  0.89664513172E+02 -0.12899234878E+03 -0.13051633560E+03  0.22111481915E+03  0.84726019740E+02 0.  0.
        -11    1    3    3    0    0 -0.69964243661E+02  0.84364499561E+02 -0.15974169093E+03  0.19372602303E+03  0.00000000000E+00 0. -1.
         11    1    3    3    0    0  0.15854554367E+02  0.38288384349E+02 -0.17220729120E+02  0.44876728732E+02  0.00000000000E+00 0.  1.
        -11    1    4    4    0    0  0.57786731120E+02 -0.11008544329E+03 -0.13529309494E+03  0.18374529288E+03  0.00000000000E+00 0. -1.
         11    1    4    4    0    0  0.31877782052E+02 -0.18906905489E+02  0.47767593324E+01  0.37369526268E+02  0.00000000000E+00 0.  1.
          2    1    1    2  501    0 -0.35554823878E+02  0.63394648667E+01  0.52887382592E+02  0.64042248190E+02  0.00000000000E+00 0. -1.
<scales pt_clust_5="13000.00000" pt_clust_6="13000.00000" pt_clust_7="13000.00000" pt_clust_8="13000.00000" pt_clust_9="36.11557"></scales>
<clustering>
<clus scale="   36.116">  1  9  2 -1</clus>
<clus scale="   84.726">  7  8 -1 -1</clus>
<clus scale="   87.430">  5  6 -1 -1</clus>
<clus scale="  165.986">  1  7  2 -1</clus>
<clus scale="   36.116">  1  5  2 -1</clus>
</clustering>
</event>
<event>
 9    1  0.1587624E-005  0.1199422E+03  0.7546771E-02  0.1246438E+00
          2   -1    0    0  502    0 -0.00000000000E+00  0.00000000000E+00  0.47529106681E+03  0.47529106681E+03  0.00000000000E+00 0. -1.
         21   -1    0    0  501  502  0.00000000000E+00 -0.00000000000E+00 -0.25759183685E+03  0.25759183685E+03  0.00000000000E+00 0. -1.
         23    2    1    2    0    0  0.73513966426E+01 -0.74819500461E+02  0.21710269420E+03  0.24718546515E+03  0.91187025791E+02 0.  0.
         23    2    1    2    0    0  0.75897439316E+02  0.67899661074E+02  0.21740547200E+03  0.25335207554E+03  0.80940408068E+02 0.  0.
        -11    1    3    3    0    0  0.27119631469E+02 -0.55124689746E+02  0.20941626148E+03  0.21824155517E+03  0.00000000000E+00 0. -1.
         11    1    3    3    0    0 -0.19768234827E+02 -0.19694810714E+02  0.76864327203E+01  0.28943909985E+02  0.00000000000E+00 0.  1.
        -13    1    4    4    0    0  0.10446371619E+02  0.44002046894E+02  0.32323244595E+02  0.55588658484E+02  0.00000000000E+00 0. -1.
         13    1    4    4    0    0  0.65451067697E+02  0.23897614180E+02  0.18508222740E+03  0.19776341706E+03  0.00000000000E+00 0.  1.
          2    1    1    2  501    0 -0.83248835958E+02  0.69198393862E+01 -0.21680893623E+03  0.23234536298E+03  0.00000000000E+00 0. -1.
<scales pt_clust_5="13000.00000" pt_clust_6="13000.00000" pt_clust_7="13000.00000" pt_clust_8="13000.00000" pt_clust_9="83.53594"></scales>
<clustering>
<clus scale="   80.940">  7  8 -1 -1</clus>
<clus scale="   83.536">  2  9  1 -1</clus>
<clus scale="   91.187">  5  6 -1 -1</clus>
<clus scale="  112.349">  2  7  1 -1</clus>
<clus scale="   83.536">  2  5  1 -1</clus>
</clustering>
</event>
<event>
 9    1  0.1315259E-005  0.1562145E+03  0.7546771E-02  0.1208713E+00
         21   -1    0    0  501  502  0.00000000000E+00  0.00000000000E+00  0.66447466753E+03  0.66447466753E+03  0.00000000000E+00 0.  1.
         -2   -1    0    0    0  501 -0.00000000000E+00 -0.00000000000E+00 -0.14107305394E+03  0.14107305394E+03  0.00000000000E+00 0.  1.
         23    2    1    2    0    0  0.56045108113E+00 -0.64393327439E+02  0.31183692622E+03  0.33106843286E+03  0.90648904867E+02 0.  0.
         23    2    1    2    0    0  0.11230404947E+03  0.11672273131E+03 -0.43686716078E+02  0.19052499484E+03  0.90304202364E+02 0.  0.
        -13    1    4    4    0    0  0.12406615170E+03  0.87296655991E+02 -0.25031831324E+02  0.15375210152E+03  0.00000000000E+00 0.  1.
         13    1    4    4    0    0 -0.11762102225E+02  0.29426075323E+02 -0.18654884754E+02  0.36772893316E+02  0.00000000000E+00 0. -1.
        -13    1    3    3    0    0  0.45077138679E+02 -0.38398178503E+02  0.18110428040E+03  0.19053904829E+03  0.00000000000E+00 0.  1.
         13    1    3    3    0    0 -0.44516687598E+02 -0.25995148937E+02  0.13073264582E+03  0.14052938457E+03  0.00000000000E+00 0. -1.
         -2    1    1    2    0  502 -0.11286450055E+03 -0.52329403874E+02  0.25525140344E+03  0.28395429377E+03  0.00000000000E+00 0.  1.
<scales pt_clust_5="13000.00000" pt_clust_6="13000.00000" pt_clust_7="13000.00000" pt_clust_8="13000.00000" pt_clust_9="127.46811"></scales>
<clustering>
<clus scale="   90.304">  5  6 -1 -1</clus>
<clus scale="   90.649">  7  8 -1 -1</clus>
<clus scale="  111.194">  2  7  1 -1</clus>
<clus scale="  127.468">  1  9  2 -1</clus>
<clus scale="  127.468">  1  5  2 -1</clus>
</clustering>
</event>
<event>
 9    1  0.1315259E-005  0.9601201E+02  0.7546771E-02  0.1289626E+00
          1   -1    0    0  502    0 -0.00000000000E+00  0.00000000000E+00  0.28737269782E+03  0.28737269782E+03  0.00000000000E+00 0. -1.
         21   -1    0    0  501  502  0.00000000000E+00 -0.00000000000E+00 -0.66848470952E+02  0.66848470952E+02  0.00000000000E+00 0.  1.
         23    2    1    2    0    0  0.23936108137E+02  0.10216511372E+02  0.20352317020E+03  0.22430566592E+03  0.90631322274E+02 0.  0.
         23    2    1    2    0    0 -0.38827345978E+02  0.11674949450E+02  0.22216999047E+02  0.10293048708E+03  0.91963160469E+02 0.  0.
        -11    1    3    3    0    0 -0.31491335482E+02  0.28034031573E+01  0.11769335205E+03  0.12186586231E+03  0.00000000000E+00 0.  1.
         11    1    3    3    0    0  0.55427443619E+02  0.74131082143E+01  0.85829818150E+02  0.10243980361E+03  0.00000000000E+00 0. -1.
        -11    1    4    4    0    0 -0.25355353010E+02 -0.38624799550E+02  0.21232167301E+02  0.50848539751E+02  0.00000000000E+00 0.  1.
         11    1    4    4    0    0 -0.13471992968E+02  0.50299749000E+02  0.98483174665E+00  0.52081947329E+02  0.00000000000E+00 0. -1.
          1    1    1    2  501    0  0.14891237841E+02 -0.21891460821E+02 -0.52159423809E+01  0.26985015772E+02  0.00000000000E+00 0. -1.
<scales pt_clust_5="13000.00000" pt_clust_6="13000.00000" pt_clust_7="13000.00000" pt_clust_8="13000.00000" pt_clust_9="26.47612"></scales>
<clustering>
<clus scale="   26.476">  2  9  1 -1</clus>
<clus scale="   90.631">  5  6 -1 -1</clus>
<clus scale="   91.963">  7  8 -1 -1</clus>
<clus scale="   94.737">  1  5  2 -1</clus>
<clus scale="   26.476">  2  5  1 -1</clus>
</clustering>
</event>
<event>
 9    1  0.1315259E-005  0.9004630E+02  0.7546771E-02  0.1303150E+00
          2   -1    0    0  502    0 -0.00000000000E+00  0.00000000000E+00  0.69933912486E+02  0.69933912486E+02  0.00000000000E+00 0. -1.
         21   -1    0    0  501  502  0.00000000000E+00 -0.00000000000E+00 -0.29210168579E+03  0.29210168579E+03  0.00000000000E+00 0.  1.
         23    2    1    2    0    0  0.32955132528E+01 -0.19558573497E+02 -0.72598305228E+01  0.92366071410E+02  0.89918784487E+02 0.  0.
         23    2    1    2    0    0 -0.20100272063E+01 -0.23728757561E+02 -0.63240789836E+02  0.11194073816E+03  0.89242575129E+02 0.  0.
        -11    1    3    3    0    0  0.36492261134E+02  0.59007179493E+01 -0.27323606989E+02  0.45968283565E+02  0.00000000000E+00 0.  1.
         11    1    3    3    0    0 -0.33196747881E+02 -0.25459291446E+02  0.20063776466E+02  0.46397787845E+02  0.00000000000E+00 0. -1.
        -13    1    4    4    0    0  0.37981005945E+02 -0.27387032618E+02 -0.14992587000E+02  0.49166899772E+02  0.00000000000E+00 0.  1.
         13    1    4    4    0    0 -0.39991033152E+02  0.36582750563E+01 -0.48248202836E+02  0.62773838387E+02  0.00000000000E+00 0. -1.
          2    1    1    2  501    0 -0.12854860465E+01  0.43287331058E+02 -0.15166715295E+03  0.15772878871E+03  0.00000000000E+00 0. -1.
<scales pt_clust_5="13000.00000" pt_clust_6="13000.00000" pt_clust_7="13000.00000" pt_clust_8="13000.00000" pt_clust_9="43.30641"></scales>
<clustering>
<clus scale="   43.306">  2  9  1 -1</clus>
<clus scale="   89.243">  7  8 -1 -1</clus>
<clus scale="   89.371">  2  7  1 -1</clus>
<clus scale="   89.919">  5  6 -1 -1</clus>
<clus scale="   43.306">  2  5  1 -1</clus>
</clustering>
</event>
<event>
 9    1  0.1315259E-005  0.1143116E+03  0.7546771E-02  0.1253737E+00
         21   -1    0    0  501  502  0.00000000000E+00  0.00000000000E+00  0.92635709269E+02  0.92635709269E+02  0.00000000000E+00 0. -1.
          2   -1    0    0  502    0 -0.00000000000E+00 -0.00000000000E+00 -0.55666560501E+03  0.55666560501E+03  0.00000000000E+00 0. -1.
         23    2    1    2    0    0 -0.49049190778E+02 -0.35650853003E+02 -0.30091568073E+03  0.32045199136E+03  0.91991442118E+02 0.  0.
         23    2    1    2    0    0  0.42769725519E+02  0.13079929136E+03 -0.32693561765E+02  0.16728755826E+03  0.89322752577E+02 0.  0.
        -13    1    4    4    0    0  0.68725316390E+02  0.11128038766E+03 -0.19514998212E+02  0.13223966480E+03  0.00000000000E+00 0. -1.
         13    1    4    4    0    0 -0.25955590871E+02  0.19518903699E+02 -0.13178563553E+02  0.35047893466E+02  0.00000000000E+00 0.  1.
        -13    1    3    3    0    0 -0.16051445592E+02  0.27805948067E+02 -0.49016670687E+02  0.58595679523E+02  0.00000000000E+00 0.  1.
         13    1    3    3    0    0 -0.32997745186E+02 -0.63456801071E+02 -0.25189901004E+03  0.26185631184E+03  0.00000000000E+00 0. -1.
          2    1    1    2  501    0  0.62794652584E+01 -0.95148438355E+02 -0.13042065325E+03  0.16156176466E+03  0.00000000000E+00 0. -1.
<scales pt_clust_5="13000.00000" pt_clust_6="13000.00000" pt_clust_7="13000.00000" pt_clust_8="13000.00000" pt_clust_9="95.35547"></scales>
<clustering>
<clus scale="   89.323">  5  6 -1 -1</clus>
<clus scale="   91.991">  7  8 -1 -1</clus>
<clus scale="   95.355">  1  9  2 -1</clus>
<clus scale="  112.175">  1  5  2 -1</clus>
<clus scale="   95.355">  1  5  2 -1</clus>
</clustering>
</event>
<event>
 9    1  0.1315259E-005  0.1210829E+03  0.7546771E-02  0.1246048E+00
         21   -1    0    0  501  502  0.00000000000E+00  0.00000000000E+00  0.58133794643E+02  0.58133794643E+02  0.00000000000E+00 0.  1.
         -1   -1    0    0    0  501 -0.00000000000E+00 -0.00000000000E+00 -0.65415780781E+03  0.65415780781E+03  0.00000000000E+00 0.  1.
         23    2    1    2    0    0  0.47205503773E+02 -0.27259070183E+02 -0.47513095774E+03  0.48942580057E+03  0.10400370556E+03 0.  0.
         23    2    1    2    0    0 -0.66919063514E+02  0.71105090659E+02 -0.11149558863E+03  0.17388202568E+03  0.90937327822E+02 0.  0.
        -11    1    4    4    0    0 -0.44656584025E+02  0.83591415000E+02 -0.11398331901E+03  0.14823606906E+03  0.00000000000E+00 0.  1.
         11    1    4    4    0    0 -0.22262479489E+02 -0.12486324341E+02  0.24877303760E+01  0.25645956621E+02  0.00000000000E+00 0. -1.
        -13    1    3    3    0    0  0.11424269858E+02  0.39532179816E+02 -0.14623096308E+03  0.15191050571E+03  0.00000000000E+00 0.  1.
         13    1    3    3    0    0  0.35781233915E+02 -0.66791249999E+02 -0.32889999466E+03  0.33751529486E+03  0.00000000000E+00 0. -1.
         -1    1    1    2    0  502  0.19713559741E+02 -0.43846020476E+02 -0.93974668046E+01  0.48983776208E+02  0.00000000000E+00 0.  1.
<scales pt_clust_5="13000.00000" pt_clust_6="13000.00000" pt_clust_7="13000.00000" pt_clust_8="13000.00000" pt_clust_9="48.07388"></scales>
<clustering>
<clus scale="   48.074">  1  9  2 -1</clus>
<clus scale="   90.937">  5  6 -1 -1</clus>
<clus scale="  104.004">  7  8 -1 -1</clus>
<clus scale="  110.063">  1  5  2 -1</clus>
<clus scale="   48.074">  1  5  2 -1</clus>
</clustering>
</event>
<event>
 9    1  0.1315259E-005  0.2742639E+03  0.7546771E-02  0.1131025E+00
         21   -1    0    0  501  502  0.00000000000E+00  0.00000000000E+00  0.17550905507E+03  0.17550905507E+03  0.00000000000E+00 0. -1.
          1   -1    0    0  502    0 -0.00000000000E+00 -0.00000000000E+00 -0.85164762163E+03  0.85164762163E+03  0.00000000000E+00 0. -1.
         23    2    1    2    0    0 -0.66983285228E+02  0.47634777597E+02 -0.16130750769E+03  0.20210732268E+03  0.89841111451E+02 0.  0.
         23    2    1    2    0    0  0.30233329844E+03 -0.10525823012E+03 -0.47422700528E+03  0.57936911435E+03  0.91063712730E+02 0.  0.
        -11    1    4    4    0    0  0.30459932451E+02 -0.39988850449E+02 -0.10315527418E+03  0.11475158490E+03  0.00000000000E+00 0.  1.
         11    1    4    4    0    0  0.27187336599E+03 -0.65269379675E+02 -0.37107173109E+03  0.46461752945E+03  0.00000000000E+00 0. -1.
        -13    1    3    3    0    0 -0.56120273502E+02  0.67538793652E+02 -0.15568971901E+03  0.17874636318E+03  0.00000000000E+00 0.  1.
         13    1    3    3    0    0 -0.10863011726E+02 -0.19904016056E+02 -0.56177886793E+01  0.23360959495E+02  0.00000000000E+00 0. -1.
          1    1    1    2  501    0 -0.23535001321E+03  0.57623452527E+02 -0.40604053591E+02  0.24568023967E+03  0.00000000000E+00 0. -1.
<scales pt_clust_5="13000.00000" pt_clust_6="13000.00000" pt_clust_7="13000.00000" pt_clust_8="13000.00000" pt_clust_9="258.70465"></scales>
<clustering>
<clus scale="   89.841">  7  8 -1 -1</clus>
<clus scale="   91.064">  5  6 -1 -1</clus>
<clus scale="  121.767">  2  7  1 -1</clus>
<clus scale="  258.705">  1  9  2 -1</clus>
<clus scale="  258.705">  1  5  2 -1</clus>
</clustering>
</event>
<event>
 9    1  0.1315259E-005  0.9508754E+02  0.7546771E-02  0.1292740E+00
         21   -1    0    0  501  502  0.00000000000E+00  0.00000000000E+00  0.21683938727E+02  0.21683938727E+02  0.00000000000E+00 0. -1.
          1   -1    0    0  502    0 -0.00000000000E+00 -0.00000000000E+00 -0.68843191340E+03  0.68843191340E+03  0.00000000000E+00 0. -1.
         23    2    1    2    0    0  0.28525074424E+02 -0.19897505064E+02 -0.40616468355E+03  0.41721016045E+03  0.88797394315E+02 0.  0.
         23    2    1    2    0    0 -0.84664133873E+01  0.12550957541E+01 -0.24397635701E+03  0.26087945918E+03  0.91980291481E+02 0.  0.
        -11    1    3    3    0    0 -0.20644698594E+02 -0.34216672379E+02 -0.11944481375E+03  0.12595256163E+03  0.00000000000E+00 0.  1.
         11    1    3    3    0    0  0.49169773018E+02  0.14319167315E+02 -0.28671986980E+03  0.29125759882E+03  0.00000000000E+00 0. -1.
        -13    1    4    4    0    0  0.27996151597E+02 -0.32050611480E+02 -0.12565805553E+03  0.13266865915E+03  0.00000000000E+00 0. -1.
         13    1    4    4    0    0 -0.36462564984E+02  0.33305707234E+02 -0.11831830147E+03  0.12821080003E+03  0.00000000000E+00 0.  1.
          1    1    1    2  501    0 -0.20058661036E+02  0.18642409310E+02 -0.16606934107E+02  0.32026232496E+02  0.00000000000E+00 0. -1.
<scales pt_clust_5="13000.00000" pt_clust_6="13000.00000" pt_clust_7="13000.00000" pt_clust_8="13000.00000" pt_clust_9="27.38411"></scales>
<clustering>
<clus scale="   27.384">  1  9  2 -1</clus>
<clus scale="   88.797">  5  6 -1 -1</clus>
<clus scale="   91.980">  7  8 -1 -1</clus>
<clus scale="   92.012">  2  5  1 -1</clus>
<clus scale="   27.384">  1  5  2 -1</clus>
</clustering>
</event>
<event>
 9    1  0.1315259E-005  0.1217404E+03  0.7546771E-02  0.1240272E+00
         21   -1    0    0  501  502  0.00000000000E+00  0.00000000000E+00  0.72250561775E+03  0.72250561775E+03  0.00000000000E+00 0. -1.
         -2   -1    0    0    0  501 -0.00000000000E+00 -0.00000000000E+00 -0.60503667650E+02  0.60503667650E+02  0.00000000000E+00 0.  1.
         23    2    1    2    0    0  0.75136994403E+02  0.24658593877E+02  0.23147692138E+02  0.12253363579E+03  0.90692127932E+02 0.  0.
         23    2    1    2    0    0 -0.98605966020E+02 -0.22590240861E+01  0.48118720365E+03  0.49950536238E+03  0.90753745733E+02 0.  0.
        -13    1    3    3    0    0  0.48974734797E+02  0.27522574670E+02 -0.29662585994E+02  0.63528621681E+02  0.00000000000E+00 0.  1.
         13    1    3    3    0    0  0.26162259606E+02 -0.28639807935E+01  0.52810278132E+02  0.59005014110E+02  0.00000000000E+00 0. -1.
        -13    1    4    4    0    0 -0.88524717075E+02 -0.30069565825E+02  0.43287545213E+03  0.44285659234E+03  0.00000000000E+00 0. -1.
         13    1    4    4    0    0 -0.10081248945E+02  0.27810541739E+02  0.48311751523E+02  0.56648770043E+02  0.00000000000E+00 0.  1.
         -2    1    1    2    0  502  0.23468971617E+02 -0.22399569791E+02  0.15766705431E+03  0.16097028723E+03  0.00000000000E+00 0.  1.
<scales pt_clust_5="13000.00000" pt_clust_6="13000.00000" pt_clust_7="13000.00000" pt_clust_8="13000.00000" pt_clust_9="32.44277"></scales>
<clustering>
<clus scale="   32.443">  1  9  2 -1</clus>
<clus scale="   90.692">  5  6 -1 -1</clus>
<clus scale="   90.754">  7  8 -1 -1</clus>
<clus scale="  121.694">  2  5  1 -1</clus>
<clus scale="   32.443">  1  5  2 -1</clus>
</clustering>
</event>
<event>
 9    1  0.1315259E-005  0.1366587E+03  0.7546771E-02  0.1218799E+00
         21   -1    0    0  501  502  0.00000000000E+00  0.00000000000E+00  0.86734740896E+03  0.86734740896E+03  0.00000000000E+00 0.  1.
          1   -1    0    0  502    0 -0.00000000000E+00 -0.00000000000E+00 -0.11342958081E+03  0.11342958081E+03  0.00000000000E+00 0. -1.
         23    2    1    2    0    0  0.79227171348E+02  0.56180497342E+02 -0.49281437620E+02  0.14479346905E+03  0.95411192343E+02 0.  0.
         23    2    1    2    0    0 -0.12339601822E+03 -0.26820952719E+01  0.43673256607E+03  0.46300790751E+03  0.91690878524E+02 0.  0.
        -11    1    3    3    0    0  0.83329346853E+02  0.79356840497E+01 -0.47711627321E+02  0.96349128226E+02  0.00000000000E+00 0. -1.
         11    1    3    3    0    0 -0.41021755053E+01  0.48244813293E+02 -0.15698102988E+01  0.48444340824E+02  0.00000000000E+00 0.  1.
        -11    1    4    4    0    0 -0.75333663838E+02 -0.20470463543E+02  0.37371809789E+03  0.38178451707E+03  0.00000000000E+00 0.  1.
         11    1    4    4    0    0 -0.48062354382E+02  0.17788368271E+02  0.63014468178E+02  0.81223390438E+02  0.00000000000E+00 0. -1.
          1    1    1    2  501    0  0.44168846872E+02 -0.53498402070E+02  0.36646669970E+03  0.37297561321E+03  0.00000000000E+00 0. -1.
<scales pt_clust_5="13000.00000" pt_clust_6="13000.00000" pt_clust_7="13000.00000" pt_clust_8="13000.00000" pt_clust_9="69.37554"></scales>
<clustering>
<clus scale="   69.376">  1  9  2 -1</clus>
<clus scale="   91.691">  7  8 -1 -1</clus>
<clus scale="   95.411">  5  6 -1 -1</clus>
<clus scale="  134.088">  1  7  2 -1</clus>
<clus scale="   69.376">  1  5  2 -1</clus>
</clustering>
</event>
<event>
 9    1  0.1315259E-005  0.2290542E+03  0.7546771E-02  0.1164432E+00
         21   -1    0    0  501  502  0.00000000000E+00  0.00000000000E+00  0.73223163820E+02  0.73223163820E+02  0.00000000000E+00 0. -1.
          1   -1    0    0  502    0 -0.00000000000E+00 -0.00000000000E+00 -0.10372541623E+04  0.10372541623E+04  0.00000000000E+00 0. -1.
         23    2    1    2    0    0 -0.91452919562E+01  0.15350814918E+02 -0.13271421022E+03  0.16286527775E+03  0.92697104697E+02 0.  0.
         23    2    1    2    0    0 -0.75804152792E+02 -0.20358210994E+03 -0.55273193107E+03  0.60083120800E+03  0.91069247382E+02 0.  0.
        -11    1    4    4    0    0 -0.69846563885E+02 -0.99743622004E+02 -0.21092757460E+03  0.24355240574E+03  0.00000000000E+00 0.  1.
         11    1    4    4    0    0 -0.59575889073E+01 -0.10383848794E+03 -0.34180435647E+03  0.35727880226E+03  0.00000000000E+00 0. -1.
        -13    1    3    3    0    0  0.11459203270E+02  0.34676653728E+02 -0.12936102874E+03  0.13441748178E+03  0.00000000000E+00 0.  1.
         13    1    3    3    0    0 -0.20604495226E+02 -0.19325838810E+02 -0.33531814802E+01  0.28447795965E+02  0.00000000000E+00 0. -1.
          1    1    1    2  501    0  0.84949444749E+02  0.18823129503E+03 -0.27858485722E+03  0.34678084039E+03  0.00000000000E+00 0. -1.
<scales pt_clust_5="13000.00000" pt_clust_6="13000.00000" pt_clust_7="13000.00000" pt_clust_8="13000.00000" pt_clust_9="210.17190"></scales>
<clustering>
<clus scale="   91.069">  5  6 -1 -1</clus>
<clus scale="   92.697">  7  8 -1 -1</clus>
<clus scale="   94.404">  2  7  1 -1</clus>
<clus scale="  210.172">  1  9  2 -1</clus>
<clus scale="  210.172">  1  5  2 -1</clus>
</clustering>
</event>
<event>
 9    1  0.1315259E-005  0.1724726E+03  0.7546771E-02  0.1175355E+00
         -1   -1    0    0    0  501 -0.00000000000E+00  0.00000000000E+00  0.21863762221E+03  0.21863762221E+03  0.00000000000E+00 0.  1.
         21   -1    0    0  501  502  0.00000000000E+00 -0.00000000000E+00 -0.40458478923E+03  0.40458478923E+03  0.00000000000E+00 0. -1.
         23    2    1    2    0    0 -0.14871348722E+03  0.41385487834E+02  0.10066043190E+03  0.20613588719E+03  0.92363529345E+02 0.  0.
         23    2    1    2    0    0  0.13404259459E+03  0.16269663029E+02 -0.46660671978E+02  0.16987430922E+03  0.91912695118E+02 0.  0.
        -11    1    3    3    0    0 -0.16275251515E+02  0.15580829374E+02 -0.16107700964E+02  0.27696643952E+02  0.00000000000E+00 0.  1.
         11    1    3    3    0    0 -0.13243823571E+03  0.25804658460E+02  0.11676813286E+03  0.17843924324E+03  0.00000000000E+00 0. -1.
        -13    1    4    4    0    0  0.19875438414E+02  0.37271734455E+02 -0.31741019526E+02  0.52836611947E+02  0.00000000000E+00 0. -1.
         13    1    4    4    0    0  0.11416715618E+03 -0.21002071426E+02 -0.14919652451E+02  0.11703769727E+03  0.00000000000E+00 0.  1.
         -1    1    1    2    0  502  0.14670892631E+02 -0.57655150863E+02 -0.23994692694E+03  0.24721221503E+03  0.00000000000E+00 0.  1.
<scales pt_clust_5="13000.00000" pt_clust_6="13000.00000" pt_clust_7="13000.00000" pt_clust_8="13000.00000" pt_clust_9="59.49245"></scales>
<clustering>
<clus scale="   59.492">  2  9  1 -1</clus>
<clus scale="   91.913">  7  8 -1 -1</clus>
<clus scale="   92.364">  5  6 -1 -1</clus>
<clus scale="  172.232">  2  7  1 -1</clus>
<clus scale="   59.492">  2  5  1 -1</clus>
</clustering>
</event>
<event>
 9    1  0.1315259E-005  0.1141794E+03  0.7546771E-02  0.1254460E+00
          1   -1    0    0  502    0 -0.00000000000E+00  0.00000000000E+00  0.55098470634E+03  0.55098470634E+03  0.00000000000E+00 0. -1.
         21   -1    0    0  501  502  0.00000000000E+00 -0.00000000000E+00 -0.49000805337E+02  0.49000805337E+02  0.00000000000E+00 0. -1.
         23    2    1    2    0    0 -0.17294504844E+02 -0.53100296567E+02  0.26911946413E+03  0.29017497005E+03  0.93045611789E+02 0.  0.
         23    2    1    2    0    0  0.23012158944E+02  0.75900648185E+02  0.25245717388E+03  0.27920951311E+03  0.89066602694E+02 0.  0.
        -11    1    4    4    0    0  0.42452940441E+02  0.10197890554E+02  0.14783251968E+03  0.15414507128E+03  0.00000000000E+00 0.  1.
         11    1    4    4    0    0 -0.19440781497E+02  0.65702757631E+02  0.10462465420E+03  0.12506444183E+03  0.00000000000E+00 0. -1.
        -13    1    3    3    0    0  0.20280977072E+02 -0.64507421934E+02  0.19336269605E+03  0.20484544842E+03  0.00000000000E+00 0.  1.
         13    1    3    3    0    0 -0.37575481915E+02  0.11407125367E+02  0.75756768084E+02  0.85329521625E+02  0.00000000000E+00 0. -1.
          1    1    1    2  501    0 -0.57176541006E+01 -0.22800351618E+02 -0.19592737014E+02  0.30601028513E+02  0.00000000000E+00 0. -1.
<scales pt_clust_5="13000.00000" pt_clust_6="13000.00000" pt_clust_7="13000.00000" pt_clust_8="13000.00000" pt_clust_9="23.50633"></scales>
<clustering>
<clus scale="   23.506">  2  9  1 -1</clus>
<clus scale="   89.067">  5  6 -1 -1</clus>
<clus scale="   93.046">  7  8 -1 -1</clus>
<clus scale="  110.961">  2  5  1 -1</clus>
<clus scale="   23.506">  2  5  1 -1</clus>
</clustering>
</event>
<event>
 9    1  0.1315259E-005  0.9439162E+02  0.7546771E-02  0.1292960E+00
          2   -1    0    0  502    0 -0.00000000000E+00  0.00000000000E+00  0.50216228817E+03  0.50216228817E+03  0.00000000000E+00 0. -1.
         21   -1    0    0  501  502  0.00000000000E+00 -0.00000000000E+00 -0.21736529392E+03  0.21736529392E+03  0.00000000000E+00 0. -1.
         23    2    1    2    0    0  0.22267147966E+02 -0.73270054662E+01  0.47401494364E+03  0.48334023055E+03  0.91531965922E+02 0.  0.
         23    2    1    2    0    0 -0.19707328374E+02 -0.12797856480E+02 -0.74734851324E+02  0.11992066462E+03  0.90793743603E+02 0.  0.
        -11    1    3    3    0    0 -0.29458031421E+02 -0.25854228289E+02  0.17720908025E+03  0.18149180383E+03  0.00000000000E+00 0.  1.
         11    1    3    3    0    0  0.51725179387E+02  0.18527222822E+02  0.29680586340E+03  0.30184842672E+03  0.00000000000E+00 0. -1.
        -13    1    4    4    0    0  0.21532499256E+02 -0.22571266413E+02 -0.70786209423E+02  0.77355013000E+02  0.00000000000E+00 0.  1.
         13    1    4    4    0    0 -0.41239827630E+02  0.97734099326E+01 -0.39486419011E+01  0.42565651616E+02  0.00000000000E+00 0. -1.
          2    1    1    2  501    0 -0.25598195924E+01  0.20124861946E+02 -0.11448309807E+03  0.11626668693E+03  0.00000000000E+00 0. -1.
<scales pt_clust_5="13000.00000" pt_clust_6="13000.00000" pt_clust_7="13000.00000" pt_clust_8="13000.00000" pt_clust_9="20.28701"></scales>
<clustering>
<clus scale="   20.287">  2  9  1 -1</clus>
<clus scale="   90.794">  7  8 -1 -1</clus>
<clus scale="   91.532">  5  6 -1 -1</clus>
<clus scale="   93.676">  2  7  1 -1</clus>
<clus scale="   20.287">  2  5  1 -1</clus>
</clustering>
</event>
<event>
 9    1  0.1315259E-005  0.1081882E+03  0.7546771E-02  0.1264478E+00
         21   -1    0    0  501  502  0.00000000000E+00  0.00000000000E+00  0.79146876476E+02  0.79146876476E+02  0.00000000000E+00 0.  1.
         -3   -1    0    0    0  501 -0.00000000000E+00 -0.00000000000E+00 -0.31028001481E+03  0.31028001481E+03  0.00000000000E+00 0.  1.
         23    2    1    2    0    0 -0.27094335442E+02 -0.60625212723E+02 -0.15531155512E+03  0.19177029760E+03  0.90800046569E+02 0.  0.
         23    2    1    2    0    0  0.24714214423E+01  0.47966858884E+02 -0.11158213301E+03  0.15243117233E+03  0.92074765352E+02 0.  0.
        -13    1    4    4    0    0 -0.33186305024E+02  0.56421794088E+02 -0.57642755261E+02  0.87220622122E+02  0.00000000000E+00 0.  1.
         13    1    4    4    0    0  0.35657726466E+02 -0.84549352035E+01 -0.53939377750E+02  0.65210550205E+02  0.00000000000E+00 0. -1.
        -13    1    3    3    0    0 -0.31229016974E+02 -0.18996490299E+02 -0.64187472803E+01  0.37112241397E+02  0.00000000000E+00 0. -1.
         13    1    3    3    0    0  0.41346815320E+01 -0.41628722424E+02 -0.14889280784E+03  0.15465805620E+03  0.00000000000E+00 0.  1.
         -3    1    1    2    0  502  0.24622914000E+02  0.12658353839E+02  0.35760549794E+02  0.45225421361E+02  0.00000000000E+00 0.  1.
<scales pt_clust_5="13000.00000" pt_clust_6="13000.00000" pt_clust_7="13000.00000" pt_clust_8="13000.00000" pt_clust_9="27.68613"></scales>
<clustering>
<clus scale="   27.686">  1  9  2 -1</clus>
<clus scale="   90.800">  7  8 -1 -1</clus>
<clus scale="   92.075">  5  6 -1 -1</clus>
<clus scale="  107.105">  2  7  1 -1</clus>
<clus scale="   27.686">  1  5  2 -1</clus>
</clustering>
</event>
<event>
 9    1  0.1315259E-005  0.2240382E+03  0.7546771E-02  0.1131056E+00
          1   -1    0    0  502    0 -0.00000000000E+00  0.00000000000E+00  0.55253646095E+02  0.55253646095E+02  0.00000000000E+00 0. -1.
         21   -1    0    0  501  502  0.00000000000E+00 -0.00000000000E+00 -0.12778909301E+04  0.12778909301E+04  0.00000000000E+00 0. -1.
         23    2    1    2    0    0  0.90128502140E+01  0.20609537473E+03 -0.35427672759E+03  0.41933315453E+03  0.88157585151E+02 0.  0.
         23    2    1    2    0    0  0.48098308137E+02 -0.20234264089E+03 -0.71737531902E+03  0.75234220066E+03  0.90196712760E+02 0.  0.
        -13    1    4    4    0    0 -0.19651289166E+02 -0.69149716570E+02 -0.16238141249E+03  0.17758259934E+03  0.00000000000E+00 0.  1.
         13    1    4    4    0    0  0.67749597303E+02 -0.13319292432E+03 -0.55499390653E+03  0.57475960132E+03  0.00000000000E+00 0. -1.
        -13    1    3    3    0    0  0.28001143853E+02  0.82166321018E+02 -0.21540670775E+03  0.23224000110E+03  0.00000000000E+00 0.  1.
         13    1    3    3    0    0 -0.18988293639E+02  0.12392905372E+03 -0.13887001984E+03  0.18709315343E+03  0.00000000000E+00 0. -1.
          1    1    1    2  501    0 -0.57111158351E+02 -0.37527338461E+01 -0.15098523738E+03  0.16146922099E+03  0.00000000000E+00 0. -1.
<scales pt_clust_5="13000.00000" pt_clust_6="13000.00000" pt_clust_7="13000.00000" pt_clust_8="13000.00000" pt_clust_9="57.23432"></scales>
<clustering>
<clus scale="   57.234">  2  9  1 -1</clus>
<clus scale="   88.158">  7  8 -1 -1</clus>
<clus scale="   90.197">  5  6 -1 -1</clus>
<clus scale="  223.225">  1  7  2 -1</clus>
<clus scale="   57.234">  2  5  1 -1</clus>
</clustering>
</event>
<event>
 9    1  0.1315259E-005  0.1368990E+03  0.7546771E-02  0.1219308E+00
          2   -1    0    0  502    0 -0.00000000000E+00  0.00000000000E+00  0.51177853864E+03  0.51177853864E+03  0.00000000000E+00 0. -1.
         21   -1    0    0  501  502  0.00000000000E+00 -0.00000000000E+00 -0.74505657970E+02  0.74505657970E+02  0.00000000000E+00 0.  1.
         23    2    1    2    0    0  0.56084503847E+02 -0.53915377100E+02  0.26488181675E+03  0.29418942881E+03  0.10164990762E+03 0.  0.
         23    2    1    2    0    0 -0.65621664948E+02  0.12120609194E+03  0.11387391472E+03  0.20241057468E+03  0.94898117241E+02 0.  0.
        -11    1    3    3    0    0  0.18311048745E+01 -0.60958955335E+02  0.20117351308E+03  0.21021448463E+03  0.00000000000E+00 0.  1.
         11    1    3    3    0    0  0.54253398972E+02  0.70435782343E+01  0.63708303662E+02  0.83974944179E+02  0.00000000000E+00 0. -1.
        -13    1    4    4    0    0 -0.34519640629E+02  0.12372748514E+03  0.11317643693E+03  0.17119872091E+03  0.00000000000E+00 0. -1.
         13    1    4    4    0    0 -0.31102024319E+02 -0.25213931973E+01  0.69747779341E+00  0.31211853768E+02  0.00000000000E+00 0.  1.
          2    1    1    2  501    0  0.95371611012E+01 -0.67290714838E+02  0.58517149210E+02  0.89684193128E+02  0.00000000000E+00 0. -1.
<scales pt_clust_5="13000.00000" pt_clust_6="13000.00000" pt_clust_7="13000.00000" pt_clust_8="13000.00000" pt_clust_9="67.96321"></scales>
<clustering>
<clus scale="   67.963">  2  9  1 -1</clus>
<clus scale="   94.898">  7  8 -1 -1</clus>
<clus scale="  101.650">  5  6 -1 -1</clus>
<clus scale="  131.963">  2  7  1 -1</clus>
<clus scale="   67.963">  2  5  1 -1</clus>
</clustering>
</event>
<event>
 9    1  0.1315259E-005  0.1801340E+03  0.7546771E-02  0.1168885E+00
         21   -1    0    0  501  502  0.00000000000E+00  0.00000000000E+00  0.31156690535E+02  0.31156690535E+02  0.00000000000E+00 0.  1.
          2   -1    0    0  502    0 -0.00000000000E+00 -0.00000000000E+00 -0.15018054962E+04  0.15018054962E+04  0.00000000000E+00 0. -1.
         23    2    1    2    0    0  0.12812116965E+03 -0.24686286907E+02 -0.81385188359E+03  0.83163137950E+03  0.11059573262E+03 0.  0.
         23    2    1    2    0    0 -0.16607671760E+03 -0.48320097350E+01 -0.56417970277E+03  0.59697611032E+03  0.10235680152E+03 0.  0.
        -11    1    3    3    0    0  0.10174144371E+03  0.33097954420E+02 -0.47830057054E+03  0.49012062978E+03  0.00000000000E+00 0. -1.
         11    1    3    3    0    0  0.26379725936E+02 -0.57784241328E+02 -0.33555131305E+03  0.34151074972E+03  0.00000000000E+00 0.  1.
        -13    1    4    4    0    0 -0.32744665249E+02  0.40956925757E+02 -0.19060843488E+03  0.19768980327E+03  0.00000000000E+00 0. -1.
         13    1    4    4    0    0 -0.13333205236E+03 -0.45788935492E+02 -0.37357126790E+03  0.39928630705E+03  0.00000000000E+00 0.  1.
          2    1    1    2  501    0  0.37955547954E+02  0.29518296642E+02 -0.92617219289E+02  0.10435469690E+03  0.00000000000E+00 0. -1.
<scales pt_clust_5="13000.00000" pt_clust_6="13000.00000" pt_clust_7="13000.00000" pt_clust_8="13000.00000" pt_clust_9="48.08278"></scales>
<clustering>
<clus scale="   48.083">  1  9  2 -1</clus>
<clus scale="  102.357">  7  8 -1 -1</clus>
<clus scale="  110.596">  5  6 -1 -1</clus>
<clus scale="  175.196">  1  7  2 -1</clus>
<clus scale="   48.083">  1  5  2 -1</clus>
</clustering>
</event>
<event>
 9    1  0.1315259E-005  0.1011608E+03  0.7546771E-02  0.1278762E+00
          1   -1    0    0  502    0 -0.00000000000E+00  0.00000000000E+00  0.14722148881E+03  0.14722148881E+03  0.00000000000E+00 0. -1.
         21   -1    0    0  501  502  0.00000000000E+00 -0.00000000000E+00 -0.63653801158E+03  0.63653801158E+03  0.00000000000E+00 0.  1.
         23    2    1    2    0    0 -0.37484058374E+02  0.18131417200E+02  0.10670704613E+03  0.14641500830E+03  0.91198454150E+02 0.  0.
         23    2    1    2    0    0  0.98737244281E+02  0.35445494992E+02 -0.29620843348E+03  0.32668140492E+03  0.89307769726E+02 0.  0.
        -11    1    4    4    0    0  0.35812480916E+02 -0.24408973899E+02 -0.15463575089E+03  0.16059435622E+03  0.00000000000E+00 0.  1.
         11    1    4    4    0    0  0.62924763365E+02  0.59854468892E+02 -0.14157268259E+03  0.16608704870E+03  0.00000000000E+00 0. -1.
        -13    1    3    3    0    0 -0.28913357412E+02 -0.77592624351E+01 -0.59344733556E+01  0.30518950906E+02  0.00000000000E+00 0.  1.
         13    1    3    3    0    0 -0.85707009620E+01  0.25890679635E+02  0.11264151949E+03  0.11589605740E+03  0.00000000000E+00 0. -1.
          1    1    1    2  501    0 -0.61253185907E+02 -0.53576912192E+02 -0.29981513542E+03  0.31066308717E+03  0.00000000000E+00 0. -1.
<scales pt_clust_5="13000.00000" pt_clust_6="13000.00000" pt_clust_7="13000.00000" pt_clust_8="13000.00000" pt_clust_9="81.37837"></scales>
<clustering>
<clus scale="   81.378">  2  9  1 -1</clus>
<clus scale="   89.308">  5  6 -1 -1</clus>
<clus scale="   91.198">  7  8 -1 -1</clus>
<clus scale="   99.460">  2  5  1 -1</clus>
<clus scale="   81.378">  2  5  1 -1</clus>
</clustering>
</event>
<event>
 9    1  0.1315259E-005  0.9288976E+02  0.7546771E-02  0.1296329E+00
         21   -1    0    0  501  502  0.00000000000E+00  0.00000000000E+00  0.32894072006E+02  0.32894072006E+02  0.00000000000E+00 0.  1.
          2   -1    0    0  502    0 -0.00000000000E+00 -0.00000000000E+00 -0.41032915402E+03  0.41032915402E+03  0.00000000000E+00 0. -1.
         23    2    1    2    0    0 -0.22843628653E+02 -0.12134318050E+02 -0.18542600778E+03  0.20878608739E+03  0.92410783365E+02 0.  0.
         23    2    1    2    0    0 -0.43594816085E+01 -0.81247650387E+01 -0.17160194016E+03  0.19485316743E+03  0.91845054872E+02 0.  0.
        -11    1    4    4    0    0 -0.32218405461E+02 -0.13004997791E+02 -0.16090717666E+03  0.16461553729E+03  0.00000000000E+00 0. -1.
         11    1    4    4    0    0  0.27858923853E+02  0.48802327523E+01 -0.10694763499E+02  0.30237630136E+02  0.00000000000E+00 0.  1.
        -11    1    3    3    0    0 -0.11157581264E+02  0.33592534515E+02 -0.13564855743E+03  0.14019087391E+03  0.00000000000E+00 0. -1.
         11    1    3    3    0    0 -0.11686047389E+02 -0.45726852565E+02 -0.49777450349E+02  0.68595213479E+02  0.00000000000E+00 0.  1.
          2    1    1    2  501    0  0.27203110262E+02  0.20259083088E+02 -0.20407134082E+02  0.39583971212E+02  0.00000000000E+00 0. -1.
<scales pt_clust_5="13000.00000" pt_clust_6="13000.00000" pt_clust_7="13000.00000" pt_clust_8="13000.00000" pt_clust_9="33.91813"></scales>
<clustering>
<clus scale="   33.918">  1  9  2 -1</clus>
<clus scale="   91.845">  5  6 -1 -1</clus>
<clus scale="   92.327">  1  5  2 -1</clus>
<clus scale="   92.411">  7  8 -1 -1</clus>
<clus scale="   33.918">  1  5  2 -1</clus>
</clustering>
</event>
<event>
 9    1  0.1315259E-005  0.1050084E+03  0.7546771E-02  0.1270718E+00
         21   -1    0    0  501  502  0.00000000000E+00  0.00000000000E+00  0.47937759335E+03  0.47937759335E+03  0.00000000000E+00 0.  1.
          1   -1    0    0  502    0 -0.00000000000E+00 -0.00000000000E+00 -0.44783556359E+02  0.44783556359E+02  0.00000000000E+00 0. -1.
         23    2    1    2    0    0 -0.45578123731E+02 -0.37063926193E+02  0.58139888373E+02  0.12275316543E+03  0.90757881288E+02 0.  0.
         23    2    1    2    0    0  0.30248958759E+02  0.10328809569E+02  0.20285653751E+03  0.22509610056E+03  0.92172641611E+02 0.  0.
        -13    1    3    3    0    0  0.26618094574E+02 -0.33792551289E+01  0.24287210881E+02  0.36191310233E+02  0.00000000000E+00 0.  1.
         13    1    3    3    0    0 -0.72196218304E+02 -0.33684671064E+02  0.33852677492E+02  0.86561855199E+02  0.00000000000E+00 0. -1.
        -13    1    4    4    0    0  0.60687402847E+02  0.47378059375E+01  0.94514278085E+02  0.11242044490E+03  0.00000000000E+00 0.  1.
         13    1    4    4    0    0 -0.30438444088E+02  0.55910036318E+01  0.10834225943E+03  0.11267565566E+03  0.00000000000E+00 0. -1.
          1    1    1    2  501    0  0.15329164971E+02  0.26735116624E+02  0.17359761110E+03  0.17631188372E+03  0.00000000000E+00 0. -1.
<scales pt_clust_5="13000.00000" pt_clust_6="13000.00000" pt_clust_7="13000.00000" pt_clust_8="13000.00000" pt_clust_9="30.81801"></scales>
<clustering>
<clus scale="   30.818">  1  9  2 -1</clus>
<clus scale="   90.758">  5  6 -1 -1</clus>
<clus scale="   92.173">  7  8 -1 -1</clus>
<clus scale="  103.769">  2  5  1 -1</clus>
<clus scale="   30.818">  1  5  2 -1</clus>
</clustering>
</event>
<event>
 9    1  0.1557824E-005  0.1014799E+03  0.7546771E-02  0.1280928E+00
          1   -1    0    0  502    0 -0.00000000000E+00  0.00000000000E+00  0.36622978678E+03  0.36622978678E+03  0.00000000000E+00 0. -1.
         21   -1    0    0  501  502  0.00000000000E+00 -0.00000000000E+00 -0.17311485428E+03  0.17311485428E+03  0.00000000000E+00 0. -1.
         23    2    1    2    0    0 -0.27697404856E+02 -0.36251686528E+01  0.27168148004E+03  0.28996549335E+03  0.97410844631E+02 0.  0.
         23    2    1    2    0    0  0.15687743307E+02  0.48753104972E+02  0.48151884716E+02  0.11432980976E+03  0.90165020180E+02 0.  0.
        -11    1    4    4    0    0 -0.76988524573E+01  0.44050788653E+02 -0.14724567722E+02  0.47080327151E+02  0.00000000000E+00 0. -1.
         11    1    4    4    0    0  0.23386595764E+02  0.47023163193E+01  0.62876452438E+02  0.67249482611E+02  0.00000000000E+00 0.  1.
        -13    1    3    3    0    0 -0.38557081052E+02 -0.35877111814E+02  0.83431558936E+02  0.98664282685E+02  0.00000000000E+00 0. -1.
         13    1    3    3    0    0  0.10859676197E+02  0.32251943161E+02  0.18824992111E+03  0.19130121066E+03  0.00000000000E+00 0.  1.
          1    1    1    2  501    0  0.12009661549E+02 -0.45127936319E+02 -0.12671843225E+03  0.13504933795E+03  0.00000000000E+00 0. -1.
<scales pt_clust_5="13000.00000" pt_clust_6="13000.00000" pt_clust_7="13000.00000" pt_clust_8="13000.00000" pt_clust_9="46.69864"></scales>
<clustering>
<clus scale="   46.699">  2  9  1 -1</clus>
<clus scale="   90.165">  5  6 -1 -1</clus>
<clus scale="   94.546">  2  5  1 -1</clus>
<clus scale="   97.411">  7  8 -1 -1</clus>
<clus scale="   46.699">  2  5  1 -1</clus>
</clustering>
</event>
<event>
 9    1  0.1315259E-005  0.1181660E+03  0.7546771E-02  0.1248010E+00
          2   -1    0    0  502    0 -0.00000000000E+00  0.00000000000E+00  0.82759703320E+03  0.82759703320E+03  0.00000000000E+00 0. -1.
         21   -1    0    0  501  502  0.00000000000E+00 -0.00000000000E+00 -0.25710779450E+02  0.25710779450E+02  0.00000000000E+00 0.  1.
         23    2    1    2    0    0  0.35121322220E+02 -0.71783632133E+02  0.57698587705E+03  0.58889769093E+03  0.86610570668E+02 0.  0.
         23    2    1    2    0    0 -0.16327236025E+02  0.58565478709E+02  0.20923616706E+03  0.23660176471E+03  0.92217826506E+02 0.  0.
        -11    1    3    3    0    0  0.64020330381E+02 -0.49299134335E+02  0.41952810180E+03  0.42723861664E+03  0.00000000000E+00 0.  1.
         11    1    3    3    0    0 -0.28899008161E+02 -0.22484497798E+02  0.15745777526E+03  0.16165907430E+03  0.00000000000E+00 0. -1.
        -13    1    4    4    0    0 -0.37365736191E+02  0.36108027310E+02  0.19657432904E+03  0.20332598140E+03  0.00000000000E+00 0. -1.
         13    1    4    4    0    0  0.21038500166E+02  0.22457451400E+02  0.12661838023E+02  0.33275783307E+02  0.00000000000E+00 0.  1.
          2    1    1    2  501    0 -0.18794086194E+02  0.13218153424E+02  0.15664209635E+02  0.27808357005E+02  0.00000000000E+00 0. -1.
<scales pt_clust_5="13000.00000" pt_clust_6="13000.00000" pt_clust_7="13000.00000" pt_clust_8="13000.00000" pt_clust_9="22.97689"></scales>
<clustering>
<clus scale="   22.977">  2  9  1 -1</clus>
<clus scale="   86.611">  5  6 -1 -1</clus>
<clus scale="   92.218">  7  8 -1 -1</clus>
<clus scale="  113.844">  1  5  2 -1</clus>
<clus scale="   22.977">  2  5  1 -1</clus>
</clustering>
</event>
<event>
 9    1  0.1315259E-005  0.1804625E+03  0.7546771E-02  0.1167587E+00
         21   -1    0    0  501  502  0.00000000000E+00  0.00000000000E+00  0.44320169233E+03  0.44320169233E+03  0.00000000000E+00 0.  1.
          4   -1    0    0  502    0 -0.00000000000E+00 -0.00000000000E+00 -0.11507058246E+03  0.11507058246E+03  0.00000000000E+00 0. -1.
         23    2    1    2    0    0  0.91020962007E+02  0.13499988323E+03  0.25790439361E+02  0.18949501577E+03  0.93452823614E+02 0.  0.
         23    2    1    2    0    0 -0.77306724864E+02 -0.10434492976E+03  0.29395821509E+03  0.33416408189E+03  0.91596983194E+02 0.  0.
        -11    1    3    3    0    0  0.19605942362E+02 -0.79680058321E+01  0.20697355144E+02  0.29601733105E+02  0.00000000000E+00 0.  1.
         11    1    3    3    0    0  0.71415019645E+02  0.14296788906E+03  0.50930842171E+01  0.15989328266E+03  0.00000000000E+00 0. -1.
        -11    1    4    4    0    0 -0.24585122711E+02 -0.10144322541E+03  0.21744802628E+03  0.24120282000E+03  0.00000000000E+00 0.  1.
         11    1    4    4    0    0 -0.52721602153E+02 -0.29017043567E+01  0.76510188808E+02  0.92961261895E+02  0.00000000000E+00 0. -1.
          4    1    1    2  501    0 -0.13714237143E+02 -0.30654953467E+02  0.83824554170E+01  0.34613177134E+02  0.00000000000E+00 0. -1.
<scales pt_clust_5="13000.00000" pt_clust_6="13000.00000" pt_clust_7="13000.00000" pt_clust_8="13000.00000" pt_clust_9="33.58285"></scales>
<clustering>
<clus scale="   33.583">  1  9  2 -1</clus>
<clus scale="   91.597">  7  8 -1 -1</clus>
<clus scale="   93.453">  5  6 -1 -1</clus>
<clus scale="  179.508">  1  7  2 -1</clus>
<clus scale="   33.583">  1  5  2 -1</clus>
</clustering>
</event>
<event>
 9    1  0.1315259E-005  0.1193149E+03  0.7546771E-02  0.1249104E+00
         21   -1    0    0  501  502  0.00000000000E+00  0.00000000000E+00  0.17270954457E+03  0.17270954457E+03  0.00000000000E+00 0.  1.
         -3   -1    0    0    0  501 -0.00000000000E+00 -0.00000000000E+00 -0.17717882543E+03  0.17717882543E+03  0.00000000000E+00 0.  1.
         23    2    1    2    0    0  0.31134588269E+02  0.47672277949E+02 -0.11454861606E+03  0.16396959734E+03  0.10257989442E+03 0.  0.
         23    2    1    2    0    0 -0.58020416800E+02 -0.55738933406E+02  0.78275779657E+02  0.14349961600E+03  0.89397117666E+02 0.  0.
        -11    1    4    4    0    0  0.23653192223E+02 -0.64455506914E+01  0.20616046593E+02  0.32031859190E+02  0.00000000000E+00 0. -1.
         11    1    4    4    0    0 -0.81673609022E+02 -0.49293382715E+02  0.57659733064E+02  0.11146775681E+03  0.00000000000E+00 0.  1.
        -13    1    3    3    0    0  0.63478825601E+02  0.45852061097E+02 -0.10340833738E+03  0.12971220855E+03  0.00000000000E+00 0.  1.
         13    1    3    3    0    0 -0.32344237332E+02  0.18202168521E+01 -0.11140278680E+02  0.34257388795E+02  0.00000000000E+00 0. -1.
         -3    1    1    2    0  502  0.26885828531E+02  0.80666554574E+01  0.31803555549E+02  0.42419156658E+02  0.00000000000E+00 0.  1.
<scales pt_clust_5="13000.00000" pt_clust_6="13000.00000" pt_clust_7="13000.00000" pt_clust_8="13000.00000" pt_clust_9="28.06989"></scales>
<clustering>
<clus scale="   28.070">  1  9  2 -1</clus>
<clus scale="   89.397">  5  6 -1 -1</clus>
<clus scale="  102.580">  7  8 -1 -1</clus>
<clus scale="  108.191">  1  5  2 -1</clus>
<clus scale="   28.070">  1  5  2 -1</clus>
</clustering>
</event>
<event>
 9    1  0.2276351E-005  0.9587399E+02  0.7546771E-02  0.1291227E+00
         -3   -1    0    0    0  501 -0.00000000000E+00  0.00000000000E+00  0.49525238647E+03  0.49525238647E+03  0.00000000000E+00 0.  1.
         21   -1    0    0  501  502  0.00000000000E+00 -0.00000000000E+00 -0.12904852330E+03  0.12904852330E+03  0.00000000000E+00 0. -1.
         23    2    1    2    0    0 -0.78515904444E+01  0.77676327297E+01  0.44879347572E+03  0.45886888976E+03  0.94989949702E+02 0.  0.
         23    2    1    2    0    0  0.19220431049E+02 -0.34623749283E+02 -0.27913457444E+02  0.10346441985E+03  0.91419341959E+02 0.  0.
        -13    1    3    3    0    0 -0.33168088663E+02 -0.32884735599E+02  0.18803300911E+03  0.19374710438E+03  0.00000000000E+00 0.  1.
         13    1    3    3    0    0  0.25316498219E+02  0.40652368328E+02  0.26076046662E+03  0.26512178538E+03  0.00000000000E+00 0. -1.
        -13    1    4    4    0    0  0.22403689602E+02 -0.31810290847E+01  0.29947426258E+02  0.37535218040E+02  0.00000000000E+00 0.  1.
         13    1    4    4    0    0 -0.31832585539E+01 -0.31442720198E+02 -0.57860883702E+02  0.65929201809E+02  0.00000000000E+00 0. -1.
         -3    1    1    2    0  502 -0.11368840604E+02  0.26856116553E+02 -0.54676155109E+02  0.61967600167E+02  0.00000000000E+00 0.  1.
<scales pt_clust_5="13000.00000" pt_clust_6="13000.00000" pt_clust_7="13000.00000" pt_clust_8="13000.00000" pt_clust_9="29.16336"></scales>
<clustering>
<clus scale="   29.163">  2  9  1 -1</clus>
<clus scale="   91.419">  7  8 -1 -1</clus>
<clus scale="   92.338">  2  7  1 -1</clus>
<clus scale="   94.990">  5  6 -1 -1</clus>
<clus scale="   29.163">  2  5  1 -1</clus>
</clustering>
</event>
<event>
 9    1  0.1315259E-005  0.1016888E+03  0.7546771E-02  0.1281895E+00
         21   -1    0    0  501  502  0.00000000000E+00  0.00000000000E+00  0.38462135067E+02  0.38462135067E+02  0.00000000000E+00 0.  1.
          1   -1    0    0  502    0 -0.00000000000E+00 -0.00000000000E+00 -0.39600904342E+03  0.39600904342E+03  0.00000000000E+00 0. -1.
         23    2    1    2    0    0  0.50896043292E+01  0.26044582299E+02 -0.23914323898E+03  0.26034604676E+03  0.99430131117E+02 0.  0.
         23    2    1    2    0    0  0.21005734828E+02 -0.12169574793E+02 -0.10864218062E+03  0.14300007395E+03  0.89758332718E+02 0.  0.
        -11    1    3    3    0    0 -0.70713269843E+01  0.51144066099E+02 -0.22128451024E+03  0.22722797723E+03  0.00000000000E+00 0. -1.
         11    1    3    3    0    0  0.12160931313E+02 -0.25099483800E+02 -0.17858728744E+02  0.33118069536E+02  0.00000000000E+00 0.  1.
        -13    1    4    4    0    0  0.43091305397E+02  0.24641773948E+02 -0.51490511016E+02  0.71521677475E+02  0.00000000000E+00 0.  1.
         13    1    4    4    0    0 -0.22085570569E+02 -0.36811348741E+02 -0.57151669608E+02  0.71478396474E+02  0.00000000000E+00 0. -1.
          1    1    1    2  501    0 -0.26095339157E+02 -0.13875007506E+02 -0.97614887456E+01  0.31125057776E+02  0.00000000000E+00 0. -1.
<scales pt_clust_5="13000.00000" pt_clust_6="13000.00000" pt_clust_7="13000.00000" pt_clust_8="13000.00000" pt_clust_9="29.55474"></scales>
<clustering>
<clus scale="   29.555">  1  9  2 -1</clus>
<clus scale="   89.758">  7  8 -1 -1</clus>
<clus scale="   92.254">  1  7  2 -1</clus>
<clus scale="   99.430">  5  6 -1 -1</clus>
<clus scale="   29.555">  1  5  2 -1</clus>
</clustering>
</event>
<event>
 9    1  0.1315259E-005  0.9628141E+02  0.7546771E-02  0.1290030E+00
         21   -1    0    0  501  502  0.00000000000E+00  0.00000000000E+00  0.61642508764E+02  0.61642508764E+02  0.00000000000E+00 0. -1.
          2   -1    0    0  502    0 -0.00000000000E+00 -0.00000000000E+00 -0.36404934611E+03  0.36404934611E+03  0.00000000000E+00 0. -1.
         23    2    1    2    0    0  0.34892777705E+02 -0.13685734435E+02 -0.22333676976E+03  0.24520271400E+03  0.94022619423E+02 0.  0.
         23    2    1    2    0    0  0.26766095040E+02  0.12765720790E+02 -0.69219710443E+02  0.11804162251E+03  0.90901423864E+02 0.  0.
        -11    1    4    4    0    0 -0.32296965840E+02 -0.77699717796E+00 -0.37998041136E+02  0.49875333154E+02  0.00000000000E+00 0.  1.
         11    1    4    4    0    0  0.59063060880E+02  0.13542717968E+02 -0.31221669307E+02  0.68166289358E+02  0.00000000000E+00 0. -1.
        -13    1    3    3    0    0 -0.22421265744E+02  0.18342683265E+02 -0.33263414200E+02  0.44109204381E+02  0.00000000000E+00 0.  1.
         13    1    3    3    0    0  0.57314043449E+02 -0.32028417700E+02 -0.19007335556E+03  0.20109350962E+03  0.00000000000E+00 0. -1.
          2    1    1    2  501    0 -0.61658872745E+02  0.92001364475E+00 -0.98503571402E+01  0.62447518358E+02  0.00000000000E+00 0. -1.
<scales pt_clust_5="13000.00000" pt_clust_6="13000.00000" pt_clust_7="13000.00000" pt_clust_8="13000.00000" pt_clust_9="61.66574"></scales>
<clustering>
<clus scale="   61.666">  1  9  2 -1</clus>
<clus scale="   90.901">  5  6 -1 -1</clus>
<clus scale="   93.236">  1  5  2 -1</clus>
<clus scale="   94.023">  7  8 -1 -1</clus>
<clus scale="   61.666">  1  5  2 -1</clus>
</clustering>
</event>
<event>
 9    1  0.1315259E-005  0.1502500E+03  0.7546771E-02  0.1220514E+00
         21   -1    0    0  501  502  0.00000000000E+00  0.00000000000E+00  0.22676522050E+03  0.22676522050E+03  0.00000000000E+00 0. -1.
          2   -1    0    0  502    0 -0.00000000000E+00 -0.00000000000E+00 -0.17557955359E+03  0.17557955359E+03  0.00000000000E+00 0. -1.
         23    2    1    2    0    0 -0.24864583751E+02 -0.21802563541E+02  0.57259996420E+02  0.11291735511E+03  0.91531538794E+02 0.  0.
         23    2    1    2    0    0 -0.66662056846E+02  0.10018135229E+03  0.46368964683E+02  0.15800953750E+03  0.91306078028E+02 0.  0.
        -11    1    3    3    0    0 -0.59560750230E+02 -0.15050165074E+02  0.41995281628E+02  0.74415012704E+02  0.00000000000E+00 0. -1.
         11    1    3    3    0    0  0.34696166479E+02 -0.67523984675E+01  0.15264714792E+02  0.38502342411E+02  0.00000000000E+00 0.  1.
        -11    1    4    4    0    0  0.19206477836E+02  0.39499417174E+02  0.22399399622E+01  0.43978518381E+02  0.00000000000E+00 0.  1.
         11    1    4    4    0    0 -0.85868534682E+02  0.60681935116E+02  0.44129024721E+02  0.11403101912E+03  0.00000000000E+00 0. -1.
          2    1    1    2  501    0  0.91526640597E+02 -0.78378788749E+02 -0.52443294191E+02  0.13141788147E+03  0.00000000000E+00 0. -1.
<scales pt_clust_5="13000.00000" pt_clust_6="13000.00000" pt_clust_7="13000.00000" pt_clust_8="13000.00000" pt_clust_9="119.32425"></scales>
<clustering>
<clus scale="   91.306">  7  8 -1 -1</clus>
<clus scale="   91.532">  5  6 -1 -1</clus>
<clus scale="   97.322">  2  5  1 -1</clus>
<clus scale="  119.324">  1  9  2 -1</clus>
<clus scale="  119.324">  1  5  2 -1</clus>
</clustering>
</event>
<event>
 9    1  0.1315259E-005  0.9845397E+02  0.7546771E-02  0.1286629E+00
         -1   -1    0    0    0  501 -0.00000000000E+00  0.00000000000E+00  0.17616802447E+03  0.17616802447E+03  0.00000000000E+00 0.  1.
         21   -1    0    0  501  502  0.00000000000E+00 -0.00000000000E+00 -0.11298040125E+03  0.11298040125E+03  0.00000000000E+00 0. -1.
         23    2    1    2    0    0  0.18498034373E+02  0.92888052373E+00  0.98084942631E+02  0.13768346366E+03  0.94831640819E+02 0.  0.
         23    2    1    2    0    0 -0.46865223519E+02  0.27381739126E+02 -0.11268593119E+02  0.10494071773E+03  0.89103671266E+02 0.  0.
        -11    1    4    4    0    0 -0.48863759301E+02 -0.14831368056E+02 -0.29435049225E+02  0.58941145004E+02  0.00000000000E+00 0. -1.
         11    1    4    4    0    0  0.19985357826E+01  0.42213107182E+02  0.18166456106E+02  0.45999572723E+02  0.00000000000E+00 0.  1.
        -11    1    3    3    0    0  0.53980180326E+02  0.17775323419E+02  0.50934076856E+02  0.76315805544E+02  0.00000000000E+00 0.  1.
         11    1    3    3    0    0 -0.35482145953E+02 -0.16846442895E+02  0.47150865775E+02  0.61367658118E+02  0.00000000000E+00 0. -1.
         -1    1    1    2    0  502  0.28367189146E+02 -0.28310619650E+02 -0.23628726289E+02  0.46524244336E+02  0.00000000000E+00 0.  1.
<scales pt_clust_5="13000.00000" pt_clust_6="13000.00000" pt_clust_7="13000.00000" pt_clust_8="13000.00000" pt_clust_9="40.07728"></scales>
<clustering>
<clus scale="   40.077">  2  9  1 -1</clus>
<clus scale="   89.104">  5  6 -1 -1</clus>
<clus scale="   92.949">  2  5  1 -1</clus>
<clus scale="   94.832">  7  8 -1 -1</clus>
<clus scale="   40.077">  2  5  1 -1</clus>
</clustering>
</event>
<event>
 9    1  0.1315259E-005  0.1242014E+03  0.7546771E-02  0.1236374E+00
          2   -1    0    0  502    0 -0.00000000000E+00  0.00000000000E+00  0.40294112266E+03  0.40294112266E+03  0.00000000000E+00 0. -1.
         21   -1    0    0  501  502  0.00000000000E+00 -0.00000000000E+00 -0.10725026176E+03  0.10725026176E+03  0.00000000000E+00 0. -1.
         23    2    1    2    0    0  0.23020943283E+02 -0.80027749020E+02  0.30541362929E+03  0.32917451043E+03  0.90243941148E+02 0.  0.
         23    2    1    2    0    0 -0.57146526400E+01  0.95019583823E+02  0.30450249957E+02  0.13477691065E+03  0.90422449416E+02 0.  0.
        -13    1    4    4    0    0  0.32705166307E+02  0.56291808270E+01  0.14354102906E+02  0.36157376151E+02  0.00000000000E+00 0.  1.
         13    1    4    4    0    0 -0.38419818947E+02  0.89390402996E+02  0.16096147051E+02  0.98619534503E+02  0.00000000000E+00 0. -1.
        -13    1    3    3    0    0 -0.13502298137E+02 -0.32368857858E+02  0.26733360419E+02  0.44099065447E+02  0.00000000000E+00 0.  1.
         13    1    3    3    0    0  0.36523241420E+02 -0.47658891162E+02  0.27868026887E+03  0.28507544498E+03  0.00000000000E+00 0. -1.
          2    1    1    2  501    0 -0.17306290643E+02 -0.14991834803E+02 -0.40173018352E+02  0.46239963345E+02  0.00000000000E+00 0. -1.
<scales pt_clust_5="13000.00000" pt_clust_6="13000.00000" pt_clust_7="13000.00000" pt_clust_8="13000.00000" pt_clust_9="22.89679"></scales>
<clustering>
<clus scale="   22.897">  2  9  1 -1</clus>
<clus scale="   90.244">  7  8 -1 -1</clus>
<clus scale="   90.422">  5  6 -1 -1</clus>
<clus scale="  124.071">  1  7  2 -1</clus>
<clus scale="   22.897">  2  5  1 -1</clus>
</clustering>
</event>
<event>
 9    1  0.1315259E-005  0.1126904E+03  0.7546771E-02  0.1255694E+00
          2   -1    0    0  502    0 -0.00000000000E+00  0.00000000000E+00  0.43351312089E+03  0.43351312089E+03  0.00000000000E+00 0. -1.
         21   -1    0    0  501  502  0.00000000000E+00 -0.00000000000E+00 -0.72233393221E+02  0.72233393221E+02  0.00000000000E+00 0. -1.
         23    2    1    2    0    0 -0.52304833181E+02 -0.52183116022E+02  0.34215241723E+03  0.36162745617E+03  0.90814466168E+02 0.  0.
         23    2    1    2    0    0  0.38489204394E+02  0.10797811314E+02  0.15154979266E+02  0.10030816364E+03  0.90741626126E+02 0.  0.
        -13    1    4    4    0    0 -0.11906349864E+02 -0.23151166890E+02 -0.17458306628E+02  0.31345337225E+02  0.00000000000E+00 0.  1.
         13    1    4    4    0    0  0.50395554258E+02  0.33948978205E+02  0.32613285894E+02  0.68962826413E+02  0.00000000000E+00 0. -1.
        -13    1    3    3    0    0  0.13903129391E+02  0.16197637212E+02  0.77222999534E+02  0.80118987233E+02  0.00000000000E+00 0.  1.
         13    1    3    3    0    0 -0.66207962573E+02 -0.68380753234E+02  0.26492941770E+03  0.28150846894E+03  0.00000000000E+00 0. -1.
          2    1    1    2  501    0  0.13815628788E+02  0.41385304708E+02  0.39723311669E+01  0.43810894301E+02  0.00000000000E+00 0. -1.
<scales pt_clust_5="13000.00000" pt_clust_6="13000.00000" pt_clust_7="13000.00000" pt_clust_8="13000.00000" pt_clust_9="43.63044"></scales>
<clustering>
<clus scale="   43.630">  2  9  1 -1</clus>
<clus scale="   90.742">  5  6 -1 -1</clus>
<clus scale="   90.814">  7  8 -1 -1</clus>
<clus scale="  112.632">  2  5  1 -1</clus>
<clus scale="   43.630">  2  5  1 -1</clus>
</clustering>
</event>
<event>
 9    1  0.1315259E-005  0.1238688E+03  0.7546771E-02  0.1237938E+00
         21   -1    0    0  501  502  0.00000000000E+00  0.00000000000E+00  0.46219967042E+02  0.46219967042E+02  0.00000000000E+00 0. -1.
         -2   -1    0    0    0  501 -0.00000000000E+00 -0.00000000000E+00 -0.41462478678E+03  0.41462478678E+03  0.00000000000E+00 0.  1.
         23    2    1    2    0    0 -0.31834795492E+02 -0.72243325710E+02 -0.19306986448E+03  0.22847830774E+03  0.93240614659E+02 0.  0.
         23    2    1    2    0    0  0.87786369756E+01  0.76889084056E+02 -0.16582381879E+03  0.20699655777E+03  0.96752469408E+02 0.  0.
        -11    1    3    3    0    0 -0.36075998661E+02 -0.93451761360E+02 -0.16522904408E+03  0.19322356582E+03  0.00000000000E+00 0.  1.
         11    1    3    3    0    0  0.42412031689E+01  0.21208435650E+02 -0.27840820405E+02  0.35254741921E+02  0.00000000000E+00 0. -1.
        -11    1    4    4    0    0 -0.27071109779E+02  0.49635736616E+02 -0.14823443745E+03  0.15865055871E+03  0.00000000000E+00 0.  1.
         11    1    4    4    0    0  0.35849746755E+02  0.27253347440E+02 -0.17589381345E+02  0.48345999061E+02  0.00000000000E+00 0. -1.
         -2    1    1    2    0  502  0.23056158516E+02 -0.46457583455E+01 -0.95111364642E+01  0.25369888312E+02  0.00000000000E+00 0.  1.
<scales pt_clust_5="13000.00000" pt_clust_6="13000.00000" pt_clust_7="13000.00000" pt_clust_8="13000.00000" pt_clust_9="23.51956"></scales>
<clustering>
<clus scale="   23.520">  1  9  2 -1</clus>
<clus scale="   93.241">  5  6 -1 -1</clus>
<clus scale="   96.752">  7  8 -1 -1</clus>
<clus scale="  121.146">  2  5  1 -1</clus>
<clus scale="   23.520">  1  5  2 -1</clus>
</clustering>
</event>
<event>
 9    1  0.1315259E-005  0.1056507E+03  0.7546771E-02  0.1269363E+00
          1   -1    0    0  502    0 -0.00000000000E+00  0.00000000000E+00  0.36511696615E+03  0.36511696615E+03  0.00000000000E+00 0. -1.
         21   -1    0    0  501  502  0.00000000000E+00 -0.00000000000E+00 -0.47983257896E+02  0.47983257896E+02  0.00000000000E+00 0. -1.
         23    2    1    2    0    0  0.11712935204E+01  0.54545114893E+02  0.19749140135E+03  0.22385480023E+03  0.90175254324E+02 0.  0.
         23    2    1    2    0    0 -0.24210255551E+02 -0.54382278280E+02  0.54389457025E+02  0.12004459503E+03  0.88932126340E+02 0.  0.
        -11    1    3    3    0    0  0.42830555150E+02  0.45932702040E+02  0.12115280499E+03  0.13646344466E+03  0.00000000000E+00 0. -1.
         11    1    3    3    0    0 -0.41659261630E+02  0.86124128538E+01  0.76338596353E+02  0.87391355567E+02  0.00000000000E+00 0.  1.
        -11    1    4    4    0    0  0.16032310505E+02 -0.35355785397E+02  0.63671933009E+02  0.74573330315E+02  0.00000000000E+00 0.  1.
         11    1    4    4    0    0 -0.40242566056E+02 -0.19026492883E+02 -0.92824759848E+01  0.45471264713E+02  0.00000000000E+00 0. -1.
          1    1    1    2  501    0  0.23038962031E+02 -0.16283661318E+00  0.65252849888E+02  0.69200828794E+02  0.00000000000E+00 0. -1.
<scales pt_clust_5="13000.00000" pt_clust_6="13000.00000" pt_clust_7="13000.00000" pt_clust_8="13000.00000" pt_clust_9="23.03955"></scales>
<clustering>
<clus scale="   23.040">  2  9  1 -1</clus>
<clus scale="   88.932">  7  8 -1 -1</clus>
<clus scale="   90.175">  5  6 -1 -1</clus>
<clus scale="  104.592">  2  7  1 -1</clus>
<clus scale="   23.040">  2  5  1 -1</clus>
</clustering>
</event>
<event>
 9    1  0.1315259E-005  0.2818364E+03  0.7546771E-02  0.1094701E+00
          1   -1    0    0  502    0 -0.00000000000E+00  0.00000000000E+00  0.83382267414E+03  0.83382267414E+03  0.00000000000E+00 0. -1.
         21   -1    0    0  501  502  0.00000000000E+00 -0.00000000000E+00 -0.13390309498E+03  0.13390309498E+03  0.00000000000E+00 0.  1.
         23    2    1    2    0    0  0.65824829199E+02  0.24775970411E+03  0.46918529478E+03  0.54203782459E+03  0.89176136523E+02 0.  0.
         23    2    1    2    0    0 -0.40299604922E+02 -0.29003681192E+03  0.21446306771E+03  0.37369137338E+03  0.88912455238E+02 0.  0.
        -11    1    3    3    0    0 -0.11200687526E+02  0.44599217190E+02  0.39819222131E+02  0.60828579025E+02  0.00000000000E+00 0.  1.
         11    1    3    3    0    0  0.77025516726E+02  0.20316048692E+03  0.42936607265E+03  0.48120924557E+03  0.00000000000E+00 0. -1.
        -13    1    4    4    0    0  0.19882064787E+02 -0.53231514658E+02  0.16339868063E+02  0.59125983639E+02  0.00000000000E+00 0. -1.
         13    1    4    4    0    0 -0.60181669709E+02 -0.23680529727E+03  0.19812319965E+03  0.31456538974E+03  0.00000000000E+00 0.  1.
          1    1    1    2  501    0 -0.25525224277E+02  0.42277107810E+02  0.16271216666E+02  0.51996571147E+02  0.00000000000E+00 0. -1.
<scales pt_clust_5="13000.00000" pt_clust_6="13000.00000" pt_clust_7="13000.00000" pt_clust_8="13000.00000" pt_clust_9="49.38513"></scales>
<clustering>
<clus scale="   49.385">  2  9  1 -1</clus>
<clus scale="   88.912">  7  8 -1 -1</clus>
<clus scale="   89.176">  5  6 -1 -1</clus>
<clus scale="  281.753">  2  7  1 -1</clus>
<clus scale="   49.385">  2  5  1 -1</clus>
</clustering>
</event>
<event>
 9    1  0.1315259E-005  0.1105360E+03  0.7546771E-02  0.1259916E+00
         21   -1    0    0  501  502  0.00000000000E+00  0.00000000000E+00  0.13228332725E+03  0.13228332725E+03  0.00000000000E+00 0.  1.
          2   -1    0    0  502    0 -0.00000000000E+00 -0.00000000000E+00 -0.40812531285E+03  0.40812531285E+03  0.00000000000E+00 0.  1.
         23    2    1    2    0    0 -0.37542897618E+02 -0.32104223845E+02 -0.24566964563E+03  0.26691178319E+03  0.91913953606E+02 0.  0.
         23    2    1    2    0    0  0.13064129641E+03  0.64191910902E+02 -0.94954987529E+01  0.17287646494E+03  0.92781236684E+02 0.  0.
        -11    1    4    4    0    0  0.77910090929E+02  0.42855325075E+01 -0.39696296222E+02  0.87545096900E+02  0.00000000000E+00 0. -1.
         11    1    4    4    0    0  0.52731205481E+02  0.59906378395E+02  0.30200797469E+02  0.85331368041E+02  0.00000000000E+00 0.  1.
        -13    1    3    3    0    0  0.17307697979E+02 -0.28452918748E+02 -0.31646358376E+02  0.45941451796E+02  0.00000000000E+00 0.  1.
         13    1    3    3    0    0 -0.54850595597E+02 -0.36513050965E+01 -0.21402328726E+03  0.22097033139E+03  0.00000000000E+00 0. -1.
          2    1    1    2  501    0 -0.93098398792E+02 -0.32087687058E+02 -0.20676841222E+02  0.10062039197E+03  0.00000000000E+00 0.  1.
<scales pt_clust_5="13000.00000" pt_clust_6="13000.00000" pt_clust_7="13000.00000" pt_clust_8="13000.00000" pt_clust_9="98.47300"></scales>
<clustering>
<clus scale="   91.914">  7  8 -1 -1</clus>
<clus scale="   92.781">  5  6 -1 -1</clus>
<clus scale="   98.473">  1  9  2 -1</clus>
<clus scale="  109.809">  2  7  1 -1</clus>
<clus scale="   98.473">  1  5  2 -1</clus>
</clustering>
</event>
<event>
 9    1  0.1315259E-005  0.1041353E+03  0.7546771E-02  0.1272775E+00
          4   -1    0    0  502    0 -0.00000000000E+00  0.00000000000E+00  0.15084461776E+03  0.15084461776E+03  0.00000000000E+00 0. -1.
         21   -1    0    0  501  502  0.00000000000E+00 -0.00000000000E+00 -0.12861723411E+03  0.12861723411E+03  0.00000000000E+00 0. -1.
         23    2    1    2    0    0 -0.55491122627E+02  0.20553569757E+02  0.69580765536E+02  0.12734746332E+03  0.88736573978E+02 0.  0.
         23    2    1    2    0    0  0.37820650996E+02 -0.17237743349E+01 -0.32182891766E+00  0.98460183324E+02  0.90889664355E+02 0.  0.
        -11    1    3    3    0    0  0.11783045048E+02  0.27283231417E+02 -0.83198187309E+00  0.29730574515E+02  0.00000000000E+00 0.  1.
         11    1    3    3    0    0 -0.67274167675E+02 -0.67296616602E+01  0.70412747409E+02  0.97616888806E+02  0.00000000000E+00 0. -1.
        -11    1    4    4    0    0  0.34648838387E+02 -0.33162091584E+02 -0.28782228796E+02  0.55934631618E+02  0.00000000000E+00 0. -1.
         11    1    4    4    0    0  0.31718126093E+01  0.31438317249E+02  0.28460399878E+02  0.42525551706E+02  0.00000000000E+00 0.  1.
          4    1    1    2  501    0  0.17670471631E+02 -0.18829795422E+02 -0.47031552970E+02  0.53654205222E+02  0.00000000000E+00 0. -1.
<scales pt_clust_5="13000.00000" pt_clust_6="13000.00000" pt_clust_7="13000.00000" pt_clust_8="13000.00000" pt_clust_9="25.82260"></scales>
<clustering>
<clus scale="   25.823">  2  9  1 -1</clus>
<clus scale="   88.737">  5  6 -1 -1</clus>
<clus scale="   90.890">  7  8 -1 -1</clus>
<clus scale="  102.261">  1  5  2 -1</clus>
<clus scale="   25.823">  2  5  1 -1</clus>
</clustering>
</event>
<event>
 9    1  0.1315259E-005  0.1957848E+03  0.7546771E-02  0.1156344E+00
         -3   -1    0    0    0  501 -0.00000000000E+00  0.00000000000E+00  0.49620413474E+03  0.49620413474E+03  0.00000000000E+00 0.  1.
         21   -1    0    0  501  502  0.00000000000E+00 -0.00000000000E+00 -0.25495355689E+03  0.25495355689E+03  0.00000000000E+00 0.  1.
         23    2    1    2    0    0 -0.82402291460E+01  0.18221865143E+03  0.23846153169E+03  0.31403747751E+03  0.92109157434E+02 0.  0.
         23    2    1    2    0    0 -0.17767281529E+03 -0.10118763913E+03  0.48210286656E+02  0.22929150067E+03  0.91890113370E+02 0.  0.
        -13    1    4    4    0    0 -0.55808863227E+02  0.11833257632E+02  0.21428457882E+02  0.60941234055E+02  0.00000000000E+00 0.  1.
         13    1    4    4    0    0 -0.12186395206E+03 -0.11302089677E+03  0.26781828774E+02  0.16835026662E+03  0.00000000000E+00 0. -1.
        -13    1    3    3    0    0  0.30362892604E+02  0.17603719805E+02  0.45869452022E+02  0.57756409402E+02  0.00000000000E+00 0.  1.
         13    1    3    3    0    0 -0.38603121750E+02  0.16461493163E+03  0.19259207967E+03  0.25628106811E+03  0.00000000000E+00 0. -1.
         -3    1    1    2    0  502  0.18591304443E+03 -0.81031012298E+02 -0.45421240485E+02  0.20782871344E+03  0.00000000000E+00 0.  1.
<scales pt_clust_5="13000.00000" pt_clust_6="13000.00000" pt_clust_7="13000.00000" pt_clust_8="13000.00000" pt_clust_9="202.80455"></scales>
<clustering>
<clus scale="   91.890">  5  6 -1 -1</clus>
<clus scale="   92.109">  7  8 -1 -1</clus>
<clus scale="  202.805">  2  9  1 -1</clus>
<clus scale="  202.805">  2  5  1 -1</clus>
<clus scale="  195.785">  2  5  1 -1</clus>
</clustering>
</event>
<event>
 9    1  0.1315259E-005  0.1453943E+03  0.7546771E-02  0.1206743E+00
         21   -1    0    0  501  502  0.00000000000E+00  0.00000000000E+00  0.14432340956E+03  0.14432340956E+03  0.00000000000E+00 0. -1.
          1   -1    0    0  502    0 -0.00000000000E+00 -0.00000000000E+00 -0.45590455208E+03  0.45590455208E+03  0.00000000000E+00 0. -1.
         23    2    1    2    0    0 -0.90014664544E+02  0.55826964243E+01 -0.19510158193E+03  0.23331507791E+03  0.90760630099E+02 0.  0.
         23    2    1    2    0    0  0.14798017583E+03 -0.18297559673E+02 -0.19882310798E+03  0.26541348451E+03  0.93170576695E+02 0.  0.
        -13    1    4    4    0    0  0.66149426532E+02  0.13433410054E+02 -0.27439880991E+02  0.72863915658E+02  0.00000000000E+00 0.  1.
         13    1    4    4    0    0  0.81830749302E+02 -0.31730969727E+02 -0.17138322699E+03  0.19254956885E+03  0.00000000000E+00 0. -1.
        -13    1    3    3    0    0 -0.10037489855E+03  0.27119838054E+02 -0.16171756352E+03  0.19225809795E+03  0.00000000000E+00 0. -1.
         13    1    3    3    0    0  0.10360234011E+02 -0.21537141630E+02 -0.33384018415E+02  0.41056979965E+02  0.00000000000E+00 0.  1.
          1    1    1    2  501    0 -0.57965511290E+02  0.12714863249E+02  0.82343547390E+02  0.10149939923E+03  0.00000000000E+00 0. -1.
<scales pt_clust_5="13000.00000" pt_clust_6="13000.00000" pt_clust_7="13000.00000" pt_clust_8="13000.00000" pt_clust_9="59.34365"></scales>
<clustering>
<clus scale="   59.344">  1  9  2 -1</clus>
<clus scale="   90.761">  7  8 -1 -1</clus>
<clus scale="   93.171">  5  6 -1 -1</clus>
<clus scale="  143.862">  2  7  1 -1</clus>
<clus scale="   59.344">  1  5  2 -1</clus>
</clustering>
</event>
<event>
 9    1  0.1315259E-005  0.1866109E+03  0.7546771E-02  0.1161562E+00
         21   -1    0    0  501  502  0.00000000000E+00  0.00000000000E+00  0.16046537290E+03  0.16046537290E+03  0.00000000000E+00 0.  1.
          1   -1    0    0  502    0 -0.00000000000E+00 -0.00000000000E+00 -0.42069151049E+03  0.42069151049E+03  0.00000000000E+00 0. -1.
         23    2    1    2    0    0 -0.44961814719E+02  0.18460596572E+03 -0.17319252172E+03  0.27266525641E+03  0.90828217569E+02 0.  0.
         23    2    1    2    0    0  0.10153358303E+03 -0.88481945135E+02  0.69614012511E+01  0.16263122953E+03  0.90897374065E+02 0.  0.
        -11    1    3    3    0    0 -0.11687774488E+02  0.14019985773E+03 -0.16457264199E+03  0.21651041239E+03  0.00000000000E+00 0.  1.
         11    1    3    3    0    0 -0.33274040231E+02  0.44406107992E+02 -0.86198797332E+01  0.56154844020E+02  0.00000000000E+00 0. -1.
        -11    1    4    4    0    0  0.25200628843E+02 -0.72914481370E+02 -0.20845235764E+02  0.79913185030E+02  0.00000000000E+00 0. -1.
         11    1    4    4    0    0  0.76332954188E+02 -0.15567463764E+02  0.27806637016E+02  0.82718044496E+02  0.00000000000E+00 0.  1.
          1    1    1    2  501    0 -0.56571768311E+02 -0.96124020590E+02 -0.93995017121E+02  0.14586039746E+03  0.00000000000E+00 0. -1.
<scales pt_clust_5="13000.00000" pt_clust_6="13000.00000" pt_clust_7="13000.00000" pt_clust_8="13000.00000" pt_clust_9="111.53567"></scales>
<clustering>
<clus scale="   90.828">  5  6 -1 -1</clus>
<clus scale="   90.897">  7  8 -1 -1</clus>
<clus scale="  111.536">  1  9  2 -1</clus>
<clus scale="  186.577">  2  5  1 -1</clus>
<clus scale="  111.536">  1  5  2 -1</clus>
</clustering>
</event>
<event>
 9    1  0.1315259E-005  0.1914868E+03  0.7546771E-02  0.1157421E+00
         21   -1    0    0  501  502  0.00000000000E+00  0.00000000000E+00  0.61542431359E+03  0.61542431359E+03  0.00000000000E+00 0.  1.
         -4   -1    0    0    0  501 -0.00000000000E+00 -0.00000000000E+00 -0.11560798623E+03  0.11560798623E+03  0.00000000000E+00 0.  1.
         23    2    1    2    0    0  0.13348579309E+03 -0.68015355399E+02  0.12201093022E+03  0.21284059128E+03  0.89274322585E+02 0.  0.
         23    2    1    2    0    0 -0.21527670759E+03 -0.14901210153E+02  0.20580878367E+03  0.31047135426E+03  0.86423952068E+02 0.  0.
        -11    1    3    3    0    0  0.10557442039E+03 -0.78357532547E+02  0.60961498858E+02  0.14492123892E+03  0.00000000000E+00 0.  1.
         11    1    3    3    0    0  0.27911372705E+02  0.10342177147E+02  0.61049431366E+02  0.67919352356E+02  0.00000000000E+00 0. -1.
        -11    1    4    4    0    0 -0.11483000271E+03 -0.50662611403E+02  0.11940063531E+03  0.17323146778E+03  0.00000000000E+00 0.  1.
         11    1    4    4    0    0 -0.10044670487E+03  0.35761401251E+02  0.86408148354E+02  0.13723988648E+03  0.00000000000E+00 0. -1.
         -4    1    1    2    0  502  0.81790914491E+02  0.82916565552E+02  0.17199661347E+03  0.20772035428E+03  0.00000000000E+00 0.  1.
<scales pt_clust_5="13000.00000" pt_clust_6="13000.00000" pt_clust_7="13000.00000" pt_clust_8="13000.00000" pt_clust_9="116.46850"></scales>
<clustering>
<clus scale="   86.424">  7  8 -1 -1</clus>
<clus scale="   89.274">  5  6 -1 -1</clus>
<clus scale="  116.468">  1  9  2 -1</clus>
<clus scale="  190.175">  1  7  2 -1</clus>
<clus scale="  116.468">  1  5  2 -1</clus>
</clustering>
</event>
<event>
 9    1  0.1315259E-005  0.1858325E+03  0.7546771E-02  0.1162938E+00
          1   -1    0    0  502    0 -0.00000000000E+00  0.00000000000E+00  0.48578265239E+03  0.48578265239E+03  0.00000000000E+00 0. -1.
         21   -1    0    0  501  502  0.00000000000E+00 -0.00000000000E+00 -0.18737688981E+03  0.18737688981E+03  0.00000000000E+00 0.  1.
         23    2    1    2    0    0 -0.40835589192E+02 -0.16157653659E+03  0.37644714515E+03  0.42037761400E+03  0.85031539640E+02 0.  0.
         23    2    1    2    0    0  0.14501915304E+02  0.14432367072E+03 -0.28230780677E+01  0.17124103605E+03  0.90971947215E+02 0.  0.
        -11    1    4    4    0    0 -0.18174373023E+00  0.67687632586E+02 -0.46212418699E+02  0.81958747415E+02  0.00000000000E+00 0.  1.
         11    1    4    4    0    0  0.14683659034E+02  0.76636038138E+02  0.43389340631E+02  0.89282288638E+02  0.00000000000E+00 0. -1.
        -13    1    3    3    0    0 -0.38838577512E+02 -0.79661751336E+02  0.10802591643E+03  0.13972840924E+03  0.00000000000E+00 0. -1.
         13    1    3    3    0    0 -0.19970116799E+01 -0.81914785256E+02  0.26842122872E+03  0.28064920475E+03  0.00000000000E+00 0.  1.
          1    1    1    2  501    0  0.26333673888E+02  0.17252865869E+02 -0.75218304499E+02  0.81540892151E+02  0.00000000000E+00 0. -1.
<scales pt_clust_5="13000.00000" pt_clust_6="13000.00000" pt_clust_7="13000.00000" pt_clust_8="13000.00000" pt_clust_9="31.48212"></scales>
<clustering>
<clus scale="   31.482">  2  9  1 -1</clus>
<clus scale="   85.032">  7  8 -1 -1</clus>
<clus scale="   90.972">  5  6 -1 -1</clus>
<clus scale="  182.998">  1  7  2 -1</clus>
<clus scale="   31.482">  2  5  1 -1</clus>
</clustering>
</event>
<event>
 9    1  0.1315259E-005  0.9792811E+02  0.7546771E-02  0.1285248E+00
         21   -1    0    0  501  502  0.00000000000E+00  0.00000000000E+00  0.23666604707E+03  0.23666604707E+03  0.00000000000E+00 0. -1.
          2   -1    0    0  502    0 -0.00000000000E+00 -0.00000000000E+00 -0.12984420926E+03  0.12984420926E+03  0.00000000000E+00 0. -1.
         23    2    1    2    0    0 -0.17358993220E+02  0.18897919260E+02 -0.72233627273E+02  0.12035326574E+03  0.92783326450E+02 0.  0.
         23    2    1    2    0    0  0.18967819677E+02 -0.52587303620E+02  0.61358433662E+02  0.12372270559E+03  0.91745560170E+02 0.  0.
        -11    1    4    4    0    0 -0.35545657377E+02 -0.25130903957E+02  0.39817588040E+02  0.58995732128E+02  0.00000000000E+00 0. -1.
         11    1    4    4    0    0  0.54513477054E+02 -0.27456399663E+02  0.21540845621E+02  0.64726973458E+02  0.00000000000E+00 0.  1.
        -13    1    3    3    0    0 -0.28640648663E+02 -0.20160524661E+02 -0.71583762434E+02  0.79692964273E+02  0.00000000000E+00 0. -1.
         13    1    3    3    0    0  0.11281655443E+02  0.39058443921E+02 -0.64986483935E+00  0.40660301467E+02  0.00000000000E+00 0.  1.
          2    1    1    2  501    0 -0.16088264571E+01  0.33689384359E+02  0.11769703142E+03  0.12243428501E+03  0.00000000000E+00 0. -1.
<scales pt_clust_5="13000.00000" pt_clust_6="13000.00000" pt_clust_7="13000.00000" pt_clust_8="13000.00000" pt_clust_9="33.72778"></scales>
<clustering>
<clus scale="   33.728">  1  9  2 -1</clus>
<clus scale="   91.746">  5  6 -1 -1</clus>
<clus scale="   92.783">  7  8 -1 -1</clus>
<clus scale="   96.945">  1  5  2 -1</clus>
<clus scale="   33.728">  1  5  2 -1</clus>
</clustering>
</event>
<event>
 9    1  0.1315259E-005  0.9615687E+02  0.7546771E-02  0.1290928E+00
         21   -1    0    0  501  502  0.00000000000E+00  0.00000000000E+00  0.76863532313E+02  0.76863532313E+02  0.00000000000E+00 0. -1.
          2   -1    0    0  502    0 -0.00000000000E+00 -0.00000000000E+00 -0.47337844102E+03  0.47337844102E+03  0.00000000000E+00 0. -1.
         23    2    1    2    0    0  0.37671732416E+02  0.13969021848E+02 -0.36974294149E+03  0.38253362852E+03  0.89486541853E+02 0.  0.
         23    2    1    2    0    0 -0.97288211383E+01 -0.23833522387E+02 -0.71502827865E+02  0.11405236141E+03  0.85044694133E+02 0.  0.
        -11    1    4    4    0    0  0.33912911311E+02 -0.96591243635E+01 -0.87822009167E+01  0.36338839965E+02  0.00000000000E+00 0. -1.
         11    1    4    4    0    0 -0.43641732449E+02 -0.14174398023E+02 -0.62720626949E+02  0.77713521445E+02  0.00000000000E+00 0.  1.
        -13    1    3    3    0    0  0.58118698235E+02 -0.12688191924E+02 -0.28937555179E+03  0.29542678158E+03  0.00000000000E+00 0. -1.
         13    1    3    3    0    0 -0.20446965819E+02  0.26657213773E+02 -0.80367389693E+02  0.87106846937E+02  0.00000000000E+00 0.  1.
          2    1    1    2  501    0 -0.27942911278E+02  0.98645005386E+01  0.44730860643E+02  0.53655983407E+02  0.00000000000E+00 0. -1.
<scales pt_clust_5="13000.00000" pt_clust_6="13000.00000" pt_clust_7="13000.00000" pt_clust_8="13000.00000" pt_clust_9="29.63300"></scales>
<clustering>
<clus scale="   29.633">  1  9  2 -1</clus>
<clus scale="   85.045">  5  6 -1 -1</clus>
<clus scale="   89.487">  7  8 -1 -1</clus>
<clus scale="   92.038">  1  5  2 -1</clus>
<clus scale="   29.633">  1  5  2 -1</clus>
</clustering>
</event>
<event>
 9    1  0.1315259E-005  0.1648547E+03  0.7546771E-02  0.1189919E+00
         21   -1    0    0  501  502  0.00000000000E+00  0.00000000000E+00  0.61962547564E+02  0.61962547564E+02  0.00000000000E+00 0.  1.
          2   -1    0    0  502    0 -0.00000000000E+00 -0.00000000000E+00 -0.68039541391E+03  0.68039541391E+03  0.00000000000E+00 0. -1.
         23    2    1    2    0    0 -0.12624643546E+03  0.54627115896E+02 -0.45685015510E+03  0.49319863828E+03  0.12494217994E+03 0.  0.
         23    2    1    2    0    0  0.51861792259E+02 -0.37139737438E+02 -0.90372710382E+02  0.14470958518E+03  0.93298615567E+02 0.  0.
        -11    1    4    4    0    0 -0.26380687591E+02 -0.10172093732E+02 -0.35620479323E+02  0.45477804651E+02  0.00000000000E+00 0.  1.
         11    1    4    4    0    0  0.78242479850E+02 -0.26967643707E+02 -0.54752231058E+02  0.99231780524E+02  0.00000000000E+00 0. -1.
        -13    1    3    3    0    0 -0.39741860474E+02  0.83584938226E+02 -0.19346590387E+03  0.21446424721E+03  0.00000000000E+00 0.  1.
         13    1    3    3    0    0 -0.86504574984E+02 -0.28957822330E+02 -0.26338425123E+03  0.27873439107E+03  0.00000000000E+00 0. -1.
          2    1    1    2  501    0  0.74384643199E+02 -0.17487378458E+02 -0.71210000865E+02  0.10444973802E+03  0.00000000000E+00 0. -1.
<scales pt_clust_5="13000.00000" pt_clust_6="13000.00000" pt_clust_7="13000.00000" pt_clust_8="13000.00000" pt_clust_9="76.41259"></scales>
<clustering>
<clus scale="   76.413">  1  9  2 -1</clus>
<clus scale="   93.299">  5  6 -1 -1</clus>
<clus scale="  124.942">  7  8 -1 -1</clus>
<clus scale="  142.377">  1  5  2 -1</clus>
<clus scale="   76.413">  1  5  2 -1</clus>
</clustering>
</event>
<event>
 9    1  0.1315259E-005  0.1190844E+03  0.7546771E-02  0.1244734E+00
          1   -1    0    0  502    0 -0.00000000000E+00  0.00000000000E+00  0.56312858901E+03  0.56312858901E+03  0.00000000000E+00 0. -1.
         21   -1    0    0  501  502  0.00000000000E+00 -0.00000000000E+00 -0.48472042559E+02  0.48472042559E+02  0.00000000000E+00 0.  1.
         23    2    1    2    0    0  0.18781670624E+02  0.53836284258E+02  0.21590304866E+03  0.24147019236E+03  0.91883789220E+02 0.  0.
         23    2    1    2    0    0 -0.12168433874E+01 -0.11826128455E+03  0.18122983038E+03  0.23496048612E+03  0.91514842968E+02 0.  0.
        -11    1    4    4    0    0 -0.46045671320E+02 -0.57991172331E+02  0.81629804849E+02  0.11021163711E+03  0.00000000000E+00 0.  1.
         11    1    4    4    0    0  0.44828827933E+02 -0.60270112224E+02  0.99600025535E+02  0.12474884900E+03  0.00000000000E+00 0. -1.
        -11    1    3    3    0    0 -0.22583478879E+02  0.42114894609E+02  0.17750699334E+03  0.18382712137E+03  0.00000000000E+00 0. -1.
         11    1    3    3    0    0  0.41365149503E+02  0.11721389649E+02  0.38396055324E+02  0.57643070990E+02  0.00000000000E+00 0.  1.
          1    1    1    2  501    0 -0.17564827237E+02  0.64425000297E+02  0.11752366740E+03  0.13516995309E+03  0.00000000000E+00 0. -1.
<scales pt_clust_5="13000.00000" pt_clust_6="13000.00000" pt_clust_7="13000.00000" pt_clust_8="13000.00000" pt_clust_9="66.77655"></scales>
<clustering>
<clus scale="   66.777">  2  9  1 -1</clus>
<clus scale="   91.515">  5  6 -1 -1</clus>
<clus scale="   91.884">  7  8 -1 -1</clus>
<clus scale="  118.800">  2  5  1 -1</clus>
<clus scale="   66.777">  2  5  1 -1</clus>
</clustering>
</event>
<event>
 9    1  0.1315259E-005  0.9088552E+02  0.7546771E-02  0.1300727E+00
         21   -1    0    0  501  502  0.00000000000E+00  0.00000000000E+00  0.11945899315E+03  0.11945899315E+03  0.00000000000E+00 0. -1.
          2   -1    0    0  502    0 -0.00000000000E+00 -0.00000000000E+00 -0.15857565034E+03  0.15857565034E+03  0.00000000000E+00 0. -1.
         23    2    1    2    0    0 -0.64233193095E+01 -0.14963151962E+02 -0.65322957987E+02  0.11290888326E+03  0.90643103058E+02 0.  0.
         23    2    1    2    0    0  0.58002682196E+01 -0.28342123811E+02 -0.24679006259E+02  0.98304733770E+02  0.90652348221E+02 0.  0.
        -11    1    4    4    0    0 -0.27633744425E+02 -0.52929446690E+01 -0.44863211735E+02  0.52956084271E+02  0.00000000000E+00 0. -1.
         11    1    4    4    0    0  0.33434012645E+02 -0.23049179142E+02  0.20184205475E+02  0.45348649498E+02  0.00000000000E+00 0.  1.
        -11    1    3    3    0    0 -0.15212413298E+01  0.36218606892E+02 -0.44599585937E+02  0.57473687250E+02  0.00000000000E+00 0.  1.
         11    1    3    3    0    0 -0.49020779797E+01 -0.51181758854E+02 -0.20723372049E+02  0.55435196013E+02  0.00000000000E+00 0. -1.
          2    1    1    2  501    0  0.62305108990E+00  0.43305275773E+02  0.50885307055E+02  0.66821026456E+02  0.00000000000E+00 0. -1.
<scales pt_clust_5="13000.00000" pt_clust_6="13000.00000" pt_clust_7="13000.00000" pt_clust_8="13000.00000" pt_clust_9="43.30976"></scales>
<clustering>
<clus scale="   43.310">  1  9  2 -1</clus>
<clus scale="   90.643">  7  8 -1 -1</clus>
<clus scale="   90.652">  5  6 -1 -1</clus>
<clus scale="   90.876">  2  7  1 -1</clus>
<clus scale="   43.310">  1  5  2 -1</clus>
</clustering>
</event>
<event>
 9    1  0.1315259E-005  0.9527776E+02  0.7546771E-02  0.1291074E+00
         -1   -1    0    0    0  501 -0.00000000000E+00  0.00000000000E+00  0.95516713545E+02  0.95516713545E+02  0.00000000000E+00 0.  1.
         21   -1    0    0  501  502  0.00000000000E+00 -0.00000000000E+00 -0.43015130998E+03  0.43015130998E+03  0.00000000000E+00 0. -1.
         23    2    1    2    0    0  0.14599497784E+02 -0.56756099508E+01  0.51846506192E+02  0.10770798670E+03  0.93099904998E+02 0.  0.
         23    2    1    2    0    0 -0.52918025522E+02  0.14486753886E+02 -0.19561011924E+03  0.22308141274E+03  0.92151041766E+02 0.  0.
        -11    1    3    3    0    0  0.49437318786E+02  0.68483019699E+00  0.52729108988E+02  0.72283306620E+02  0.00000000000E+00 0.  1.
         11    1    3    3    0    0 -0.34837821002E+02 -0.63604401477E+01 -0.88260279657E+00  0.35424680080E+02  0.00000000000E+00 0. -1.
        -13    1    4    4    0    0 -0.48254904014E+02 -0.27570548043E+02 -0.63628348408E+02  0.84482173279E+02  0.00000000000E+00 0.  1.
         13    1    4    4    0    0 -0.46631215077E+01  0.42057301929E+02 -0.13198177083E+03  0.13859923946E+03  0.00000000000E+00 0. -1.
         -1    1    1    2    0  502  0.38318527738E+02 -0.88111439351E+01 -0.19087098338E+03  0.19487862408E+03  0.00000000000E+00 0.  1.
<scales pt_clust_5="13000.00000" pt_clust_6="13000.00000" pt_clust_7="13000.00000" pt_clust_8="13000.00000" pt_clust_9="39.31852"></scales>
<clustering>
<clus scale="   39.319">  2  9  1 -1</clus>
<clus scale="   92.151">  7  8 -1 -1</clus>
<clus scale="   93.100">  5  6 -1 -1</clus>
<clus scale="   94.351">  2  7  1 -1</clus>
<clus scale="   39.319">  2  5  1 -1</clus>
</clustering>
</event>
<event>
 9    1  0.1315259E-005  0.9608157E+02  0.7546771E-02  0.1289693E+00
          4   -1    0    0  502    0 -0.00000000000E+00  0.00000000000E+00  0.51756581878E+03  0.51756581878E+03  0.00000000000E+00 0. -1.
         21   -1    0    0  501  502  0.00000000000E+00 -0.00000000000E+00 -0.31970592982E+02  0.31970592982E+02  0.00000000000E+00 0. -1.
         23    2    1    2    0    0  0.97497215323E+01  0.28329174489E+02  0.32321021480E+03  0.33747600125E+03  0.92345055488E+02 0.  0.
         23    2    1    2    0    0  0.15021637938E+02 -0.15553586354E+01  0.13976972692E+03  0.16914294857E+03  0.94051537682E+02 0.  0.
        -13    1    4    4    0    0 -0.34919757099E+02  0.29865107177E+01  0.97328884785E+02  0.10344670365E+03  0.00000000000E+00 0.  1.
         13    1    4    4    0    0  0.49941395037E+02 -0.45418693531E+01  0.42440842133E+02  0.65696244919E+02  0.00000000000E+00 0. -1.
        -13    1    3    3    0    0  0.38157212890E+02 -0.46022384353E+01  0.64085120171E+02  0.74726542282E+02  0.00000000000E+00 0.  1.
         13    1    3    3    0    0 -0.28407491358E+02  0.32931412925E+02  0.25912509463E+03  0.26274945897E+03  0.00000000000E+00 0. -1.
          4    1    1    2  501    0 -0.24771359470E+02 -0.26773815854E+02  0.22615284075E+02  0.42917461937E+02  0.00000000000E+00 0. -1.
<scales pt_clust_5="13000.00000" pt_clust_6="13000.00000" pt_clust_7="13000.00000" pt_clust_8="13000.00000" pt_clust_9="36.47544"></scales>
<clustering>
<clus scale="   36.475">  2  9  1 -1</clus>
<clus scale="   92.345">  7  8 -1 -1</clus>
<clus scale="   94.052">  5  6 -1 -1</clus>
<clus scale="   94.412">  1  7  2 -1</clus>
<clus scale="   36.475">  2  5  1 -1</clus>
</clustering>
</event>
<event>
 9    1  0.1315259E-005  0.1016910E+03  0.7546771E-02  0.1277040E+00
         21   -1    0    0  501  502  0.00000000000E+00  0.00000000000E+00  0.96538814760E+02  0.96538814760E+02  0.00000000000E+00 0. -1.
         -2   -1    0    0    0  501 -0.00000000000E+00 -0.00000000000E+00 -0.13883675581E+03  0.13883675581E+03  0.00000000000E+00 0.  1.
         23    2    1    2    0    0 -0.62956878773E+01 -0.45849349873E+02 -0.38958529662E+02  0.10849918906E+03  0.90069464436E+02 0.  0.
         23    2    1    2    0    0 -0.15297976909E+02  0.46222622578E+02 -0.12050005342E+02  0.10358904292E+03  0.90636241367E+02 0.  0.
        -11    1    3    3    0    0  0.25488147259E+02  0.16997496101E+02 -0.14980112203E+02  0.34102262184E+02  0.00000000000E+00 0.  1.
         11    1    3    3    0    0 -0.31783835137E+02 -0.62846845974E+02 -0.23978417459E+02  0.74396926877E+02  0.00000000000E+00 0. -1.
        -11    1    4    4    0    0 -0.30511983828E+02  0.12062980736E+02  0.31983531192E+02  0.45819678402E+02  0.00000000000E+00 0. -1.
         11    1    4    4    0    0  0.15214006919E+02  0.34159641842E+02 -0.44033536534E+02  0.57769364519E+02  0.00000000000E+00 0.  1.
         -2    1    1    2    0  502  0.21593664786E+02 -0.37327270468E+00  0.87105939560E+01  0.23287338587E+02  0.00000000000E+00 0.  1.
<scales pt_clust_5="13000.00000" pt_clust_6="13000.00000" pt_clust_7="13000.00000" pt_clust_8="13000.00000" pt_clust_9="21.59689"></scales>
<clustering>
<clus scale="   21.597">  1  9  2 -1</clus>
<clus scale="   90.069">  5  6 -1 -1</clus>
<clus scale="   90.636">  7  8 -1 -1</clus>
<clus scale="  101.186">  2  5  1 -1</clus>
<clus scale="   21.597">  1  5  2 -1</clus>
</clustering>
</event>
<event>
 9    1  0.1315259E-005  0.1940938E+03  0.7546771E-02  0.1183472E+00
         21   -1    0    0  501  502  0.00000000000E+00  0.00000000000E+00  0.36429596820E+03  0.36429596820E+03  0.00000000000E+00 0. -1.
          1   -1    0    0  502    0 -0.00000000000E+00 -0.00000000000E+00 -0.30480844004E+03  0.30480844004E+03  0.00000000000E+00 0. -1.
         23    2    1    2    0    0  0.21844827707E+02 -0.37644746331E+02  0.63944769948E+02  0.11926504401E+03  0.90779368220E+02 0.  0.
         23    2    1    2    0    0  0.12755983580E+03  0.11619123731E+03 -0.20706308809E+03  0.28613416201E+03  0.96050616263E+02 0.  0.
        -11    1    4    4    0    0 -0.46266912846E+01  0.48250273911E+02 -0.58792432306E+02  0.76197410068E+02  0.00000000000E+00 0.  1.
         11    1    4    4    0    0  0.13218652708E+03  0.67940963398E+02 -0.14827065579E+03  0.20993675194E+03  0.00000000000E+00 0. -1.
        -13    1    3    3    0    0 -0.24470149949E+02 -0.47396984856E+02  0.33484121305E+02  0.62979749059E+02  0.00000000000E+00 0.  1.
         13    1    3    3    0    0  0.46314977657E+02  0.97522385253E+01  0.30460648644E+02  0.56285294948E+02  0.00000000000E+00 0. -1.
          1    1    1    2  501    0 -0.14940466351E+03 -0.78546490978E+02  0.20260584631E+03  0.26370520222E+03  0.00000000000E+00 0. -1.
<scales pt_clust_5="13000.00000" pt_clust_6="13000.00000" pt_clust_7="13000.00000" pt_clust_8="13000.00000" pt_clust_9="168.66141"></scales>
<clustering>
<clus scale="   90.779">  7  8 -1 -1</clus>
<clus scale="   96.051">  5  6 -1 -1</clus>
<clus scale="  100.674">  2  7  1 -1</clus>
<clus scale="  168.661">  1  9  2 -1</clus>
<clus scale="  168.661">  1  5  2 -1</clus>
</clustering>
</event>
<event>
 9    1  0.1315259E-005  0.1008450E+03  0.7546771E-02  0.1287979E+00
         21   -1    0    0  501  502  0.00000000000E+00  0.00000000000E+00  0.12813539355E+03  0.12813539355E+03  0.00000000000E+00 0. -1.
         -1   -1    0    0    0  501 -0.00000000000E+00 -0.00000000000E+00 -0.16639688770E+03  0.16639688770E+03  0.00000000000E+00 0.  1.
         23    2    1    2    0    0  0.25786710226E+02  0.24515065371E+02 -0.94522735124E+02  0.12475448346E+03  0.73233809363E+02 0.  0.
         23    2    1    2    0    0 -0.52401718964E+02 -0.55467335991E+02  0.41027866617E+02  0.12620650631E+03  0.91772713170E+02 0.  0.
        -11    1    4    4    0    0 -0.78064530183E+02 -0.47235677182E+02  0.38844829465E+02  0.99167539284E+02  0.00000000000E+00 0. -1.
         11    1    4    4    0    0  0.25662811219E+02 -0.82316588086E+01  0.21830371525E+01  0.27038967022E+02  0.00000000000E+00 0.  1.
        -13    1    3    3    0    0  0.49297919586E+02  0.22372656574E+02 -0.47008154218E+02  0.71697888397E+02  0.00000000000E+00 0.  1.
         13    1    3    3    0    0 -0.23511209360E+02  0.21424087967E+01 -0.47514580907E+02  0.53056595064E+02  0.00000000000E+00 0. -1.
         -1    1    1    2    0  502  0.26615008738E+02  0.30952270620E+02  0.15233374355E+02  0.43571291476E+02  0.00000000000E+00 0.  1.
<scales pt_clust_5="13000.00000" pt_clust_6="13000.00000" pt_clust_7="13000.00000" pt_clust_8="13000.00000" pt_clust_9="40.82158"></scales>
<clustering>
<clus scale="   40.822">  1  9  2 -1</clus>
<clus scale="   73.234">  7  8 -1 -1</clus>
<clus scale="   84.325">  2  7  1 -1</clus>
<clus scale="   91.773">  5  6 -1 -1</clus>
<clus scale="   40.822">  1  5  2 -1</clus>
</clustering>
</event>
<event>
 9    1  0.1315259E-005  0.9754031E+02  0.7546771E-02  0.1289182E+00
         21   -1    0    0  501  502  0.00000000000E+00  0.00000000000E+00  0.31659213760E+02  0.31659213760E+02  0.00000000000E+00 0. -1.
         -1   -1    0    0    0  501 -0.00000000000E+00 -0.00000000000E+00 -0.51869097088E+03  0.51869097088E+03  0.00000000000E+00 0.  1.
         23    2    1    2    0    0 -0.41898184084E+02 -0.28812773855E+02 -0.28457927362E+03  0.30285592285E+03  0.90281300735E+02 0.  0.
         23    2    1    2    0    0  0.14707218038E+02  0.19017986997E+02 -0.20060380793E+03  0.21853387358E+03  0.83289735596E+02 0.  0.
        -11    1    4    4    0    0  0.48686103033E+02  0.11065025988E+02 -0.13952092647E+03  0.14818522312E+03  0.00000000000E+00 0.  1.
         11    1    4    4    0    0 -0.33978884995E+02  0.79529610082E+01 -0.61082881454E+02  0.70348650456E+02  0.00000000000E+00 0. -1.
        -13    1    3    3    0    0 -0.69235148369E+02 -0.14506178959E+02 -0.16850450059E+03  0.18275038089E+03  0.00000000000E+00 0. -1.
         13    1    3    3    0    0  0.27336964285E+02 -0.14306594896E+02 -0.11607477303E+03  0.12010554195E+03  0.00000000000E+00 0.  1.
         -1    1    1    2    0  502  0.27190966046E+02  0.97947868581E+01 -0.18486755735E+01  0.28960388214E+02  0.00000000000E+00 0.  1.
<scales pt_clust_5="13000.00000" pt_clust_6="13000.00000" pt_clust_7="13000.00000" pt_clust_8="13000.00000" pt_clust_9="28.90132"></scales>
<clustering>
<clus scale="   28.901">  1  9  2 -1</clus>
<clus scale="   83.290">  5  6 -1 -1</clus>
<clus scale="   90.281">  7  8 -1 -1</clus>
<clus scale="   91.108">  1  5  2 -1</clus>
<clus scale="   28.901">  1  5  2 -1</clus>
</clustering>
</event>
<event>
 9    1  0.1315259E-005  0.9700102E+02  0.7546771E-02  0.1288929E+00
          2   -1    0    0  502    0 -0.00000000000E+00  0.00000000000E+00  0.25221362439E+03  0.25221362439E+03  0.00000000000E+00 0. -1.
         21   -1    0    0  501  502  0.00000000000E+00 -0.00000000000E+00 -0.15347251109E+03  0.15347251109E+03  0.00000000000E+00 0. -1.
         23    2    1    2    0    0  0.15270548024E+02  0.51985344567E+02  0.11387986757E+03  0.15576615835E+03  0.91426506888E+02 0.  0.
         23    2    1    2    0    0  0.52933585504E+02  0.19806024876E+02  0.63293704947E+02  0.12359715570E+03  0.89866126635E+02 0.  0.
        -11    1    4    4    0    0  0.67759493615E+02 -0.22425513274E+01  0.16482883778E+02  0.69771509006E+02  0.00000000000E+00 0.  1.
         11    1    4    4    0    0 -0.14825908111E+02  0.22048576204E+02  0.46810821168E+02  0.53825646697E+02  0.00000000000E+00 0. -1.
        -11    1    3    3    0    0  0.26698291063E+02  0.75505042803E+02  0.87672918339E+02  0.11874489818E+03  0.00000000000E+00 0. -1.
         11    1    3    3    0    0 -0.11427743040E+02 -0.23519698236E+02  0.26206949232E+02  0.37021260164E+02  0.00000000000E+00 0.  1.
          2    1    1    2  501    0 -0.68204133528E+02 -0.71791369443E+02 -0.78432459213E+02  0.12632282143E+03  0.00000000000E+00 0. -1.
<scales pt_clust_5="13000.00000" pt_clust_6="13000.00000" pt_clust_7="13000.00000" pt_clust_8="13000.00000" pt_clust_9="99.02426"></scales>
<clustering>
<clus scale="   89.866">  5  6 -1 -1</clus>
<clus scale="   91.427">  7  8 -1 -1</clus>
<clus scale="   99.024">  2  9  1 -1</clus>
<clus scale="   99.024">  2  5  1 -1</clus>
<clus scale="   97.001">  2  5  1 -1</clus>
</clustering>
</event>
<event>
 9    1  0.1315259E-005  0.1045300E+03  0.7546771E-02  0.1272351E+00
          1   -1    0    0  502    0 -0.00000000000E+00  0.00000000000E+00  0.25655468783E+03  0.25655468783E+03  0.00000000000E+00 0. -1.
         21   -1    0    0  501  502  0.00000000000E+00 -0.00000000000E+00 -0.57362284466E+02  0.57362284466E+02  0.00000000000E+00 0.  1.
         23    2    1    2    0    0  0.37877559689E+02  0.40646022759E+02  0.14276692042E+03  0.17939764784E+03  0.93350488969E+02 0.  0.
         23    2    1    2    0    0 -0.29805686385E+02 -0.17182919066E+02  0.49867173626E+02  0.10885448869E+03  0.90437453828E+02 0.  0.
        -11    1    3    3    0    0  0.58553730051E+02  0.57298648332E+02  0.11190272905E+03  0.13868631934E+03  0.00000000000E+00 0. -1.
         11    1    3    3    0    0 -0.20676170362E+02 -0.16652625574E+02  0.30864191370E+02  0.40711328500E+02  0.00000000000E+00 0.  1.
        -13    1    4    4    0    0  0.12013168094E+02  0.27578178149E+02  0.34356947443E+02  0.45664778060E+02  0.00000000000E+00 0. -1.
         13    1    4    4    0    0 -0.41818854479E+02 -0.44761097214E+02  0.15510226183E+02  0.63189710634E+02  0.00000000000E+00 0.  1.
          1    1    1    2  501    0 -0.80718733041E+01 -0.23463103693E+02  0.65583093178E+01  0.25664835761E+02  0.00000000000E+00 0. -1.
<scales pt_clust_5="13000.00000" pt_clust_6="13000.00000" pt_clust_7="13000.00000" pt_clust_8="13000.00000" pt_clust_9="24.81275"></scales>
<clustering>
<clus scale="   24.813">  2  9  1 -1</clus>
<clus scale="   90.437">  7  8 -1 -1</clus>
<clus scale="   93.350">  5  6 -1 -1</clus>
<clus scale="  101.937">  2  7  1 -1</clus>
<clus scale="   24.813">  2  5  1 -1</clus>
</clustering>
</event>
<event>
 9    1  0.1315259E-005  0.1034279E+03  0.7546771E-02  0.1274680E+00
         -1   -1    0    0    0  501 -0.00000000000E+00  0.00000000000E+00  0.42609549264E+03  0.42609549264E+03  0.00000000000E+00 0.  1.
         21   -1    0    0  501  502  0.00000000000E+00 -0.00000000000E+00 -0.73263890817E+02  0.73263890817E+02  0.00000000000E+00 0. -1.
         23    2    1    2    0    0 -0.43778428582E+02 -0.56633961849E+01  0.34938428883E+03  0.36380492849E+03  0.91301806368E+02 0.  0.
         23    2    1    2    0    0  0.28746946028E+02 -0.16048966708E+02 -0.17954193513E+02  0.10156332891E+03  0.94386442222E+02 0.  0.
        -11    1    3    3    0    0 -0.39724632563E+02  0.37590411017E+02  0.23903922448E+03  0.24521589727E+03  0.00000000000E+00 0.  1.
         11    1    3    3    0    0 -0.40537960186E+01 -0.43253807202E+02  0.11034506435E+03  0.11858903122E+03  0.00000000000E+00 0. -1.
        -13    1    4    4    0    0  0.33525707095E+02 -0.51268577736E+02 -0.23462454401E+02  0.65596698589E+02  0.00000000000E+00 0. -1.
         13    1    4    4    0    0 -0.47787610662E+01  0.35219611028E+02  0.55082608885E+01  0.35966630317E+02  0.00000000000E+00 0.  1.
         -1    1    1    2    0  502  0.15031482553E+02  0.21712362893E+02  0.21401506500E+02  0.33991126057E+02  0.00000000000E+00 0.  1.
<scales pt_clust_5="13000.00000" pt_clust_6="13000.00000" pt_clust_7="13000.00000" pt_clust_8="13000.00000" pt_clust_9="26.40781"></scales>
<clustering>
<clus scale="   26.408">  2  9  1 -1</clus>
<clus scale="   91.302">  5  6 -1 -1</clus>
<clus scale="   94.386">  7  8 -1 -1</clus>
<clus scale="  100.621">  1  5  2 -1</clus>
<clus scale="   26.408">  2  5  1 -1</clus>
</clustering>
</event>
<event>
 9    1  0.1315259E-005  0.1378965E+03  0.7546771E-02  0.1228950E+00
          1   -1    0    0  502    0 -0.00000000000E+00  0.00000000000E+00  0.26411647519E+03  0.26411647519E+03  0.00000000000E+00 0. -1.
         21   -1    0    0  501  502  0.00000000000E+00 -0.00000000000E+00 -0.18306343904E+03  0.18306343904E+03  0.00000000000E+00 0. -1.
         23    2    1    2    0    0 -0.30162164515E+02 -0.42428985185E+02  0.55087615350E+02  0.11910608473E+03  0.91878393012E+02 0.  0.
         23    2    1    2    0    0  0.42306357963E+01 -0.63451425730E+02  0.13408523136E+03  0.17453882036E+03  0.91874745365E+02 0.  0.
        -13    1    4    4    0    0 -0.20871858579E+02 -0.65901336208E+02  0.13227876950E+03  0.14925244874E+03  0.00000000000E+00 0. -1.
         13    1    4    4    0    0  0.25102494375E+02  0.24499104781E+01  0.18064618646E+01  0.25286371620E+02  0.00000000000E+00 0.  1.
        -13    1    3    3    0    0 -0.36412112114E+02  0.20843644966E+02  0.19866440105E+02  0.46421707062E+02  0.00000000000E+00 0.  1.
         13    1    3    3    0    0  0.62499475992E+01 -0.63272630151E+02  0.35221175245E+02  0.72684377667E+02  0.00000000000E+00 0. -1.
          1    1    1    2  501    0  0.25931528719E+02  0.10588041092E+03 -0.10811981056E+03  0.15353500914E+03  0.00000000000E+00 0. -1.
<scales pt_clust_5="13000.00000" pt_clust_6="13000.00000" pt_clust_7="13000.00000" pt_clust_8="13000.00000" pt_clust_9="102.83233"></scales>
<clustering>
<clus scale="   91.875">  5  6 -1 -1</clus>
<clus scale="   91.878">  7  8 -1 -1</clus>
<clus scale="  105.601">  1  7  2 -1</clus>
<clus scale="  102.832">  2  9  1 -1</clus>
<clus scale="  102.832">  2  5  1 -1</clus>
</clustering>
</event>
<event>
 9    1  0.1315259E-005  0.1244736E+03  0.7546771E-02  0.1236526E+00
         21   -1    0    0  501  502  0.00000000000E+00  0.00000000000E+00  0.78923869939E+02  0.78923869939E+02  0.00000000000E+00 0.  1.
          2   -1    0    0  502    0 -0.00000000000E+00 -0.00000000000E+00 -0.44090735386E+03  0.44090735386E+03  0.00000000000E+00 0. -1.
         23    2    1    2    0    0  0.74202647619E+02 -0.40494550647E+02 -0.34341366137E+03  0.36533850106E+03  0.91615697318E+02 0.  0.
         23    2    1    2    0    0 -0.58987120224E+02  0.63507376888E+02 -0.22702643577E+02  0.12659679731E+03  0.89435293884E+02 0.  0.
        -11    1    3    3    0    0  0.76478570414E+02 -0.26804445590E+00 -0.15721101670E+03  0.17482662083E+03  0.00000000000E+00 0.  1.
         11    1    3    3    0    0 -0.22759227950E+01 -0.40226506191E+02 -0.18620264467E+03  0.19051188023E+03  0.00000000000E+00 0. -1.
        -13    1    4    4    0    0 -0.25413204315E+02  0.80204373789E+02 -0.28813497877E+01  0.84183577407E+02  0.00000000000E+00 0.  1.
         13    1    4    4    0    0 -0.33573915909E+02 -0.16696996902E+02 -0.19821293790E+02  0.42413219902E+02  0.00000000000E+00 0. -1.
          2    1    1    2  501    0 -0.15215527395E+02 -0.23012826241E+02  0.41328210341E+01  0.27895925423E+02  0.00000000000E+00 0. -1.
<scales pt_clust_5="13000.00000" pt_clust_6="13000.00000" pt_clust_7="13000.00000" pt_clust_8="13000.00000" pt_clust_9="27.58809"></scales>
<clustering>
<clus scale="   27.588">  1  9  2 -1</clus>
<clus scale="   89.435">  7  8 -1 -1</clus>
<clus scale="   91.616">  5  6 -1 -1</clus>
<clus scale="  122.878">  1  7  2 -1</clus>
<clus scale="   27.588">  1  5  2 -1</clus>
</clustering>
</event>
<event>
 9    1  0.1315259E-005  0.9548905E+02  0.7546771E-02  0.1290181E+00
          1   -1    0    0  502    0 -0.00000000000E+00  0.00000000000E+00  0.25734478161E+03  0.25734478161E+03  0.00000000000E+00 0. -1.
         21   -1    0    0  501  502  0.00000000000E+00 -0.00000000000E+00 -0.62324046048E+02  0.62324046048E+02  0.00000000000E+00 0.  1.
         23    2    1    2    0    0 -0.31541143493E+02  0.27793376381E+02  0.11838814242E+03  0.15503444862E+03  0.90843890760E+02 0.  0.
         23    2    1    2    0    0  0.16909421934E+02 -0.23587286608E+01  0.92815384702E+02  0.13112480841E+03  0.91035858830E+02 0.  0.
        -11    1    3    3    0    0 -0.20498288993E+02  0.61395647442E+02  0.77038704340E+02  0.10062090907E+03  0.00000000000E+00 0. -1.
         11    1    3    3    0    0 -0.11042854500E+02 -0.33602271061E+02  0.41349438083E+02  0.54413539544E+02  0.00000000000E+00 0.  1.
        -13    1    4    4    0    0  0.38251223436E+02 -0.14341408536E+02  0.64489587583E+01  0.41357238330E+02  0.00000000000E+00 0.  1.
         13    1    4    4    0    0 -0.21341801503E+02  0.11982679875E+02  0.86366425943E+02  0.89767570083E+02  0.00000000000E+00 0. -1.
          1    1    1    2  501    0  0.14631721560E+02 -0.25434647721E+02 -0.16182791567E+02  0.33509570623E+02  0.00000000000E+00 0. -1.
<scales pt_clust_5="13000.00000" pt_clust_6="13000.00000" pt_clust_7="13000.00000" pt_clust_8="13000.00000" pt_clust_9="29.34295"></scales>
<clustering>
<clus scale="   29.343">  2  9  1 -1</clus>
<clus scale="   90.844">  5  6 -1 -1</clus>
<clus scale="   91.036">  7  8 -1 -1</clus>
<clus scale="   95.306">  1  5  2 -1</clus>
<clus scale="   29.343">  2  5  1 -1</clus>
</clustering>
</event>
<event>
 9    1  0.1315259E-005  0.9439412E+02  0.7546771E-02  0.1293666E+00
         21   -1    0    0  501  502  0.00000000000E+00  0.00000000000E+00  0.10208808011E+03  0.10208808011E+03  0.00000000000E+00 0. -1.
          1   -1    0    0  502    0 -0.00000000000E+00 -0.00000000000E+00 -0.23754602106E+03  0.23754602106E+03  0.00000000000E+00 0. -1.
         23    2    1    2    0    0 -0.53424857880E+01 -0.18375106341E+02 -0.18088232891E+03  0.20398897092E+03  0.92341196980E+02 0.  0.
         23    2    1    2    0    0  0.25763005211E+02  0.12900559318E+02  0.11298156223E+02  0.95500791027E+02  0.90347085645E+02 0.  0.
        -13    1    3    3    0    0  0.41993068555E+02 -0.19257112375E+01 -0.61279873253E+02  0.74312509286E+02  0.00000000000E+00 0.  1.
         13    1    3    3    0    0 -0.47335554343E+02 -0.16449395104E+02 -0.11960245566E+03  0.12967646164E+03  0.00000000000E+00 0. -1.
        -13    1    4    4    0    0 -0.30891050200E+02  0.26498195318E+00 -0.11743139174E+02  0.33048880701E+02  0.00000000000E+00 0. -1.
         13    1    4    4    0    0  0.56654055411E+02  0.12635577365E+02  0.23041295397E+02  0.62451910327E+02  0.00000000000E+00 0.  1.
          1    1    1    2  501    0 -0.20420519423E+02  0.54745470234E+01  0.34126231739E+02  0.40144339219E+02  0.00000000000E+00 0. -1.
<scales pt_clust_5="13000.00000" pt_clust_6="13000.00000" pt_clust_7="13000.00000" pt_clust_8="13000.00000" pt_clust_9="21.14162"></scales>
<clustering>
<clus scale="   21.142">  1  9  2 -1</clus>
<clus scale="   90.347">  7  8 -1 -1</clus>
<clus scale="   92.341">  5  6 -1 -1</clus>
<clus scale="   92.444">  1  7  2 -1</clus>
<clus scale="   21.142">  1  5  2 -1</clus>
</clustering>
</event>
<event>
 9    1  0.1315259E-005  0.2966853E+03  0.7546771E-02  0.1086927E+00
          1   -1    0    0  502    0 -0.00000000000E+00  0.00000000000E+00  0.72849981148E+03  0.72849981148E+03  0.00000000000E+00 0. -1.
         21   -1    0    0  501  502  0.00000000000E+00 -0.00000000000E+00 -0.21744927355E+03  0.21744927355E+03  0.00000000000E+00 0.  1.
         23    2    1    2    0    0  0.22096368675E+03  0.13366251892E+03  0.33500574820E+03  0.43277216038E+03  0.91500118332E+02 0.  0.
         23    2    1    2    0    0 -0.30113191499E+03 -0.18753589301E+03  0.76305392349E+02  0.37433445043E+03  0.91943604884E+02 0.  0.
        -13    1    4    4    0    0 -0.62665355434E+02 -0.22338012965E+01 -0.55877361703E+00  0.62707646008E+02  0.00000000000E+00 0. -1.
         13    1    4    4    0    0 -0.23846655956E+03 -0.18530209172E+03  0.76864165966E+02  0.31162680442E+03  0.00000000000E+00 0.  1.
        -13    1    3    3    0    0  0.19677200158E+03  0.91936003795E+02  0.22534229250E+03  0.31297060275E+03  0.00000000000E+00 0.  1.
         13    1    3    3    0    0  0.24191685171E+02  0.41726515120E+02  0.10966345570E+03  0.11980155763E+03  0.00000000000E+00 0. -1.
          1    1    1    2  501    0  0.80168228249E+02  0.53873374098E+02  0.99739397387E+02  0.13884247422E+03  0.00000000000E+00 0. -1.
<scales pt_clust_5="13000.00000" pt_clust_6="13000.00000" pt_clust_7="13000.00000" pt_clust_8="13000.00000" pt_clust_9="96.58827"></scales>
<clustering>
<clus scale="   91.500">  7  8 -1 -1</clus>
<clus scale="   91.944">  5  6 -1 -1</clus>
<clus scale="   96.588">  2  9  1 -1</clus>
<clus scale="  296.548">  1  7  2 -1</clus>
<clus scale="   96.588">  2  5  1 -1</clus>
</clustering>
</event>
<event>
 9    1  0.1315259E-005  0.4158405E+03  0.7546771E-02  0.1038467E+00
         21   -1    0    0  501  502  0.00000000000E+00  0.00000000000E+00  0.21442471916E+03  0.21442471916E+03  0.00000000000E+00 0. -1.
          2   -1    0    0  502    0 -0.00000000000E+00 -0.00000000000E+00 -0.10373804761E+04  0.10373804761E+04  0.00000000000E+00 0. -1.
         23    2    1    2    0    0 -0.23493555466E+03 -0.28783284634E+03 -0.40353345284E+03  0.55577687304E+03  0.89477498686E+02 0.  0.
         23    2    1    2    0    0  0.26956693980E+03  0.36956757947E+03 -0.35872891978E+03  0.58849420516E+03  0.91610374908E+02 0.  0.
        -13    1    4    4    0    0  0.28579529403E+02  0.10354998803E+03 -0.76344053787E+02  0.13178696472E+03  0.00000000000E+00 0.  1.
         13    1    4    4    0    0  0.24098741039E+03  0.26601759143E+03 -0.28238486600E+03  0.45670724043E+03  0.00000000000E+00 0. -1.
        -13    1    3    3    0    0 -0.13610786516E+03 -0.11162795099E+03 -0.14765196334E+03  0.22975476639E+03  0.00000000000E+00 0. -1.
         13    1    3    3    0    0 -0.98827689504E+02 -0.17620489535E+03 -0.25588148950E+03  0.32602210665E+03  0.00000000000E+00 0.  1.
          2    1    1    2  501    0 -0.34631385132E+02 -0.81734733124E+02 -0.60693384373E+02  0.10753411711E+03  0.00000000000E+00 0. -1.
<scales pt_clust_5="13000.00000" pt_clust_6="13000.00000" pt_clust_7="13000.00000" pt_clust_8="13000.00000" pt_clust_9="88.76880"></scales>
<clustering>
<clus scale="   88.769">  1  9  2 -1</clus>
<clus scale="   89.477">  7  8 -1 -1</clus>
<clus scale="   91.610">  5  6 -1 -1</clus>
<clus scale="  415.376">  2  7  1 -1</clus>
<clus scale="   88.769">  1  5  2 -1</clus>
</clustering>
</event>
<event>
 9    1  0.1315259E-005  0.9724725E+02  0.7546771E-02  0.1287929E+00
         21   -1    0    0  501  502  0.00000000000E+00  0.00000000000E+00  0.57085957576E+03  0.57085957576E+03  0.00000000000E+00 0. -1.
         -4   -1    0    0    0  501 -0.00000000000E+00 -0.00000000000E+00 -0.23002191695E+02  0.23002191695E+02  0.00000000000E+00 0.  1.
         23    2    1    2    0    0  0.26888794536E+02 -0.10791656222E+01  0.15427094243E+03  0.17957277165E+03  0.87878807289E+02 0.  0.
         23    2    1    2    0    0 -0.45282051448E+02  0.18620589058E+02  0.32796858530E+03  0.34392056178E+03  0.91218251217E+02 0.  0.
        -11    1    3    3    0    0 -0.29074796828E+01  0.38700336048E+02  0.92343116699E+02  0.10016696387E+03  0.00000000000E+00 0.  1.
         11    1    3    3    0    0  0.29796274219E+02 -0.39779501670E+02  0.61927825730E+02  0.79405807786E+02  0.00000000000E+00 0. -1.
        -13    1    4    4    0    0 -0.59539642856E+02  0.42951908531E+02  0.20469409901E+03  0.21746151312E+03  0.00000000000E+00 0. -1.
         13    1    4    4    0    0  0.14257591407E+02 -0.24331319473E+02  0.12327448628E+03  0.12645904866E+03  0.00000000000E+00 0.  1.
         -4    1    1    2    0  502  0.18393256912E+02 -0.17541423436E+02  0.65617856344E+02  0.70368434025E+02  0.00000000000E+00 0.  1.
<scales pt_clust_5="13000.00000" pt_clust_6="13000.00000" pt_clust_7="13000.00000" pt_clust_8="13000.00000" pt_clust_9="25.41679"></scales>
<clustering>
<clus scale="   25.417">  1  9  2 -1</clus>
<clus scale="   87.879">  5  6 -1 -1</clus>
<clus scale="   91.218">  7  8 -1 -1</clus>
<clus scale="   94.122">  2  5  1 -1</clus>
<clus scale="   25.417">  1  5  2 -1</clus>
</clustering>
</event>
<event>
 9    1  0.1315259E-005  0.1592636E+03  0.7546771E-02  0.1190054E+00
         21   -1    0    0  501  502  0.00000000000E+00  0.00000000000E+00  0.15675306292E+03  0.15675306292E+03  0.00000000000E+00 0.  1.
          3   -1    0    0  502    0 -0.00000000000E+00 -0.00000000000E+00 -0.32620026922E+03  0.32620026922E+03  0.00000000000E+00 0. -1.
         23    2    1    2    0    0 -0.11131465994E+03 -0.53381320107E+02 -0.21105444435E+03  0.26033527547E+03  0.89386566766E+02 0.  0.
         23    2    1    2    0    0  0.13584233523E+03  0.71308099280E+02  0.11049648350E+02  0.17952812102E+03  0.92575733567E+02 0.  0.
        -11    1    4    4    0    0  0.80721723015E+02  0.90041820213E+02  0.56189887876E+01  0.12105824626E+03  0.00000000000E+00 0. -1.
         11    1    4    4    0    0  0.55120612211E+02 -0.18733720933E+02  0.54306595628E+01  0.58469874755E+02  0.00000000000E+00 0.  1.
        -13    1    3    3    0    0 -0.34528460608E+02 -0.62417744515E+02 -0.13022796829E+03  0.14848405015E+03  0.00000000000E+00 0.  1.
         13    1    3    3    0    0 -0.76786199327E+02  0.90364244081E+01 -0.80826476060E+02  0.11185122532E+03  0.00000000000E+00 0. -1.
          3    1    1    2  501    0 -0.24527675291E+02 -0.17926779173E+02  0.30557589695E+02  0.43089935654E+02  0.00000000000E+00 0. -1.
<scales pt_clust_5="13000.00000" pt_clust_6="13000.00000" pt_clust_7="13000.00000" pt_clust_8="13000.00000" pt_clust_9="30.38052"></scales>
<clustering>
<clus scale="   30.381">  1  9  2 -1</clus>
<clus scale="   89.387">  7  8 -1 -1</clus>
<clus scale="   92.576">  5  6 -1 -1</clus>
<clus scale="  157.431">  2  7  1 -1</clus>
<clus scale="   30.381">  1  5  2 -1</clus>
</clustering>
</event>
<event>
 9    1  0.1315259E-005  0.1856081E+03  0.7546771E-02  0.1163464E+00
         21   -1    0    0  501  502  0.00000000000E+00  0.00000000000E+00  0.16963678548E+03  0.16963678548E+03  0.00000000000E+00 0.  1.
          2   -1    0    0  502    0 -0.00000000000E+00 -0.00000000000E+00 -0.38777773294E+03  0.38777773294E+03  0.00000000000E+00 0. -1.
         23    2    1    2    0    0 -0.30256874717E+02  0.16058591543E+03 -0.28457547708E+03  0.34018900406E+03  0.89677430970E+02 0.  0.
         23    2    1    2    0    0  0.34701235746E+02 -0.13296873221E+03  0.30072972422E+02  0.17134933323E+03  0.97833280731E+02 0.  0.
        -11    1    3    3    0    0  0.27944044735E+02  0.61530429142E+02 -0.14055986448E+03  0.15596133768E+03  0.00000000000E+00 0. -1.
         11    1    3    3    0    0 -0.58200919452E+02  0.99055486289E+02 -0.14401561260E+03  0.18422766638E+03  0.00000000000E+00 0.  1.
        -11    1    4    4    0    0 -0.27209638676E+02 -0.32119640561E+02  0.32192044700E+02  0.52993994835E+02  0.00000000000E+00 0.  1.
         11    1    4    4    0    0  0.61910874422E+02 -0.10084909165E+03 -0.21190722779E+01  0.11835533839E+03  0.00000000000E+00 0. -1.
          2    1    1    2  501    0 -0.44443610294E+01 -0.27617183217E+02  0.36361557192E+02  0.45876181131E+02  0.00000000000E+00 0. -1.
<scales pt_clust_5="13000.00000" pt_clust_6="13000.00000" pt_clust_7="13000.00000" pt_clust_8="13000.00000" pt_clust_9="27.97251"></scales>
<clustering>
<clus scale="   27.973">  1  9  2 -1</clus>
<clus scale="   89.677">  5  6 -1 -1</clus>
<clus scale="   97.833">  7  8 -1 -1</clus>
<clus scale="  181.442">  2  5  1 -1</clus>
<clus scale="   27.973">  1  5  2 -1</clus>
</clustering>
</event>
<event>
 9    1  0.1315259E-005  0.1317060E+03  0.7546771E-02  0.1225084E+00
          1   -1    0    0  502    0 -0.00000000000E+00  0.00000000000E+00  0.29479425333E+03  0.29479425333E+03  0.00000000000E+00 0. -1.
         21   -1    0    0  501  502  0.00000000000E+00 -0.00000000000E+00 -0.13370582885E+03  0.13370582885E+03  0.00000000000E+00 0.  1.
         23    2    1    2    0    0  0.61646147390E+02  0.63816310984E+02  0.20534098975E+03  0.24220007995E+03  0.92861120062E+02 0.  0.
         23    2    1    2    0    0 -0.86383350080E+02 -0.75635756892E+02 -0.18148771377E+02  0.14844453296E+03  0.92323077126E+02 0.  0.
        -13    1    4    4    0    0 -0.60382289512E+02 -0.95951617906E+02 -0.21097418157E+02  0.11531623875E+03  0.00000000000E+00 0.  1.
         13    1    4    4    0    0 -0.26001060567E+02  0.20315861014E+02  0.29486467805E+01  0.33128294209E+02  0.00000000000E+00 0. -1.
        -13    1    3    3    0    0  0.45238099583E+02  0.84313102442E+02  0.12336448640E+03  0.15612168780E+03  0.00000000000E+00 0. -1.
         13    1    3    3    0    0  0.16408047807E+02 -0.20496791458E+02  0.81976503350E+02  0.86078392146E+02  0.00000000000E+00 0.  1.
          1    1    1    2  501    0  0.24737202690E+02  0.11819445909E+02 -0.26103793893E+02  0.37855469276E+02  0.00000000000E+00 0. -1.
<scales pt_clust_5="13000.00000" pt_clust_6="13000.00000" pt_clust_7="13000.00000" pt_clust_8="13000.00000" pt_clust_9="27.41584"></scales>
<clustering>
<clus scale="   27.416">  2  9  1 -1</clus>
<clus scale="   92.323">  5  6 -1 -1</clus>
<clus scale="   92.861">  7  8 -1 -1</clus>
<clus scale="  131.327">  2  5  1 -1</clus>
<clus scale="   27.416">  2  5  1 -1</clus>
</clustering>
</event>
<event>
 9    1  0.1315259E-005  0.9293699E+02  0.7546771E-02  0.1296372E+00
         21   -1    0    0  501  502  0.00000000000E+00  0.00000000000E+00  0.67777101859E+02  0.67777101859E+02  0.00000000000E+00 0.  1.
         -1   -1    0    0    0  501 -0.00000000000E+00 -0.00000000000E+00 -0.28931084073E+03  0.28931084073E+03  0.00000000000E+00 0.  1.
         23    2    1    2    0    0  0.14503711693E+02  0.10639532624E+02 -0.14131200545E+03  0.16895726605E+03  0.90851073513E+02 0.  0.
         23    2    1    2    0    0 -0.16000064729E+02  0.14829149730E+02 -0.11264601345E+03  0.14687262535E+03  0.91687174564E+02 0.  0.
        -11    1    4    4    0    0 -0.53958952412E+02  0.13530968860E+02 -0.75165230614E+02  0.93511857841E+02  0.00000000000E+00 0.  1.
         11    1    4    4    0    0  0.37958887682E+02  0.12981808694E+01 -0.37480782832E+02  0.53360767511E+02  0.00000000000E+00 0. -1.
        -13    1    3    3    0    0 -0.11172185810E+01  0.49818260334E+02 -0.86070091993E+02  0.99454351216E+02  0.00000000000E+00 0.  1.
         13    1    3    3    0    0  0.15620930274E+02 -0.39178727710E+02 -0.55241913458E+02  0.69502914832E+02  0.00000000000E+00 0. -1.
         -1    1    1    2    0  502  0.14963530363E+01 -0.25468682353E+02  0.32424280023E+02  0.41258051193E+02  0.00000000000E+00 0.  1.
<scales pt_clust_5="13000.00000" pt_clust_6="13000.00000" pt_clust_7="13000.00000" pt_clust_8="13000.00000" pt_clust_9="25.51260"></scales>
<clustering>
<clus scale="   25.513">  1  9  2 -1</clus>
<clus scale="   90.851">  7  8 -1 -1</clus>
<clus scale="   91.687">  5  6 -1 -1</clus>
<clus scale="   92.112">  2  7  1 -1</clus>
<clus scale="   25.513">  1  5  2 -1</clus>
</clustering>
</event>
<event>
 9    1  0.1315259E-005  0.1216408E+03  0.7546771E-02  0.1243457E+00
         21   -1    0    0  501  502  0.00000000000E+00  0.00000000000E+00  0.11820797111E+03  0.11820797111E+03  0.00000000000E+00 0.  1.
         -3   -1    0    0    0  501 -0.00000000000E+00 -0.00000000000E+00 -0.37477102676E+03  0.37477102676E+03  0.00000000000E+00 0.  1.
         23    2    1    2    0    0 -0.65196851744E+02 -0.62244518521E+02 -0.19021826621E+03  0.22950853123E+03  0.91466756493E+02 0.  0.
         23    2    1    2    0    0  0.80365395619E+02 -0.62280141535E+02 -0.36115407294E+02  0.13443445915E+03  0.80192819634E+02 0.  0.
        -13    1    4    4    0    0  0.91506275555E+02 -0.32247976034E+02 -0.22311394294E+02  0.99554652024E+02  0.00000000000E+00 0.  1.
         13    1    4    4    0    0 -0.11140879936E+02 -0.30032165501E+02 -0.13804013000E+02  0.34879807128E+02  0.00000000000E+00 0. -1.
        -13    1    3    3    0    0 -0.53487987517E+02 -0.83132786250E+02 -0.17542844500E+03  0.20136326446E+03  0.00000000000E+00 0.  1.
         13    1    3    3    0    0 -0.11708864228E+02  0.20888267729E+02 -0.14789821216E+02  0.28145266775E+02  0.00000000000E+00 0. -1.
         -3    1    1    2    0  502 -0.15168543875E+02  0.12452466006E+03 -0.30229382140E+02  0.12903600749E+03  0.00000000000E+00 0.  1.
<scales pt_clust_5="13000.00000" pt_clust_6="13000.00000" pt_clust_7="13000.00000" pt_clust_8="13000.00000" pt_clust_9="125.44511"></scales>
<clustering>
<clus scale="   80.193">  5  6 -1 -1</clus>
<clus scale="   91.467">  7  8 -1 -1</clus>
<clus scale="  125.445">  1  9  2 -1</clus>
<clus scale="  125.445">  1  5  2 -1</clus>
<clus scale="  121.641">  1  5  2 -1</clus>
</clustering>
</event>
<event>
 9    1  0.1315259E-005  0.1128818E+03  0.7546771E-02  0.1256185E+00
         21   -1    0    0  501  502  0.00000000000E+00  0.00000000000E+00  0.17913257570E+03  0.17913257570E+03  0.00000000000E+00 0.  1.
         -2   -1    0    0    0  501 -0.00000000000E+00 -0.00000000000E+00 -0.21678159512E+03  0.21678159512E+03  0.00000000000E+00 0.  1.
         23    2    1    2    0    0  0.20239861815E+02 -0.50926801694E+02 -0.10547240121E+03  0.14957493919E+03  0.90802223984E+02 0.  0.
         23    2    1    2    0    0 -0.92818923710E+02  0.77887637882E+02  0.11199087983E+02  0.15041781816E+03  0.88420946134E+02 0.  0.
        -13    1    4    4    0    0 -0.66089431224E+02  0.46938968530E+02  0.49007008198E+02  0.94724688117E+02  0.00000000000E+00 0. -1.
         13    1    4    4    0    0 -0.26729492486E+02  0.30948669352E+02 -0.37807920215E+02  0.55693130045E+02  0.00000000000E+00 0.  1.
        -13    1    3    3    0    0  0.87636123287E+01  0.22006184065E+02 -0.39018034973E+01  0.24006188966E+02  0.00000000000E+00 0. -1.
         13    1    3    3    0    0  0.11476249486E+02 -0.72932985759E+02 -0.10157059771E+03  0.12556875022E+03  0.00000000000E+00 0.  1.
         -2    1    1    2    0  502  0.72579061895E+02 -0.26960836188E+02  0.56624293800E+02  0.95921413469E+02  0.00000000000E+00 0.  1.
<scales pt_clust_5="13000.00000" pt_clust_6="13000.00000" pt_clust_7="13000.00000" pt_clust_8="13000.00000" pt_clust_9="77.42485"></scales>
<clustering>
<clus scale="   77.425">  1  9  2 -1</clus>
<clus scale="   88.421">  5  6 -1 -1</clus>
<clus scale="   90.802">  7  8 -1 -1</clus>
<clus scale="  110.975">  1  5  2 -1</clus>
<clus scale="   77.425">  1  5  2 -1</clus>
</clustering>
</event>
<event>
 9    1  0.1315259E-005  0.1599740E+03  0.7546771E-02  0.1188896E+00
         21   -1    0    0  501  502  0.00000000000E+00  0.00000000000E+00  0.19402170553E+03  0.19402170553E+03  0.00000000000E+00 0.  1.
         -1   -1    0    0    0  501 -0.00000000000E+00 -0.00000000000E+00 -0.23914945104E+03  0.23914945104E+03  0.00000000000E+00 0.  1.
         23    2    1    2    0    0  0.11555616601E+02  0.12837036506E+03 -0.12003606922E+03  0.19844835112E+03  0.91436356265E+02 0.  0.
         23    2    1    2    0    0  0.18161733886E+02 -0.13537552638E+03  0.12715980013E+02  0.16544018988E+03  0.92479070925E+02 0.  0.
        -11    1    4    4    0    0 -0.65391575089E-01 -0.43983712480E+02  0.48627776201E+02  0.65568527952E+02  0.00000000000E+00 0. -1.
         11    1    4    4    0    0  0.18227125462E+02 -0.91391813899E+02 -0.35911796188E+02  0.99871661926E+02  0.00000000000E+00 0.  1.
        -13    1    3    3    0    0  0.32900661700E+02  0.13107406768E+03 -0.11186741752E+03  0.17543427219E+03  0.00000000000E+00 0.  1.
         13    1    3    3    0    0 -0.21345045099E+02 -0.27037026194E+01 -0.81686517066E+01  0.23014078926E+02  0.00000000000E+00 0. -1.
         -1    1    1    2    0  502 -0.29717350488E+02  0.70051613219E+01  0.62192343698E+02  0.69282615567E+02  0.00000000000E+00 0.  1.
<scales pt_clust_5="13000.00000" pt_clust_6="13000.00000" pt_clust_7="13000.00000" pt_clust_8="13000.00000" pt_clust_9="30.53184"></scales>
<clustering>
<clus scale="   30.532">  1  9  2 -1</clus>
<clus scale="   91.436">  7  8 -1 -1</clus>
<clus scale="   92.479">  5  6 -1 -1</clus>
<clus scale="  159.374">  2  7  1 -1</clus>
<clus scale="   30.532">  1  5  2 -1</clus>
</clustering>
</event>
<event>
 9    1  0.1315259E-005  0.1570369E+03  0.7546771E-02  0.1218090E+00
         21   -1    0    0  501  502  0.00000000000E+00  0.00000000000E+00  0.41555037161E+03  0.41555037161E+03  0.00000000000E+00 0.  1.
         -3   -1    0    0    0  501 -0.00000000000E+00 -0.00000000000E+00 -0.10920533658E+03  0.10920533658E+03  0.00000000000E+00 0.  1.
         23    2    1    2    0    0  0.58080408071E+01 -0.18041918093E+02  0.38715230543E+02  0.97695148376E+02  0.87671140028E+02 0.  0.
         23    2    1    2    0    0 -0.52466602210E+02 -0.10300851823E+03  0.22698061431E+02  0.14989312261E+03  0.92678190746E+02 0.  0.
        -13    1    4    4    0    0 -0.14334087830E+02 -0.10858951985E+03  0.14436467100E+02  0.11047878293E+03  0.00000000000E+00 0.  1.
         13    1    4    4    0    0 -0.38132514381E+02  0.55810016227E+01  0.82615943311E+01  0.39414339687E+02  0.00000000000E+00 0. -1.
        -13    1    3    3    0    0 -0.23086887544E+02 -0.39826317836E+02  0.19003465760E+01  0.46073325102E+02  0.00000000000E+00 0.  1.
         13    1    3    3    0    0  0.28894928352E+02  0.21784399744E+02  0.36814883966E+02  0.51621823274E+02  0.00000000000E+00 0. -1.
         -3    1    1    2    0  502  0.46658561403E+02  0.12105043632E+03  0.24493174306E+03  0.27716743720E+03  0.00000000000E+00 0.  1.
<scales pt_clust_5="13000.00000" pt_clust_6="13000.00000" pt_clust_7="13000.00000" pt_clust_8="13000.00000" pt_clust_9="126.77276"></scales>
<clustering>
<clus scale="   87.671">  7  8 -1 -1</clus>
<clus scale="   89.697">  2  7  1 -1</clus>
<clus scale="   92.678">  5  6 -1 -1</clus>
<clus scale="  126.773">  1  9  2 -1</clus>
<clus scale="  126.773">  1  5  2 -1</clus>
</clustering>
</event>
<event>
 9    1  0.1315259E-005  0.9559940E+02  0.7546771E-02  0.1291235E+00
          2   -1    0    0  502    0 -0.00000000000E+00  0.00000000000E+00  0.71961752440E+03  0.71961752440E+03  0.00000000000E+00 0.  1.
         21   -1    0    0  501  502  0.00000000000E+00 -0.00000000000E+00 -0.44061487942E+02  0.44061487942E+02  0.00000000000E+00 0.  1.
         23    2    1    2    0    0  0.38453783999E+01 -0.16118813554E+02  0.50418371786E+03  0.51329776394E+03  0.94861847039E+02 0.  0.
         23    2    1    2    0    0 -0.18586632520E+02 -0.96018754848E+01  0.19212222040E+03  0.21419538318E+03  0.92363714098E+02 0.  0.
        -13    1    4    4    0    0  0.11323245444E+02  0.31415966609E+02  0.12868143426E+03  0.13294393694E+03  0.00000000000E+00 0.  1.
         13    1    4    4    0    0 -0.29909877964E+02 -0.41017842093E+02  0.63440786134E+02  0.81251446234E+02  0.00000000000E+00 0. -1.
        -13    1    3    3    0    0  0.10278366803E+02 -0.55329246295E+02  0.27572903961E+03  0.28141335008E+03  0.00000000000E+00 0.  1.
         13    1    3    3    0    0 -0.64329884035E+01  0.39210432741E+02  0.22845467825E+03  0.23188441385E+03  0.00000000000E+00 0. -1.
          2    1    1    2  501    0  0.14741254121E+02  0.25720689039E+02 -0.20749901799E+02  0.36185865229E+02  0.00000000000E+00 0.  1.
<scales pt_clust_5="13000.00000" pt_clust_6="13000.00000" pt_clust_7="13000.00000" pt_clust_8="13000.00000" pt_clust_9="29.64555"></scales>
<clustering>
<clus scale="   29.646">  2  9  1 -1</clus>
<clus scale="   92.364">  5  6 -1 -1</clus>
<clus scale="   93.121">  2  5  1 -1</clus>
<clus scale="   94.862">  7  8 -1 -1</clus>
<clus scale="   29.646">  2  5  1 -1</clus>
</clustering>
</event>
<event>
 9    1  0.1315259E-005  0.3220549E+03  0.7546771E-02  0.1074712E+00
         21   -1    0    0  501  502  0.00000000000E+00  0.00000000000E+00  0.28191490798E+03  0.28191490798E+03  0.00000000000E+00 0.  1.
         -1   -1    0    0    0  501 -0.00000000000E+00 -0.00000000000E+00 -0.63496729196E+03  0.63496729196E+03  0.00000000000E+00 0.  1.
         23    2    1    2    0    0  0.21883975338E+03  0.23070513582E+03 -0.32860218752E+03  0.46619660882E+03  0.90797483892E+02 0.  0.
         23    2    1    2    0    0 -0.20830799481E+03 -0.21000960528E+03 -0.13512809120E+03  0.33759792909E+03  0.90644942963E+02 0.  0.
        -13    1    4    4    0    0 -0.15695322328E+03 -0.95729050681E+02 -0.86901272124E+02  0.20334747734E+03  0.00000000000E+00 0.  1.
         13    1    4    4    0    0 -0.51354771528E+02 -0.11428055460E+03 -0.48226819072E+02  0.13425045175E+03  0.00000000000E+00 0. -1.
        -13    1    3    3    0    0  0.37441817277E+02  0.78678474734E+01 -0.15632653042E+02  0.41330044108E+02  0.00000000000E+00 0. -1.
         13    1    3    3    0    0  0.18139793610E+03  0.22283728834E+03 -0.31296953447E+03  0.42486656471E+03  0.00000000000E+00 0.  1.
         -1    1    1    2    0  502 -0.10531758567E+02 -0.20695530535E+02  0.11067789473E+03  0.11308766204E+03  0.00000000000E+00 0.  1.
<scales pt_clust_5="13000.00000" pt_clust_6="13000.00000" pt_clust_7="13000.00000" pt_clust_8="13000.00000" pt_clust_9="23.22117"></scales>
<clustering>
<clus scale="   23.221">  1  9  2 -1</clus>
<clus scale="   90.645">  5  6 -1 -1</clus>
<clus scale="   90.797">  7  8 -1 -1</clus>
<clus scale="  322.012">  1  5  2 -1</clus>
<clus scale="   23.221">  1  5  2 -1</clus>
</clustering>
</event>
<event>
 9    1  0.1315259E-005  0.1300491E+03  0.7546771E-02  0.1232316E+00
          2   -1    0    0  502    0 -0.00000000000E+00  0.00000000000E+00  0.97866433966E+03  0.97866433966E+03  0.00000000000E+00 0.  1.
         21   -1    0    0  501  502  0.00000000000E+00 -0.00000000000E+00 -0.22564634556E+02  0.22564634556E+02  0.00000000000E+00 0.  1.
         23    2    1    2    0    0  0.57198164541E+02 -0.41774200326E+02  0.42393241741E+03  0.44065597235E+03  0.97171382611E+02 0.  0.
         23    2    1    2    0    0 -0.74386620853E+02  0.70660242267E+02  0.48858003208E+03  0.50553033386E+03  0.79525036957E+02 0.  0.
        -11    1    4    4    0    0 -0.56948163737E+02  0.87627961233E+02  0.36977616675E+03  0.38426054499E+03  0.00000000000E+00 0.  1.
         11    1    4    4    0    0 -0.17438457117E+02 -0.16967718966E+02  0.11880386534E+03  0.12126978887E+03  0.00000000000E+00 0. -1.
        -13    1    3    3    0    0 -0.27367079637E+02 -0.67574225674E+01  0.11833644454E+03  0.12164758080E+03  0.00000000000E+00 0.  1.
         13    1    3    3    0    0  0.84565244178E+02 -0.35016777758E+02  0.30559597287E+03  0.31900839155E+03  0.00000000000E+00 0. -1.
          2    1    1    2  501    0  0.17188456313E+02 -0.28886041942E+02  0.43587255618E+02  0.55042668011E+02  0.00000000000E+00 0.  1.
<scales pt_clust_5="13000.00000" pt_clust_6="13000.00000" pt_clust_7="13000.00000" pt_clust_8="13000.00000" pt_clust_9="33.61319"></scales>
<clustering>
<clus scale="   33.613">  2  9  1 -1</clus>
<clus scale="   79.525">  5  6 -1 -1</clus>
<clus scale="   97.171">  7  8 -1 -1</clus>
<clus scale="  117.451">  2  5  1 -1</clus>
<clus scale="   33.613">  2  5  1 -1</clus>
</clustering>
</event>
<event>
 9    1  0.1315259E-005  0.2184564E+03  0.7546771E-02  0.1157834E+00
         21   -1    0    0  501  502  0.00000000000E+00  0.00000000000E+00  0.58927898378E+03  0.58927898378E+03  0.00000000000E+00 0. -1.
          4   -1    0    0  502    0 -0.00000000000E+00 -0.00000000000E+00 -0.18900787776E+03  0.18900787776E+03  0.00000000000E+00 0. -1.
         23    2    1    2    0    0  0.87980904805E+02 -0.85317376449E+01 -0.68152527413E+02  0.14399819464E+03  0.90979574128E+02 0.  0.
         23    2    1    2    0    0 -0.23439123368E+03 -0.52723467215E+02  0.36044519906E+03  0.44233157061E+03  0.89540283748E+02 0.  0.
        -11    1    4    4    0    0 -0.16644554767E+03 -0.76316513289E+02  0.23747235444E+03  0.29986905419E+03  0.00000000000E+00 0.  1.
         11    1    4    4    0    0 -0.67945686020E+02  0.23593046074E+02  0.12297284462E+03  0.14246251642E+03  0.00000000000E+00 0. -1.
        -13    1    3    3    0    0  0.66289696338E+02 -0.10497707441E+02 -0.90579995211E+02  0.11273535929E+03  0.00000000000E+00 0. -1.
         13    1    3    3    0    0  0.21691208467E+02  0.19659697965E+01  0.22427467799E+02  0.31262835346E+02  0.00000000000E+00 0.  1.
          4    1    1    2  501    0  0.14641032888E+03  0.61255204860E+02  0.10797843437E+03  0.19195709629E+03  0.00000000000E+00 0. -1.
<scales pt_clust_5="13000.00000" pt_clust_6="13000.00000" pt_clust_7="13000.00000" pt_clust_8="13000.00000" pt_clust_9="199.26307"></scales>
<clustering>
<clus scale="   89.540">  5  6 -1 -1</clus>
<clus scale="   90.980">  7  8 -1 -1</clus>
<clus scale="  126.849">  2  7  1 -1</clus>
<clus scale="  199.263">  1  9  2 -1</clus>
<clus scale="  199.263">  1  5  2 -1</clus>
</clustering>
</event>
<event>
 9    1  0.1315259E-005  0.4030813E+03  0.7546771E-02  0.1042737E+00
          1   -1    0    0  502    0 -0.00000000000E+00  0.00000000000E+00  0.57199444431E+03  0.57199444431E+03  0.00000000000E+00 0. -1.
         21   -1    0    0  501  502  0.00000000000E+00 -0.00000000000E+00 -0.33323229579E+03  0.33323229579E+03  0.00000000000E+00 0.  1.
         23    2    1    2    0    0 -0.22114552969E+03 -0.32184564555E+03  0.20278884893E+03  0.44945171338E+03  0.91616377078E+02 0.  0.
         23    2    1    2    0    0  0.20664001096E+03  0.33673979635E+03  0.73957219833E+02  0.41247347941E+03  0.92579243255E+02 0.  0.
        -11    1    3    3    0    0 -0.59028345981E+02 -0.39512629623E+02  0.11820248554E+02  0.72009109180E+02  0.00000000000E+00 0.  1.
         11    1    3    3    0    0 -0.16211718371E+03 -0.28233301592E+03  0.19096860038E+03  0.37744260420E+03  0.00000000000E+00 0. -1.
        -13    1    4    4    0    0  0.20300447744E+03  0.30510736447E+03  0.44619721733E+02  0.36917779088E+03  0.00000000000E+00 0.  1.
         13    1    4    4    0    0  0.36355335151E+01  0.31632431883E+02  0.29337498100E+02  0.43295688533E+02  0.00000000000E+00 0. -1.
          1    1    1    2  501    0  0.14505518735E+02 -0.14894150802E+02 -0.37983920245E+02  0.43301547306E+02  0.00000000000E+00 0. -1.
<scales pt_clust_5="13000.00000" pt_clust_6="13000.00000" pt_clust_7="13000.00000" pt_clust_8="13000.00000" pt_clust_9="20.79052"></scales>
<clustering>
<clus scale="   20.791">  2  9  1 -1</clus>
<clus scale="   91.616">  5  6 -1 -1</clus>
<clus scale="   92.579">  7  8 -1 -1</clus>
<clus scale="  402.861">  1  5  2 -1</clus>
<clus scale="   20.791">  2  5  1 -1</clus>
</clustering>
</event>
<event>
 9    1  0.1315259E-005  0.1176932E+03  0.7546771E-02  0.1257495E+00
         21   -1    0    0  501  502  0.00000000000E+00  0.00000000000E+00  0.91730289357E+03  0.91730289357E+03  0.00000000000E+00 0. -1.
          4   -1    0    0  502    0 -0.00000000000E+00 -0.00000000000E+00 -0.10926651092E+03  0.10926651092E+03  0.00000000000E+00 0. -1.
         23    2    1    2    0    0 -0.73186686631E+01  0.36379340735E+02 -0.60013229856E+02  0.11483391516E+03  0.90599232722E+02 0.  0.
         23    2    1    2    0    0 -0.62976742134E+02  0.26415480231E+02  0.22058251537E+03  0.25744329452E+03  0.11382686924E+03 0.  0.
        -13    1    4    4    0    0  0.18627809160E+02 -0.25592561630E+02  0.86331889964E+02  0.91951996768E+02  0.00000000000E+00 0.  1.
         13    1    4    4    0    0 -0.81604551294E+02  0.52008041860E+02  0.13425062541E+03  0.16549129776E+03  0.00000000000E+00 0. -1.
        -13    1    3    3    0    0  0.47702054584E+00 -0.28473250711E+02 -0.34435607141E+02  0.44685171969E+02  0.00000000000E+00 0.  1.
         13    1    3    3    0    0 -0.77956892089E+01  0.64852591446E+02 -0.25577622714E+02  0.70148743191E+02  0.00000000000E+00 0. -1.
          4    1    1    2  501    0  0.70295410797E+02 -0.62794820965E+02  0.64746709713E+03  0.65429219481E+03  0.00000000000E+00 0. -1.
<scales pt_clust_5="13000.00000" pt_clust_6="13000.00000" pt_clust_7="13000.00000" pt_clust_8="13000.00000" pt_clust_9="94.25834"></scales>
<clustering>
<clus scale="   90.599">  7  8 -1 -1</clus>
<clus scale="   94.258">  1  9  2 -1</clus>
<clus scale="   95.412">  2  7  1 -1</clus>
<clus scale="  113.827">  5  6 -1 -1</clus>
<clus scale="   94.258">  1  5  2 -1</clus>
</clustering>
</event>
<event>
 9    1  0.1315259E-005  0.1992446E+03  0.7546771E-02  0.1178071E+00
         21   -1    0    0  501  502  0.00000000000E+00  0.00000000000E+00  0.15885042497E+03  0.15885042497E+03  0.00000000000E+00 0. -1.
          1   -1    0    0  502    0 -0.00000000000E+00 -0.00000000000E+00 -0.77755762487E+03  0.77755762487E+03  0.00000000000E+00 0. -1.
         23    2    1    2    0    0  0.15493640260E+02  0.52097247132E+02  0.62341388979E+02  0.12216645589E+03  0.89911167919E+02 0.  0.
         23    2    1    2    0    0 -0.13172094836E+03  0.90571801494E+02 -0.57110972989E+03  0.59988255565E+03  0.90216947056E+02 0.  0.
        -13    1    4    4    0    0 -0.13941199652E+03  0.60611125266E+02 -0.45500213789E+03  0.47972529510E+03  0.00000000000E+00 0. -1.
         13    1    4    4    0    0  0.76910481575E+01  0.29960676228E+02 -0.11610759200E+03  0.12015726055E+03  0.00000000000E+00 0.  1.
        -13    1    3    3    0    0 -0.34897139113E+02  0.30564906227E+02  0.45150470026E+02  0.64734756928E+02  0.00000000000E+00 0. -1.
         13    1    3    3    0    0  0.50390779373E+02  0.21532340905E+02  0.17190918953E+02  0.57431698958E+02  0.00000000000E+00 0.  1.
          1    1    1    2  501    0  0.11622730810E+03 -0.14266904863E+03 -0.10993885899E+03  0.21435903830E+03  0.00000000000E+00 0. -1.
<scales pt_clust_5="13000.00000" pt_clust_6="13000.00000" pt_clust_7="13000.00000" pt_clust_8="13000.00000" pt_clust_9="177.64943"></scales>
<clustering>
<clus scale="   89.911">  7  8 -1 -1</clus>
<clus scale="   90.217">  5  6 -1 -1</clus>
<clus scale="  105.063">  2  7  1 -1</clus>
<clus scale="  177.649">  1  9  2 -1</clus>
<clus scale="  177.649">  1  5  2 -1</clus>
</clustering>
</event>
<event>
 9    1  0.1315259E-005  0.3880821E+03  0.7546771E-02  0.1048042E+00
         -1   -1    0    0    0  501 -0.00000000000E+00  0.00000000000E+00  0.17263041052E+04  0.17263041052E+04  0.00000000000E+00 0.  1.
         21   -1    0    0  501  502  0.00000000000E+00 -0.00000000000E+00 -0.16403689024E+03  0.16403689024E+03  0.00000000000E+00 0.  1.
         23    2    1    2    0    0  0.33928779350E+03 -0.15684114276E+03  0.91018846852E+03  0.98839676021E+03  0.93646977944E+02 0.  0.
         23    2    1    2    0    0 -0.39867292888E+03  0.16921097706E+02  0.62569099911E+03  0.74767004258E+03  0.91076003623E+02 0.  0.
        -11    1    3    3    0    0  0.15145079099E+03 -0.11534561293E+03  0.51005313177E+03  0.54442276747E+03  0.00000000000E+00 0.  1.
         11    1    3    3    0    0  0.18783700251E+03 -0.41495529834E+02  0.40013533676E+03  0.44397399274E+03  0.00000000000E+00 0. -1.
        -11    1    4    4    0    0 -0.32999486599E+03 -0.11411027511E+02  0.46155237890E+03  0.56750103224E+03  0.00000000000E+00 0.  1.
         11    1    4    4    0    0 -0.68678062891E+02  0.28332125217E+02  0.16413862021E+03  0.18016901034E+03  0.00000000000E+00 0. -1.
         -1    1    1    2    0  502  0.59385135379E+02  0.13992004505E+03  0.26387747330E+02  0.15427419266E+03  0.00000000000E+00 0.  1.
<scales pt_clust_5="13000.00000" pt_clust_6="13000.00000" pt_clust_7="13000.00000" pt_clust_8="13000.00000" pt_clust_9="152.00070"></scales>
<clustering>
<clus scale="   91.076">  7  8 -1 -1</clus>
<clus scale="   93.647">  5  6 -1 -1</clus>
<clus scale="  152.001">  2  9  1 -1</clus>
<clus scale="  387.470">  2  7  1 -1</clus>
<clus scale="  152.001">  2  5  1 -1</clus>
</clustering>
</event>
<event>
 9    1  0.1315259E-005  0.2555613E+03  0.7546771E-02  0.1137895E+00
          2   -1    0    0  502    0 -0.00000000000E+00  0.00000000000E+00  0.13041831412E+04  0.13041831412E+04  0.00000000000E+00 0. -1.
         21   -1    0    0  501  502  0.00000000000E+00 -0.00000000000E+00 -0.13616867731E+03  0.13616867731E+03  0.00000000000E+00 0. -1.
         23    2    1    2    0    0 -0.67815679637E+02  0.54579889161E+02  0.21669800806E+03  0.25132813861E+03  0.92897125124E+02 0.  0.
         23    2    1    2    0    0  0.19976333348E+03 -0.24247082784E+03  0.89541583568E+03  0.95272288107E+03  0.84934548741E+02 0.  0.
        -11    1    3    3    0    0  0.37085178764E+01  0.50032442164E+02  0.54917138515E+02  0.74383401887E+02  0.00000000000E+00 0. -1.
         11    1    3    3    0    0 -0.71524197513E+02  0.45474469971E+01  0.16178086955E+03  0.17694473673E+03  0.00000000000E+00 0.  1.
        -11    1    4    4    0    0  0.14922475178E+03 -0.21567709909E+03  0.79516816975E+03  0.83730344308E+03  0.00000000000E+00 0. -1.
         11    1    4    4    0    0  0.50538581700E+02 -0.26793728749E+02  0.10024766593E+03  0.11541943799E+03  0.00000000000E+00 0.  1.
          2    1    1    2  501    0 -0.13194765384E+03  0.18789093868E+03  0.55900620133E+02  0.23630079882E+03  0.00000000000E+00 0. -1.
<scales pt_clust_5="13000.00000" pt_clust_6="13000.00000" pt_clust_7="13000.00000" pt_clust_8="13000.00000" pt_clust_9="241.03465"></scales>
<clustering>
<clus scale="   84.935">  7  8 -1 -1</clus>
<clus scale="   92.897">  5  6 -1 -1</clus>
<clus scale="  127.310">  1  5  2 -1</clus>
<clus scale="  241.035">  2  9  1 -1</clus>
<clus scale="  241.035">  2  5  1 -1</clus>
</clustering>
</event>
<event>
 9    1  0.1315259E-005  0.1048226E+03  0.7546771E-02  0.1271372E+00
         21   -1    0    0  501  502  0.00000000000E+00  0.00000000000E+00  0.49852973669E+02  0.49852973669E+02  0.00000000000E+00 0. -1.
          2   -1    0    0  502    0 -0.00000000000E+00 -0.00000000000E+00 -0.55437248894E+03  0.55437248894E+03  0.00000000000E+00 0. -1.
         23    2    1    2    0    0  0.49344749993E+02 -0.21061861851E+02 -0.39352230642E+03  0.40800823480E+03  0.93447352229E+02 0.  0.
         23    2    1    2    0    0 -0.37537875395E+02 -0.77270431411E+01 -0.12710087093E+03  0.16118108546E+03  0.91410675699E+02 0.  0.
        -11    1    4    4    0    0 -0.22730451711E+02  0.36687113715E+02 -0.27634421586E+02  0.51247234112E+02  0.00000000000E+00 0.  1.
         11    1    4    4    0    0 -0.14807423684E+02 -0.44414156856E+02 -0.99466449349E+02  0.10993385134E+03  0.00000000000E+00 0. -1.
        -11    1    3    3    0    0  0.14407478085E+02  0.32442534169E+02 -0.72939204740E+02  0.81118561601E+02  0.00000000000E+00 0.  1.
         11    1    3    3    0    0  0.34937271908E+02 -0.53504396020E+02 -0.32058310168E+03  0.32688967320E+03  0.00000000000E+00 0. -1.
          2    1    1    2  501    0 -0.11806874598E+02  0.28788904992E+02  0.16103662083E+02  0.35036142352E+02  0.00000000000E+00 0. -1.
<scales pt_clust_5="13000.00000" pt_clust_6="13000.00000" pt_clust_7="13000.00000" pt_clust_8="13000.00000" pt_clust_9="31.11597"></scales>
<clustering>
<clus scale="   31.116">  1  9  2 -1</clus>
<clus scale="   91.411">  5  6 -1 -1</clus>
<clus scale="   93.447">  7  8 -1 -1</clus>
<clus scale="  103.011">  1  5  2 -1</clus>
<clus scale="   31.116">  1  5  2 -1</clus>
</clustering>
</event>
<event>
 9    1  0.1315259E-005  0.1413950E+03  0.7546771E-02  0.1211917E+00
          2   -1    0    0  502    0 -0.00000000000E+00  0.00000000000E+00  0.28195729546E+03  0.28195729546E+03  0.00000000000E+00 0. -1.
         21   -1    0    0  501  502  0.00000000000E+00 -0.00000000000E+00 -0.15248960495E+03  0.15248960495E+03  0.00000000000E+00 0.  1.
         23    2    1    2    0    0  0.81046488228E+01  0.10650892936E+03  0.19594815393E+03  0.23974797984E+03  0.87598957992E+02 0.  0.
         23    2    1    2    0    0  0.79242161609E+01 -0.12022307909E+03 -0.30974094032E+02  0.15339874281E+03  0.89751868216E+02 0.  0.
        -11    1    3    3    0    0 -0.25138134727E+02  0.96858458850E+02  0.11975272299E+03  0.15605832734E+03  0.00000000000E+00 0. -1.
         11    1    3    3    0    0  0.33242783550E+02  0.96504705115E+01  0.76195430939E+02  0.83689652498E+02  0.00000000000E+00 0.  1.
        -13    1    4    4    0    0  0.29257889815E+02 -0.99611077449E+02 -0.52891604018E+02  0.11651571844E+03  0.00000000000E+00 0.  1.
         13    1    4    4    0    0 -0.21333673655E+02 -0.20612001639E+02  0.21917509987E+02  0.36883024377E+02  0.00000000000E+00 0. -1.
          2    1    1    2  501    0 -0.16028864984E+02  0.13714149728E+02 -0.35506369390E+02  0.41300177756E+02  0.00000000000E+00 0. -1.
<scales pt_clust_5="13000.00000" pt_clust_6="13000.00000" pt_clust_7="13000.00000" pt_clust_8="13000.00000" pt_clust_9="21.09508"></scales>
<clustering>
<clus scale="   21.095">  2  9  1 -1</clus>
<clus scale="   87.599">  5  6 -1 -1</clus>
<clus scale="   89.752">  7  8 -1 -1</clus>
<clus scale="  140.038">  1  5  2 -1</clus>
<clus scale="   21.095">  2  5  1 -1</clus>
</clustering>
</event>
<event>
 9    1  0.1315259E-005  0.1148486E+03  0.7546771E-02  0.1261206E+00
         -3   -1    0    0    0  501 -0.00000000000E+00  0.00000000000E+00  0.15763482112E+03  0.15763482112E+03  0.00000000000E+00 0.  1.
         21   -1    0    0  501  502  0.00000000000E+00 -0.00000000000E+00 -0.99549541691E+02  0.99549541691E+02  0.00000000000E+00 0. -1.
         23    2    1    2    0    0  0.21887180964E+02 -0.75047270658E+01  0.57904030584E+02  0.11143516985E+03  0.92355566715E+02 0.  0.
         23    2    1    2    0    0 -0.16107537514E+02  0.27205044510E+02 -0.18350675998E+02  0.11809166190E+03  0.11229125563E+03 0.  0.
        -13    1    4    4    0    0  0.31868789483E+02  0.50776357897E+02 -0.23499758069E+02  0.64390192527E+02  0.00000000000E+00 0. -1.
         13    1    4    4    0    0 -0.47976326998E+02 -0.23571313387E+02  0.51490820707E+01  0.53701469376E+02  0.00000000000E+00 0.  1.
        -13    1    3    3    0    0 -0.64833941378E+01  0.33134731289E+02 -0.18350803113E+01  0.33812901929E+02  0.00000000000E+00 0.  1.
         13    1    3    3    0    0  0.28370575102E+02 -0.40639458354E+02  0.59739110895E+02  0.77622267923E+02  0.00000000000E+00 0. -1.
         -3    1    1    2    0  502 -0.57796434495E+01 -0.19700317444E+02  0.18531924848E+02  0.27657531061E+02  0.00000000000E+00 0.  1.
<scales pt_clust_5="13000.00000" pt_clust_6="13000.00000" pt_clust_7="13000.00000" pt_clust_8="13000.00000" pt_clust_9="20.53064"></scales>
<clustering>
<clus scale="   20.531">  2  9  1 -1</clus>
<clus scale="   92.356">  7  8 -1 -1</clus>
<clus scale="   95.449">  1  7  2 -1</clus>
<clus scale="  112.291">  5  6 -1 -1</clus>
<clus scale="   20.531">  2  5  1 -1</clus>
</clustering>
</event>
<event>
 9    1  0.1315259E-005  0.1092464E+03  0.7546771E-02  0.1262179E+00
         21   -1    0    0  501  502  0.00000000000E+00  0.00000000000E+00  0.79505387467E+02  0.79505387467E+02  0.00000000000E+00 0.  1.
          2   -1    0    0  502    0 -0.00000000000E+00 -0.00000000000E+00 -0.47443418589E+03  0.47443418589E+03  0.00000000000E+00 0. -1.
         23    2    1    2    0    0 -0.32221998750E+02 -0.38904420546E+02 -0.26302999767E+03  0.28268637704E+03  0.90415689722E+02 0.  0.
         23    2    1    2    0    0  0.74193699129E+02  0.39931743809E+02 -0.17277664932E+03  0.21265560652E+03  0.90947167538E+02 0.  0.
        -11    1    4    4    0    0  0.23304400790E+02  0.32937607778E+02 -0.94479499559E+01  0.41439653240E+02  0.00000000000E+00 0.  1.
         11    1    4    4    0    0  0.50889298339E+02  0.69941360310E+01 -0.16332869936E+03  0.17121595328E+03  0.00000000000E+00 0. -1.
        -13    1    3    3    0    0 -0.60688057944E+02 -0.10911215839E+02 -0.13166113080E+03  0.14538482855E+03  0.00000000000E+00 0.  1.
         13    1    3    3    0    0  0.28466059194E+02 -0.27993204707E+02 -0.13136886686E+03  0.13730154849E+03  0.00000000000E+00 0. -1.
          2    1    1    2  501    0 -0.41971700379E+02 -0.10273232632E+01  0.40877848566E+02  0.58597589789E+02  0.00000000000E+00 0. -1.
<scales pt_clust_5="13000.00000" pt_clust_6="13000.00000" pt_clust_7="13000.00000" pt_clust_8="13000.00000" pt_clust_9="41.98427"></scales>
<clustering>
<clus scale="   41.984">  1  9  2 -1</clus>
<clus scale="   90.416">  7  8 -1 -1</clus>
<clus scale="   90.947">  5  6 -1 -1</clus>
<clus scale="  108.804">  2  7  1 -1</clus>
<clus scale="   41.984">  1  5  2 -1</clus>
</clustering>
</event>
<event>
 9    1  0.1315259E-005  0.9484290E+02  0.7546771E-02  0.1292396E+00
          1   -1    0    0  502    0 -0.00000000000E+00  0.00000000000E+00  0.40472986841E+03  0.40472986841E+03  0.00000000000E+00 0. -1.
         21   -1    0    0  501  502  0.00000000000E+00 -0.00000000000E+00 -0.31513168066E+03  0.31513168066E+03  0.00000000000E+00 0. -1.
         23    2    1    2    0    0 -0.40354605086E+01 -0.10124444912E+02  0.22031130504E+03  0.23818548015E+03  0.89869140973E+02 0.  0.
         23    2    1    2    0    0  0.43572686097E+02  0.30548105042E+02  0.15767001241E+03  0.18987965429E+03  0.91447715135E+02 0.  0.
        -11    1    4    4    0    0  0.65330662729E+02  0.15865334427E+01  0.74119986826E+02  0.98814902864E+02  0.00000000000E+00 0. -1.
         11    1    4    4    0    0 -0.21757976632E+02  0.28961571599E+02  0.83550025583E+02  0.91064751422E+02  0.00000000000E+00 0.  1.
        -11    1    3    3    0    0  0.60595064119E+01  0.31974970028E+02  0.34622562725E+02  0.47516714701E+02  0.00000000000E+00 0.  1.
         11    1    3    3    0    0 -0.10094966921E+02 -0.42099414940E+02  0.18568874231E+03  0.19066876545E+03  0.00000000000E+00 0. -1.
          1    1    1    2  501    0 -0.39537225588E+02 -0.20423660130E+02 -0.28838312970E+03  0.29179641464E+03  0.00000000000E+00 0. -1.
<scales pt_clust_5="13000.00000" pt_clust_6="13000.00000" pt_clust_7="13000.00000" pt_clust_8="13000.00000" pt_clust_9="44.50077"></scales>
<clustering>
<clus scale="   44.501">  2  9  1 -1</clus>
<clus scale="   89.869">  7  8 -1 -1</clus>
<clus scale="   91.448">  5  6 -1 -1</clus>
<clus scale="   93.322">  1  7  2 -1</clus>
<clus scale="   44.501">  2  5  1 -1</clus>
</clustering>
</event>
<event>
 9    1  0.1315259E-005  0.1044664E+03  0.7546771E-02  0.1271422E+00
         21   -1    0    0  501  502  0.00000000000E+00  0.00000000000E+00  0.12705865304E+03  0.12705865304E+03  0.00000000000E+00 0. -1.
          2   -1    0    0  502    0 -0.00000000000E+00 -0.00000000000E+00 -0.25893476666E+03  0.25893476666E+03  0.00000000000E+00 0. -1.
         23    2    1    2    0    0 -0.21868617663E+02  0.34752952806E+02 -0.11002064171E+03  0.14915251146E+03  0.91956108574E+02 0.  0.
         23    2    1    2    0    0  0.18749702560E+02 -0.57670142595E+02 -0.10421496530E+03  0.15129553215E+03  0.91390274997E+02 0.  0.
        -11    1    4    4    0    0  0.36079903014E+02 -0.11574443160E+02 -0.21271984598E+01  0.37950653608E+02  0.00000000000E+00 0.  1.
         11    1    4    4    0    0 -0.17330200454E+02 -0.46095699435E+02 -0.10208776684E+03  0.11334487854E+03  0.00000000000E+00 0. -1.
        -11    1    3    3    0    0  0.33738673926E+02  0.62583452180E+01 -0.59978183105E+02  0.69100270996E+02  0.00000000000E+00 0.  1.
         11    1    3    3    0    0 -0.55607291589E+02  0.28494607588E+02 -0.50042458607E+02  0.80052240461E+02  0.00000000000E+00 0. -1.
          2    1    1    2  501    0  0.31189151031E+01  0.22917189789E+02  0.82359493385E+02  0.85545376087E+02  0.00000000000E+00 0. -1.
<scales pt_clust_5="13000.00000" pt_clust_6="13000.00000" pt_clust_7="13000.00000" pt_clust_8="13000.00000" pt_clust_9="23.12845"></scales>
<clustering>
<clus scale="   23.128">  1  9  2 -1</clus>
<clus scale="   91.390">  5  6 -1 -1</clus>
<clus scale="   91.956">  7  8 -1 -1</clus>
<clus scale="  103.969">  1  5  2 -1</clus>
<clus scale="   23.128">  1  5  2 -1</clus>
</clustering>
</event>
<event>
 9    1  0.1315259E-005  0.9368835E+02  0.7546771E-02  0.1297453E+00
         -1   -1    0    0    0  501 -0.00000000000E+00  0.00000000000E+00  0.73735891611E+02  0.73735891611E+02  0.00000000000E+00 0.  1.
         21   -1    0    0  501  502  0.00000000000E+00 -0.00000000000E+00 -0.16764530632E+03  0.16764530632E+03  0.00000000000E+00 0. -1.
         23    2    1    2    0    0  0.25425816661E+02  0.10995540509E+02 -0.13448722936E+02  0.91357473370E+02  0.86011311628E+02 0.  0.
         23    2    1    2    0    0 -0.22789248742E+01 -0.12516331480E+02 -0.34971231515E+02  0.98961190359E+02  0.91697754124E+02 0.  0.
        -11    1    4    4    0    0  0.31258800730E+02 -0.11841346993E+01  0.17364093481E+02  0.35777458553E+02  0.00000000000E+00 0.  1.
         11    1    4    4    0    0 -0.33537725604E+02 -0.11332196780E+02 -0.52335324996E+02  0.63183731806E+02  0.00000000000E+00 0. -1.
        -13    1    3    3    0    0 -0.28719193046E+02 -0.12141276833E+02 -0.82145942660E+01  0.32244103512E+02  0.00000000000E+00 0.  1.
         13    1    3    3    0    0  0.54145009707E+02  0.23136817342E+02 -0.52341286696E+01  0.59113369857E+02  0.00000000000E+00 0. -1.
         -1    1    1    2    0  502 -0.23146891787E+02  0.15207909706E+01 -0.45489460263E+02  0.51062534206E+02  0.00000000000E+00 0.  1.
<scales pt_clust_5="13000.00000" pt_clust_6="13000.00000" pt_clust_7="13000.00000" pt_clust_8="13000.00000" pt_clust_9="23.19680"></scales>
<clustering>
<clus scale="   23.197">  2  9  1 -1</clus>
<clus scale="   86.011">  7  8 -1 -1</clus>
<clus scale="   88.130">  1  7  2 -1</clus>
<clus scale="   91.698">  5  6 -1 -1</clus>
<clus scale="   23.197">  2  5  1 -1</clus>
</clustering>
</event>
<event>
 9    1  0.1315259E-005  0.2514251E+03  0.7546771E-02  0.1112595E+00
         21   -1    0    0  501  502  0.00000000000E+00  0.00000000000E+00  0.60083753433E+03  0.60083753433E+03  0.00000000000E+00 0.  1.
         -1   -1    0    0    0  501 -0.00000000000E+00 -0.00000000000E+00 -0.15155302892E+03  0.15155302892E+03  0.00000000000E+00 0.  1.
         23    2    1    2    0    0 -0.27892013128E+02  0.20813520534E+03  0.11140873140E+03  0.25486191327E+03  0.91893750095E+02 0.  0.
         23    2    1    2    0    0  0.77030873791E+02 -0.26153692781E+03  0.23873153765E+03  0.37466306818E+03  0.95101774243E+02 0.  0.
        -11    1    4    4    0    0  0.77789922283E+02 -0.15754734780E+03  0.19317355028E+03  0.26112920047E+03  0.00000000000E+00 0.  1.
         11    1    4    4    0    0 -0.75904849276E+00 -0.10398958000E+03  0.45557987365E+02  0.11353386771E+03  0.00000000000E+00 0. -1.
        -13    1    3    3    0    0  0.24511638971E+02  0.14441354308E+03  0.76843544548E+02  0.16541167494E+03  0.00000000000E+00 0.  1.
         13    1    3    3    0    0 -0.52403652100E+02  0.63721662261E+02  0.34565186857E+02  0.89450238329E+02  0.00000000000E+00 0. -1.
         -1    1    1    2    0  502 -0.49138860662E+02  0.53401722473E+02  0.99144236359E+02  0.12286558181E+03  0.00000000000E+00 0.  1.
<scales pt_clust_5="13000.00000" pt_clust_6="13000.00000" pt_clust_7="13000.00000" pt_clust_8="13000.00000" pt_clust_9="72.56977"></scales>
<clustering>
<clus scale="   72.570">  1  9  2 -1</clus>
<clus scale="   91.894">  7  8 -1 -1</clus>
<clus scale="   95.102">  5  6 -1 -1</clus>
<clus scale="  250.229">  2  7  1 -1</clus>
<clus scale="   72.570">  1  5  2 -1</clus>
</clustering>
</event>
<event>
 9    1  0.1315259E-005  0.1067286E+03  0.7546771E-02  0.1267500E+00
          3   -1    0    0  502    0 -0.00000000000E+00  0.00000000000E+00  0.30004476802E+03  0.30004476802E+03  0.00000000000E+00 0. -1.
         21   -1    0    0  501  502  0.00000000000E+00 -0.00000000000E+00 -0.80320503119E+02  0.80320503119E+02  0.00000000000E+00 0.  1.
         23    2    1    2    0    0  0.21955581826E+02  0.34903137183E+02  0.17604737200E+03  0.20418380350E+03  0.94858167099E+02 0.  0.
         23    2    1    2    0    0 -0.52104662379E+02 -0.61448843241E+02  0.96055693478E+01  0.12350797661E+03  0.93118726080E+02 0.  0.
        -11    1    3    3    0    0  0.13437937713E+02  0.66405498394E+02  0.93890114596E+02  0.11578264985E+03  0.00000000000E+00 0.  1.
         11    1    3    3    0    0  0.85176441129E+01 -0.31502361211E+02  0.82157257399E+02  0.88401153649E+02  0.00000000000E+00 0. -1.
        -13    1    4    4    0    0 -0.10834745234E+02 -0.20611036394E+02  0.48379417349E+02  0.53691475567E+02  0.00000000000E+00 0. -1.
         13    1    4    4    0    0 -0.41269917145E+02 -0.40837806847E+02 -0.38773848001E+02  0.69816501044E+02  0.00000000000E+00 0.  1.
          3    1    1    2  501    0  0.30149080554E+02  0.26545706058E+02  0.34071323557E+02  0.52673491030E+02  0.00000000000E+00 0. -1.
<scales pt_clust_5="13000.00000" pt_clust_6="13000.00000" pt_clust_7="13000.00000" pt_clust_8="13000.00000" pt_clust_9="40.17018"></scales>
<clustering>
<clus scale="   40.170">  2  9  1 -1</clus>
<clus scale="   93.119">  7  8 -1 -1</clus>
<clus scale="   94.858">  5  6 -1 -1</clus>
<clus scale="  105.186">  2  7  1 -1</clus>
<clus scale="   40.170">  2  5  1 -1</clus>
</clustering>
</event>
<event>
 9    1  0.1315259E-005  0.1079064E+03  0.7546771E-02  0.1268514E+00
         21   -1    0    0  501  502  0.00000000000E+00  0.00000000000E+00  0.73385616557E+02  0.73385616557E+02  0.00000000000E+00 0.  1.
          1   -1    0    0  502    0 -0.00000000000E+00 -0.00000000000E+00 -0.31156741288E+03  0.31156741288E+03  0.00000000000E+00 0. -1.
         23    2    1    2    0    0 -0.41787639160E+02  0.66665437924E+01 -0.16941271843E+03  0.20273206291E+03  0.10299985716E+03 0.  0.
         23    2    1    2    0    0  0.16006939213E+02  0.30243394159E+02 -0.87713918664E+02  0.13337534235E+03  0.94468859556E+02 0.  0.
        -11    1    4    4    0    0  0.29395979981E+02 -0.96151244807E+01 -0.85889637347E+02  0.91288575744E+02  0.00000000000E+00 0. -1.
         11    1    4    4    0    0 -0.13389040767E+02  0.39858518640E+02 -0.18242813168E+01  0.42086766604E+02  0.00000000000E+00 0.  1.
        -13    1    3    3    0    0 -0.23463534684E+02 -0.45165897582E+02 -0.11314412074E+03  0.12406485329E+03  0.00000000000E+00 0. -1.
         13    1    3    3    0    0 -0.18324104476E+02  0.51832441374E+02 -0.56268597687E+02  0.78667209620E+02  0.00000000000E+00 0.  1.
          1    1    1    2  501    0  0.25780699947E+02 -0.36909937952E+02  0.18944840770E+02  0.48845624176E+02  0.00000000000E+00 0. -1.
<scales pt_clust_5="13000.00000" pt_clust_6="13000.00000" pt_clust_7="13000.00000" pt_clust_8="13000.00000" pt_clust_9="45.02208"></scales>
<clustering>
<clus scale="   45.022">  1  9  2 -1</clus>
<clus scale="   94.469">  5  6 -1 -1</clus>
<clus scale="   99.796">  1  5  2 -1</clus>
<clus scale="  103.000">  7  8 -1 -1</clus>
<clus scale="   45.022">  1  5  2 -1</clus>
</clustering>
</event>
<event>
 9    1  0.1315259E-005  0.1148987E+03  0.7546771E-02  0.1252561E+00
         21   -1    0    0  501  502  0.00000000000E+00  0.00000000000E+00  0.20583160719E+03  0.20583160719E+03  0.00000000000E+00 0.  1.
         -3   -1    0    0    0  501 -0.00000000000E+00 -0.00000000000E+00 -0.15754816283E+03  0.15754816283E+03  0.00000000000E+00 0.  1.
         23    2    1    2    0    0  0.69428624772E+02  0.14121242204E+02 -0.49811037593E+02  0.12729386199E+03  0.93289036948E+02 0.  0.
         23    2    1    2    0    0 -0.63962458007E+02  0.67373012884E+01 -0.22387767236E+02  0.11368929785E+03  0.91035471442E+02 0.  0.
        -11    1    4    4    0    0 -0.52515757423E+02 -0.19818221260E+02  0.22352086715E+02  0.60417567414E+02  0.00000000000E+00 0. -1.
         11    1    4    4    0    0 -0.11446700584E+02  0.26555522548E+02 -0.44739853951E+02  0.53271730436E+02  0.00000000000E+00 0.  1.
        -13    1    3    3    0    0 -0.13278852668E+02 -0.20710650475E+02 -0.22880645875E+02  0.33597364881E+02  0.00000000000E+00 0. -1.
         13    1    3    3    0    0  0.82707477440E+02  0.34831892680E+02 -0.26930391718E+02  0.93696497107E+02  0.00000000000E+00 0.  1.
         -3    1    1    2    0  502 -0.54661667646E+01 -0.20858543493E+02  0.12048224918E+03  0.12239661018E+03  0.00000000000E+00 0.  1.
<scales pt_clust_5="13000.00000" pt_clust_6="13000.00000" pt_clust_7="13000.00000" pt_clust_8="13000.00000" pt_clust_9="21.56288"></scales>
<clustering>
<clus scale="   21.563">  1  9  2 -1</clus>
<clus scale="   91.035">  5  6 -1 -1</clus>
<clus scale="   93.289">  7  8 -1 -1</clus>
<clus scale="  113.077">  1  5  2 -1</clus>
<clus scale="   21.563">  1  5  2 -1</clus>
</clustering>
</event>
<event>
 9    1  0.1315259E-005  0.1269135E+03  0.7546771E-02  0.1234301E+00
         21   -1    0    0  501  502  0.00000000000E+00  0.00000000000E+00  0.45710679922E+02  0.45710679922E+02  0.00000000000E+00 0. -1.
          1   -1    0    0  502    0 -0.00000000000E+00 -0.00000000000E+00 -0.48937493585E+03  0.48937493585E+03  0.00000000000E+00 0. -1.
         23    2    1    2    0    0 -0.79979299272E+02 -0.38783445762E+02 -0.30890808803E+03  0.33365974246E+03  0.89463807841E+02 0.  0.
         23    2    1    2    0    0  0.50556967550E+02  0.47171344391E+02 -0.10467115013E+03  0.15851738066E+03  0.96904941062E+02 0.  0.
        -13    1    3    3    0    0 -0.61540639164E+02  0.19684123131E+01 -0.26080297785E+03  0.26797260713E+03  0.00000000000E+00 0. -1.
         13    1    3    3    0    0 -0.18438660108E+02 -0.40751858075E+02 -0.48105110180E+02  0.65687135336E+02  0.00000000000E+00 0.  1.
        -13    1    4    4    0    0 -0.45297385655E+01  0.27714928720E+02  0.10009568446E+02  0.29813206233E+02  0.00000000000E+00 0. -1.
         13    1    4    4    0    0  0.55086706116E+02  0.19456415671E+02 -0.11468071858E+03  0.12870417443E+03  0.00000000000E+00 0.  1.
          1    1    1    2  501    0  0.29422331722E+02 -0.83878986291E+01 -0.30085017764E+02  0.42908492647E+02  0.00000000000E+00 0. -1.
<scales pt_clust_5="13000.00000" pt_clust_6="13000.00000" pt_clust_7="13000.00000" pt_clust_8="13000.00000" pt_clust_9="30.59461"></scales>
<clustering>
<clus scale="   30.595">  1  9  2 -1</clus>
<clus scale="   89.464">  5  6 -1 -1</clus>
<clus scale="   96.905">  7  8 -1 -1</clus>
<clus scale="  121.327">  2  5  1 -1</clus>
<clus scale="   30.595">  1  5  2 -1</clus>
</clustering>
</event>
<event>
 9    1  0.1315259E-005  0.1226599E+03  0.7546771E-02  0.1243550E+00
          1   -1    0    0  502    0 -0.00000000000E+00  0.00000000000E+00  0.17018426340E+03  0.17018426340E+03  0.00000000000E+00 0. -1.
         21   -1    0    0  501  502  0.00000000000E+00 -0.00000000000E+00 -0.15581035250E+03  0.15581035250E+03  0.00000000000E+00 0.  1.
         23    2    1    2    0    0  0.40772550463E+02 -0.54159132403E+02  0.10450613661E+03  0.16337554855E+03  0.10570915184E+03 0.  0.
         23    2    1    2    0    0 -0.40164879650E+02  0.26602696141E+02 -0.54417245229E+02  0.11750492018E+03  0.92332273282E+02 0.  0.
        -11    1    4    4    0    0 -0.31660718846E+02 -0.31869496572E+02 -0.20553600356E+02  0.49401583145E+02  0.00000000000E+00 0.  1.
         11    1    4    4    0    0 -0.85041608035E+01  0.58472192712E+02 -0.33863644872E+02  0.68103337037E+02  0.00000000000E+00 0. -1.
        -13    1    3    3    0    0 -0.35825525270E+02 -0.10867117873E+02  0.27522776347E+02  0.46465747918E+02  0.00000000000E+00 0. -1.
         13    1    3    3    0    0  0.76598075733E+02 -0.43292014530E+02  0.76983360260E+02  0.11690980064E+03  0.00000000000E+00 0.  1.
          1    1    1    2  501    0 -0.60767081381E+00  0.27556436262E+02 -0.35714980484E+02  0.45114147163E+02  0.00000000000E+00 0. -1.
<scales pt_clust_5="13000.00000" pt_clust_6="13000.00000" pt_clust_7="13000.00000" pt_clust_8="13000.00000" pt_clust_9="27.56314"></scales>
<clustering>
<clus scale="   27.563">  2  9  1 -1</clus>
<clus scale="   92.332">  5  6 -1 -1</clus>
<clus scale="  105.709">  7  8 -1 -1</clus>
<clus scale="  111.339">  2  5  1 -1</clus>
<clus scale="   27.563">  2  5  1 -1</clus>
</clustering>
</event>
<event>
 9    1  0.1315259E-005  0.9671185E+02  0.7546771E-02  0.1290268E+00
          3   -1    0    0  502    0 -0.00000000000E+00  0.00000000000E+00  0.41034511588E+03  0.41034511588E+03  0.00000000000E+00 0. -1.
         21   -1    0    0  501  502  0.00000000000E+00 -0.00000000000E+00 -0.78079746219E+02  0.78079746219E+02  0.00000000000E+00 0. -1.
         23    2    1    2    0    0  0.38026451160E+02  0.23955675379E+00  0.20708650460E+03  0.22956571612E+03  0.91485131345E+02 0.  0.
         23    2    1    2    0    0 -0.20970657413E+02  0.21777938194E+02  0.17751456677E+03  0.19957427558E+03  0.86048956961E+02 0.  0.
        -11    1    3    3    0    0 -0.36875947310E+01  0.36164605375E+02  0.42025917358E+02  0.55566669566E+02  0.00000000000E+00 0.  1.
         11    1    3    3    0    0  0.41714045891E+02 -0.35925048621E+02  0.16506058724E+03  0.17399904656E+03  0.00000000000E+00 0. -1.
        -13    1    4    4    0    0 -0.49949399269E+02  0.56210005054E+01  0.64398597334E+02  0.81692823874E+02  0.00000000000E+00 0. -1.
         13    1    4    4    0    0  0.28978741856E+02  0.16156937689E+02  0.11311596944E+03  0.11788145171E+03  0.00000000000E+00 0.  1.
          3    1    1    2  501    0 -0.17055793747E+02 -0.22017494948E+02 -0.52335701709E+02  0.59284870393E+02  0.00000000000E+00 0. -1.
<scales pt_clust_5="13000.00000" pt_clust_6="13000.00000" pt_clust_7="13000.00000" pt_clust_8="13000.00000" pt_clust_9="27.85086"></scales>
<clustering>
<clus scale="   27.851">  2  9  1 -1</clus>
<clus scale="   86.049">  7  8 -1 -1</clus>
<clus scale="   91.485">  5  6 -1 -1</clus>
<clus scale="   91.586">  2  7  1 -1</clus>
<clus scale="   27.851">  2  5  1 -1</clus>
</clustering>
</event>
<event>
 9    1  0.1315259E-005  0.1001479E+03  0.7546771E-02  0.1280698E+00
         21   -1    0    0  501  502  0.00000000000E+00  0.00000000000E+00  0.18460509990E+03  0.18460509990E+03  0.00000000000E+00 0. -1.
          1   -1    0    0  502    0 -0.00000000000E+00 -0.00000000000E+00 -0.31168172221E+03  0.31168172221E+03  0.00000000000E+00 0. -1.
         23    2    1    2    0    0  0.33484991053E+02 -0.32753634314E+02 -0.22790028005E+03  0.24980388794E+03  0.90936239188E+02 0.  0.
         23    2    1    2    0    0 -0.18004555696E+02  0.26989116990E+01 -0.39514572748E+02  0.10213007079E+03  0.92399684788E+02 0.  0.
        -13    1    3    3    0    0  0.29581867445E+02  0.21942849373E+02 -0.41415134978E+02  0.55423721685E+02  0.00000000000E+00 0.  1.
         13    1    3    3    0    0  0.39031236075E+01 -0.54696483688E+02 -0.18648514507E+03  0.19438016626E+03  0.00000000000E+00 0. -1.
        -13    1    4    4    0    0  0.27981776988E+02  0.23163978242E+02  0.27150492759E+01  0.36426929928E+02  0.00000000000E+00 0.  1.
         13    1    4    4    0    0 -0.45986332684E+02 -0.20465066543E+02 -0.42229622024E+02  0.65703140858E+02  0.00000000000E+00 0. -1.
          1    1    1    2  501    0 -0.15480435357E+02  0.30054722615E+02  0.14033823049E+03  0.14435286339E+03  0.00000000000E+00 0. -1.
<scales pt_clust_5="13000.00000" pt_clust_6="13000.00000" pt_clust_7="13000.00000" pt_clust_8="13000.00000" pt_clust_9="33.80725"></scales>
<clustering>
<clus scale="   33.807">  1  9  2 -1</clus>
<clus scale="   90.936">  5  6 -1 -1</clus>
<clus scale="   92.400">  7  8 -1 -1</clus>
<clus scale="   98.799">  2  5  1 -1</clus>
<clus scale="   33.807">  1  5  2 -1</clus>
</clustering>
</event>
<event>
 9    1  0.1315259E-005  0.1220708E+03  0.7546771E-02  0.1241547E+00
         -2   -1    0    0    0  501 -0.00000000000E+00  0.00000000000E+00  0.93518909008E+02  0.93518909008E+02  0.00000000000E+00 0.  1.
         21   -1    0    0  501  502  0.00000000000E+00 -0.00000000000E+00 -0.53740434716E+03  0.53740434716E+03  0.00000000000E+00 0.  1.
         23    2    1    2    0    0  0.28336427450E+02 -0.76518070636E+02  0.27680847551E+02  0.12548728921E+03  0.91229722009E+02 0.  0.
         23    2    1    2    0    0 -0.44477319600E+02  0.70107526447E+01 -0.33063986770E+03  0.34747378495E+03  0.96891312832E+02 0.  0.
        -13    1    4    4    0    0 -0.54344731320E+02 -0.33834935039E+02 -0.21992929195E+03  0.22905686218E+03  0.00000000000E+00 0.  1.
         13    1    4    4    0    0  0.98674117204E+01  0.40845687684E+02 -0.11071057575E+03  0.11841692277E+03  0.00000000000E+00 0. -1.
        -13    1    3    3    0    0  0.58998672032E+02 -0.57713118793E+02  0.33458443054E+02  0.89056806556E+02  0.00000000000E+00 0.  1.
         13    1    3    3    0    0 -0.30662244582E+02 -0.18804951843E+02 -0.57775955039E+01  0.36430482655E+02  0.00000000000E+00 0. -1.
         -2    1    1    2    0  502  0.16140892150E+02  0.69507317991E+02 -0.14092641800E+03  0.15796218201E+03  0.00000000000E+00 0.  1.
<scales pt_clust_5="13000.00000" pt_clust_6="13000.00000" pt_clust_7="13000.00000" pt_clust_8="13000.00000" pt_clust_9="71.35682"></scales>
<clustering>
<clus scale="   71.357">  2  9  1 -1</clus>
<clus scale="   91.230">  7  8 -1 -1</clus>
<clus scale="   96.891">  5  6 -1 -1</clus>
<clus scale="  117.627">  1  7  2 -1</clus>
<clus scale="   71.357">  2  5  1 -1</clus>
</clustering>
</event>
<event>
 9    1  0.1315259E-005  0.2196812E+03  0.7546771E-02  0.1163877E+00
          2   -1    0    0  502    0 -0.00000000000E+00  0.00000000000E+00  0.11505051297E+04  0.11505051297E+04  0.00000000000E+00 0. -1.
         21   -1    0    0  501  502  0.00000000000E+00 -0.00000000000E+00 -0.10193671474E+03  0.10193671474E+03  0.00000000000E+00 0. -1.
         23    2    1    2    0    0  0.24177736587E+02 -0.52779191948E+02  0.38887543270E+02  0.11515634695E+03  0.91534349680E+02 0.  0.
         23    2    1    2    0    0 -0.94545432268E+00 -0.15626818057E+03  0.86079189891E+03  0.87958709023E+03  0.91050084727E+02 0.  0.
        -11    1    4    4    0    0  0.35500258089E+02 -0.50905331806E+02  0.19845896718E+03  0.20793648739E+03  0.00000000000E+00 0.  1.
         11    1    4    4    0    0 -0.36445712412E+02 -0.10536284877E+03  0.66233293173E+03  0.67165060285E+03  0.00000000000E+00 0. -1.
        -11    1    3    3    0    0 -0.16947233726E+02  0.19077806412E+02  0.11060728116E+02  0.27812068152E+02  0.00000000000E+00 0.  1.
         11    1    3    3    0    0  0.41124970313E+02 -0.71856998360E+02  0.27826815153E+02  0.87344278795E+02  0.00000000000E+00 0. -1.
          2    1    1    2  501    0 -0.23232282265E+02  0.20904737252E+03  0.14888897282E+03  0.25769840730E+03  0.00000000000E+00 0. -1.
<scales pt_clust_5="13000.00000" pt_clust_6="13000.00000" pt_clust_7="13000.00000" pt_clust_8="13000.00000" pt_clust_9="199.92429"></scales>
<clustering>
<clus scale="   91.050">  5  6 -1 -1</clus>
<clus scale="   91.534">  7  8 -1 -1</clus>
<clus scale="  108.392">  1  7  2 -1</clus>
<clus scale="  199.924">  2  9  1 -1</clus>
<clus scale="  199.924">  2  5  1 -1</clus>
</clustering>
</event>
<event>
 9    1  0.1315259E-005  0.9215220E+02  0.7546771E-02  0.1298841E+00
         21   -1    0    0  501  502  0.00000000000E+00  0.00000000000E+00  0.23507437986E+03  0.23507437986E+03  0.00000000000E+00 0.  1.
          1   -1    0    0  502    0 -0.00000000000E+00 -0.00000000000E+00 -0.46692701105E+02  0.46692701105E+02  0.00000000000E+00 0. -1.
         23    2    1    2    0    0  0.97278058501E+01 -0.19954088246E+02  0.84773527868E+02  0.12646489904E+03  0.91181269001E+02 0.  0.
         23    2    1    2    0    0 -0.12171896111E+02 -0.47969145720E+01  0.87390215042E+02  0.12561031165E+03  0.89273373763E+02 0.  0.
        -13    1    4    4    0    0  0.13652730193E+02 -0.33568689764E+02  0.77726253060E+02  0.85759106740E+02  0.00000000000E+00 0.  1.
         13    1    4    4    0    0 -0.25824626304E+02  0.28771775192E+02  0.96639619820E+01  0.39851204908E+02  0.00000000000E+00 0. -1.
        -13    1    3    3    0    0 -0.30174977686E+02 -0.36520016075E+02  0.27682867906E+02  0.54868770972E+02  0.00000000000E+00 0.  1.
         13    1    3    3    0    0  0.39902783537E+02  0.16565927829E+02  0.57090659962E+02  0.71596128064E+02  0.00000000000E+00 0. -1.
          1    1    1    2  501    0  0.24440902608E+01  0.24751002818E+02  0.16217935844E+02  0.29691870280E+02  0.00000000000E+00 0. -1.
<scales pt_clust_5="13000.00000" pt_clust_6="13000.00000" pt_clust_7="13000.00000" pt_clust_8="13000.00000" pt_clust_9="24.87140"></scales>
<clustering>
<clus scale="   24.871">  1  9  2 -1</clus>
<clus scale="   89.273">  5  6 -1 -1</clus>
<clus scale="   90.265">  1  5  2 -1</clus>
<clus scale="   91.181">  7  8 -1 -1</clus>
<clus scale="   24.871">  1  5  2 -1</clus>
</clustering>
</event>
<event>
 9    1  0.1315259E-005  0.1073805E+03  0.7546771E-02  0.1266384E+00
          2   -1    0    0  502    0 -0.00000000000E+00  0.00000000000E+00  0.59474250488E+03  0.59474250488E+03  0.00000000000E+00 0. -1.
         21   -1    0    0  501  502  0.00000000000E+00 -0.00000000000E+00 -0.30391453192E+02  0.30391453192E+02  0.00000000000E+00 0.  1.
         23    2    1    2    0    0  0.11692178243E+02  0.31503894692E+02  0.19734513454E+03  0.22115656236E+03  0.93999577318E+02 0.  0.
         23    2    1    2    0    0  0.15310538459E+02 -0.73565128476E+02  0.26568080350E+03  0.29099477425E+03  0.91899012921E+02 0.  0.
        -13    1    4    4    0    0 -0.32948353334E+02 -0.20359083465E+02  0.47473922862E+02  0.61268749121E+02  0.00000000000E+00 0.  1.
         13    1    4    4    0    0  0.48258891794E+02 -0.53206045011E+02  0.21820688064E+03  0.22972602513E+03  0.00000000000E+00 0. -1.
        -13    1    3    3    0    0  0.13180123738E+02  0.64962881622E+02  0.12786943762E+03  0.14402945784E+03  0.00000000000E+00 0. -1.
         13    1    3    3    0    0 -0.14879454954E+01 -0.33458986930E+02  0.69475696925E+02  0.77127104518E+02  0.00000000000E+00 0.  1.
          2    1    1    2  501    0 -0.27002716702E+02  0.42061233785E+02  0.10132511364E+03  0.11298262145E+03  0.00000000000E+00 0. -1.
<scales pt_clust_5="13000.00000" pt_clust_6="13000.00000" pt_clust_7="13000.00000" pt_clust_8="13000.00000" pt_clust_9="49.98294"></scales>
<clustering>
<clus scale="   49.983">  2  9  1 -1</clus>
<clus scale="   91.899">  5  6 -1 -1</clus>
<clus scale="   94.000">  7  8 -1 -1</clus>
<clus scale="  105.547">  2  5  1 -1</clus>
<clus scale="   49.983">  2  5  1 -1</clus>
</clustering>
</event>
<event>
 9    1  0.1315259E-005  0.1100224E+03  0.7546771E-02  0.1260659E+00
         21   -1    0    0  501  502  0.00000000000E+00  0.00000000000E+00  0.19124973603E+03  0.19124973603E+03  0.00000000000E+00 0.  1.
         -3   -1    0    0    0  501 -0.00000000000E+00 -0.00000000000E+00 -0.41119336088E+03  0.41119336088E+03  0.00000000000E+00 0.  1.
         23    2    1    2    0    0 -0.14920288761E+02 -0.55391153593E+02 -0.36103889014E+03  0.37701879790E+03  0.92213333417E+02 0.  0.
         23    2    1    2    0    0  0.31549380705E+02  0.81722634588E+02  0.64682716008E+02  0.14290914114E+03  0.92548454569E+02 0.  0.
        -13    1    3    3    0    0  0.29128060265E+02 -0.50391936890E+02 -0.14068778660E+03  0.15225256811E+03  0.00000000000E+00 0.  1.
         13    1    3    3    0    0 -0.44048349026E+02 -0.49992167022E+01 -0.22035110354E+03  0.22476622979E+03  0.00000000000E+00 0. -1.
        -13    1    4    4    0    0 -0.10955898629E+02  0.49894814183E+02  0.73064000804E+02  0.89150840773E+02  0.00000000000E+00 0. -1.
         13    1    4    4    0    0  0.42505279334E+02  0.31827820405E+02 -0.83812847960E+01  0.53758300362E+02  0.00000000000E+00 0.  1.
         -3    1    1    2    0  502 -0.16629091943E+02 -0.26331480995E+02  0.76412549284E+02  0.82515157870E+02  0.00000000000E+00 0.  1.
<scales pt_clust_5="13000.00000" pt_clust_6="13000.00000" pt_clust_7="13000.00000" pt_clust_8="13000.00000" pt_clust_9="31.14279"></scales>
<clustering>
<clus scale="   31.143">  1  9  2 -1</clus>
<clus scale="   92.213">  5  6 -1 -1</clus>
<clus scale="   92.548">  7  8 -1 -1</clus>
<clus scale="  109.741">  2  5  1 -1</clus>
<clus scale="   31.143">  1  5  2 -1</clus>
</clustering>
</event>
<event>
 9    1  0.2344347E-005  0.1849197E+03  0.7546771E-02  0.1163192E+00
          2   -1    0    0  502    0 -0.00000000000E+00  0.00000000000E+00  0.53059012563E+03  0.53059012563E+03  0.00000000000E+00 0. -1.
         21   -1    0    0  501  502  0.00000000000E+00 -0.00000000000E+00 -0.52482677747E+03  0.52482677747E+03  0.00000000000E+00 0. -1.
         23    2    1    2    0    0  0.16337329980E+03  0.16936030923E+02  0.46450668014E+03  0.50104905477E+03  0.91137451991E+02 0.  0.
         23    2    1    2    0    0 -0.12794898365E+03 -0.54468725809E+02 -0.10388929351E+03  0.19578037786E+03  0.90549359676E+02 0.  0.
        -13    1    4    4    0    0 -0.12718415914E+02  0.22608996474E+02 -0.77488783812E+01  0.27073417610E+02  0.00000000000E+00 0.  1.
         13    1    4    4    0    0 -0.11523056774E+03 -0.77077722282E+02 -0.96140415129E+02  0.16870696025E+03  0.00000000000E+00 0. -1.
        -13    1    3    3    0    0  0.68353107489E+01  0.26606101985E+02  0.40243812079E+02  0.48725460968E+02  0.00000000000E+00 0.  1.
         13    1    3    3    0    0  0.15653798905E+03 -0.96700710616E+01  0.42426286806E+03  0.45232359380E+03  0.00000000000E+00 0. -1.
          2    1    1    2  501    0 -0.35424316144E+02  0.37532694885E+02 -0.35485403848E+03  0.35858747048E+03  0.00000000000E+00 0. -1.
<scales pt_clust_5="13000.00000" pt_clust_6="13000.00000" pt_clust_7="13000.00000" pt_clust_8="13000.00000" pt_clust_9="51.60993"></scales>
<clustering>
<clus scale="   51.610">  2  9  1 -1</clus>
<clus scale="   90.549">  5  6 -1 -1</clus>
<clus scale="   91.137">  7  8 -1 -1</clus>
<clus scale="  184.631">  2  5  1 -1</clus>
<clus scale="   51.610">  2  5  1 -1</clus>
</clustering>
</event>
<event>
 9    1  0.1315259E-005  0.1015408E+03  0.7546771E-02  0.1278646E+00
          2   -1    0    0  502    0 -0.00000000000E+00  0.00000000000E+00  0.49426126968E+02  0.49426126968E+02  0.00000000000E+00 0. -1.
         21   -1    0    0  501  502  0.00000000000E+00 -0.00000000000E+00 -0.62832010812E+03  0.62832010812E+03  0.00000000000E+00 0. -1.
         23    2    1    2    0    0 -0.40555868621E+02 -0.13281022484E+02 -0.34568169643E+02  0.10942322104E+03  0.94643113396E+02 0.  0.
         23    2    1    2    0    0  0.23331214825E+02 -0.32289358123E+02 -0.23661435374E+03  0.25677897297E+03  0.91444739214E+02 0.  0.
        -11    1    4    4    0    0  0.94605884273E-01 -0.43142911756E+02 -0.22414977090E+03  0.22826396908E+03  0.00000000000E+00 0. -1.
         11    1    4    4    0    0  0.23236608940E+02  0.10853553633E+02 -0.12464582842E+02  0.28515003891E+02  0.00000000000E+00 0.  1.
        -13    1    3    3    0    0 -0.27168072386E+02 -0.53935262024E+02 -0.14281255920E+02  0.62056997329E+02  0.00000000000E+00 0. -1.
         13    1    3    3    0    0 -0.13387796234E+02  0.40654239540E+02 -0.20286913723E+02  0.47366223715E+02  0.00000000000E+00 0.  1.
          2    1    1    2  501    0  0.17224653796E+02  0.45570380607E+02 -0.30771145777E+03  0.31154404108E+03  0.00000000000E+00 0. -1.
<scales pt_clust_5="13000.00000" pt_clust_6="13000.00000" pt_clust_7="13000.00000" pt_clust_8="13000.00000" pt_clust_9="48.71702"></scales>
<clustering>
<clus scale="   48.717">  2  9  1 -1</clus>
<clus scale="   91.445">  5  6 -1 -1</clus>
<clus scale="   94.643">  7  8 -1 -1</clus>
<clus scale="   98.566">  2  5  1 -1</clus>
<clus scale="   48.717">  2  5  1 -1</clus>
</clustering>
</event>
<event>
 9    1  0.1315259E-005  0.2081394E+03  0.7546771E-02  0.1143171E+00
          2   -1    0    0  502    0 -0.00000000000E+00  0.00000000000E+00  0.20290996657E+03  0.20290996657E+03  0.00000000000E+00 0. -1.
         21   -1    0    0  501  502  0.00000000000E+00 -0.00000000000E+00 -0.26824014144E+03  0.26824014144E+03  0.00000000000E+00 0. -1.
         23    2    1    2    0    0 -0.63614280865E+02  0.17336511176E+03  0.28919078985E+02  0.20826853129E+03  0.91854391803E+02 0.  0.
         23    2    1    2    0    0  0.44372930446E+02 -0.18554676285E+03 -0.56117657192E+02  0.21846715504E+03  0.90455227722E+02 0.  0.
        -13    1    4    4    0    0 -0.12981800285E+02 -0.19568831348E+02  0.16223314126E+02  0.28542288279E+02  0.00000000000E+00 0.  1.
         13    1    4    4    0    0  0.57354730732E+02 -0.16597793150E+03 -0.72340971318E+02  0.18992486676E+03  0.00000000000E+00 0. -1.
        -13    1    3    3    0    0 -0.81287980405E+02  0.91051123101E+02  0.17707724002E+02  0.12333534070E+03  0.00000000000E+00 0. -1.
         13    1    3    3    0    0  0.17673699540E+02  0.82313988655E+02  0.11211354983E+02  0.84933190593E+02  0.00000000000E+00 0.  1.
          2    1    1    2  501    0  0.19241350418E+02  0.12181651091E+02 -0.38131596658E+02  0.44414421677E+02  0.00000000000E+00 0. -1.
<scales pt_clust_5="13000.00000" pt_clust_6="13000.00000" pt_clust_7="13000.00000" pt_clust_8="13000.00000" pt_clust_9="22.77328"></scales>
<clustering>
<clus scale="   22.773">  2  9  1 -1</clus>
<clus scale="   90.455">  5  6 -1 -1</clus>
<clus scale="   91.854">  7  8 -1 -1</clus>
<clus scale="  207.526">  2  5  1 -1</clus>
<clus scale="   22.773">  2  5  1 -1</clus>
</clustering>
</event>
<event>
 9    1  0.1315259E-005  0.1041321E+03  0.7546771E-02  0.1272561E+00
          1   -1    0    0  502    0 -0.00000000000E+00  0.00000000000E+00  0.51852640453E+03  0.51852640453E+03  0.00000000000E+00 0. -1.
         21   -1    0    0  501  502  0.00000000000E+00 -0.00000000000E+00 -0.33854033692E+02  0.33854033692E+02  0.00000000000E+00 0. -1.
         23    2    1    2    0    0 -0.16412467759E+02  0.64324251516E+02  0.29285684463E+03  0.31292620948E+03  0.88038075285E+02 0.  0.
         23    2    1    2    0    0 -0.17147874567E+02 -0.35581019049E+02  0.14553226782E+03  0.17546508907E+03  0.89712306772E+02 0.  0.
        -11    1    4    4    0    0 -0.52682620498E+02 -0.15303415840E+02  0.64388383876E+02  0.84590289141E+02  0.00000000000E+00 0. -1.
         11    1    4    4    0    0  0.35534745931E+02 -0.20277603209E+02  0.81143883947E+02  0.90874799930E+02  0.00000000000E+00 0.  1.
        -13    1    3    3    0    0 -0.91734128741E+01  0.83596615290E+02  0.26666572995E+03  0.27961251246E+03  0.00000000000E+00 0. -1.
         13    1    3    3    0    0 -0.72390548848E+01 -0.19272363774E+02  0.26191114678E+02  0.33313697020E+02  0.00000000000E+00 0.  1.
          1    1    1    2  501    0  0.33560342326E+02 -0.28743232466E+02  0.46283258390E+02  0.63989139679E+02  0.00000000000E+00 0. -1.
<scales pt_clust_5="13000.00000" pt_clust_6="13000.00000" pt_clust_7="13000.00000" pt_clust_8="13000.00000" pt_clust_9="44.18676"></scales>
<clustering>
<clus scale="   44.187">  2  9  1 -1</clus>
<clus scale="   88.038">  7  8 -1 -1</clus>
<clus scale="   89.712">  5  6 -1 -1</clus>
<clus scale="  102.693">  1  7  2 -1</clus>
<clus scale="   44.187">  2  5  1 -1</clus>
</clustering>
</event>
<event>
 9    1  0.1315259E-005  0.1195260E+03  0.7546771E-02  0.1249693E+00
          1   -1    0    0  502    0 -0.00000000000E+00  0.00000000000E+00  0.67208812765E+03  0.67208812765E+03  0.00000000000E+00 0. -1.
         21   -1    0    0  501  502  0.00000000000E+00 -0.00000000000E+00 -0.82969218664E+02  0.82969218664E+02  0.00000000000E+00 0. -1.
         23    2    1    2    0    0  0.10380931362E+02 -0.96271168470E+01  0.26405281603E+03  0.28553629813E+03  0.10773413007E+03 0.  0.
         23    2    1    2    0    0 -0.26180744276E+02  0.93038062779E+02  0.35502582357E+03  0.37949546600E+03  0.92908346330E+02 0.  0.
        -11    1    3    3    0    0 -0.87191816685E+01 -0.54706392684E+02  0.17925650963E+03  0.18762118690E+03  0.00000000000E+00 0.  1.
         11    1    3    3    0    0  0.19100113030E+02  0.45079275837E+02  0.84796306394E+02  0.97915111223E+02  0.00000000000E+00 0. -1.
        -11    1    4    4    0    0  0.19406828285E+02  0.85699100963E+02  0.22946952769E+03  0.24571777515E+03  0.00000000000E+00 0.  1.
         11    1    4    4    0    0 -0.45587572561E+02  0.73389618152E+01  0.12555629588E+03  0.13377769085E+03  0.00000000000E+00 0. -1.
          1    1    1    2  501    0  0.15799812914E+02 -0.83410945932E+02 -0.29959730611E+02  0.90025582184E+02  0.00000000000E+00 0. -1.
<scales pt_clust_5="13000.00000" pt_clust_6="13000.00000" pt_clust_7="13000.00000" pt_clust_8="13000.00000" pt_clust_9="84.89417"></scales>
<clustering>
<clus scale="   84.894">  2  9  1 -1</clus>
<clus scale="   92.908">  7  8 -1 -1</clus>
<clus scale="  106.357">  2  7  1 -1</clus>
<clus scale="  107.734">  5  6 -1 -1</clus>
<clus scale="   84.894">  2  5  1 -1</clus>
</clustering>
</event>
<event>
 9    1  0.1315259E-005  0.1286084E+03  0.7546771E-02  0.1229976E+00
         21   -1    0    0  501  502  0.00000000000E+00  0.00000000000E+00  0.43796532830E+03  0.43796532830E+03  0.00000000000E+00 0. -1.
         -3   -1    0    0    0  501 -0.00000000000E+00 -0.00000000000E+00 -0.14558252765E+03  0.14558252765E+03  0.00000000000E+00 0.  1.
         23    2    1    2    0    0 -0.85010739352E+02 -0.20137483879E+02 -0.91996274345E+02  0.15585518933E+03  0.90527241683E+02 0.  0.
         23    2    1    2    0    0  0.10161573880E+03  0.36881275935E+02  0.22165127316E+03  0.26326512006E+03  0.92158828450E+02 0.  0.
        -11    1    4    4    0    0  0.96647812090E+02  0.63052169938E+02  0.17839108565E+03  0.21246118505E+03  0.00000000000E+00 0. -1.
         11    1    4    4    0    0  0.49679267083E+01 -0.26170894003E+02  0.43260187512E+02  0.50803935008E+02  0.00000000000E+00 0.  1.
        -11    1    3    3    0    0 -0.29295847573E+02  0.11901127238E+02 -0.85616735337E+02  0.91269430174E+02  0.00000000000E+00 0.  1.
         11    1    3    3    0    0 -0.55714891779E+02 -0.32038611117E+02 -0.63795390079E+01  0.64585759160E+02  0.00000000000E+00 0. -1.
         -3    1    1    2    0  502 -0.16604999446E+02 -0.16743792056E+02  0.16272780183E+03  0.16442754656E+03  0.00000000000E+00 0.  1.
<scales pt_clust_5="13000.00000" pt_clust_6="13000.00000" pt_clust_7="13000.00000" pt_clust_8="13000.00000" pt_clust_9="23.58136"></scales>
<clustering>
<clus scale="   23.581">  1  9  2 -1</clus>
<clus scale="   90.527">  7  8 -1 -1</clus>
<clus scale="   92.159">  5  6 -1 -1</clus>
<clus scale="  127.444">  2  7  1 -1</clus>
<clus scale="   23.581">  1  5  2 -1</clus>
</clustering>
</event>
<event>
 9    1  0.1315259E-005  0.1069044E+03  0.7546771E-02  0.1267610E+00
         21   -1    0    0  501  502  0.00000000000E+00  0.00000000000E+00  0.24564766646E+03  0.24564766646E+03  0.00000000000E+00 0. -1.
          1   -1    0    0  502    0 -0.00000000000E+00 -0.00000000000E+00 -0.13229955498E+03  0.13229955498E+03  0.00000000000E+00 0. -1.
         23    2    1    2    0    0 -0.38300213229E+02  0.58352690485E+01 -0.28311608774E+02  0.10348911427E+03  0.91692381811E+02 0.  0.
         23    2    1    2    0    0  0.88932662237E+02 -0.60402238478E+02  0.13968620466E+03  0.19999272052E+03  0.94484938816E+02 0.  0.
        -11    1    3    3    0    0 -0.45673744076E+02  0.37064912652E+02  0.26748808286E+01  0.58881691851E+02  0.00000000000E+00 0.  1.
         11    1    3    3    0    0  0.73735308467E+01 -0.31229643603E+02 -0.30986489602E+02  0.44607422416E+02  0.00000000000E+00 0. -1.
        -13    1    4    4    0    0 -0.20010762251E+01  0.20918374309E+02  0.17711025738E+02  0.27482050915E+02  0.00000000000E+00 0.  1.
         13    1    4    4    0    0  0.90933738462E+02 -0.81320612787E+02  0.12197517892E+03  0.17251066961E+03  0.00000000000E+00 0. -1.
          1    1    1    2  501    0 -0.50632449008E+02  0.54566969429E+02  0.19735155945E+01  0.74465386650E+02  0.00000000000E+00 0. -1.
<scales pt_clust_5="13000.00000" pt_clust_6="13000.00000" pt_clust_7="13000.00000" pt_clust_8="13000.00000" pt_clust_9="74.43927"></scales>
<clustering>
<clus scale="   74.439">  1  9  2 -1</clus>
<clus scale="   91.692">  5  6 -1 -1</clus>
<clus scale="   94.485">  7  8 -1 -1</clus>
<clus scale="  104.444">  2  5  1 -1</clus>
<clus scale="   74.439">  1  5  2 -1</clus>
</clustering>
</event>
<event>
 9    1  0.1315259E-005  0.1073944E+03  0.7546771E-02  0.1266211E+00
         -3   -1    0    0    0  501 -0.00000000000E+00  0.00000000000E+00  0.16595614243E+03  0.16595614243E+03  0.00000000000E+00 0.  1.
         21   -1    0    0  501  502  0.00000000000E+00 -0.00000000000E+00 -0.11866164357E+03  0.11866164357E+03  0.00000000000E+00 0. -1.
         23    2    1    2    0    0 -0.47678703538E+02  0.45607897204E+01  0.78762595802E+02  0.12974164276E+03  0.91297797322E+02 0.  0.
         23    2    1    2    0    0  0.72074046658E+02  0.14179846408E+02 -0.35700664931E+02  0.12382362578E+03  0.93069955293E+02 0.  0.
        -13    1    4    4    0    0  0.27412331775E+02 -0.13711828885E+02  0.27766477545E+02  0.41357314468E+02  0.00000000000E+00 0.  1.
         13    1    4    4    0    0  0.44661714883E+02  0.27891675293E+02 -0.63467142476E+02  0.82466311310E+02  0.00000000000E+00 0. -1.
        -13    1    3    3    0    0 -0.58943703889E+02  0.35204181235E+02  0.41605975664E+02  0.80279211602E+02  0.00000000000E+00 0. -1.
         13    1    3    3    0    0  0.11265000351E+02 -0.30643391515E+02  0.37156620138E+02  0.49462431162E+02  0.00000000000E+00 0.  1.
         -3    1    1    2    0  502 -0.24395343120E+02 -0.18740636129E+02  0.42325679863E+01  0.31052517454E+02  0.00000000000E+00 0.  1.
<scales pt_clust_5="13000.00000" pt_clust_6="13000.00000" pt_clust_7="13000.00000" pt_clust_8="13000.00000" pt_clust_9="30.76271"></scales>
<clustering>
<clus scale="   30.763">  2  9  1 -1</clus>
<clus scale="   91.298">  7  8 -1 -1</clus>
<clus scale="   93.070">  5  6 -1 -1</clus>
<clus scale="  105.862">  1  7  2 -1</clus>
<clus scale="   30.763">  2  5  1 -1</clus>
</clustering>
</event>
<event>
 9    1  0.1315259E-005  0.1491008E+03  0.7546771E-02  0.1201667E+00
         21   -1    0    0  501  502  0.00000000000E+00  0.00000000000E+00  0.45361033854E+02  0.45361033854E+02  0.00000000000E+00 0. -1.
          2   -1    0    0  502    0 -0.00000000000E+00 -0.00000000000E+00 -0.97122870669E+03  0.97122870669E+03  0.00000000000E+00 0. -1.
         23    2    1    2    0    0 -0.11643834163E+03 -0.96396114342E+01 -0.57921644445E+03  0.59806367941E+03  0.92399489189E+02 0.  0.
         23    2    1    2    0    0  0.11703623641E+03 -0.16321456928E+02 -0.35943246608E+03  0.38958310714E+03  0.92840880545E+02 0.  0.
        -11    1    4    4    0    0  0.36779882989E+02  0.27251106125E+02 -0.20604712597E+03  0.21107060595E+03  0.00000000000E+00 0. -1.
         11    1    4    4    0    0  0.80256353423E+02 -0.43572563054E+02 -0.15338534011E+03  0.17851250118E+03  0.00000000000E+00 0.  1.
        -11    1    3    3    0    0 -0.11572477815E+02  0.33401658896E+02 -0.15305211725E+03  0.15708132816E+03  0.00000000000E+00 0. -1.
         11    1    3    3    0    0 -0.10486586381E+03 -0.43041270330E+02 -0.42616432720E+03  0.44098235125E+03  0.00000000000E+00 0.  1.
          2    1    1    2  501    0 -0.59789478686E+00  0.25961068363E+02  0.12781237700E+02  0.28942953993E+02  0.00000000000E+00 0. -1.
<scales pt_clust_5="13000.00000" pt_clust_6="13000.00000" pt_clust_7="13000.00000" pt_clust_8="13000.00000" pt_clust_9="25.96795"></scales>
<clustering>
<clus scale="   25.968">  1  9  2 -1</clus>
<clus scale="   92.399">  7  8 -1 -1</clus>
<clus scale="   92.841">  5  6 -1 -1</clus>
<clus scale="  148.826">  2  7  1 -1</clus>
<clus scale="   25.968">  1  5  2 -1</clus>
</clustering>
</event>
<event>
 9    1  0.1315259E-005  0.1767767E+03  0.7546771E-02  0.1171066E+00
         21   -1    0    0  501  502  0.00000000000E+00  0.00000000000E+00  0.29786506214E+03  0.29786506214E+03  0.00000000000E+00 0. -1.
          1   -1    0    0  502    0 -0.00000000000E+00 -0.00000000000E+00 -0.56463017022E+03  0.56463017022E+03  0.00000000000E+00 0. -1.
         23    2    1    2    0    0  0.76410712650E+02 -0.13943281971E+03 -0.37334042861E+03  0.41601528541E+03  0.91681698499E+02 0.  0.
         23    2    1    2    0    0 -0.10751115411E+03  0.92429691433E+02 -0.12399657456E+03  0.20911960838E+03  0.90851329050E+02 0.  0.
        -13    1    4    4    0    0 -0.43669444668E+02  0.17357614905E+02  0.44741067890E+01  0.47205135572E+02  0.00000000000E+00 0. -1.
         13    1    4    4    0    0 -0.63841709441E+02  0.75072076527E+02 -0.12847068135E+03  0.16191447281E+03  0.00000000000E+00 0.  1.
        -13    1    3    3    0    0 -0.20297115609E+00 -0.58843631570E+02 -0.62299832355E+02  0.85696460167E+02  0.00000000000E+00 0.  1.
         13    1    3    3    0    0  0.76613683806E+02 -0.80589188142E+02 -0.31104059625E+03  0.33031882524E+03  0.00000000000E+00 0. -1.
          1    1    1    2  501    0  0.31100441460E+02  0.47003128280E+02  0.23057189508E+03  0.23736033857E+03  0.00000000000E+00 0. -1.
<scales pt_clust_5="13000.00000" pt_clust_6="13000.00000" pt_clust_7="13000.00000" pt_clust_8="13000.00000" pt_clust_9="56.36073"></scales>
<clustering>
<clus scale="   56.361">  1  9  2 -1</clus>
<clus scale="   90.851">  5  6 -1 -1</clus>
<clus scale="   91.682">  7  8 -1 -1</clus>
<clus scale="  176.347">  1  5  2 -1</clus>
<clus scale="   56.361">  1  5  2 -1</clus>
</clustering>
</event>
<event>
 9    1  0.1315259E-005  0.9510597E+02  0.7546771E-02  0.1292975E+00
          1   -1    0    0  502    0 -0.00000000000E+00  0.00000000000E+00  0.51759279448E+03  0.51759279448E+03  0.00000000000E+00 0. -1.
         21   -1    0    0  501  502  0.00000000000E+00 -0.00000000000E+00 -0.61344907060E+02  0.61344907060E+02  0.00000000000E+00 0. -1.
         23    2    1    2    0    0 -0.20806858114E+02 -0.20857177185E+02  0.43667960764E+03  0.44691051811E+03  0.90399028078E+02 0.  0.
         23    2    1    2    0    0 -0.37574428960E+01  0.43494431427E+02  0.17142928241E+02  0.98534908300E+02  0.86656587878E+02 0.  0.
        -11    1    3    3    0    0  0.44487682529E+01 -0.51451783794E+02  0.30648886688E+03  0.31080943216E+03  0.00000000000E+00 0. -1.
         11    1    3    3    0    0 -0.25255626367E+02  0.30594606609E+02  0.13019074076E+03  0.13610108595E+03  0.00000000000E+00 0.  1.
        -13    1    4    4    0    0  0.28937376545E+02 -0.48869013025E+01 -0.13822948864E+02  0.32439597423E+02  0.00000000000E+00 0.  1.
         13    1    4    4    0    0 -0.32694819441E+02  0.48381332729E+02  0.30965877105E+02  0.66095310877E+02  0.00000000000E+00 0. -1.
          1    1    1    2  501    0  0.24564301010E+02 -0.22637254242E+02  0.24253515372E+01  0.33492275136E+02  0.00000000000E+00 0. -1.
<scales pt_clust_5="13000.00000" pt_clust_6="13000.00000" pt_clust_7="13000.00000" pt_clust_8="13000.00000" pt_clust_9="33.40434"></scales>
<clustering>
<clus scale="   33.404">  2  9  1 -1</clus>
<clus scale="   86.657">  7  8 -1 -1</clus>
<clus scale="   90.399">  5  6 -1 -1</clus>
<clus scale="   91.556">  2  7  1 -1</clus>
<clus scale="   33.404">  2  5  1 -1</clus>
</clustering>
</event>
<event>
 9    1  0.2616987E-005  0.1070600E+03  0.7546771E-02  0.1269082E+00
          1   -1    0    0  502    0 -0.00000000000E+00  0.00000000000E+00  0.55585776492E+03  0.55585776492E+03  0.00000000000E+00 0. -1.
         21   -1    0    0  501  502  0.00000000000E+00 -0.00000000000E+00 -0.10734335498E+03  0.10734335498E+03  0.00000000000E+00 0. -1.
         23    2    1    2    0    0 -0.13703587870E+02 -0.31570894634E+02  0.34586968746E+03  0.36016134799E+03  0.94370790878E+02 0.  0.
         23    2    1    2    0    0  0.55224123101E+02  0.40266987012E+02 -0.59442971889E+02  0.13549277094E+03  0.10076552017E+03 0.  0.
        -13    1    3    3    0    0 -0.53137702119E+01  0.30840368375E+02  0.62724434443E+02  0.70097925444E+02  0.00000000000E+00 0.  1.
         13    1    3    3    0    0 -0.83898176578E+01 -0.62411263008E+02  0.28314525302E+03  0.29006342255E+03  0.00000000000E+00 0. -1.
        -13    1    4    4    0    0  0.15735075494E+02  0.64114230036E+02 -0.81678787958E+01  0.66520232545E+02  0.00000000000E+00 0.  1.
         13    1    4    4    0    0  0.39489047608E+02 -0.23847243023E+02 -0.51275093093E+02  0.68972538394E+02  0.00000000000E+00 0. -1.
          1    1    1    2  501    0 -0.41520535232E+02 -0.86960923788E+01  0.16208769437E+03  0.16754700097E+03  0.00000000000E+00 0. -1.
<scales pt_clust_5="13000.00000" pt_clust_6="13000.00000" pt_clust_7="13000.00000" pt_clust_8="13000.00000" pt_clust_9="42.42144"></scales>
<clustering>
<clus scale="   42.421">  2  9  1 -1</clus>
<clus scale="   94.371">  5  6 -1 -1</clus>
<clus scale="  100.766">  7  8 -1 -1</clus>
<clus scale="  101.064">  1  5  2 -1</clus>
<clus scale="   42.421">  2  5  1 -1</clus>
</clustering>
</event>
<event>
 9    1  0.1315259E-005  0.9381111E+02  0.7546771E-02  0.1295235E+00
         21   -1    0    0  501  502  0.00000000000E+00  0.00000000000E+00  0.46505709269E+02  0.46505709269E+02  0.00000000000E+00 0.  1.
          2   -1    0    0  502    0 -0.00000000000E+00 -0.00000000000E+00 -0.47266536326E+03  0.47266536326E+03  0.00000000000E+00 0. -1.
         23    2    1    2    0    0 -0.88931543117E+01  0.34213426421E+02 -0.13549725612E+03  0.16664102016E+03  0.90333141446E+02 0.  0.
         23    2    1    2    0    0 -0.25992882920E+02  0.20728162938E+02 -0.65809601739E+02  0.11844802879E+03  0.92702454883E+02 0.  0.
        -13    1    3    3    0    0 -0.41477217841E+02  0.28407936947E+02 -0.36136792937E+02  0.61913151149E+02  0.00000000000E+00 0.  1.
         13    1    3    3    0    0  0.32584063529E+02  0.58054894747E+01 -0.99360463184E+02  0.10472786901E+03  0.00000000000E+00 0. -1.
        -13    1    4    4    0    0  0.17553887931E+02  0.22227857018E+02  0.10801129453E+02  0.30313050103E+02  0.00000000000E+00 0.  1.
         13    1    4    4    0    0 -0.43546770850E+02 -0.14996940801E+01 -0.76610731192E+02  0.88134978684E+02  0.00000000000E+00 0. -1.
          2    1    1    2  501    0  0.34886037231E+02 -0.54941589359E+02 -0.22485279613E+03  0.23408202358E+03  0.00000000000E+00 0. -1.
<scales pt_clust_5="13000.00000" pt_clust_6="13000.00000" pt_clust_7="13000.00000" pt_clust_8="13000.00000" pt_clust_9="65.08163"></scales>
<clustering>
<clus scale="   65.082">  1  9  2 -1</clus>
<clus scale="   90.333">  5  6 -1 -1</clus>
<clus scale="   91.471">  2  5  1 -1</clus>
<clus scale="   92.702">  7  8 -1 -1</clus>
<clus scale="   65.082">  1  5  2 -1</clus>
</clustering>
</event>
<event>
 9    1  0.1315259E-005  0.1790721E+03  0.7546771E-02  0.1168747E+00
         -4   -1    0    0    0  501 -0.00000000000E+00  0.00000000000E+00  0.70546020946E+02  0.70546020946E+02  0.00000000000E+00 0.  1.
         21   -1    0    0  501  502  0.00000000000E+00 -0.00000000000E+00 -0.68576124954E+03  0.68576124954E+03  0.00000000000E+00 0. -1.
         23    2    1    2    0    0  0.12040193394E+02 -0.15482109249E+03 -0.14933551290E+03  0.23408344156E+03  0.91539200683E+02 0.  0.
         23    2    1    2    0    0 -0.49318263934E+02  0.14652228005E+03 -0.28095349822E+03  0.33339525392E+03  0.91194613137E+02 0.  0.
        -11    1    3    3    0    0 -0.13245998081E+02 -0.57114601637E+02 -0.11210277914E+03  0.12650915886E+03  0.00000000000E+00 0. -1.
         11    1    3    3    0    0  0.25286191475E+02 -0.97706490856E+02 -0.37232733765E+02  0.10757428270E+03  0.00000000000E+00 0.  1.
        -13    1    4    4    0    0 -0.61717499621E+02  0.69882019092E+02 -0.20294771565E+03  0.22333902847E+03  0.00000000000E+00 0. -1.
         13    1    4    4    0    0  0.12399235687E+02  0.76640260955E+02 -0.78005782573E+02  0.11005622545E+03  0.00000000000E+00 0.  1.
         -4    1    1    2    0  502  0.37278070540E+02  0.82988124454E+01 -0.18492621747E+03  0.18882857500E+03  0.00000000000E+00 0.  1.
<scales pt_clust_5="13000.00000" pt_clust_6="13000.00000" pt_clust_7="13000.00000" pt_clust_8="13000.00000" pt_clust_9="38.19064"></scales>
<clustering>
<clus scale="   38.191">  2  9  1 -1</clus>
<clus scale="   91.195">  7  8 -1 -1</clus>
<clus scale="   91.539">  5  6 -1 -1</clus>
<clus scale="  178.896">  2  7  1 -1</clus>
<clus scale="   38.191">  2  5  1 -1</clus>
</clustering>
</event>
<event>
 9    1  0.1315259E-005  0.1525599E+03  0.7546771E-02  0.1197482E+00
         21   -1    0    0  501  502  0.00000000000E+00  0.00000000000E+00  0.10389375717E+03  0.10389375717E+03  0.00000000000E+00 0. -1.
          1   -1    0    0  502    0 -0.00000000000E+00 -0.00000000000E+00 -0.45983860725E+03  0.45983860725E+03  0.00000000000E+00 0. -1.
         23    2    1    2    0    0 -0.68077163871E+02 -0.91088228682E+02 -0.28444859551E+03  0.31916592320E+03  0.89578554349E+02 0.  0.
         23    2    1    2    0    0  0.11353941933E+03  0.10840829614E+03 -0.74542056349E+02  0.19582140746E+03  0.90254900375E+02 0.  0.
        -11    1    4    4    0    0  0.66297296239E+02  0.97036373244E+02 -0.14245190346E+02  0.11838207072E+03  0.00000000000E+00 0. -1.
         11    1    4    4    0    0  0.47242123089E+02  0.11371922895E+02 -0.60296866003E+02  0.77439336735E+02  0.00000000000E+00 0.  1.
        -11    1    3    3    0    0 -0.85185155803E+02 -0.78577383722E+02 -0.26910943318E+03  0.29300307682E+03  0.00000000000E+00 0.  1.
         11    1    3    3    0    0  0.17107991931E+02 -0.12510844960E+02 -0.15339162331E+02  0.26162846377E+02  0.00000000000E+00 0. -1.
          1    1    1    2  501    0 -0.45462255457E+02 -0.17320067457E+02  0.30458017773E+01  0.48745033762E+02  0.00000000000E+00 0. -1.
<scales pt_clust_5="13000.00000" pt_clust_6="13000.00000" pt_clust_7="13000.00000" pt_clust_8="13000.00000" pt_clust_9="48.64978"></scales>
<clustering>
<clus scale="   48.650">  1  9  2 -1</clus>
<clus scale="   89.579">  7  8 -1 -1</clus>
<clus scale="   90.255">  5  6 -1 -1</clus>
<clus scale="  152.161">  2  7  1 -1</clus>
<clus scale="   48.650">  1  5  2 -1</clus>
</clustering>
</event>
<event>
 9    1  0.1315259E-005  0.9251147E+02  0.7546771E-02  0.1297001E+00
         21   -1    0    0  501  502  0.00000000000E+00  0.00000000000E+00  0.14049740346E+03  0.14049740346E+03  0.00000000000E+00 0.  1.
         -1   -1    0    0    0  501 -0.00000000000E+00 -0.00000000000E+00 -0.29884680230E+03  0.29884680230E+03  0.00000000000E+00 0.  1.
         23    2    1    2    0    0  0.31368961499E+01  0.22439974819E+02 -0.17106567821E+03  0.19529950540E+03  0.91460581455E+02 0.  0.
         23    2    1    2    0    0 -0.53069325292E+01  0.42542560257E+00 -0.96218247290E+02  0.13271515938E+03  0.91252495292E+02 0.  0.
        -11    1    4    4    0    0 -0.83515943942E+01 -0.45055291651E+02 -0.48712761998E+02  0.66877960616E+02  0.00000000000E+00 0. -1.
         11    1    4    4    0    0  0.30446618650E+01  0.45480717254E+02 -0.47505485292E+02  0.65837198761E+02  0.00000000000E+00 0.  1.
        -13    1    3    3    0    0 -0.23443204998E+02 -0.18416626114E+02 -0.12403479008E+03  0.12756717889E+03  0.00000000000E+00 0. -1.
         13    1    3    3    0    0  0.26580101148E+02  0.40856600933E+02 -0.47030888129E+02  0.67732326515E+02  0.00000000000E+00 0.  1.
         -1    1    1    2    0  502  0.21700363792E+01 -0.22865400422E+02  0.10893452666E+03  0.11132954098E+03  0.00000000000E+00 0.  1.
<scales pt_clust_5="13000.00000" pt_clust_6="13000.00000" pt_clust_7="13000.00000" pt_clust_8="13000.00000" pt_clust_9="22.96814"></scales>
<clustering>
<clus scale="   22.968">  1  9  2 -1</clus>
<clus scale="   91.252">  5  6 -1 -1</clus>
<clus scale="   91.461">  7  8 -1 -1</clus>
<clus scale="   92.306">  1  5  2 -1</clus>
<clus scale="   22.968">  1  5  2 -1</clus>
</clustering>
</event>
<event>
 9    1  0.1315259E-005  0.1504952E+03  0.7546771E-02  0.1201214E+00
          1   -1    0    0  502    0 -0.00000000000E+00  0.00000000000E+00  0.41780745616E+03  0.41780745616E+03  0.00000000000E+00 0. -1.
         21   -1    0    0  501  502  0.00000000000E+00 -0.00000000000E+00 -0.14427787332E+03  0.14427787332E+03  0.00000000000E+00 0. -1.
         23    2    1    2    0    0  0.12657970250E+03 -0.38860920202E+02  0.25286115619E+03  0.29896922559E+03  0.88945159154E+02 0.  0.
         23    2    1    2    0    0 -0.96053813453E+02 -0.31496604637E+02  0.84818645782E+02  0.16312979574E+03  0.95910147544E+02 0.  0.
        -13    1    3    3    0    0  0.58856695952E+02 -0.40472136011E+01  0.19386232226E+03  0.20264029853E+03  0.00000000000E+00 0.  1.
         13    1    3    3    0    0  0.67723006548E+02 -0.34813706601E+02  0.58998833923E+02  0.96328927055E+02  0.00000000000E+00 0. -1.
        -13    1    4    4    0    0 -0.18766816688E+02 -0.39359926560E+02 -0.55528482666E+01  0.43957153585E+02  0.00000000000E+00 0.  1.
         13    1    4    4    0    0 -0.77286996765E+02  0.78633219234E+01  0.90371494049E+02  0.11917264215E+03  0.00000000000E+00 0. -1.
          1    1    1    2  501    0 -0.30525889048E+02  0.70357524839E+02 -0.64150219129E+02  0.99986308152E+02  0.00000000000E+00 0. -1.
<scales pt_clust_5="13000.00000" pt_clust_6="13000.00000" pt_clust_7="13000.00000" pt_clust_8="13000.00000" pt_clust_9="76.69427"></scales>
<clustering>
<clus scale="   76.694">  2  9  1 -1</clus>
<clus scale="   88.945">  5  6 -1 -1</clus>
<clus scale="   95.910">  7  8 -1 -1</clus>
<clus scale="  146.155">  1  5  2 -1</clus>
<clus scale="   76.694">  2  5  1 -1</clus>
</clustering>
</event>
<event>
 9    1  0.1315259E-005  0.3380439E+03  0.7546771E-02  0.1067640E+00
         21   -1    0    0  501  502  0.00000000000E+00  0.00000000000E+00  0.36077260520E+03  0.36077260520E+03  0.00000000000E+00 0.  1.
          1   -1    0    0  502    0 -0.00000000000E+00 -0.00000000000E+00 -0.34513194564E+03  0.34513194564E+03  0.00000000000E+00 0. -1.
         23    2    1    2    0    0 -0.29797278523E+03  0.13771502407E+03 -0.46936806845E+02  0.34363574772E+03  0.90162379536E+02 0.  0.
         23    2    1    2    0    0  0.28374972153E+03 -0.15404312156E+03  0.59850612995E+02  0.34044363329E+03  0.89869815872E+02 0.  0.
        -11    1    4    4    0    0  0.96311049607E+02 -0.46455528614E+02  0.63364402897E+02  0.12429393376E+03  0.00000000000E+00 0. -1.
         11    1    4    4    0    0  0.18743867192E+03 -0.10758759294E+03 -0.35137899017E+01  0.21614969953E+03  0.00000000000E+00 0.  1.
        -13    1    3    3    0    0 -0.21655025005E+03  0.95347167348E+02 -0.74050943167E+02  0.24792868995E+03  0.00000000000E+00 0. -1.
         13    1    3    3    0    0 -0.81422535176E+02  0.42367856720E+02  0.27114136322E+02  0.95707057765E+02  0.00000000000E+00 0.  1.
          1    1    1    2  501    0  0.14223063698E+02  0.16328097489E+02  0.27268534120E+01  0.21825169830E+02  0.00000000000E+00 0. -1.
<scales pt_clust_5="13000.00000" pt_clust_6="13000.00000" pt_clust_7="13000.00000" pt_clust_8="13000.00000" pt_clust_9="21.65415"></scales>
<clustering>
<clus scale="   21.654">  1  9  2 -1</clus>
<clus scale="   89.870">  5  6 -1 -1</clus>
<clus scale="   90.162">  7  8 -1 -1</clus>
<clus scale="  337.966">  1  5  2 -1</clus>
<clus scale="   21.654">  1  5  2 -1</clus>
</clustering>
</event>
<event>
 9    1  0.1315259E-005  0.2725164E+03  0.7546771E-02  0.1099995E+00
          2   -1    0    0  502    0 -0.00000000000E+00  0.00000000000E+00  0.10417302597E+04  0.10417302597E+04  0.00000000000E+00 0. -1.
         21   -1    0    0  501  502  0.00000000000E+00 -0.00000000000E+00 -0.14663029148E+03  0.14663029148E+03  0.00000000000E+00 0. -1.
         23    2    1    2    0    0 -0.29649109145E+03 -0.49434976141E+02  0.73865141351E+03  0.80227593019E+03  0.87692492900E+02 0.  0.
         23    2    1    2    0    0  0.17889650982E+03 -0.38558053427E+02  0.10997114414E+03  0.23203460124E+03  0.90860986799E+02 0.  0.
        -11    1    4    4    0    0  0.67983553915E+02 -0.23262495025E+02 -0.43940749524E+01  0.71987604297E+02  0.00000000000E+00 0. -1.
         11    1    4    4    0    0  0.11091295590E+03 -0.15295558401E+02  0.11436521909E+03  0.16004699695E+03  0.00000000000E+00 0.  1.
        -13    1    3    3    0    0 -0.30746428962E+02 -0.35113016560E+02  0.12350546054E+03  0.13202979062E+03  0.00000000000E+00 0.  1.
         13    1    3    3    0    0 -0.26574466249E+03 -0.14321959580E+02  0.61514595297E+03  0.67024613958E+03  0.00000000000E+00 0. -1.
          2    1    1    2  501    0  0.11759458163E+03  0.87993029568E+02  0.46477410546E+02  0.15405001971E+03  0.00000000000E+00 0. -1.
<scales pt_clust_5="13000.00000" pt_clust_6="13000.00000" pt_clust_7="13000.00000" pt_clust_8="13000.00000" pt_clust_9="146.87157"></scales>
<clustering>
<clus scale="   87.692">  7  8 -1 -1</clus>
<clus scale="   90.861">  5  6 -1 -1</clus>
<clus scale="  146.872">  2  9  1 -1</clus>
<clus scale="  271.476">  1  7  2 -1</clus>
<clus scale="  146.872">  2  5  1 -1</clus>
</clustering>
</event>
<event>
 9    1  0.1315259E-005  0.1068147E+03  0.7546771E-02  0.1268940E+00
         -2   -1    0    0    0  501 -0.00000000000E+00  0.00000000000E+00  0.39077472478E+03  0.39077472478E+03  0.00000000000E+00 0.  1.
         21   -1    0    0  501  502  0.00000000000E+00 -0.00000000000E+00 -0.16661171314E+03  0.16661171314E+03  0.00000000000E+00 0.  1.
         23    2    1    2    0    0  0.29446558833E+02  0.36889504214E+02  0.34218794186E+03  0.35818138362E+03  0.94727929715E+02 0.  0.
         23    2    1    2    0    0 -0.35906009201E+02 -0.65572092303E+02 -0.53242433330E+02  0.12806303253E+03  0.89310933313E+02 0.  0.
        -13    1    3    3    0    0  0.61557478976E+02  0.69912731046E+01  0.20249387881E+03  0.21175923138E+03  0.00000000000E+00 0.  1.
         13    1    3    3    0    0 -0.32110920143E+02  0.29898231109E+02  0.13969406305E+03  0.14642215224E+03  0.00000000000E+00 0. -1.
        -13    1    4    4    0    0 -0.53635989236E+02 -0.39566692592E+02 -0.66278696553E+02  0.93995787782E+02  0.00000000000E+00 0. -1.
         13    1    4    4    0    0  0.17729980035E+02 -0.26005399711E+02  0.13036263223E+02  0.34067244752E+02  0.00000000000E+00 0.  1.
         -2    1    1    2    0  502  0.64594503676E+01  0.28682588090E+02 -0.64782496888E+02  0.71142021771E+02  0.00000000000E+00 0.  1.
<scales pt_clust_5="13000.00000" pt_clust_6="13000.00000" pt_clust_7="13000.00000" pt_clust_8="13000.00000" pt_clust_9="29.40094"></scales>
<clustering>
<clus scale="   29.401">  2  9  1 -1</clus>
<clus scale="   89.311">  7  8 -1 -1</clus>
<clus scale="   94.728">  5  6 -1 -1</clus>
<clus scale="  102.041">  2  7  1 -1</clus>
<clus scale="   29.401">  2  5  1 -1</clus>
</clustering>
</event>
<event>
 9    1  0.1315259E-005  0.9796675E+02  0.7546771E-02  0.1292010E+00
          1   -1    0    0  502    0 -0.00000000000E+00  0.00000000000E+00  0.34554874255E+03  0.34554874255E+03  0.00000000000E+00 0. -1.
         21   -1    0    0  501  502  0.00000000000E+00 -0.00000000000E+00 -0.28512164581E+03  0.28512164581E+03  0.00000000000E+00 0. -1.
         23    2    1    2    0    0  0.40537435671E+02  0.16502285481E+01  0.32213883793E+03  0.33702720414E+03  0.90376426603E+02 0.  0.
         23    2    1    2    0    0  0.66994854430E+01 -0.58341519534E+01 -0.10685006407E+03  0.13168340227E+03  0.76450387874E+02 0.  0.
        -13    1    3    3    0    0  0.66249703240E+02 -0.10885703962E+02  0.26148217950E+03  0.26996379743E+03  0.00000000000E+00 0. -1.
         13    1    3    3    0    0 -0.25712267569E+02  0.12535932510E+02  0.60656658431E+02  0.67063406710E+02  0.00000000000E+00 0.  1.
        -13    1    4    4    0    0 -0.19453471684E+02  0.27342364440E+02 -0.36154820635E+02  0.49327614060E+02  0.00000000000E+00 0.  1.
         13    1    4    4    0    0  0.26152957127E+02 -0.33176516393E+02 -0.70695243437E+02  0.82355788206E+02  0.00000000000E+00 0. -1.
          1    1    1    2  501    0 -0.47236921114E+02  0.41839234053E+01 -0.15486167711E+03  0.16195978195E+03  0.00000000000E+00 0. -1.
<scales pt_clust_5="13000.00000" pt_clust_6="13000.00000" pt_clust_7="13000.00000" pt_clust_8="13000.00000" pt_clust_9="47.42185"></scales>
<clustering>
<clus scale="   47.422">  2  9  1 -1</clus>
<clus scale="   76.450">  7  8 -1 -1</clus>
<clus scale="   85.289">  2  7  1 -1</clus>
<clus scale="   90.376">  5  6 -1 -1</clus>
<clus scale="   47.422">  2  5  1 -1</clus>
</clustering>
</event>
<event>
 9    1  0.1315259E-005  0.1189639E+03  0.7546771E-02  0.1245432E+00
          2   -1    0    0  502    0 -0.00000000000E+00  0.00000000000E+00  0.40120449046E+03  0.40120449046E+03  0.00000000000E+00 0. -1.
         21   -1    0    0  501  502  0.00000000000E+00 -0.00000000000E+00 -0.54979022550E+02  0.54979022550E+02  0.00000000000E+00 0.  1.
         23    2    1    2    0    0 -0.53272679751E+02 -0.30626069227E+02  0.16469840139E+03  0.19856068186E+03  0.92330094969E+02 0.  0.
         23    2    1    2    0    0  0.97932192734E+02  0.26625505487E+02  0.11887964568E+03  0.18058273803E+03  0.90432976287E+02 0.  0.
        -11    1    3    3    0    0 -0.51046029209E+02 -0.10128430021E+01  0.16067597615E+03  0.16859268152E+03  0.00000000000E+00 0. -1.
         11    1    3    3    0    0 -0.22266505425E+01 -0.29613226225E+02  0.40224252425E+01  0.29968000349E+02  0.00000000000E+00 0.  1.
        -11    1    4    4    0    0  0.69293825672E+02  0.43767133297E+02  0.12209433758E+03  0.14705177150E+03  0.00000000000E+00 0.  1.
         11    1    4    4    0    0  0.28638367062E+02 -0.17141627809E+02 -0.32146919007E+01  0.33530966523E+02  0.00000000000E+00 0. -1.
          2    1    1    2  501    0 -0.44659512983E+02  0.40005637394E+01  0.62647420841E+02  0.77040093121E+02  0.00000000000E+00 0. -1.
<scales pt_clust_5="13000.00000" pt_clust_6="13000.00000" pt_clust_7="13000.00000" pt_clust_8="13000.00000" pt_clust_9="44.83836"></scales>
<clustering>
<clus scale="   44.838">  2  9  1 -1</clus>
<clus scale="   90.433">  7  8 -1 -1</clus>
<clus scale="   92.330">  5  6 -1 -1</clus>
<clus scale="  117.498">  2  7  1 -1</clus>
<clus scale="   44.838">  2  5  1 -1</clus>
</clustering>
</event>
<event>
 9    1  0.1315259E-005  0.1067871E+03  0.7546771E-02  0.1266858E+00
         21   -1    0    0  501  502  0.00000000000E+00  0.00000000000E+00  0.13810391701E+02  0.13810391701E+02  0.00000000000E+00 0. -1.
          1   -1    0    0  502    0 -0.00000000000E+00 -0.00000000000E+00 -0.13795861116E+04  0.13795861116E+04  0.00000000000E+00 0. -1.
         23    2    1    2    0    0 -0.34102106529E+02  0.13861136582E+02 -0.46483833760E+03  0.47503398029E+03  0.90705664357E+02 0.  0.
         23    2    1    2    0    0  0.78905967566E+02  0.18374173356E+02 -0.65994050944E+03  0.67112580670E+03  0.91239303169E+02 0.  0.
        -11    1    4    4    0    0  0.20065956816E+01 -0.30555222347E+02 -0.14795671770E+03  0.15109215185E+03  0.00000000000E+00 0.  1.
         11    1    4    4    0    0  0.76899371885E+02  0.48929395703E+02 -0.51198379175E+03  0.52003365485E+03  0.00000000000E+00 0. -1.
        -13    1    3    3    0    0 -0.54722972111E+02  0.36633532611E+02 -0.35094428862E+03  0.35706933935E+03  0.00000000000E+00 0. -1.
         13    1    3    3    0    0  0.20620865582E+02 -0.22772396029E+02 -0.11389404898E+03  0.11796464094E+03  0.00000000000E+00 0.  1.
          1    1    1    2  501    0 -0.44803861037E+02 -0.32235309938E+02 -0.24099687281E+03  0.24723671627E+03  0.00000000000E+00 0. -1.
<scales pt_clust_5="13000.00000" pt_clust_6="13000.00000" pt_clust_7="13000.00000" pt_clust_8="13000.00000" pt_clust_9="55.19512"></scales>
<clustering>
<clus scale="   55.195">  1  9  2 -1</clus>
<clus scale="   90.706">  7  8 -1 -1</clus>
<clus scale="   91.239">  5  6 -1 -1</clus>
<clus scale="  106.332">  2  7  1 -1</clus>
<clus scale="   55.195">  1  5  2 -1</clus>
</clustering>
</event>
<event>
 9    1  0.1315259E-005  0.1306645E+03  0.7546771E-02  0.1227093E+00
         -3   -1    0    0    0  501 -0.00000000000E+00  0.00000000000E+00  0.88273599588E+03  0.88273599588E+03  0.00000000000E+00 0.  1.
         21   -1    0    0  501  502  0.00000000000E+00 -0.00000000000E+00 -0.43368584486E+02  0.43368584486E+02  0.00000000000E+00 0.  1.
         23    2    1    2    0    0  0.28318080305E+02  0.78537087742E+02  0.42755788780E+03  0.44530068127E+03  0.92287385367E+02 0.  0.
         23    2    1    2    0    0  0.89655684539E+01 -0.10936190615E+03  0.40836797175E+03  0.43230560868E+03  0.89907346772E+02 0.  0.
        -11    1    3    3    0    0 -0.20346409747E+02  0.56344419025E+02  0.13220837320E+03  0.14514724899E+03  0.00000000000E+00 0. -1.
         11    1    3    3    0    0  0.48664490052E+02  0.22192668717E+02  0.29534951460E+03  0.30015343228E+03  0.00000000000E+00 0.  1.
        -13    1    4    4    0    0 -0.14668329012E+02 -0.90405254169E+02  0.37971866760E+03  0.39060790619E+03  0.00000000000E+00 0.  1.
         13    1    4    4    0    0  0.23633897465E+02 -0.18956651981E+02  0.28649304154E+02  0.41697702481E+02  0.00000000000E+00 0. -1.
         -3    1    1    2    0  502 -0.37283648759E+02  0.30824818408E+02  0.34415518423E+01  0.48498290421E+02  0.00000000000E+00 0.  1.
<scales pt_clust_5="13000.00000" pt_clust_6="13000.00000" pt_clust_7="13000.00000" pt_clust_8="13000.00000" pt_clust_9="48.37603"></scales>
<clustering>
<clus scale="   48.376">  2  9  1 -1</clus>
<clus scale="   89.907">  7  8 -1 -1</clus>
<clus scale="   92.287">  5  6 -1 -1</clus>
<clus scale="  128.995">  2  7  1 -1</clus>
<clus scale="   48.376">  2  5  1 -1</clus>
</clustering>
</event>
<event>
 9    1  0.1315259E-005  0.1837031E+03  0.7546771E-02  0.1164733E+00
         21   -1    0    0  501  502  0.00000000000E+00  0.00000000000E+00  0.46753682493E+02  0.46753682493E+02  0.00000000000E+00 0. -1.
          1   -1    0    0  502    0 -0.00000000000E+00 -0.00000000000E+00 -0.20375219427E+04  0.20375219427E+04  0.00000000000E+00 0. -1.
         23    2    1    2    0    0  0.17435941319E+03 -0.29715905152E+02 -0.95858082283E+03  0.97867489042E+03  0.87424866389E+02 0.  0.
         23    2    1    2    0    0 -0.12890209138E+03 -0.12724131657E+03 -0.77314079521E+03  0.79932128660E+03  0.91442485672E+02 0.  0.
        -11    1    4    4    0    0  0.46871196335E+01 -0.42158762586E+02 -0.12088337438E+03  0.12810979882E+03  0.00000000000E+00 0.  1.
         11    1    4    4    0    0 -0.13358921102E+03 -0.85082553983E+02 -0.65225742083E+03  0.67121148778E+03  0.00000000000E+00 0. -1.
        -13    1    3    3    0    0  0.32031716040E+02  0.14727804048E+02 -0.78511859358E+02  0.86064226624E+02  0.00000000000E+00 0.  1.
         13    1    3    3    0    0  0.14232769715E+03 -0.44443709200E+02 -0.88006896347E+03  0.89261066380E+03  0.00000000000E+00 0. -1.
          1    1    1    2  501    0 -0.45457321804E+02  0.15695722172E+03 -0.25904664219E+03  0.30627944819E+03  0.00000000000E+00 0. -1.
<scales pt_clust_5="13000.00000" pt_clust_6="13000.00000" pt_clust_7="13000.00000" pt_clust_8="13000.00000" pt_clust_9="163.40728"></scales>
<clustering>
<clus scale="   87.425">  7  8 -1 -1</clus>
<clus scale="   91.442">  5  6 -1 -1</clus>
<clus scale="  163.407">  1  9  2 -1</clus>
<clus scale="  181.737">  2  7  1 -1</clus>
<clus scale="  163.407">  1  5  2 -1</clus>
</clustering>
</event>
<event>
 9    1  0.1315259E-005  0.1121143E+03  0.7546771E-02  0.1261563E+00
          2   -1    0    0  502    0 -0.00000000000E+00  0.00000000000E+00  0.55597770521E+03  0.55597770521E+03  0.00000000000E+00 0. -1.
         21   -1    0    0  501  502  0.00000000000E+00 -0.00000000000E+00 -0.38140599011E+02  0.38140599011E+02  0.00000000000E+00 0.  1.
         23    2    1    2    0    0  0.52832926324E+02  0.31448613262E+02  0.38430959985E+03  0.40016024136E+03  0.93026968408E+02 0.  0.
         23    2    1    2    0    0 -0.41294553101E+02 -0.54864471949E+02  0.13006681081E+03  0.16762532833E+03  0.80408488508E+02 0.  0.
        -11    1    4    4    0    0  0.18463085003E+01 -0.29547493705E+02  0.10968719909E+03  0.11361225675E+03  0.00000000000E+00 0. -1.
         11    1    4    4    0    0 -0.43140861601E+02 -0.25316978244E+02  0.20379611715E+02  0.54013071573E+02  0.00000000000E+00 0.  1.
        -13    1    3    3    0    0 -0.18130623407E+02  0.35990860829E+02  0.13092973375E+03  0.13699144772E+03  0.00000000000E+00 0.  1.
         13    1    3    3    0    0  0.70963549731E+02 -0.45422475670E+01  0.25337986609E+03  0.26316879364E+03  0.00000000000E+00 0. -1.
          2    1    1    2  501    0 -0.11538373223E+02  0.23415858687E+02  0.34606955473E+01  0.26332734540E+02  0.00000000000E+00 0. -1.
<scales pt_clust_5="13000.00000" pt_clust_6="13000.00000" pt_clust_7="13000.00000" pt_clust_8="13000.00000" pt_clust_9="26.10434"></scales>
<clustering>
<clus scale="   26.104">  2  9  1 -1</clus>
<clus scale="   80.408">  5  6 -1 -1</clus>
<clus scale="   93.027">  7  8 -1 -1</clus>
<clus scale="  101.888">  2  5  1 -1</clus>
<clus scale="   26.104">  2  5  1 -1</clus>
</clustering>
</event>
<event>
 9    1  0.1315259E-005  0.1729314E+03  0.7546771E-02  0.1175348E+00
         21   -1    0    0  501  502  0.00000000000E+00  0.00000000000E+00  0.84221526415E+02  0.84221526415E+02  0.00000000000E+00 0. -1.
          2   -1    0    0  502    0 -0.00000000000E+00 -0.00000000000E+00 -0.45796551954E+03  0.45796551954E+03  0.00000000000E+00 0.  1.
         23    2    1    2    0    0  0.29851791090E+02  0.13400475031E+03 -0.23723765265E+03  0.28914332762E+03  0.92053014815E+02 0.  0.
         23    2    1    2    0    0 -0.13553130177E+02 -0.15682557418E+03 -0.12537384197E+03  0.22287139869E+03  0.95786805185E+02 0.  0.
        -11    1    4    4    0    0 -0.22747390506E+02  0.38731719322E+01 -0.12165375912E+02  0.26085275669E+02  0.00000000000E+00 0.  1.
         11    1    4    4    0    0  0.91942603285E+01 -0.16069874611E+03 -0.11320846606E+03  0.19678612302E+03  0.00000000000E+00 0. -1.
        -13    1    3    3    0    0 -0.10277127507E+02  0.11833448129E+03 -0.19787581009E+03  0.23078887545E+03  0.00000000000E+00 0.  1.
         13    1    3    3    0    0  0.40128918597E+02  0.15670269021E+02 -0.39361842564E+02  0.58354452178E+02  0.00000000000E+00 0. -1.
          2    1    1    2  501    0 -0.16298660913E+02  0.22820823873E+02 -0.11132498500E+02  0.30172319643E+02  0.00000000000E+00 0.  1.
<scales pt_clust_5="13000.00000" pt_clust_6="13000.00000" pt_clust_7="13000.00000" pt_clust_8="13000.00000" pt_clust_9="28.04347"></scales>
<clustering>
<clus scale="   28.043">  1  9  2 -1</clus>
<clus scale="   92.053">  7  8 -1 -1</clus>
<clus scale="   95.787">  5  6 -1 -1</clus>
<clus scale="  170.891">  2  7  1 -1</clus>
<clus scale="   28.043">  1  5  2 -1</clus>
</clustering>
</event>
<event>
 9    1  0.1315259E-005  0.9643249E+02  0.7546771E-02  0.1288979E+00
         21   -1    0    0  501  502  0.00000000000E+00  0.00000000000E+00  0.33579021977E+03  0.33579021977E+03  0.00000000000E+00 0. -1.
         -4   -1    0    0    0  501 -0.00000000000E+00 -0.00000000000E+00 -0.59531426499E+02  0.59531426499E+02  0.00000000000E+00 0.  1.
         23    2    1    2    0    0 -0.26265369850E+02  0.83543247617E+01  0.15496698714E+02  0.97423308189E+02  0.92149275156E+02 0.  0.
         23    2    1    2    0    0 -0.48651407756E+01 -0.23605631088E+02  0.12760544640E+03  0.16030326555E+03  0.93984528415E+02 0.  0.
        -11    1    4    4    0    0  0.42202810942E+02  0.16825187699E+01  0.69819449470E+02  0.81600635078E+02  0.00000000000E+00 0. -1.
         11    1    4    4    0    0 -0.47067951718E+02 -0.25288149858E+02  0.57785996933E+02  0.78702630475E+02  0.00000000000E+00 0.  1.
        -13    1    3    3    0    0 -0.57289009044E+01 -0.30569000857E+02  0.37088689986E+02  0.48403047877E+02  0.00000000000E+00 0. -1.
         13    1    3    3    0    0 -0.20536468945E+02  0.38923325618E+02 -0.21591991271E+02  0.49020260311E+02  0.00000000000E+00 0.  1.
         -4    1    1    2    0  502  0.31130510625E+02  0.15251306326E+02  0.13315664815E+03  0.13759507253E+03  0.00000000000E+00 0.  1.
<scales pt_clust_5="13000.00000" pt_clust_6="13000.00000" pt_clust_7="13000.00000" pt_clust_8="13000.00000" pt_clust_9="34.66570"></scales>
<clustering>
<clus scale="   34.666">  1  9  2 -1</clus>
<clus scale="   92.149">  7  8 -1 -1</clus>
<clus scale="   93.985">  5  6 -1 -1</clus>
<clus scale="   94.645">  2  7  1 -1</clus>
<clus scale="   34.666">  1  5  2 -1</clus>
</clustering>
</event>
<event>
 9    1  0.1315259E-005  0.9757013E+02  0.7546771E-02  0.1285642E+00
          3   -1    0    0  502    0 -0.00000000000E+00  0.00000000000E+00  0.33820884239E+02  0.33820884239E+02  0.00000000000E+00 0. -1.
         21   -1    0    0  501  502  0.00000000000E+00 -0.00000000000E+00 -0.49978383234E+03  0.49978383234E+03  0.00000000000E+00 0. -1.
         23    2    1    2    0    0 -0.93345873121E+01  0.41407112449E+02 -0.11114072354E+03  0.15127412599E+03  0.93434026375E+02 0.  0.
         23    2    1    2    0    0  0.14451255734E+02  0.55770462547E+01 -0.22878602801E+03  0.24772444546E+03  0.93725194201E+02 0.  0.
        -11    1    4    4    0    0 -0.16479703596E+02  0.41963835330E+02 -0.85018901948E+02  0.96232831168E+02  0.00000000000E+00 0. -1.
         11    1    4    4    0    0  0.30930959329E+02 -0.36386789075E+02 -0.14376712606E+03  0.15149161429E+03  0.00000000000E+00 0.  1.
        -11    1    3    3    0    0 -0.20127169502E+02 -0.23810103961E+02 -0.60289679321E+02  0.67873923089E+02  0.00000000000E+00 0.  1.
         11    1    3    3    0    0  0.10792582189E+02  0.65217216410E+02 -0.50851044218E+02  0.83400202905E+02  0.00000000000E+00 0. -1.
          3    1    1    2  501    0 -0.51166684215E+01 -0.46984158703E+02 -0.12603619655E+03  0.13460614513E+03  0.00000000000E+00 0. -1.
<scales pt_clust_5="13000.00000" pt_clust_6="13000.00000" pt_clust_7="13000.00000" pt_clust_8="13000.00000" pt_clust_9="47.26195"></scales>
<clustering>
<clus scale="   47.262">  2  9  1 -1</clus>
<clus scale="   93.434">  7  8 -1 -1</clus>
<clus scale="   93.725">  5  6 -1 -1</clus>
<clus scale="   97.290">  1  7  2 -1</clus>
<clus scale="   47.262">  2  5  1 -1</clus>
</clustering>
</event>
<event>
 9    1  0.1315259E-005  0.1018434E+03  0.7546771E-02  0.1278241E+00
         21   -1    0    0  501  502  0.00000000000E+00  0.00000000000E+00  0.20168534878E+03  0.20168534878E+03  0.00000000000E+00 0. -1.
          3   -1    0    0  502    0 -0.00000000000E+00 -0.00000000000E+00 -0.10027926411E+03  0.10027926411E+03  0.00000000000E+00 0. -1.
         23    2    1    2    0    0  0.27134729575E+02  0.25129115221E+02 -0.43423113641E+02  0.10615737161E+03  0.89532422996E+02 0.  0.
         23    2    1    2    0    0 -0.40661993588E+02 -0.41436975248E+02  0.11320021671E+03  0.15773723147E+03  0.93254085636E+02 0.  0.
        -11    1    3    3    0    0  0.17322397111E+02 -0.25512443630E+02 -0.44997174462E+02  0.54549939791E+02  0.00000000000E+00 0.  1.
         11    1    3    3    0    0  0.98123324636E+01  0.50641558851E+02  0.15740608208E+01  0.51607431817E+02  0.00000000000E+00 0. -1.
        -13    1    4    4    0    0 -0.16187165795E+02  0.29748121730E+02  0.43674312958E+02  0.55266813689E+02  0.00000000000E+00 0.  1.
         13    1    4    4    0    0 -0.24474827793E+02 -0.71185096978E+02  0.69525903750E+02  0.10247041778E+03  0.00000000000E+00 0. -1.
          3    1    1    2  501    0  0.13527264013E+02  0.16307860027E+02  0.31628981599E+02  0.38070009815E+02  0.00000000000E+00 0. -1.
<scales pt_clust_5="13000.00000" pt_clust_6="13000.00000" pt_clust_7="13000.00000" pt_clust_8="13000.00000" pt_clust_9="21.18804"></scales>
<clustering>
<clus scale="   21.188">  1  9  2 -1</clus>
<clus scale="   89.532">  5  6 -1 -1</clus>
<clus scale="   93.254">  7  8 -1 -1</clus>
<clus scale="   98.447">  2  5  1 -1</clus>
<clus scale="   21.188">  1  5  2 -1</clus>
</clustering>
</event>
<event>
 9    1  0.1315259E-005  0.1096452E+03  0.7546771E-02  0.1261340E+00
         21   -1    0    0  501  502  0.00000000000E+00  0.00000000000E+00  0.78447425194E+02  0.78447425194E+02  0.00000000000E+00 0.  1.
          1   -1    0    0  502    0 -0.00000000000E+00 -0.00000000000E+00 -0.20362964084E+03  0.20362964084E+03  0.00000000000E+00 0. -1.
         23    2    1    2    0    0 -0.62985229235E+02  0.29314570305E+02 -0.82325681555E+02  0.14145804120E+03  0.91686293642E+02 0.  0.
         23    2    1    2    0    0  0.50737980208E+02 -0.35681807032E+01 -0.39919030765E+02  0.11195719286E+03  0.91399176514E+02 0.  0.
        -13    1    3    3    0    0 -0.21819950960E+02 -0.21946425494E+02 -0.67218665375E+02  0.74000708284E+02  0.00000000000E+00 0. -1.
         13    1    3    3    0    0 -0.41165278275E+02  0.51260995799E+02 -0.15107016181E+02  0.67457332913E+02  0.00000000000E+00 0.  1.
        -13    1    4    4    0    0  0.33787153353E+02  0.41651107087E+02 -0.83905447638E+01  0.54284322735E+02  0.00000000000E+00 0.  1.
         13    1    4    4    0    0  0.16950826855E+02 -0.45219287791E+02 -0.31528486001E+02  0.57672870129E+02  0.00000000000E+00 0. -1.
          1    1    1    2  501    0  0.12247249027E+02 -0.25746389602E+02 -0.29375033246E+01  0.28661831973E+02  0.00000000000E+00 0. -1.
<scales pt_clust_5="13000.00000" pt_clust_6="13000.00000" pt_clust_7="13000.00000" pt_clust_8="13000.00000" pt_clust_9="28.51090"></scales>
<clustering>
<clus scale="   28.511">  1  9  2 -1</clus>
<clus scale="   91.399">  7  8 -1 -1</clus>
<clus scale="   91.686">  5  6 -1 -1</clus>
<clus scale="  109.405">  1  7  2 -1</clus>
<clus scale="   28.511">  1  5  2 -1</clus>
</clustering>
</event>
<event>
 9    1  0.1315259E-005  0.9770523E+02  0.7546771E-02  0.1287560E+00
         21   -1    0    0  501  502  0.00000000000E+00  0.00000000000E+00  0.40030248717E+03  0.40030248717E+03  0.00000000000E+00 0. -1.
          2   -1    0    0  502    0 -0.00000000000E+00 -0.00000000000E+00 -0.82056573181E+02  0.82056573181E+02  0.00000000000E+00 0. -1.
         23    2    1    2    0    0 -0.26557624244E+02  0.22875039883E+02 -0.25104427635E+02  0.98204430142E+02  0.88234363813E+02 0.  0.
         23    2    1    2    0    0 -0.14436602978E+02 -0.33381851779E+02  0.11598847773E+03  0.15288782127E+03  0.92728611517E+02 0.  0.
        -13    1    4    4    0    0 -0.20467844376E+02 -0.60410747382E+02  0.10548362597E+03  0.12326875679E+03  0.00000000000E+00 0. -1.
         13    1    4    4    0    0  0.60312413981E+01  0.27028895602E+02  0.10504851755E+02  0.29619064480E+02  0.00000000000E+00 0.  1.
        -13    1    3    3    0    0  0.10032872048E+02  0.47395486251E+02 -0.24187377096E+02  0.54148128769E+02  0.00000000000E+00 0.  1.
         13    1    3    3    0    0 -0.36590496292E+02 -0.24520446367E+02 -0.91705053934E+00  0.44056301373E+02  0.00000000000E+00 0. -1.
          2    1    1    2  501    0  0.40994227222E+02  0.10506811896E+02  0.22736186389E+03  0.23126680893E+03  0.00000000000E+00 0. -1.
<scales pt_clust_5="13000.00000" pt_clust_6="13000.00000" pt_clust_7="13000.00000" pt_clust_8="13000.00000" pt_clust_9="42.31926"></scales>
<clustering>
<clus scale="   42.319">  1  9  2 -1</clus>
<clus scale="   88.234">  7  8 -1 -1</clus>
<clus scale="   92.729">  5  6 -1 -1</clus>
<clus scale="   93.451">  2  7  1 -1</clus>
<clus scale="   42.319">  1  5  2 -1</clus>
</clustering>
</event>
<event>
 9    1  0.1315259E-005  0.1171362E+03  0.7546771E-02  0.1248555E+00
          2   -1    0    0  502    0 -0.00000000000E+00  0.00000000000E+00  0.11698791840E+04  0.11698791840E+04  0.00000000000E+00 0. -1.
         21   -1    0    0  501  502  0.00000000000E+00 -0.00000000000E+00 -0.39049228497E+02  0.39049228497E+02  0.00000000000E+00 0. -1.
         23    2    1    2    0    0 -0.30779688075E+02 -0.92589549922E+02  0.71762406635E+03  0.72994913657E+03  0.91220762030E+02 0.  0.
         23    2    1    2    0    0  0.44777285501E+02  0.31241755005E+02  0.40158667217E+03  0.41499106699E+03  0.89245043927E+02 0.  0.
        -11    1    4    4    0    0 -0.26822716756E+02  0.75015707262E+01  0.81194778973E+02  0.85838941221E+02  0.00000000000E+00 0.  1.
         11    1    4    4    0    0  0.71600002257E+02  0.23740184279E+02  0.32039189319E+03  0.32915212577E+03  0.00000000000E+00 0. -1.
        -13    1    3    3    0    0 -0.21840566910E+02  0.13948745509E+02  0.11184519419E+03  0.11480821106E+03  0.00000000000E+00 0.  1.
         13    1    3    3    0    0 -0.89391211652E+01 -0.10653829543E+03  0.60577887216E+03  0.61514092551E+03  0.00000000000E+00 0. -1.
          2    1    1    2  501    0 -0.13997597426E+02  0.61347794916E+02  0.11619216941E+02  0.63988208892E+02  0.00000000000E+00 0. -1.
<scales pt_clust_5="13000.00000" pt_clust_6="13000.00000" pt_clust_7="13000.00000" pt_clust_8="13000.00000" pt_clust_9="62.92444"></scales>
<clustering>
<clus scale="   62.924">  2  9  1 -1</clus>
<clus scale="   89.245">  5  6 -1 -1</clus>
<clus scale="   91.221">  7  8 -1 -1</clus>
<clus scale="  115.604">  2  5  1 -1</clus>
<clus scale="   62.924">  2  5  1 -1</clus>
</clustering>
</event>
<event>
 9    1  0.1315259E-005  0.1041600E+03  0.7546771E-02  0.1276212E+00
         -3   -1    0    0    0  501 -0.00000000000E+00  0.00000000000E+00  0.14370541917E+03  0.14370541917E+03  0.00000000000E+00 0.  1.
         21   -1    0    0  501  502  0.00000000000E+00 -0.00000000000E+00 -0.20404181775E+03  0.20404181775E+03  0.00000000000E+00 0. -1.
         23    2    1    2    0    0 -0.19211227471E+02 -0.26106710720E+02  0.83089430519E+02  0.13395197983E+03  0.99943223041E+02 0.  0.
         23    2    1    2    0    0 -0.28009114562E+02  0.29734646670E+02 -0.13127452072E+03  0.16490173076E+03  0.91054496350E+02 0.  0.
        -11    1    3    3    0    0 -0.47286499744E+02 -0.46090951535E+02  0.72126801943E+02  0.97788876822E+02  0.00000000000E+00 0. -1.
         11    1    3    3    0    0  0.28075272273E+02  0.19984240816E+02  0.10962628575E+02  0.36163103012E+02  0.00000000000E+00 0.  1.
        -13    1    4    4    0    0 -0.25943649411E+02 -0.31324594860E+01  0.33152842777E+01  0.26341532928E+02  0.00000000000E+00 0.  1.
         13    1    4    4    0    0 -0.20654651509E+01  0.32867106156E+02 -0.13458980499E+03  0.13856019783E+03  0.00000000000E+00 0. -1.
         -3    1    1    2    0  502  0.47220342033E+02 -0.36279359503E+01 -0.12151308384E+02  0.48893526324E+02  0.00000000000E+00 0.  1.
<scales pt_clust_5="13000.00000" pt_clust_6="13000.00000" pt_clust_7="13000.00000" pt_clust_8="13000.00000" pt_clust_9="47.35950"></scales>
<clustering>
<clus scale="   47.360">  2  9  1 -1</clus>
<clus scale="   91.054">  7  8 -1 -1</clus>
<clus scale="   95.664">  2  7  1 -1</clus>
<clus scale="   99.943">  5  6 -1 -1</clus>
<clus scale="   47.360">  2  5  1 -1</clus>
</clustering>
</event>
<event>
 9    1  0.1315259E-005  0.9250450E+02  0.7546771E-02  0.1297768E+00
          2   -1    0    0  502    0 -0.00000000000E+00  0.00000000000E+00  0.81480440947E+02  0.81480440947E+02  0.00000000000E+00 0. -1.
         21   -1    0    0  501  502  0.00000000000E+00 -0.00000000000E+00 -0.19377921065E+03  0.19377921065E+03  0.00000000000E+00 0.  1.
         23    2    1    2    0    0 -0.57679804514E+00  0.24493807678E+02 -0.83217211114E+01  0.90381679865E+02  0.86598601041E+02 0.  0.
         23    2    1    2    0    0  0.38512455442E+02 -0.28811860991E+02 -0.10679701631E+03  0.14659335466E+03  0.88151440035E+02 0.  0.
        -11    1    3    3    0    0 -0.17667346601E+01 -0.27279557128E+02  0.17556487354E+02  0.32488857115E+02  0.00000000000E+00 0. -1.
         11    1    3    3    0    0  0.11899366150E+01  0.51773364806E+02 -0.25878208466E+02  0.57892822749E+02  0.00000000000E+00 0.  1.
        -13    1    4    4    0    0  0.45733960305E+02  0.19420824694E+02 -0.68294561735E+02  0.84456561140E+02  0.00000000000E+00 0.  1.
         13    1    4    4    0    0 -0.72215048629E+01 -0.48232685685E+02 -0.38502454572E+02  0.62136793520E+02  0.00000000000E+00 0. -1.
          2    1    1    2  501    0 -0.37935657397E+02  0.43180533127E+01  0.28199677157E+01  0.38284617073E+02  0.00000000000E+00 0. -1.
<scales pt_clust_5="13000.00000" pt_clust_6="13000.00000" pt_clust_7="13000.00000" pt_clust_8="13000.00000" pt_clust_9="38.18064"></scales>
<clustering>
<clus scale="   38.181">  2  9  1 -1</clus>
<clus scale="   86.599">  5  6 -1 -1</clus>
<clus scale="   88.151">  7  8 -1 -1</clus>
<clus scale="   91.026">  1  5  2 -1</clus>
<clus scale="   38.181">  2  5  1 -1</clus>
</clustering>
</event>
<event>
 9    1  0.1315259E-005  0.1112025E+03  0.7546771E-02  0.1258543E+00
         21   -1    0    0  501  502  0.00000000000E+00  0.00000000000E+00  0.12479387696E+03  0.12479387696E+03  0.00000000000E+00 0.  1.
          3   -1    0    0  502    0 -0.00000000000E+00 -0.00000000000E+00 -0.16702576894E+03  0.16702576894E+03  0.00000000000E+00 0. -1.
         23    2    1    2    0    0 -0.71293787013E+02 -0.17537641466E+02 -0.79957878069E+02  0.14163881241E+03  0.90983064249E+02 0.  0.
         23    2    1    2    0    0  0.42134563939E+02  0.26010606676E+02  0.18375536795E+01  0.10316986658E+03  0.90491831838E+02 0.  0.
        -11    1    4    4    0    0  0.37931116273E+02 -0.29092965339E+02 -0.12527447655E+01  0.47819865991E+02  0.00000000000E+00 0.  1.
         11    1    4    4    0    0  0.42034476660E+01  0.55103572015E+02  0.30902984450E+01  0.55350000593E+02  0.00000000000E+00 0. -1.
        -13    1    3    3    0    0 -0.13154829757E+02 -0.37109367274E+02  0.18147424391E+01  0.39413804378E+02  0.00000000000E+00 0.  1.
         13    1    3    3    0    0 -0.58138957255E+02  0.19571725808E+02 -0.81772620509E+02  0.10222500803E+03  0.00000000000E+00 0. -1.
          3    1    1    2  501    0  0.29159223074E+02 -0.84729652095E+01  0.35888432410E+02  0.47010966918E+02  0.00000000000E+00 0. -1.
<scales pt_clust_5="13000.00000" pt_clust_6="13000.00000" pt_clust_7="13000.00000" pt_clust_8="13000.00000" pt_clust_9="30.36530"></scales>
<clustering>
<clus scale="   30.365">  1  9  2 -1</clus>
<clus scale="   90.492">  5  6 -1 -1</clus>
<clus scale="   90.983">  7  8 -1 -1</clus>
<clus scale="  110.801">  1  5  2 -1</clus>
<clus scale="   30.365">  1  5  2 -1</clus>
</clustering>
</event>
<event>
 9    1  0.1315259E-005  0.9982004E+02  0.7546771E-02  0.1281846E+00
         -1   -1    0    0    0  501 -0.00000000000E+00  0.00000000000E+00  0.28679647756E+03  0.28679647756E+03  0.00000000000E+00 0.  1.
         21   -1    0    0  501  502  0.00000000000E+00 -0.00000000000E+00 -0.28080667760E+03  0.28080667760E+03  0.00000000000E+00 0. -1.
         23    2    1    2    0    0  0.13850080028E+02  0.19574015414E+02  0.16621271445E+03  0.19106904737E+03  0.91135874515E+02 0.  0.
         23    2    1    2    0    0 -0.86039604820E+02 -0.71351867794E+02  0.47665229834E+02  0.15045944306E+03  0.88725234485E+02 0.  0.
        -11    1    3    3    0    0  0.45955832659E+02  0.44089528836E+01  0.43901137810E+02  0.63707827791E+02  0.00000000000E+00 0.  1.
         11    1    3    3    0    0 -0.32105752631E+02  0.15165062530E+02  0.12231157664E+03  0.12736121958E+03  0.00000000000E+00 0. -1.
        -13    1    4    4    0    0 -0.52812638328E+01 -0.20665959457E+02  0.50763272713E+02  0.55062541573E+02  0.00000000000E+00 0.  1.
         13    1    4    4    0    0 -0.80758340987E+02 -0.50685908338E+02 -0.30980428788E+01  0.95396901484E+02  0.00000000000E+00 0. -1.
         -1    1    1    2    0  502  0.72189524792E+02  0.51777852380E+02 -0.20788814432E+03  0.22607466473E+03  0.00000000000E+00 0.  1.
<scales pt_clust_5="13000.00000" pt_clust_6="13000.00000" pt_clust_7="13000.00000" pt_clust_8="13000.00000" pt_clust_9="88.83847"></scales>
<clustering>
<clus scale="   88.725">  7  8 -1 -1</clus>
<clus scale="   88.838">  2  9  1 -1</clus>
<clus scale="   91.136">  5  6 -1 -1</clus>
<clus scale="   97.624">  2  7  1 -1</clus>
<clus scale="   88.838">  2  5  1 -1</clus>
</clustering>
</event>
<event>
 9    1  0.1315259E-005  0.9501603E+02  0.7546771E-02  0.1291783E+00
          2   -1    0    0  502    0 -0.00000000000E+00  0.00000000000E+00  0.45368642926E+03  0.45368642926E+03  0.00000000000E+00 0. -1.
         21   -1    0    0  501  502  0.00000000000E+00 -0.00000000000E+00 -0.28223041137E+02  0.28223041137E+02  0.00000000000E+00 0.  1.
         23    2    1    2    0    0  0.16135025889E+02 -0.24858854312E+02  0.23741819587E+03  0.25633005731E+03  0.91974979482E+02 0.  0.
         23    2    1    2    0    0 -0.88872296014E+01 -0.76283739669E+00  0.16783706418E+03  0.19215232710E+03  0.93132550319E+02 0.  0.
        -11    1    4    4    0    0 -0.10987951564E+02  0.39001473832E+02  0.35223158585E+02  0.53689113807E+02  0.00000000000E+00 0.  1.
         11    1    4    4    0    0  0.21007219629E+01 -0.39764311229E+02  0.13261390559E+03  0.13846321330E+03  0.00000000000E+00 0. -1.
        -13    1    3    3    0    0 -0.26527592780E+02 -0.35519318115E+02  0.67067976080E+02  0.80395575460E+02  0.00000000000E+00 0. -1.
         13    1    3    3    0    0  0.42662618669E+02  0.10660463803E+02  0.17035021979E+03  0.17593448185E+03  0.00000000000E+00 0.  1.
          2    1    1    2  501    0 -0.72477962879E+01  0.25621691709E+02  0.20208128071E+02  0.33427085981E+02  0.00000000000E+00 0. -1.
<scales pt_clust_5="13000.00000" pt_clust_6="13000.00000" pt_clust_7="13000.00000" pt_clust_8="13000.00000" pt_clust_9="26.62708"></scales>
<clustering>
<clus scale="   26.627">  2  9  1 -1</clus>
<clus scale="   91.975">  7  8 -1 -1</clus>
<clus scale="   93.133">  5  6 -1 -1</clus>
<clus scale="   93.882">  1  7  2 -1</clus>
<clus scale="   26.627">  2  5  1 -1</clus>
</clustering>
</event>
<event>
 9    1  0.1315259E-005  0.1198883E+03  0.7546771E-02  0.1243408E+00
         -3   -1    0    0    0  501 -0.00000000000E+00  0.00000000000E+00  0.18553757495E+03  0.18553757495E+03  0.00000000000E+00 0.  1.
         21   -1    0    0  501  502  0.00000000000E+00 -0.00000000000E+00 -0.22100811333E+03  0.22100811333E+03  0.00000000000E+00 0.  1.
         23    2    1    2    0    0 -0.25031252313E+02  0.52020669286E+02  0.64170863226E+02  0.12555966824E+03  0.91184521584E+02 0.  0.
         23    2    1    2    0    0  0.78914133829E+02 -0.11319360559E+03 -0.19651231618E+02  0.16677603646E+03  0.91585165650E+02 0.  0.
        -13    1    4    4    0    0  0.60676539373E+02 -0.98429894820E+02  0.23188385487E+02  0.11793128442E+03  0.00000000000E+00 0.  1.
         13    1    4    4    0    0  0.18237594456E+02 -0.14763710772E+02 -0.42839617106E+02  0.48844752032E+02  0.00000000000E+00 0. -1.
        -13    1    3    3    0    0  0.28931482146E+02  0.15833548062E+02 -0.17162048329E+01  0.33025403290E+02  0.00000000000E+00 0.  1.
         13    1    3    3    0    0 -0.53962734459E+02  0.36187121223E+02  0.65887068058E+02  0.92534264951E+02  0.00000000000E+00 0. -1.
         -3    1    1    2    0  502 -0.53882881516E+02  0.61172936306E+02 -0.79990169979E+02  0.11420998358E+03  0.00000000000E+00 0.  1.
<scales pt_clust_5="13000.00000" pt_clust_6="13000.00000" pt_clust_7="13000.00000" pt_clust_8="13000.00000" pt_clust_9="81.51989"></scales>
<clustering>
<clus scale="   81.520">  2  9  1 -1</clus>
<clus scale="   91.185">  7  8 -1 -1</clus>
<clus scale="   91.585">  5  6 -1 -1</clus>
<clus scale="  119.582">  1  7  2 -1</clus>
<clus scale="   81.520">  2  5  1 -1</clus>
</clustering>
</event>
<event>
 9    1  0.1315259E-005  0.1049703E+03  0.7546771E-02  0.1270262E+00
         21   -1    0    0  501  502  0.00000000000E+00  0.00000000000E+00  0.18347357624E+02  0.18347357624E+02  0.00000000000E+00 0.  1.
          2   -1    0    0  502    0 -0.00000000000E+00 -0.00000000000E+00 -0.86626180472E+03  0.86626180472E+03  0.00000000000E+00 0. -1.
         23    2    1    2    0    0  0.51517184865E+02 -0.27824531012E+02 -0.56646446721E+03  0.57673789452E+03  0.91194196618E+02 0.  0.
         23    2    1    2    0    0 -0.29485714073E+02  0.20833248017E+02 -0.19464817898E+03  0.21804467720E+03  0.91390021985E+02 0.  0.
        -11    1    4    4    0    0  0.30753947585E+02  0.17135648221E+02 -0.48547942591E+02  0.59969479420E+02  0.00000000000E+00 0. -1.
         11    1    4    4    0    0 -0.60239661659E+02  0.36975997961E+01 -0.14610023639E+03  0.15807519778E+03  0.00000000000E+00 0.  1.
        -11    1    3    3    0    0  0.55535800259E+02 -0.56607720773E+02 -0.41120925158E+03  0.41878599278E+03  0.00000000000E+00 0.  1.
         11    1    3    3    0    0 -0.40186153939E+01  0.28783189761E+02 -0.15525521563E+03  0.15795190174E+03  0.00000000000E+00 0. -1.
          2    1    1    2  501    0 -0.22031470791E+02  0.69912829948E+01 -0.86801800896E+02  0.89826590617E+02  0.00000000000E+00 0. -1.
<scales pt_clust_5="13000.00000" pt_clust_6="13000.00000" pt_clust_7="13000.00000" pt_clust_8="13000.00000" pt_clust_9="23.11416"></scales>
<clustering>
<clus scale="   23.114">  1  9  2 -1</clus>
<clus scale="   91.194">  7  8 -1 -1</clus>
<clus scale="   91.390">  5  6 -1 -1</clus>
<clus scale="  104.800">  2  7  1 -1</clus>
<clus scale="   23.114">  1  5  2 -1</clus>
</clustering>
</event>
<event>
 9    1  0.1315259E-005  0.1005084E+03  0.7546771E-02  0.1282271E+00
         21   -1    0    0  501  502  0.00000000000E+00  0.00000000000E+00  0.22986360569E+03  0.22986360569E+03  0.00000000000E+00 0.  1.
          3   -1    0    0  502    0 -0.00000000000E+00 -0.00000000000E+00 -0.10548763479E+03  0.10548763479E+03  0.00000000000E+00 0. -1.
         23    2    1    2    0    0 -0.73573325331E+00 -0.25701359395E+02 -0.49541735815E+02  0.11298767809E+03  0.98238132280E+02 0.  0.
         23    2    1    2    0    0 -0.15375451561E+02  0.65558630140E+01  0.74677051793E+02  0.12001695573E+03  0.92455523072E+02 0.  0.
        -11    1    4    4    0    0 -0.33852637871E+02 -0.85780129800E+01  0.86560744147E+02  0.93339947637E+02  0.00000000000E+00 0.  1.
         11    1    4    4    0    0  0.18477186310E+02  0.15133875994E+02 -0.11883692355E+02  0.26677008088E+02  0.00000000000E+00 0. -1.
        -13    1    3    3    0    0  0.25505192095E+01  0.35908289019E+02 -0.33648947861E+02  0.49276384412E+02  0.00000000000E+00 0.  1.
         13    1    3    3    0    0 -0.32862524628E+01 -0.61609648414E+02 -0.15892787954E+02  0.63711293676E+02  0.00000000000E+00 0. -1.
          3    1    1    2  501    0  0.16111184814E+02  0.19145496380E+02  0.99240654920E+02  0.10234660667E+03  0.00000000000E+00 0. -1.
<scales pt_clust_5="13000.00000" pt_clust_6="13000.00000" pt_clust_7="13000.00000" pt_clust_8="13000.00000" pt_clust_9="25.02240"></scales>
<clustering>
<clus scale="   25.022">  1  9  2 -1</clus>
<clus scale="   92.456">  5  6 -1 -1</clus>
<clus scale="   94.864">  1  5  2 -1</clus>
<clus scale="   98.238">  7  8 -1 -1</clus>
<clus scale="   25.022">  1  5  2 -1</clus>
</clustering>
</event>
<event>
 9    1  0.1315259E-005  0.1239578E+03  0.7546771E-02  0.1250912E+00
         21   -1    0    0  501  502  0.00000000000E+00  0.00000000000E+00  0.68516771224E+02  0.68516771224E+02  0.00000000000E+00 0.  1.
          1   -1    0    0  502    0 -0.00000000000E+00 -0.00000000000E+00 -0.42962762774E+03  0.42962762774E+03  0.00000000000E+00 0. -1.
         23    2    1    2    0    0 -0.61425819461E+01  0.11140307234E+02 -0.33342600183E+03  0.35545298479E+03  0.12252382603E+03 0.  0.
         23    2    1    2    0    0  0.42946462568E+02 -0.18302288487E+02 -0.22446073366E+02  0.10483293515E+03  0.91141349957E+02 0.  0.
        -11    1    4    4    0    0  0.39420350434E+02  0.27444776885E+02  0.94486167351E+01  0.48953612378E+02  0.00000000000E+00 0. -1.
         11    1    4    4    0    0  0.35261121338E+01 -0.45747065373E+02 -0.31894690101E+02  0.55879322774E+02  0.00000000000E+00 0.  1.
        -11    1    3    3    0    0 -0.61626622696E+02  0.12638174090E+02 -0.22523199417E+03  0.23385255027E+03  0.00000000000E+00 0. -1.
         11    1    3    3    0    0  0.55484040750E+02 -0.14978668567E+01 -0.10819400766E+03  0.12160043452E+03  0.00000000000E+00 0.  1.
          1    1    1    2  501    0 -0.36803880622E+02  0.71619812539E+01 -0.52387813258E+01  0.37858479025E+02  0.00000000000E+00 0. -1.
<scales pt_clust_5="13000.00000" pt_clust_6="13000.00000" pt_clust_7="13000.00000" pt_clust_8="13000.00000" pt_clust_9="37.49426"></scales>
<clustering>
<clus scale="   37.494">  1  9  2 -1</clus>
<clus scale="   91.141">  5  6 -1 -1</clus>
<clus scale="   93.060">  1  5  2 -1</clus>
<clus scale="  122.524">  7  8 -1 -1</clus>
<clus scale="   37.494">  1  5  2 -1</clus>
</clustering>
</event>
<event>
 9    1  0.1315259E-005  0.1360570E+03  0.7546771E-02  0.1230497E+00
         21   -1    0    0  501  502  0.00000000000E+00  0.00000000000E+00  0.33967227765E+02  0.33967227765E+02  0.00000000000E+00 0.  1.
          2   -1    0    0  502    0 -0.00000000000E+00 -0.00000000000E+00 -0.64202904603E+03  0.64202904603E+03  0.00000000000E+00 0. -1.
         23    2    1    2    0    0  0.32820312719E+02  0.22793772175E+02 -0.20199920106E+03  0.22487764849E+03  0.90385566249E+02 0.  0.
         23    2    1    2    0    0 -0.44484777194E+02 -0.68199918840E+02 -0.33011495102E+03  0.36186714976E+03  0.12386213651E+03 0.  0.
        -11    1    4    4    0    0 -0.73624846491E+02 -0.75626307766E+02 -0.17909311675E+03  0.20788049671E+03  0.00000000000E+00 0.  1.
         11    1    4    4    0    0  0.29140069297E+02  0.74263889267E+01 -0.15102183427E+03  0.15398665305E+03  0.00000000000E+00 0. -1.
        -13    1    3    3    0    0 -0.18730941984E+02  0.28753078735E+02 -0.31236575114E+02  0.46403785936E+02  0.00000000000E+00 0. -1.
         13    1    3    3    0    0  0.51551254703E+02 -0.59593065600E+01 -0.17076262595E+03  0.17847386256E+03  0.00000000000E+00 0.  1.
          2    1    1    2  501    0  0.11664464475E+02  0.45406146664E+02 -0.75947666185E+02  0.89251475536E+02  0.00000000000E+00 0. -1.
<scales pt_clust_5="13000.00000" pt_clust_6="13000.00000" pt_clust_7="13000.00000" pt_clust_8="13000.00000" pt_clust_9="46.88046"></scales>
<clustering>
<clus scale="   46.880">  1  9  2 -1</clus>
<clus scale="   90.386">  7  8 -1 -1</clus>
<clus scale="  106.486">  2  7  1 -1</clus>
<clus scale="  123.862">  5  6 -1 -1</clus>
<clus scale="   46.880">  1  5  2 -1</clus>
</clustering>
</event>
<event>
 9    1  0.1315259E-005  0.9820297E+02  0.7546771E-02  0.1288661E+00
          1   -1    0    0  502    0 -0.00000000000E+00  0.00000000000E+00  0.41881231884E+02  0.41881231884E+02  0.00000000000E+00 0. -1.
         21   -1    0    0  501  502  0.00000000000E+00 -0.00000000000E+00 -0.47683556561E+03  0.47683556561E+03  0.00000000000E+00 0. -1.
         23    2    1    2    0    0  0.29369095559E+02  0.12996769039E+02 -0.63885572397E+02  0.11437005369E+03  0.89261878996E+02 0.  0.
         23    2    1    2    0    0 -0.42909313354E+02 -0.61439870420E+02 -0.26869400054E+03  0.29028244958E+03  0.80320406863E+02 0.  0.
        -13    1    3    3    0    0 -0.40498340786E+01  0.44895860648E+02 -0.16005581590E+02  0.47835322738E+02  0.00000000000E+00 0.  1.
         13    1    3    3    0    0  0.33418929638E+02 -0.31899091609E+02 -0.47879990807E+02  0.66534730956E+02  0.00000000000E+00 0. -1.
        -13    1    4    4    0    0 -0.38352878014E+02 -0.66651572758E+01 -0.19212068892E+03  0.19602481140E+03  0.00000000000E+00 0.  1.
         13    1    4    4    0    0 -0.45564353405E+01 -0.54774713145E+02 -0.76573311625E+02  0.94257638186E+02  0.00000000000E+00 0. -1.
          1    1    1    2  501    0  0.13540217795E+02  0.48443101381E+02 -0.10237476079E+03  0.11406429422E+03  0.00000000000E+00 0. -1.
<scales pt_clust_5="13000.00000" pt_clust_6="13000.00000" pt_clust_7="13000.00000" pt_clust_8="13000.00000" pt_clust_9="50.29982"></scales>
<clustering>
<clus scale="   50.300">  2  9  1 -1</clus>
<clus scale="   80.320">  7  8 -1 -1</clus>
<clus scale="   89.262">  5  6 -1 -1</clus>
<clus scale="   90.153">  2  7  1 -1</clus>
<clus scale="   50.300">  2  5  1 -1</clus>
</clustering>
</event>
<event>
 9    1  0.1315259E-005  0.1099780E+03  0.7546771E-02  0.1261324E+00
         21   -1    0    0  501  502  0.00000000000E+00  0.00000000000E+00  0.85100100938E+02  0.85100100938E+02  0.00000000000E+00 0.  1.
         -1   -1    0    0    0  501 -0.00000000000E+00 -0.00000000000E+00 -0.39134807425E+03  0.39134807425E+03  0.00000000000E+00 0.  1.
         23    2    1    2    0    0  0.66483538419E+02  0.12281783439E+02 -0.26956985717E+03  0.29329645073E+03  0.93722980286E+02 0.  0.
         23    2    1    2    0    0 -0.38576261585E+02  0.80782471857E+01 -0.79763322165E+02  0.12792779916E+03  0.91923599793E+02 0.  0.
        -11    1    3    3    0    0  0.31062573845E+02  0.52324181914E+02 -0.16480169927E+03  0.17567670190E+03  0.00000000000E+00 0.  1.
         11    1    3    3    0    0  0.35420964574E+02 -0.40042398475E+02 -0.10476815789E+03  0.11761974883E+03  0.00000000000E+00 0. -1.
        -13    1    4    4    0    0 -0.67474636651E+02 -0.60645591579E+01 -0.51426925424E+02  0.85054888910E+02  0.00000000000E+00 0.  1.
         13    1    4    4    0    0  0.28898375066E+02  0.14142806344E+02 -0.28336396740E+02  0.42872910246E+02  0.00000000000E+00 0. -1.
         -1    1    1    2    0  502 -0.27907276834E+02 -0.20360030624E+02  0.43085206022E+02  0.55223925298E+02  0.00000000000E+00 0.  1.
<scales pt_clust_5="13000.00000" pt_clust_6="13000.00000" pt_clust_7="13000.00000" pt_clust_8="13000.00000" pt_clust_9="34.54485"></scales>
<clustering>
<clus scale="   34.545">  1  9  2 -1</clus>
<clus scale="   91.924">  7  8 -1 -1</clus>
<clus scale="   93.723">  5  6 -1 -1</clus>
<clus scale="  108.449">  1  7  2 -1</clus>
<clus scale="   34.545">  1  5  2 -1</clus>
</clustering>
</event>
<event>
 9    1  0.1315259E-005  0.2165272E+03  0.7546771E-02  0.1136886E+00
         21   -1    0    0  501  502  0.00000000000E+00  0.00000000000E+00  0.10344691540E+03  0.10344691540E+03  0.00000000000E+00 0.  1.
          2   -1    0    0  502    0 -0.00000000000E+00 -0.00000000000E+00 -0.82871576128E+03  0.82871576128E+03  0.00000000000E+00 0. -1.
         23    2    1    2    0    0 -0.18835663831E+03  0.49913005166E+02 -0.62745343820E+03  0.66298937889E+03  0.88811981924E+02 0.  0.
         23    2    1    2    0    0  0.18199806407E+03 -0.80022503732E+02 -0.89707700000E+02  0.23734959130E+03  0.93597332356E+02 0.  0.
        -13    1    3    3    0    0 -0.12126303584E+03 -0.58164685291E+01 -0.28869015114E+03  0.31317815782E+03  0.00000000000E+00 0. -1.
         13    1    3    3    0    0 -0.67093602470E+02  0.55729473695E+02 -0.33876328706E+03  0.34981122108E+03  0.00000000000E+00 0.  1.
        -13    1    4    4    0    0  0.18477610619E+03 -0.54347703135E+02 -0.87137601189E+02  0.21139735996E+03  0.00000000000E+00 0. -1.
         13    1    4    4    0    0 -0.27780421277E+01 -0.25674800598E+02 -0.25700988108E+01  0.25952231343E+02  0.00000000000E+00 0.  1.
          2    1    1    2  501    0  0.63585742450E+01  0.30109498566E+02 -0.81077076843E+01  0.31823706481E+02  0.00000000000E+00 0. -1.
<scales pt_clust_5="13000.00000" pt_clust_6="13000.00000" pt_clust_7="13000.00000" pt_clust_8="13000.00000" pt_clust_9="30.77358"></scales>
<clustering>
<clus scale="   30.774">  1  9  2 -1</clus>
<clus scale="   88.812">  5  6 -1 -1</clus>
<clus scale="   93.597">  7  8 -1 -1</clus>
<clus scale="  214.502">  2  5  1 -1</clus>
<clus scale="   30.774">  1  5  2 -1</clus>
</clustering>
</event>
<event>
 9    1  0.1315259E-005  0.1221559E+03  0.7546771E-02  0.1239912E+00
          1   -1    0    0  502    0 -0.00000000000E+00  0.00000000000E+00  0.71621196878E+02  0.71621196878E+02  0.00000000000E+00 0. -1.
         21   -1    0    0  501  502  0.00000000000E+00 -0.00000000000E+00 -0.56861189072E+03  0.56861189072E+03  0.00000000000E+00 0. -1.
         23    2    1    2    0    0 -0.76410432154E+02  0.55214649222E+02 -0.95942394661E+02  0.16214154317E+03  0.90541290565E+02 0.  0.
         23    2    1    2    0    0 -0.33786264081E+02 -0.10138076605E+03 -0.21881999719E+03  0.26018840941E+03  0.91631031074E+02 0.  0.
        -11    1    4    4    0    0 -0.63024366157E+02 -0.65155769836E+02 -0.11518027616E+03  0.14657367120E+03  0.00000000000E+00 0. -1.
         11    1    4    4    0    0  0.29238102075E+02 -0.36224996215E+02 -0.10363972103E+03  0.11361473821E+03  0.00000000000E+00 0.  1.
        -11    1    3    3    0    0 -0.52673023625E+02 -0.14723896557E+02 -0.26534740846E+02  0.60789250853E+02  0.00000000000E+00 0. -1.
         11    1    3    3    0    0 -0.23737408529E+02  0.69938545780E+02 -0.69407653815E+02  0.10135229232E+03  0.00000000000E+00 0.  1.
          1    1    1    2  501    0  0.11019669623E+03  0.46166116829E+02 -0.18222830200E+03  0.21790313502E+03  0.00000000000E+00 0. -1.
<scales pt_clust_5="13000.00000" pt_clust_6="13000.00000" pt_clust_7="13000.00000" pt_clust_8="13000.00000" pt_clust_9="119.47645"></scales>
<clustering>
<clus scale="   90.541">  7  8 -1 -1</clus>
<clus scale="   91.631">  5  6 -1 -1</clus>
<clus scale="  119.476">  2  9  1 -1</clus>
<clus scale="  121.341">  1  7  2 -1</clus>
<clus scale="  119.476">  2  5  1 -1</clus>
</clustering>
</event>
<event>
 9    1  0.1315259E-005  0.1031892E+03  0.7546771E-02  0.1277266E+00
         21   -1    0    0  501  502  0.00000000000E+00  0.00000000000E+00  0.58938458141E+02  0.58938458141E+02  0.00000000000E+00 0. -1.
          1   -1    0    0  502    0 -0.00000000000E+00 -0.00000000000E+00 -0.37484914216E+03  0.37484914216E+03  0.00000000000E+00 0. -1.
         23    2    1    2    0    0  0.14890406342E+02  0.13648273165E-01 -0.19244097280E+03  0.21475796754E+03  0.94158017309E+02 0.  0.
         23    2    1    2    0    0 -0.13996246785E+02  0.60494785276E+02 -0.66879721484E+02  0.13617737274E+03  0.10107356594E+03 0.  0.
        -13    1    4    4    0    0 -0.28455812088E+02  0.81054818790E+02 -0.28904427028E+02  0.90637093910E+02  0.00000000000E+00 0. -1.
         13    1    4    4    0    0  0.14459565303E+02 -0.20560033514E+02 -0.37975294457E+02  0.45540278830E+02  0.00000000000E+00 0.  1.
        -13    1    3    3    0    0 -0.20339635390E+02  0.29964383453E+02 -0.33881794338E+02  0.49593760001E+02  0.00000000000E+00 0. -1.
         13    1    3    3    0    0  0.35230041732E+02 -0.29950735180E+02 -0.15855917846E+03  0.16516420754E+03  0.00000000000E+00 0.  1.
          1    1    1    2  501    0 -0.89415955711E+00 -0.60508433549E+02 -0.56589989734E+02  0.82852260017E+02  0.00000000000E+00 0. -1.
<scales pt_clust_5="13000.00000" pt_clust_6="13000.00000" pt_clust_7="13000.00000" pt_clust_8="13000.00000" pt_clust_9="60.51504"></scales>
<clustering>
<clus scale="   60.515">  1  9  2 -1</clus>
<clus scale="   94.158">  7  8 -1 -1</clus>
<clus scale="   96.425">  2  7  1 -1</clus>
<clus scale="  101.074">  5  6 -1 -1</clus>
<clus scale="   60.515">  1  5  2 -1</clus>
</clustering>
</event>
<event>
 9    1  0.1315259E-005  0.9502761E+02  0.7546771E-02  0.1291178E+00
         21   -1    0    0  501  502  0.00000000000E+00  0.00000000000E+00  0.31399592106E+03  0.31399592106E+03  0.00000000000E+00 0. -1.
          2   -1    0    0  502    0 -0.00000000000E+00 -0.00000000000E+00 -0.54812281962E+02  0.54812281962E+02  0.00000000000E+00 0. -1.
         23    2    1    2    0    0  0.53299007242E+01 -0.27507649172E+02  0.37815572851E+02  0.10179247145E+03  0.90258579037E+02 0.  0.
         23    2    1    2    0    0  0.16374663599E+02  0.31778589281E+02  0.85768699918E+02  0.12962389342E+03  0.90377405993E+02 0.  0.
        -11    1    4    4    0    0  0.43047108663E+02  0.34220956213E+02  0.19838791916E+02  0.58461141565E+02  0.00000000000E+00 0. -1.
         11    1    4    4    0    0 -0.26672445064E+02 -0.24423669321E+01  0.65929908001E+02  0.71162751851E+02  0.00000000000E+00 0.  1.
        -13    1    3    3    0    0  0.22527165620E+02 -0.55750244161E+02  0.16150887240E+02  0.62260855066E+02  0.00000000000E+00 0. -1.
         13    1    3    3    0    0 -0.17197264896E+02  0.28242594989E+02  0.21664685611E+02  0.39531616388E+02  0.00000000000E+00 0.  1.
          2    1    1    2  501    0 -0.21704564323E+02 -0.42709401082E+01  0.13559936633E+03  0.13739183815E+03  0.00000000000E+00 0. -1.
<scales pt_clust_5="13000.00000" pt_clust_6="13000.00000" pt_clust_7="13000.00000" pt_clust_8="13000.00000" pt_clust_9="22.12078"></scales>
<clustering>
<clus scale="   22.121">  1  9  2 -1</clus>
<clus scale="   90.259">  7  8 -1 -1</clus>
<clus scale="   90.377">  5  6 -1 -1</clus>
<clus scale="   94.915">  2  7  1 -1</clus>
<clus scale="   22.121">  1  5  2 -1</clus>
</clustering>
</event>
<event>
 9    1  0.1315259E-005  0.1112630E+03  0.7546771E-02  0.1260745E+00
         21   -1    0    0  501  502  0.00000000000E+00  0.00000000000E+00  0.32229373083E+03  0.32229373083E+03  0.00000000000E+00 0. -1.
          1   -1    0    0  502    0 -0.00000000000E+00 -0.00000000000E+00 -0.20709425437E+03  0.20709425437E+03  0.00000000000E+00 0. -1.
         23    2    1    2    0    0 -0.21199483779E+02  0.51975362485E+02 -0.13772132005E+03  0.17459554459E+03  0.91463576230E+02 0.  0.
         23    2    1    2    0    0 -0.26301989058E+02 -0.53478667450E+02  0.18782766877E+02  0.11587976458E+03  0.97588754511E+02 0.  0.
        -11    1    3    3    0    0  0.28831995482E+02 -0.40878628966E+01 -0.21493468702E+02  0.36193421825E+02  0.00000000000E+00 0.  1.
         11    1    3    3    0    0 -0.50031479261E+02  0.56063225382E+02 -0.11622785135E+03  0.13840212277E+03  0.00000000000E+00 0. -1.
        -13    1    4    4    0    0  0.19759635378E+02 -0.28664983031E+02 -0.28780704164E+02  0.45171377825E+02  0.00000000000E+00 0.  1.
         13    1    4    4    0    0 -0.46061624436E+02 -0.24813684420E+02  0.47563471041E+02  0.70708386756E+02  0.00000000000E+00 0. -1.
          1    1    1    2  501    0  0.47501472837E+02  0.15033049652E+01  0.23413802963E+03  0.23891267603E+03  0.00000000000E+00 0. -1.
<scales pt_clust_5="13000.00000" pt_clust_6="13000.00000" pt_clust_7="13000.00000" pt_clust_8="13000.00000" pt_clust_9="47.52525"></scales>
<clustering>
<clus scale="   47.525">  1  9  2 -1</clus>
<clus scale="   91.464">  5  6 -1 -1</clus>
<clus scale="   97.589">  7  8 -1 -1</clus>
<clus scale="  105.931">  2  5  1 -1</clus>
<clus scale="   47.525">  1  5  2 -1</clus>
</clustering>
</event>
<event>
 9    1  0.1315259E-005  0.1518321E+03  0.7546771E-02  0.1198344E+00
         21   -1    0    0  501  502  0.00000000000E+00  0.00000000000E+00  0.61487500183E+03  0.61487500183E+03  0.00000000000E+00 0. -1.
         -4   -1    0    0    0  501 -0.00000000000E+00 -0.00000000000E+00 -0.10162217545E+03  0.10162217545E+03  0.00000000000E+00 0.  1.
         23    2    1    2    0    0  0.71375693218E+02 -0.97182384224E+02 -0.18186771085E+02  0.15178000037E+03  0.90374246801E+02 0.  0.
         23    2    1    2    0    0 -0.97052806614E+02  0.88450843871E+02  0.48828001794E+03  0.51374362245E+03  0.90952375648E+02 0.  0.
        -13    1    3    3    0    0  0.81093146019E+02 -0.44174489469E+02 -0.29047694668E+02  0.96805229283E+02  0.00000000000E+00 0.  1.
         13    1    3    3    0    0 -0.97174528003E+01 -0.53007894756E+02  0.10860923583E+02  0.54974771090E+02  0.00000000000E+00 0. -1.
        -13    1    4    4    0    0 -0.66529168525E+02  0.62256276241E+02  0.44667965971E+03  0.45587793607E+03  0.00000000000E+00 0. -1.
         13    1    4    4    0    0 -0.30523638089E+02  0.26194567630E+02  0.41600358229E+02  0.57865686380E+02  0.00000000000E+00 0.  1.
         -4    1    1    2    0  502  0.25677113396E+02  0.87315403536E+01  0.43159579529E+02  0.50973554461E+02  0.00000000000E+00 0.  1.
<scales pt_clust_5="13000.00000" pt_clust_6="13000.00000" pt_clust_7="13000.00000" pt_clust_8="13000.00000" pt_clust_9="27.12110"></scales>
<clustering>
<clus scale="   27.121">  1  9  2 -1</clus>
<clus scale="   90.374">  5  6 -1 -1</clus>
<clus scale="   90.952">  7  8 -1 -1</clus>
<clus scale="  151.486">  2  5  1 -1</clus>
<clus scale="   27.121">  1  5  2 -1</clus>
</clustering>
</event>
<event>
 9    1  0.1315259E-005  0.1132296E+03  0.7546771E-02  0.1255234E+00
          2   -1    0    0  502    0 -0.00000000000E+00  0.00000000000E+00  0.48616299523E+03  0.48616299523E+03  0.00000000000E+00 0. -1.
         21   -1    0    0  501  502  0.00000000000E+00 -0.00000000000E+00 -0.94943493861E+02  0.94943493861E+02  0.00000000000E+00 0.  1.
         23    2    1    2    0    0  0.55844029881E+02  0.22900171894E+02  0.30556017872E+03  0.32410152503E+03  0.89620322260E+02 0.  0.
         23    2    1    2    0    0 -0.12613788000E+03 -0.96115545825E+00  0.17346316970E+02  0.15655989175E+03  0.91095644257E+02 0.  0.
        -11    1    4    4    0    0 -0.11582963475E+03 -0.33850095174E+02  0.18444127569E+02  0.12207587424E+03  0.00000000000E+00 0.  1.
         11    1    4    4    0    0 -0.10308245250E+02  0.32888939716E+02 -0.10978105988E+01  0.34484017513E+02  0.00000000000E+00 0. -1.
        -13    1    3    3    0    0  0.44937768685E+02 -0.27600005314E+02  0.11249053326E+03  0.12423881608E+03  0.00000000000E+00 0. -1.
         13    1    3    3    0    0  0.10906261196E+02  0.50500177208E+02  0.19306964547E+03  0.19986270896E+03  0.00000000000E+00 0.  1.
          2    1    1    2  501    0  0.70293850116E+02 -0.21939016435E+02  0.68313005680E+02  0.10044507231E+03  0.00000000000E+00 0. -1.
<scales pt_clust_5="13000.00000" pt_clust_6="13000.00000" pt_clust_7="13000.00000" pt_clust_8="13000.00000" pt_clust_9="73.63797"></scales>
<clustering>
<clus scale="   73.638">  2  9  1 -1</clus>
<clus scale="   89.620">  7  8 -1 -1</clus>
<clus scale="   91.096">  5  6 -1 -1</clus>
<clus scale="  112.046">  1  7  2 -1</clus>
<clus scale="   73.638">  2  5  1 -1</clus>
</clustering>
</event>
<event>
 9    1  0.1315259E-005  0.1061346E+03  0.7546771E-02  0.1269067E+00
         21   -1    0    0  501  502  0.00000000000E+00  0.00000000000E+00  0.15125958148E+03  0.15125958148E+03  0.00000000000E+00 0.  1.
          1   -1    0    0  502    0 -0.00000000000E+00 -0.00000000000E+00 -0.20492096035E+03  0.20492096035E+03  0.00000000000E+00 0. -1.
         23    2    1    2    0    0  0.74757838733E+01 -0.40132044817E+02 -0.66311057356E+02  0.12130779696E+03  0.93015896005E+02 0.  0.
         23    2    1    2    0    0 -0.24820834130E+02  0.56803277626E+02 -0.82249165171E+02  0.13697192107E+03  0.90297817440E+02 0.  0.
        -11    1    4    4    0    0  0.12791051331E+02 -0.20088257694E+02 -0.15355849234E+02  0.28336393508E+02  0.00000000000E+00 0.  1.
         11    1    4    4    0    0 -0.37611885461E+02  0.76891535319E+02 -0.66893315937E+02  0.10863552756E+03  0.00000000000E+00 0. -1.
        -13    1    3    3    0    0  0.55834746357E+01 -0.67815977482E+02 -0.27037112431E+02  0.73220130016E+02  0.00000000000E+00 0.  1.
         13    1    3    3    0    0  0.18923092376E+01  0.27683932665E+02 -0.39273944925E+02  0.48087666943E+02  0.00000000000E+00 0. -1.
          1    1    1    2  501    0  0.17345050257E+02 -0.16671232809E+02  0.94898843659E+02  0.97900823794E+02  0.00000000000E+00 0. -1.
<scales pt_clust_5="13000.00000" pt_clust_6="13000.00000" pt_clust_7="13000.00000" pt_clust_8="13000.00000" pt_clust_9="24.05786"></scales>
<clustering>
<clus scale="   24.058">  1  9  2 -1</clus>
<clus scale="   90.298">  5  6 -1 -1</clus>
<clus scale="   93.016">  7  8 -1 -1</clus>
<clus scale="  103.761">  1  5  2 -1</clus>
<clus scale="   24.058">  1  5  2 -1</clus>
</clustering>
</event>
<event>
 9    1  0.1315259E-005  0.9491594E+02  0.7546771E-02  0.1299259E+00
         21   -1    0    0  501  502  0.00000000000E+00  0.00000000000E+00  0.13723059277E+03  0.13723059277E+03  0.00000000000E+00 0.  1.
          1   -1    0    0  502    0 -0.00000000000E+00 -0.00000000000E+00 -0.13789912499E+03  0.13789912499E+03  0.00000000000E+00 0. -1.
         23    2    1    2    0    0  0.45812784376E+00  0.13751226925E+02 -0.97385737250E+01  0.93162669455E+02  0.91624980430E+02 0.  0.
         23    2    1    2    0    0  0.16863165280E+02  0.57676733280E+02 -0.23875118781E+02  0.10142287235E+03  0.78138376193E+02 0.  0.
        -11    1    3    3    0    0 -0.43821107373E+01 -0.32384733727E+02  0.19759464982E+02  0.38189138894E+02  0.00000000000E+00 0. -1.
         11    1    3    3    0    0  0.48402385810E+01  0.46135960652E+02 -0.29498038707E+02  0.54973530561E+02  0.00000000000E+00 0.  1.
        -11    1    4    4    0    0 -0.14391709305E+02  0.53613284852E+02  0.85935367451E+01  0.56172542075E+02  0.00000000000E+00 0.  1.
         11    1    4    4    0    0  0.31254874586E+02  0.40634484282E+01 -0.32468655526E+02  0.45250330277E+02  0.00000000000E+00 0. -1.
          1    1    1    2  501    0 -0.17321293124E+02 -0.71427960205E+02  0.32945160280E+02  0.80544175956E+02  0.00000000000E+00 0. -1.
<scales pt_clust_5="13000.00000" pt_clust_6="13000.00000" pt_clust_7="13000.00000" pt_clust_8="13000.00000" pt_clust_9="73.49817"></scales>
<clustering>
<clus scale="   73.498">  1  9  2 -1</clus>
<clus scale="   78.138">  7  8 -1 -1</clus>
<clus scale="   81.973">  1  7  2 -1</clus>
<clus scale="   91.625">  5  6 -1 -1</clus>
<clus scale="   73.498">  1  5  2 -1</clus>
</clustering>
</event>
<event>
 9    1  0.1315259E-005  0.1150801E+03  0.7546771E-02  0.1252652E+00
         21   -1    0    0  501  502  0.00000000000E+00  0.00000000000E+00  0.75645597076E+02  0.75645597076E+02  0.00000000000E+00 0.  1.
          1   -1    0    0  502    0 -0.00000000000E+00 -0.00000000000E+00 -0.23102388994E+03  0.23102388994E+03  0.00000000000E+00 0. -1.
         23    2    1    2    0    0  0.51884085507E+02  0.34100578980E+02 -0.86689252689E+02  0.14110611655E+03  0.92418081451E+02 0.  0.
         23    2    1    2    0    0 -0.49526951984E+02 -0.63623174664E+02 -0.47426187716E+02  0.12910450832E+03  0.88982602015E+02 0.  0.
        -11    1    3    3    0    0  0.31378155180E+02  0.79538805195E+01 -0.10015230973E+03  0.10525368394E+03  0.00000000000E+00 0. -1.
         11    1    3    3    0    0  0.20505930327E+02  0.26146698460E+02  0.13463057043E+02  0.35852432607E+02  0.00000000000E+00 0.  1.
        -13    1    4    4    0    0 -0.72189260551E+02 -0.64530169729E+02 -0.43230747668E+02  0.10603928370E+03  0.00000000000E+00 0.  1.
         13    1    4    4    0    0  0.22662308568E+02  0.90699506513E+00 -0.41954400475E+01  0.23065224622E+02  0.00000000000E+00 0. -1.
          1    1    1    2  501    0 -0.23571335232E+01  0.29522595685E+02 -0.21262852462E+02  0.36458862149E+02  0.00000000000E+00 0. -1.
<scales pt_clust_5="13000.00000" pt_clust_6="13000.00000" pt_clust_7="13000.00000" pt_clust_8="13000.00000" pt_clust_9="29.61656"></scales>
<clustering>
<clus scale="   29.617">  1  9  2 -1</clus>
<clus scale="   88.983">  7  8 -1 -1</clus>
<clus scale="   92.418">  5  6 -1 -1</clus>
<clus scale="  112.340">  1  7  2 -1</clus>
<clus scale="   29.617">  1  5  2 -1</clus>
</clustering>
</event>
<event>
 9    1  0.1315259E-005  0.1075490E+03  0.7546771E-02  0.1265736E+00
         21   -1    0    0  501  502  0.00000000000E+00  0.00000000000E+00  0.42184492377E+03  0.42184492377E+03  0.00000000000E+00 0. -1.
         -2   -1    0    0    0  501 -0.00000000000E+00 -0.00000000000E+00 -0.47575239584E+02  0.47575239584E+02  0.00000000000E+00 0.  1.
         23    2    1    2    0    0  0.23885590481E+02  0.56876275007E+02  0.80145542251E+02  0.13567763735E+03  0.90441590221E+02 0.  0.
         23    2    1    2    0    0  0.53315654634E+01 -0.51850894833E+02  0.13247352985E+03  0.16939588918E+03  0.91808443386E+02 0.  0.
        -11    1    3    3    0    0 -0.33250595840E+02  0.83001466856E+01  0.29103525279E+02  0.44961202635E+02  0.00000000000E+00 0.  1.
         11    1    3    3    0    0  0.57136186321E+02  0.48576128321E+02  0.51042016972E+02  0.90716434710E+02  0.00000000000E+00 0. -1.
        -11    1    4    4    0    0  0.21110574871E+02 -0.20261041988E+02  0.13081290544E+03  0.13404544910E+03  0.00000000000E+00 0. -1.
         11    1    4    4    0    0 -0.15779009407E+02 -0.31589852845E+02  0.16606244029E+01  0.35350440083E+02  0.00000000000E+00 0.  1.
         -2    1    1    2    0  502 -0.29217155944E+02 -0.50253801735E+01  0.16165061209E+03  0.16434663682E+03  0.00000000000E+00 0.  1.
<scales pt_clust_5="13000.00000" pt_clust_6="13000.00000" pt_clust_7="13000.00000" pt_clust_8="13000.00000" pt_clust_9="29.64619"></scales>
<clustering>
<clus scale="   29.646">  1  9  2 -1</clus>
<clus scale="   90.442">  5  6 -1 -1</clus>
<clus scale="   91.808">  7  8 -1 -1</clus>
<clus scale="  106.385">  2  5  1 -1</clus>
<clus scale="   29.646">  1  5  2 -1</clus>
</clustering>
</event>
<event>
 9    1  0.1315259E-005  0.1008897E+03  0.7546771E-02  0.1278570E+00
         21   -1    0    0  501  502  0.00000000000E+00  0.00000000000E+00  0.54966574522E+02  0.54966574522E+02  0.00000000000E+00 0.  1.
          3   -1    0    0  502    0 -0.00000000000E+00 -0.00000000000E+00 -0.40673679097E+03  0.40673679097E+03  0.00000000000E+00 0. -1.
         23    2    1    2    0    0 -0.50117257700E+01 -0.35920198056E+02 -0.25277454648E+03  0.27080294969E+03  0.90132614454E+02 0.  0.
         23    2    1    2    0    0  0.40934770256E+01  0.67012126432E+02 -0.11046140946E+03  0.15774903011E+03  0.90419311409E+02 0.  0.
        -11    1    4    4    0    0 -0.49499215348E+01  0.36432349583E+02  0.57748384654E+01  0.37217826087E+02  0.00000000000E+00 0.  1.
         11    1    4    4    0    0  0.90433985604E+01  0.30579776849E+02 -0.11623624793E+03  0.12053120402E+03  0.00000000000E+00 0. -1.
        -13    1    3    3    0    0  0.45291550751E+01  0.26166261501E+02 -0.33726689088E+02  0.42926402638E+02  0.00000000000E+00 0.  1.
         13    1    3    3    0    0 -0.95408808451E+01 -0.62086459557E+02 -0.21904785739E+03  0.22787654705E+03  0.00000000000E+00 0. -1.
          3    1    1    2  501    0  0.91824874437E+00 -0.31091928376E+02  0.11465739502E+02  0.33151385691E+02  0.00000000000E+00 0. -1.
<scales pt_clust_5="13000.00000" pt_clust_6="13000.00000" pt_clust_7="13000.00000" pt_clust_8="13000.00000" pt_clust_9="31.10548"></scales>
<clustering>
<clus scale="   31.105">  1  9  2 -1</clus>
<clus scale="   90.133">  7  8 -1 -1</clus>
<clus scale="   90.419">  5  6 -1 -1</clus>
<clus scale="  100.633">  2  7  1 -1</clus>
<clus scale="   31.105">  1  5  2 -1</clus>
</clustering>
</event>
<event>
 9    1  0.1315259E-005  0.1769407E+03  0.7546771E-02  0.1171896E+00
          2   -1    0    0  502    0 -0.00000000000E+00  0.00000000000E+00  0.27139545785E+03  0.27139545785E+03  0.00000000000E+00 0. -1.
         21   -1    0    0  501  502  0.00000000000E+00 -0.00000000000E+00 -0.23204623898E+03  0.23204623898E+03  0.00000000000E+00 0. -1.
         23    2    1    2    0    0  0.12840213202E+03 -0.82803098999E+02  0.95279269731E+02  0.20134367872E+03  0.90098152090E+02 0.  0.
         23    2    1    2    0    0 -0.15398047583E+03  0.32612244035E+02  0.48355660394E+02  0.18357003337E+03  0.81155048277E+02 0.  0.
        -13    1    3    3    0    0  0.36185750032E+02 -0.11449221283E+02 -0.15041806769E+02  0.40825838929E+02  0.00000000000E+00 0.  1.
         13    1    3    3    0    0  0.92216381983E+02 -0.71353877716E+02  0.11032107650E+03  0.16051783979E+03  0.00000000000E+00 0. -1.
        -13    1    4    4    0    0 -0.49383018151E+02 -0.24516865343E+02  0.49248495888E+00  0.55136210510E+02  0.00000000000E+00 0. -1.
         13    1    4    4    0    0 -0.10459745768E+03  0.57129109378E+02  0.47863175435E+02  0.12843382286E+03  0.00000000000E+00 0.  1.
          2    1    1    2  501    0  0.25578343813E+02  0.50190854965E+02 -0.10428571126E+03  0.11852798474E+03  0.00000000000E+00 0. -1.
<scales pt_clust_5="13000.00000" pt_clust_6="13000.00000" pt_clust_7="13000.00000" pt_clust_8="13000.00000" pt_clust_9="56.33270"></scales>
<clustering>
<clus scale="   56.333">  2  9  1 -1</clus>
<clus scale="   81.155">  7  8 -1 -1</clus>
<clus scale="   90.098">  5  6 -1 -1</clus>
<clus scale="  172.559">  2  7  1 -1</clus>
<clus scale="   56.333">  2  5  1 -1</clus>
</clustering>
</event>
<event>
 9    1  0.1315259E-005  0.9863344E+02  0.7546771E-02  0.1287922E+00
         -1   -1    0    0    0  501 -0.00000000000E+00  0.00000000000E+00  0.19104966688E+03  0.19104966688E+03  0.00000000000E+00 0.  1.
         21   -1    0    0  501  502  0.00000000000E+00 -0.00000000000E+00 -0.15587237679E+03  0.15587237679E+03  0.00000000000E+00 0. -1.
         23    2    1    2    0    0 -0.50618152949E+01  0.15732262970E+02  0.14241357614E+03  0.17342049595E+03  0.97570055214E+02 0.  0.
         23    2    1    2    0    0 -0.16161330621E+02 -0.88002536754E+01 -0.34248248141E+02  0.97175088651E+02  0.89058532895E+02 0.  0.
        -11    1    4    4    0    0  0.20690250735E+02 -0.34943192111E+02 -0.21688665306E+00  0.40609853363E+02  0.00000000000E+00 0. -1.
         11    1    4    4    0    0 -0.36851581356E+02  0.26142938435E+02 -0.34031361488E+02  0.56565235288E+02  0.00000000000E+00 0.  1.
        -11    1    3    3    0    0 -0.46693645078E+02 -0.23486256646E+01  0.10374680247E+03  0.11379460249E+03  0.00000000000E+00 0.  1.
         11    1    3    3    0    0  0.41631829783E+02  0.18080888635E+02  0.38666773670E+02  0.59625893460E+02  0.00000000000E+00 0. -1.
         -1    1    1    2    0  502  0.21223145916E+02 -0.69320092946E+01 -0.72988037908E+02  0.76326459063E+02  0.00000000000E+00 0.  1.
<scales pt_clust_5="13000.00000" pt_clust_6="13000.00000" pt_clust_7="13000.00000" pt_clust_8="13000.00000" pt_clust_9="22.32655"></scales>
<clustering>
<clus scale="   22.327">  2  9  1 -1</clus>
<clus scale="   89.059">  5  6 -1 -1</clus>
<clus scale="   90.222">  2  5  1 -1</clus>
<clus scale="   97.570">  7  8 -1 -1</clus>
<clus scale="   22.327">  2  5  1 -1</clus>
</clustering>
</event>
<event>
 9    1  0.1315259E-005  0.9794046E+02  0.7546771E-02  0.1284966E+00
         21   -1    0    0  501  502  0.00000000000E+00  0.00000000000E+00  0.10721638567E+03  0.10721638567E+03  0.00000000000E+00 0.  1.
         -1   -1    0    0    0  501 -0.00000000000E+00 -0.00000000000E+00 -0.26636905181E+03  0.26636905181E+03  0.00000000000E+00 0.  1.
         23    2    1    2    0    0  0.10427968577E+02 -0.25066381468E+02 -0.10487560855E+03  0.14137457842E+03  0.90833981218E+02 0.  0.
         23    2    1    2    0    0  0.26787348780E+02  0.44949809178E+02 -0.11649448731E+03  0.15703547011E+03  0.91384494856E+02 0.  0.
        -11    1    4    4    0    0  0.50147595997E+02  0.35675249687E+02 -0.11666336157E+03  0.13190088990E+03  0.00000000000E+00 0.  1.
         11    1    4    4    0    0 -0.23360247217E+02  0.92745594917E+01  0.16887425897E+00  0.25134580210E+02  0.00000000000E+00 0. -1.
        -13    1    3    3    0    0  0.42577735696E+02  0.22952552865E+01 -0.84168217221E+02  0.94352639412E+02  0.00000000000E+00 0.  1.
         13    1    3    3    0    0 -0.32149767120E+02 -0.27361636755E+02 -0.20707391333E+02  0.47021939003E+02  0.00000000000E+00 0. -1.
         -1    1    1    2    0  502 -0.37215317356E+02 -0.19883427710E+02  0.62217429722E+02  0.75175388956E+02  0.00000000000E+00 0.  1.
<scales pt_clust_5="13000.00000" pt_clust_6="13000.00000" pt_clust_7="13000.00000" pt_clust_8="13000.00000" pt_clust_9="42.19396"></scales>
<clustering>
<clus scale="   42.194">  1  9  2 -1</clus>
<clus scale="   90.834">  7  8 -1 -1</clus>
<clus scale="   91.384">  5  6 -1 -1</clus>
<clus scale="   97.427">  2  7  1 -1</clus>
<clus scale="   42.194">  1  5  2 -1</clus>
</clustering>
</event>
<event>
 9    1  0.1315259E-005  0.9105471E+02  0.7546771E-02  0.1300417E+00
          2   -1    0    0  502    0 -0.00000000000E+00  0.00000000000E+00  0.16249293229E+03  0.16249293229E+03  0.00000000000E+00 0. -1.
         21   -1    0    0  501  502  0.00000000000E+00 -0.00000000000E+00 -0.66630442647E+02  0.66630442647E+02  0.00000000000E+00 0. -1.
         23    2    1    2    0    0  0.32689092239E+01 -0.18513641338E+02  0.54931151732E+02  0.10762398818E+03  0.90620365908E+02 0.  0.
         23    2    1    2    0    0  0.67372746920E+01 -0.28920647948E+01  0.33373563128E+02  0.96691163700E+02  0.90452371516E+02 0.  0.
        -13    1    4    4    0    0 -0.20649061252E+02 -0.37929331727E+02  0.28971162456E+02  0.52003328642E+02  0.00000000000E+00 0. -1.
         13    1    4    4    0    0  0.27386335944E+02  0.35037266932E+02  0.44024006718E+01  0.44687835058E+02  0.00000000000E+00 0.  1.
        -13    1    3    3    0    0  0.13041923966E+02 -0.49704893068E+02  0.10474193611E+02  0.52444035957E+02  0.00000000000E+00 0. -1.
         13    1    3    3    0    0 -0.97730147419E+01  0.31191251730E+02  0.44456958121E+02  0.55179952220E+02  0.00000000000E+00 0.  1.
          2    1    1    2  501    0 -0.10006183916E+02  0.21405706133E+02  0.75577747813E+01  0.24808223057E+02  0.00000000000E+00 0. -1.
<scales pt_clust_5="13000.00000" pt_clust_6="13000.00000" pt_clust_7="13000.00000" pt_clust_8="13000.00000" pt_clust_9="23.62896"></scales>
<clustering>
<clus scale="   23.629">  2  9  1 -1</clus>
<clus scale="   90.452">  5  6 -1 -1</clus>
<clus scale="   90.620">  7  8 -1 -1</clus>
<clus scale="   90.888">  2  5  1 -1</clus>
<clus scale="   23.629">  2  5  1 -1</clus>
</clustering>
</event>
<event>
 9    1  0.1315259E-005  0.9827250E+02  0.7546771E-02  0.1287918E+00
         21   -1    0    0  501  502  0.00000000000E+00  0.00000000000E+00  0.38150560705E+03  0.38150560705E+03  0.00000000000E+00 0.  1.
         -3   -1    0    0    0  501 -0.00000000000E+00 -0.00000000000E+00 -0.80152222458E+02  0.80152222458E+02  0.00000000000E+00 0.  1.
         23    2    1    2    0    0  0.54871463527E+01  0.10145186208E+02 -0.85884793290E+01  0.92020408913E+02  0.90889823968E+02 0.  0.
         23    2    1    2    0    0  0.30590224714E+02  0.51676367051E+01  0.65017803452E+02  0.12159739430E+03  0.97959916382E+02 0.  0.
        -11    1    4    4    0    0 -0.17421978056E+02  0.11441999500E+02 -0.16634720829E+02  0.26667557237E+02  0.00000000000E+00 0. -1.
         11    1    4    4    0    0  0.48012202770E+02 -0.62743627946E+01  0.81652524281E+02  0.94929837063E+02  0.00000000000E+00 0.  1.
        -13    1    3    3    0    0 -0.40461047778E+02  0.19022416385E+02 -0.19303155149E+01  0.44751255071E+02  0.00000000000E+00 0. -1.
         13    1    3    3    0    0  0.45948194131E+02 -0.88772301776E+01 -0.66581638141E+01  0.47269153842E+02  0.00000000000E+00 0.  1.
         -3    1    1    2    0  502 -0.36077371067E+02 -0.15312822913E+02  0.24492406047E+03  0.24804002630E+03  0.00000000000E+00 0.  1.
<scales pt_clust_5="13000.00000" pt_clust_6="13000.00000" pt_clust_7="13000.00000" pt_clust_8="13000.00000" pt_clust_9="39.19259"></scales>
<clustering>
<clus scale="   39.193">  1  9  2 -1</clus>
<clus scale="   90.890">  7  8 -1 -1</clus>
<clus scale="   91.227">  2  7  1 -1</clus>
<clus scale="   97.960">  5  6 -1 -1</clus>
<clus scale="   39.193">  1  5  2 -1</clus>
</clustering>
</event>
<event>
 9    1  0.1315259E-005  0.1470187E+03  0.7546771E-02  0.1204449E+00
         -1   -1    0    0    0  501 -0.00000000000E+00  0.00000000000E+00  0.10811924880E+03  0.10811924880E+03  0.00000000000E+00 0.  1.
         21   -1    0    0  501  502  0.00000000000E+00 -0.00000000000E+00 -0.34700020712E+03  0.34700020712E+03  0.00000000000E+00 0. -1.
         23    2    1    2    0    0  0.13013600092E+02  0.10623983507E+03 -0.27392633579E+02  0.14454181480E+03  0.93197229083E+02 0.  0.
         23    2    1    2    0    0  0.44754531610E+02 -0.12857174429E+03 -0.13841099062E+03  0.21478532424E+03  0.91877481779E+02 0.  0.
        -13    1    3    3    0    0  0.34039725958E+02  0.10963391803E+03 -0.69288853653E+01  0.11500568846E+03  0.00000000000E+00 0.  1.
         13    1    3    3    0    0 -0.21026125866E+02 -0.33940829637E+01 -0.20463748214E+02  0.29536126338E+02  0.00000000000E+00 0. -1.
        -13    1    4    4    0    0  0.52650581939E+02 -0.87307699413E+02 -0.13946708332E+03  0.17275932822E+03  0.00000000000E+00 0. -1.
         13    1    4    4    0    0 -0.78960503286E+01 -0.41264044872E+02  0.10560927075E+01  0.42025996024E+02  0.00000000000E+00 0.  1.
         -1    1    1    2    0  502 -0.57768131702E+02  0.22331909218E+02 -0.73077334127E+02  0.95792316878E+02  0.00000000000E+00 0.  1.
<scales pt_clust_5="13000.00000" pt_clust_6="13000.00000" pt_clust_7="13000.00000" pt_clust_8="13000.00000" pt_clust_9="61.93441"></scales>
<clustering>
<clus scale="   61.934">  2  9  1 -1</clus>
<clus scale="   91.877">  7  8 -1 -1</clus>
<clus scale="   93.197">  5  6 -1 -1</clus>
<clus scale="  146.186">  2  7  1 -1</clus>
<clus scale="   61.934">  2  5  1 -1</clus>
</clustering>
</event>
<event>
 9    1  0.1315259E-005  0.2009353E+03  0.7546771E-02  0.1169973E+00
          1   -1    0    0  502    0 -0.00000000000E+00  0.00000000000E+00  0.79766387722E+03  0.79766387722E+03  0.00000000000E+00 0. -1.
         21   -1    0    0  501  502  0.00000000000E+00 -0.00000000000E+00 -0.13875164780E+03  0.13875164780E+03  0.00000000000E+00 0. -1.
         23    2    1    2    0    0 -0.52010606339E+02 -0.43228843687E+02  0.50555945734E+03  0.52033489275E+03  0.10287953927E+03 0.  0.
         23    2    1    2    0    0 -0.13969798679E+03 -0.42947749701E+02  0.10292957474E+03  0.19993001636E+03  0.89540367247E+02 0.  0.
        -13    1    4    4    0    0 -0.71110319693E+02 -0.66346540621E+02  0.72627339584E+02  0.12138068823E+03  0.00000000000E+00 0. -1.
         13    1    4    4    0    0 -0.68587667099E+02  0.23398790920E+02  0.30302235160E+02  0.78549328134E+02  0.00000000000E+00 0.  1.
        -13    1    3    3    0    0  0.30862008630E+02 -0.74060929168E+01  0.16411922483E+03  0.16715990472E+03  0.00000000000E+00 0.  1.
         13    1    3    3    0    0 -0.82872614970E+02 -0.35822750771E+02  0.34144023252E+03  0.35317498802E+03  0.00000000000E+00 0. -1.
          1    1    1    2  501    0  0.19170859313E+03  0.86176593389E+02  0.50423197332E+02  0.21615061591E+03  0.00000000000E+00 0. -1.
<scales pt_clust_5="13000.00000" pt_clust_6="13000.00000" pt_clust_7="13000.00000" pt_clust_8="13000.00000" pt_clust_9="179.88198"></scales>
<clustering>
<clus scale="   89.540">  5  6 -1 -1</clus>
<clus scale="  102.880">  7  8 -1 -1</clus>
<clus scale="  123.118">  1  7  2 -1</clus>
<clus scale="  179.882">  2  9  1 -1</clus>
<clus scale="  179.882">  2  5  1 -1</clus>
</clustering>
</event>
<event>
 9    1  0.1315259E-005  0.1176049E+03  0.7546771E-02  0.1248129E+00
          2   -1    0    0  502    0 -0.00000000000E+00  0.00000000000E+00  0.74248920496E+02  0.74248920496E+02  0.00000000000E+00 0. -1.
         21   -1    0    0  501  502  0.00000000000E+00 -0.00000000000E+00 -0.31987407551E+03  0.31987407551E+03  0.00000000000E+00 0.  1.
         23    2    1    2    0    0  0.79732350955E+02  0.36944429489E+01 -0.24404749114E+02  0.12651218464E+03  0.95072837262E+02 0.  0.
         23    2    1    2    0    0 -0.48407655715E+02 -0.18961062255E+02 -0.11694726116E+03  0.15766903173E+03  0.92087125370E+02 0.  0.
        -11    1    4    4    0    0  0.13678248500E+02 -0.35304538697E+02 -0.24433718604E+02  0.45061197714E+02  0.00000000000E+00 0. -1.
         11    1    4    4    0    0 -0.62085904215E+02  0.16343476442E+02 -0.92513542558E+02  0.11260783401E+03  0.00000000000E+00 0.  1.
        -11    1    3    3    0    0 -0.14243418982E+02  0.22160993425E+02  0.39312954255E+01  0.26635309227E+02  0.00000000000E+00 0.  1.
         11    1    3    3    0    0  0.93975769937E+02 -0.18466550476E+02 -0.28336044540E+02  0.99876875411E+02  0.00000000000E+00 0. -1.
          2    1    1    2  501    0 -0.31324695240E+02  0.15266619306E+02 -0.10427314473E+03  0.10994177964E+03  0.00000000000E+00 0. -1.
<scales pt_clust_5="13000.00000" pt_clust_6="13000.00000" pt_clust_7="13000.00000" pt_clust_8="13000.00000" pt_clust_9="34.84690"></scales>
<clustering>
<clus scale="   34.847">  2  9  1 -1</clus>
<clus scale="   92.087">  5  6 -1 -1</clus>
<clus scale="   95.073">  7  8 -1 -1</clus>
<clus scale="  115.205">  2  5  1 -1</clus>
<clus scale="   34.847">  2  5  1 -1</clus>
</clustering>
</event>
<event>
 9    1  0.1315259E-005  0.9537468E+02  0.7546771E-02  0.1290507E+00
         21   -1    0    0  501  502  0.00000000000E+00  0.00000000000E+00  0.89397245176E+02  0.89397245176E+02  0.00000000000E+00 0.  1.
          3   -1    0    0  502    0 -0.00000000000E+00 -0.00000000000E+00 -0.21754973627E+03  0.21754973627E+03  0.00000000000E+00 0. -1.
         23    2    1    2    0    0 -0.24427741463E+02  0.16859058190E+02 -0.15022248382E+03  0.17893534965E+03  0.92574955101E+02 0.  0.
         23    2    1    2    0    0 -0.23949311327E+01  0.32521936946E+01  0.19540494337E+02  0.94391450659E+02  0.92258346938E+02 0.  0.
        -11    1    3    3    0    0 -0.24584068243E+02 -0.32319746079E+02 -0.10316582699E+03  0.11086987985E+03  0.00000000000E+00 0. -1.
         11    1    3    3    0    0  0.15632678020E+00  0.49178804269E+02 -0.47056656827E+02  0.68065469800E+02  0.00000000000E+00 0.  1.
        -11    1    4    4    0    0  0.31428081693E+02 -0.27413617748E+02  0.24661273483E+02  0.48450068800E+02  0.00000000000E+00 0.  1.
         11    1    4    4    0    0 -0.33823012825E+02  0.30665811443E+02 -0.51207791464E+01  0.45941381859E+02  0.00000000000E+00 0. -1.
          3    1    1    2  501    0  0.26822672596E+02 -0.20111251885E+02  0.25294983936E+01  0.33620181137E+02  0.00000000000E+00 0. -1.
<scales pt_clust_5="13000.00000" pt_clust_6="13000.00000" pt_clust_7="13000.00000" pt_clust_8="13000.00000" pt_clust_9="33.52489"></scales>
<clustering>
<clus scale="   33.525">  1  9  2 -1</clus>
<clus scale="   92.258">  7  8 -1 -1</clus>
<clus scale="   92.575">  5  6 -1 -1</clus>
<clus scale="   95.067">  1  7  2 -1</clus>
<clus scale="   33.525">  1  5  2 -1</clus>
</clustering>
</event>
<event>
 9    1  0.1315259E-005  0.2149615E+03  0.7546771E-02  0.1137750E+00
          2   -1    0    0  502    0 -0.00000000000E+00  0.00000000000E+00  0.10640008651E+04  0.10640008651E+04  0.00000000000E+00 0. -1.
         21   -1    0    0  501  502  0.00000000000E+00 -0.00000000000E+00 -0.11762596836E+03  0.11762596836E+03  0.00000000000E+00 0. -1.
         23    2    1    2    0    0 -0.55857834142E+02  0.20287608505E+03  0.66737618476E+03  0.70547407590E+03  0.89576203686E+02 0.  0.
         23    2    1    2    0    0  0.28757625613E+02 -0.17236809353E+03  0.34583129530E+03  0.39784724668E+03  0.90251793245E+02 0.  0.
        -11    1    3    3    0    0  0.48511884859E+00  0.26354820394E+02  0.22991897585E+02  0.34977696506E+02  0.00000000000E+00 0.  1.
         11    1    3    3    0    0 -0.56342952991E+02  0.17652126465E+03  0.64438428717E+03  0.67049637939E+03  0.00000000000E+00 0. -1.
        -11    1    4    4    0    0  0.36461904911E+02 -0.71591342061E+02  0.79689428613E+02  0.11316004507E+03  0.00000000000E+00 0.  1.
         11    1    4    4    0    0 -0.77042792984E+01 -0.10077675147E+03  0.26614186669E+03  0.28468720161E+03  0.00000000000E+00 0. -1.
          2    1    1    2  501    0  0.27100208529E+02 -0.30507991517E+02 -0.66832583288E+02  0.78305510902E+02  0.00000000000E+00 0. -1.
<scales pt_clust_5="13000.00000" pt_clust_6="13000.00000" pt_clust_7="13000.00000" pt_clust_8="13000.00000" pt_clust_9="40.80636"></scales>
<clustering>
<clus scale="   40.806">  2  9  1 -1</clus>
<clus scale="   89.576">  5  6 -1 -1</clus>
<clus scale="   90.252">  7  8 -1 -1</clus>
<clus scale="  214.679">  1  5  2 -1</clus>
<clus scale="   40.806">  2  5  1 -1</clus>
</clustering>
</event>
<event>
 9    1  0.1315259E-005  0.9499003E+02  0.7546771E-02  0.1291462E+00
         21   -1    0    0  501  502  0.00000000000E+00  0.00000000000E+00  0.11719950544E+03  0.11719950544E+03  0.00000000000E+00 0.  1.
          1   -1    0    0  502    0 -0.00000000000E+00 -0.00000000000E+00 -0.23155415496E+03  0.23155415496E+03  0.00000000000E+00 0. -1.
         23    2    1    2    0    0 -0.10339925198E+02  0.12748564469E+02 -0.16274311515E+03  0.18840149038E+03  0.93489893036E+02 0.  0.
         23    2    1    2    0    0 -0.38408151983E+02 -0.18351270696E+02  0.39649541797E+02  0.11051108120E+03  0.93960936712E+02 0.  0.
        -11    1    3    3    0    0 -0.45947279712E+01 -0.40782468809E+02 -0.73149283771E+02  0.83875735487E+02  0.00000000000E+00 0.  1.
         11    1    3    3    0    0 -0.57451972266E+01  0.53531033278E+02 -0.89593831376E+02  0.10452575489E+03  0.00000000000E+00 0. -1.
        -13    1    4    4    0    0 -0.54980527354E+02 -0.28586442635E+01 -0.99710079541E+01  0.55950435519E+02  0.00000000000E+00 0.  1.
         13    1    4    4    0    0  0.16572375371E+02 -0.15492626433E+02  0.49620549751E+02  0.54560645678E+02  0.00000000000E+00 0. -1.
          1    1    1    2  501    0  0.48748077181E+02  0.56027062266E+01  0.87389238303E+01  0.49841088828E+02  0.00000000000E+00 0. -1.
<scales pt_clust_5="13000.00000" pt_clust_6="13000.00000" pt_clust_7="13000.00000" pt_clust_8="13000.00000" pt_clust_9="49.06899"></scales>
<clustering>
<clus scale="   49.069">  1  9  2 -1</clus>
<clus scale="   93.490">  5  6 -1 -1</clus>
<clus scale="   93.961">  7  8 -1 -1</clus>
<clus scale="   94.524">  2  5  1 -1</clus>
<clus scale="   49.069">  1  5  2 -1</clus>
</clustering>
</event>
<event>
 9    1  0.1315259E-005  0.1661439E+03  0.7546771E-02  0.1182160E+00
         21   -1    0    0  501  502  0.00000000000E+00  0.00000000000E+00  0.17828699613E+03  0.17828699613E+03  0.00000000000E+00 0. -1.
          1   -1    0    0  502    0 -0.00000000000E+00 -0.00000000000E+00 -0.36302222880E+03  0.36302222880E+03  0.00000000000E+00 0. -1.
         23    2    1    2    0    0  0.12195112872E+03 -0.10227128423E+03 -0.21527420475E+03  0.28231246430E+03  0.89587113448E+02 0.  0.
         23    2    1    2    0    0 -0.66687084198E+02  0.24626325641E+02  0.90141412841E+02  0.14658988736E+03  0.91156446041E+02 0.  0.
        -11    1    3    3    0    0  0.38667272595E+02 -0.38378676820E+02 -0.15503980583E+02  0.56643218644E+02  0.00000000000E+00 0.  1.
         11    1    3    3    0    0  0.83283856128E+02 -0.63892607409E+02 -0.19977022417E+03  0.22566924566E+03  0.00000000000E+00 0. -1.
        -13    1    4    4    0    0 -0.33933372797E+02  0.30367767481E+02 -0.49937140060E+01  0.45810613079E+02  0.00000000000E+00 0.  1.
         13    1    4    4    0    0 -0.32753711401E+02 -0.57414418396E+01  0.95135126847E+02  0.10077927428E+03  0.00000000000E+00 0. -1.
          1    1    1    2  501    0 -0.55264044526E+02  0.77644958588E+02 -0.59602440766E+02  0.11240687326E+03  0.00000000000E+00 0. -1.
<scales pt_clust_5="13000.00000" pt_clust_6="13000.00000" pt_clust_7="13000.00000" pt_clust_8="13000.00000" pt_clust_9="95.30406"></scales>
<clustering>
<clus scale="   89.587">  5  6 -1 -1</clus>
<clus scale="   91.156">  7  8 -1 -1</clus>
<clus scale="   95.304">  1  9  2 -1</clus>
<clus scale="  165.288">  2  5  1 -1</clus>
<clus scale="   95.304">  1  5  2 -1</clus>
</clustering>
</event>
<event>
 9    1  0.1315259E-005  0.1831412E+03  0.7546771E-02  0.1165581E+00
          1   -1    0    0  502    0 -0.00000000000E+00  0.00000000000E+00  0.35883148644E+03  0.35883148644E+03  0.00000000000E+00 0. -1.
         21   -1    0    0  501  502  0.00000000000E+00 -0.00000000000E+00 -0.26021660950E+03  0.26021660950E+03  0.00000000000E+00 0.  1.
         23    2    1    2    0    0  0.13485173550E+03  0.26791553412E+02  0.10781167571E+03  0.19723431231E+03  0.91516329878E+02 0.  0.
         23    2    1    2    0    0 -0.16432425891E+03 -0.60112348284E+02  0.15392397293E+03  0.25273601701E+03  0.97810778385E+02 0.  0.
        -11    1    3    3    0    0  0.63694735033E+02  0.34682459405E+02  0.60030292301E+01  0.72773131177E+02  0.00000000000E+00 0. -1.
         11    1    3    3    0    0  0.71157000463E+02 -0.78909059936E+01  0.10180864648E+03  0.12446118114E+03  0.00000000000E+00 0.  1.
        -13    1    4    4    0    0 -0.10184658596E+03 -0.59230320183E+02  0.14914973409E+03  0.19006998995E+03  0.00000000000E+00 0. -1.
         13    1    4    4    0    0 -0.62477672947E+02 -0.88202810116E+00  0.47742388392E+01  0.62666027055E+02  0.00000000000E+00 0.  1.
          1    1    1    2  501    0  0.29472523410E+02  0.33320794873E+02 -0.16312077169E+03  0.16907776662E+03  0.00000000000E+00 0. -1.
<scales pt_clust_5="13000.00000" pt_clust_6="13000.00000" pt_clust_7="13000.00000" pt_clust_8="13000.00000" pt_clust_9="44.48489"></scales>
<clustering>
<clus scale="   44.485">  2  9  1 -1</clus>
<clus scale="   91.516">  5  6 -1 -1</clus>
<clus scale="   97.811">  7  8 -1 -1</clus>
<clus scale="  179.858">  1  5  2 -1</clus>
<clus scale="   44.485">  2  5  1 -1</clus>
</clustering>
</event>
<event>
 9    1  0.1315259E-005  0.2016775E+03  0.7546771E-02  0.1148732E+00
         21   -1    0    0  501  502  0.00000000000E+00  0.00000000000E+00  0.18207981014E+03  0.18207981014E+03  0.00000000000E+00 0.  1.
         -3   -1    0    0    0  501 -0.00000000000E+00 -0.00000000000E+00 -0.10301480854E+04  0.10301480854E+04  0.00000000000E+00 0.  1.
         23    2    1    2    0    0  0.24186546230E+02 -0.18083284366E+03 -0.91903880277E+03  0.94158909949E+03  0.93124674007E+02 0.  0.
         23    2    1    2    0    0 -0.26754630253E+02  0.15119281011E+03 -0.16550772462E+02  0.17819906120E+03  0.88915135229E+02 0.  0.
        -11    1    4    4    0    0  0.42361720155E+01  0.51691712328E+02 -0.46613776226E+02  0.69733940164E+02  0.00000000000E+00 0.  1.
         11    1    4    4    0    0 -0.30990802268E+02  0.99501097784E+02  0.30063003763E+02  0.10846512103E+03  0.00000000000E+00 0. -1.
        -13    1    3    3    0    0 -0.13899316200E+02 -0.53740458922E+02 -0.12824605124E+03  0.13974361372E+03  0.00000000000E+00 0. -1.
         13    1    3    3    0    0  0.38085862430E+02 -0.12709238473E+03 -0.79079275153E+03  0.80184548577E+03  0.00000000000E+00 0.  1.
         -3    1    1    2    0  502  0.25680840223E+01  0.29640033544E+02  0.87521299940E+02  0.92439734894E+02  0.00000000000E+00 0.  1.
<scales pt_clust_5="13000.00000" pt_clust_6="13000.00000" pt_clust_7="13000.00000" pt_clust_8="13000.00000" pt_clust_9="29.75108"></scales>
<clustering>
<clus scale="   29.751">  1  9  2 -1</clus>
<clus scale="   88.915">  5  6 -1 -1</clus>
<clus scale="   93.125">  7  8 -1 -1</clus>
<clus scale="  199.769">  1  5  2 -1</clus>
<clus scale="   29.751">  1  5  2 -1</clus>
</clustering>
</event>
<event>
 9    1  0.1315259E-005  0.1965759E+03  0.7546771E-02  0.1153114E+00
         21   -1    0    0  501  502  0.00000000000E+00  0.00000000000E+00  0.10125536355E+03  0.10125536355E+03  0.00000000000E+00 0. -1.
          1   -1    0    0  502    0 -0.00000000000E+00 -0.00000000000E+00 -0.69451616214E+03  0.69451616214E+03  0.00000000000E+00 0. -1.
         23    2    1    2    0    0  0.56561258614E+02  0.17053527432E+03 -0.31534866675E+03  0.37527044682E+03  0.95402677507E+02 0.  0.
         23    2    1    2    0    0 -0.13343379131E+03 -0.11561574377E+03 -0.25509367889E+03  0.32330939756E+03  0.91019803732E+02 0.  0.
        -13    1    3    3    0    0 -0.22755401397E+02  0.77027945197E+02 -0.11219557137E+03  0.13798173382E+03  0.00000000000E+00 0. -1.
         13    1    3    3    0    0  0.79316660012E+02  0.93507329126E+02 -0.20315309538E+03  0.23728871300E+03  0.00000000000E+00 0.  1.
        -13    1    4    4    0    0 -0.11699410191E+03 -0.52471472394E+02 -0.13219753948E+03  0.18416586204E+03  0.00000000000E+00 0. -1.
         13    1    4    4    0    0 -0.16439689398E+02 -0.63144271376E+02 -0.12289613941E+03  0.13914353552E+03  0.00000000000E+00 0.  1.
          1    1    1    2  501    0  0.76872532694E+02 -0.54919530553E+02 -0.22818452957E+02  0.97191681302E+02  0.00000000000E+00 0. -1.
<scales pt_clust_5="13000.00000" pt_clust_6="13000.00000" pt_clust_7="13000.00000" pt_clust_8="13000.00000" pt_clust_9="94.47508"></scales>
<clustering>
<clus scale="   91.020">  7  8 -1 -1</clus>
<clus scale="   94.475">  1  9  2 -1</clus>
<clus scale="   95.403">  5  6 -1 -1</clus>
<clus scale="  194.487">  1  7  2 -1</clus>
<clus scale="   94.475">  1  5  2 -1</clus>
</clustering>
</event>
<event>
 9    1  0.1315259E-005  0.1056404E+03  0.7546771E-02  0.1269506E+00
         21   -1    0    0  501  502  0.00000000000E+00  0.00000000000E+00  0.10081357610E+03  0.10081357610E+03  0.00000000000E+00 0. -1.
          1   -1    0    0  502    0 -0.00000000000E+00 -0.00000000000E+00 -0.38875359931E+03  0.38875359931E+03  0.00000000000E+00 0. -1.
         23    2    1    2    0    0 -0.46500075958E+02  0.32762161683E+02 -0.24730319648E+03  0.27088488324E+03  0.94784664782E+02 0.  0.
         23    2    1    2    0    0 -0.34560082175E+02 -0.45476352456E+02 -0.69474771605E+02  0.13171087763E+03  0.96221169619E+02 0.  0.
        -11    1    4    4    0    0  0.23726286969E+02 -0.31232836424E+02  0.89552217637E+00  0.39233005549E+02  0.00000000000E+00 0.  1.
         11    1    4    4    0    0 -0.58286369144E+02 -0.14243516031E+02 -0.70370293781E+02  0.92477872077E+02  0.00000000000E+00 0. -1.
        -13    1    3    3    0    0 -0.60775602815E+02  0.10250931765E+02 -0.23221422869E+03  0.24025445575E+03  0.00000000000E+00 0. -1.
         13    1    3    3    0    0  0.14275526858E+02  0.22511229918E+02 -0.15088967783E+02  0.30630427490E+02  0.00000000000E+00 0.  1.
          1    1    1    2  501    0  0.81060158133E+02  0.12714190772E+02  0.28837944876E+02  0.86971414547E+02  0.00000000000E+00 0. -1.
<scales pt_clust_5="13000.00000" pt_clust_6="13000.00000" pt_clust_7="13000.00000" pt_clust_8="13000.00000" pt_clust_9="82.05120"></scales>
<clustering>
<clus scale="   82.051">  1  9  2 -1</clus>
<clus scale="   94.785">  7  8 -1 -1</clus>
<clus scale="   96.221">  5  6 -1 -1</clus>
<clus scale="  104.334">  2  7  1 -1</clus>
<clus scale="   82.051">  1  5  2 -1</clus>
</clustering>
</event>
<event>
 9    1  0.1315259E-005  0.1265220E+03  0.7546771E-02  0.1239482E+00
          2   -1    0    0  502    0 -0.00000000000E+00  0.00000000000E+00  0.15672735980E+03  0.15672735980E+03  0.00000000000E+00 0. -1.
         21   -1    0    0  501  502  0.00000000000E+00 -0.00000000000E+00 -0.20479338420E+03  0.20479338420E+03  0.00000000000E+00 0.  1.
         23    2    1    2    0    0  0.46388472510E+02 -0.11242864611E+02  0.93651069716E+02  0.14418355701E+03  0.98691858156E+02 0.  0.
         23    2    1    2    0    0 -0.45325307175E+02  0.41703302373E+02 -0.99385038314E+02  0.16517425440E+03  0.11666876006E+03 0.  0.
        -11    1    3    3    0    0 -0.30818991617E+02 -0.35138143642E+01  0.18250596527E+02  0.35989462476E+02  0.00000000000E+00 0. -1.
         11    1    3    3    0    0  0.77207464127E+02 -0.77290502467E+01  0.75400473189E+02  0.10819409453E+03  0.00000000000E+00 0.  1.
        -11    1    4    4    0    0 -0.39449317486E+02  0.64155064978E+02 -0.11480994616E+03  0.13730784664E+03  0.00000000000E+00 0.  1.
         11    1    4    4    0    0 -0.58759896888E+01 -0.22451762604E+02  0.15424907847E+02  0.27866407751E+02  0.00000000000E+00 0. -1.
          2    1    1    2  501    0 -0.10631653349E+01 -0.30460437762E+02 -0.42332055799E+02  0.52162932600E+02  0.00000000000E+00 0. -1.
<scales pt_clust_5="13000.00000" pt_clust_6="13000.00000" pt_clust_7="13000.00000" pt_clust_8="13000.00000" pt_clust_9="30.47899"></scales>
<clustering>
<clus scale="   30.479">  2  9  1 -1</clus>
<clus scale="   98.692">  5  6 -1 -1</clus>
<clus scale="  110.165">  1  5  2 -1</clus>
<clus scale="  116.669">  7  8 -1 -1</clus>
<clus scale="   30.479">  2  5  1 -1</clus>
</clustering>
</event>
<event>
 9    1  0.1315259E-005  0.1082332E+03  0.7546771E-02  0.1263989E+00
         -1   -1    0    0    0  501 -0.00000000000E+00  0.00000000000E+00  0.52315800169E+03  0.52315800169E+03  0.00000000000E+00 0.  1.
         21   -1    0    0  501  502  0.00000000000E+00 -0.00000000000E+00 -0.84689285789E+02  0.84689285789E+02  0.00000000000E+00 0.  1.
         23    2    1    2    0    0 -0.54378810403E+02  0.12261030917E+02  0.34193806754E+03  0.35800842889E+03  0.90227519205E+02 0.  0.
         23    2    1    2    0    0  0.71953231887E+02  0.21606452960E+02  0.14592063453E+03  0.18742702086E+03  0.90509392760E+02 0.  0.
        -11    1    3    3    0    0  0.64732285377E+01  0.36250453016E+02  0.17242364911E+03  0.17631197578E+03  0.00000000000E+00 0.  1.
         11    1    3    3    0    0 -0.60852038941E+02 -0.23989422098E+02  0.16951441843E+03  0.18169645311E+03  0.00000000000E+00 0. -1.
        -13    1    4    4    0    0  0.31764793238E+02 -0.30177842150E+02  0.26516142153E+02  0.51213377558E+02  0.00000000000E+00 0. -1.
         13    1    4    4    0    0  0.40188438648E+02  0.51784295110E+02  0.11940449238E+03  0.13621364330E+03  0.00000000000E+00 0.  1.
         -1    1    1    2    0  502 -0.17574421483E+02 -0.33867483877E+02 -0.49389986173E+02  0.62411837729E+02  0.00000000000E+00 0.  1.
<scales pt_clust_5="13000.00000" pt_clust_6="13000.00000" pt_clust_7="13000.00000" pt_clust_8="13000.00000" pt_clust_9="38.15582"></scales>
<clustering>
<clus scale="   38.156">  2  9  1 -1</clus>
<clus scale="   90.228">  5  6 -1 -1</clus>
<clus scale="   90.509">  7  8 -1 -1</clus>
<clus scale="  107.998">  1  5  2 -1</clus>
<clus scale="   38.156">  2  5  1 -1</clus>
</clustering>
</event>
<event>
 9    1  0.1315259E-005  0.1249541E+03  0.7546771E-02  0.1235713E+00
         21   -1    0    0  501  502  0.00000000000E+00  0.00000000000E+00  0.17049322815E+03  0.17049322815E+03  0.00000000000E+00 0. -1.
          1   -1    0    0  502    0 -0.00000000000E+00 -0.00000000000E+00 -0.22040389362E+03  0.22040389362E+03  0.00000000000E+00 0. -1.
         23    2    1    2    0    0  0.24246713985E+02 -0.77208858737E+02 -0.14343136717E+03  0.18835679009E+03  0.91414508024E+02 0.  0.
         23    2    1    2    0    0 -0.35614528486E+02  0.95422990236E+02  0.34672350467E+02  0.13989761274E+03  0.89416041387E+02 0.  0.
        -11    1    4    4    0    0 -0.36349803309E+02  0.25166278353E+02 -0.22229548335E+02  0.49485377496E+02  0.00000000000E+00 0. -1.
         11    1    4    4    0    0  0.73527482351E+00  0.70256711883E+02  0.56901898802E+02  0.90412235239E+02  0.00000000000E+00 0.  1.
        -11    1    3    3    0    0 -0.25743742018E+02 -0.44433648748E+02 -0.10611763387E+03  0.11788995552E+03  0.00000000000E+00 0.  1.
         11    1    3    3    0    0  0.49990456003E+02 -0.32775209989E+02 -0.37313733298E+02  0.70466834567E+02  0.00000000000E+00 0. -1.
          1    1    1    2  501    0  0.11367814501E+02 -0.18214131499E+02  0.58848351238E+02  0.62642718940E+02  0.00000000000E+00 0. -1.
<scales pt_clust_5="13000.00000" pt_clust_6="13000.00000" pt_clust_7="13000.00000" pt_clust_8="13000.00000" pt_clust_9="21.47049"></scales>
<clustering>
<clus scale="   21.470">  1  9  2 -1</clus>
<clus scale="   89.416">  5  6 -1 -1</clus>
<clus scale="   91.415">  7  8 -1 -1</clus>
<clus scale="  123.500">  1  5  2 -1</clus>
<clus scale="   21.470">  1  5  2 -1</clus>
</clustering>
</event>
<event>
 9    1  0.1315259E-005  0.1031281E+03  0.7546771E-02  0.1276085E+00
         21   -1    0    0  501  502  0.00000000000E+00  0.00000000000E+00  0.15831357395E+03  0.15831357395E+03  0.00000000000E+00 0. -1.
          1   -1    0    0  502    0 -0.00000000000E+00 -0.00000000000E+00 -0.35687401647E+03  0.35687401647E+03  0.00000000000E+00 0. -1.
         23    2    1    2    0    0 -0.67867810055E+02 -0.46763775131E+02 -0.21703637239E+03  0.24981971532E+03  0.92261654625E+02 0.  0.
         23    2    1    2    0    0  0.13077318197E+02 -0.93352211669E+01 -0.93286793456E+02  0.12883948351E+03  0.87401510705E+02 0.  0.
        -11    1    3    3    0    0 -0.39774299448E+01 -0.36175847362E+02 -0.15816701777E+03  0.16230008438E+03  0.00000000000E+00 0.  1.
         11    1    3    3    0    0 -0.63890380110E+02 -0.10587927769E+02 -0.58869354625E+02  0.87519630935E+02  0.00000000000E+00 0. -1.
        -13    1    4    4    0    0  0.13546727582E+02  0.32890682183E+02 -0.12539618528E+02  0.37716744763E+02  0.00000000000E+00 0.  1.
         13    1    4    4    0    0 -0.46940938567E+00 -0.42225903350E+02 -0.80747174928E+02  0.91122738752E+02  0.00000000000E+00 0. -1.
          1    1    1    2  501    0  0.54790491858E+02  0.56098996298E+02  0.11176272333E+03  0.13652839159E+03  0.00000000000E+00 0. -1.
<scales pt_clust_5="13000.00000" pt_clust_6="13000.00000" pt_clust_7="13000.00000" pt_clust_8="13000.00000" pt_clust_9="78.41617"></scales>
<clustering>
<clus scale="   78.416">  1  9  2 -1</clus>
<clus scale="   87.402">  7  8 -1 -1</clus>
<clus scale="   92.262">  5  6 -1 -1</clus>
<clus scale="   98.804">  1  7  2 -1</clus>
<clus scale="   78.416">  1  5  2 -1</clus>
</clustering>
</event>
<event>
 9    1  0.1315259E-005  0.1450756E+03  0.7546771E-02  0.1206794E+00
          2   -1    0    0  502    0 -0.00000000000E+00  0.00000000000E+00  0.13878135323E+03  0.13878135323E+03  0.00000000000E+00 0. -1.
         21   -1    0    0  501  502  0.00000000000E+00 -0.00000000000E+00 -0.31705394177E+03  0.31705394177E+03  0.00000000000E+00 0. -1.
         23    2    1    2    0    0  0.66609353207E+01  0.12575540054E+03  0.38816297080E+02  0.15994571845E+03  0.90648436871E+02 0.  0.
         23    2    1    2    0    0  0.62688361654E+01 -0.88870302403E+02 -0.73850422264E+02  0.14741416835E+03  0.91322632496E+02 0.  0.
        -11    1    4    4    0    0  0.36266518318E+02 -0.30532086393E+01 -0.16786579709E+02  0.40079567016E+02  0.00000000000E+00 0.  1.
         11    1    4    4    0    0 -0.29997682152E+02 -0.85817093764E+02 -0.57063842555E+02  0.10733460133E+03  0.00000000000E+00 0. -1.
        -13    1    3    3    0    0  0.35731931117E+02  0.54994180211E+02 -0.13901530449E+02  0.67040161898E+02  0.00000000000E+00 0.  1.
         13    1    3    3    0    0 -0.29070995797E+02  0.70761220331E+02  0.52717827528E+02  0.92905556554E+02  0.00000000000E+00 0. -1.
          2    1    1    2  501    0 -0.12929771486E+02 -0.36885098139E+02 -0.14323846335E+03  0.14847540820E+03  0.00000000000E+00 0. -1.
<scales pt_clust_5="13000.00000" pt_clust_6="13000.00000" pt_clust_7="13000.00000" pt_clust_8="13000.00000" pt_clust_9="39.08567"></scales>
<clustering>
<clus scale="   39.086">  2  9  1 -1</clus>
<clus scale="   90.648">  7  8 -1 -1</clus>
<clus scale="   91.323">  5  6 -1 -1</clus>
<clus scale="  144.652">  1  7  2 -1</clus>
<clus scale="   39.086">  2  5  1 -1</clus>
</clustering>
</event>
<event>
 9    1  0.1315259E-005  0.9368047E+02  0.7546771E-02  0.1294996E+00
          4   -1    0    0  502    0 -0.00000000000E+00  0.00000000000E+00  0.24745625315E+03  0.24745625315E+03  0.00000000000E+00 0. -1.
         21   -1    0    0  501  502  0.00000000000E+00 -0.00000000000E+00 -0.44111468187E+03  0.44111468187E+03  0.00000000000E+00 0. -1.
         23    2    1    2    0    0 -0.36583166470E+02  0.11458608175E+01  0.14099611045E+03  0.17212997552E+03  0.91701604378E+02 0.  0.
         23    2    1    2    0    0 -0.22787832868E+02  0.34097235700E+02  0.59943692916E+02  0.11584795384E+03  0.90252951637E+02 0.  0.
        -11    1    3    3    0    0  0.19837649227E+02 -0.14689171062E+02  0.93484783055E+02  0.96688720832E+02  0.00000000000E+00 0.  1.
         11    1    3    3    0    0 -0.56420815697E+02  0.15835031879E+02  0.47511327396E+02  0.75441254692E+02  0.00000000000E+00 0. -1.
        -13    1    4    4    0    0  0.21689185140E+01  0.33830728279E+02 -0.14842509700E+02  0.37007059835E+02  0.00000000000E+00 0. -1.
         13    1    4    4    0    0 -0.24956751382E+02  0.26650742090E+00  0.74786202616E+02  0.78840894005E+02  0.00000000000E+00 0.  1.
          4    1    1    2  501    0  0.59370999338E+02 -0.35243096518E+02 -0.39459823209E+03  0.40059300566E+03  0.00000000000E+00 0. -1.
<scales pt_clust_5="13000.00000" pt_clust_6="13000.00000" pt_clust_7="13000.00000" pt_clust_8="13000.00000" pt_clust_9="69.04340"></scales>
<clustering>
<clus scale="   69.043">  2  9  1 -1</clus>
<clus scale="   90.253">  7  8 -1 -1</clus>
<clus scale="   91.702">  5  6 -1 -1</clus>
<clus scale="   92.263">  2  7  1 -1</clus>
<clus scale="   69.043">  2  5  1 -1</clus>
</clustering>
</event>
<event>
 9    1  0.1315259E-005  0.1692755E+03  0.7546771E-02  0.1203992E+00
         -1   -1    0    0    0  501 -0.00000000000E+00  0.00000000000E+00  0.20637623725E+03  0.20637623725E+03  0.00000000000E+00 0.  1.
         21   -1    0    0  501  502  0.00000000000E+00 -0.00000000000E+00 -0.48321770841E+03  0.48321770841E+03  0.00000000000E+00 0.  1.
         23    2    1    2    0    0  0.23261603262E+02  0.19747101587E+02  0.51726090213E+02  0.10968304651E+03  0.91780891664E+02 0.  0.
         23    2    1    2    0    0  0.48758468876E+02 -0.13875311430E+03  0.45112985379E+02  0.18117982077E+03  0.95713797272E+02 0.  0.
        -11    1    3    3    0    0  0.52578281827E+02 -0.47183190240E+01  0.11128412156E+02  0.53949789726E+02  0.00000000000E+00 0.  1.
         11    1    3    3    0    0 -0.29316678565E+02  0.24465420610E+02  0.40597678057E+02  0.55733256780E+02  0.00000000000E+00 0. -1.
        -13    1    4    4    0    0  0.25585012487E+02 -0.88613707441E+02  0.74545638051E+02  0.11859188068E+03  0.00000000000E+00 0.  1.
         13    1    4    4    0    0  0.23173456389E+02 -0.50139406860E+02 -0.29432652672E+02  0.62587940089E+02  0.00000000000E+00 0. -1.
         -1    1    1    2    0  502 -0.72020072138E+02  0.11900601271E+03 -0.37368054675E+03  0.39873107839E+03  0.00000000000E+00 0.  1.
<scales pt_clust_5="13000.00000" pt_clust_6="13000.00000" pt_clust_7="13000.00000" pt_clust_8="13000.00000" pt_clust_9="139.61757"></scales>
<clustering>
<clus scale="   91.781">  5  6 -1 -1</clus>
<clus scale="   95.714">  7  8 -1 -1</clus>
<clus scale="   96.720">  1  5  2 -1</clus>
<clus scale="  139.618">  2  9  1 -1</clus>
<clus scale="  139.618">  2  5  1 -1</clus>
</clustering>
</event>
<event>
 9    1  0.1315259E-005  0.1133237E+03  0.7546771E-02  0.1254883E+00
         21   -1    0    0  501  502  0.00000000000E+00  0.00000000000E+00  0.24280297562E+02  0.24280297562E+02  0.00000000000E+00 0.  1.
          3   -1    0    0  502    0 -0.00000000000E+00 -0.00000000000E+00 -0.93707341410E+03  0.93707341410E+03  0.00000000000E+00 0. -1.
         23    2    1    2    0    0  0.25866107892E+02 -0.51655286665E+02 -0.47128491244E+03  0.48386028980E+03  0.93134242773E+02 0.  0.
         23    2    1    2    0    0  0.15855593391E+02  0.86269466385E+02 -0.32359231466E+03  0.34771284250E+03  0.92186843224E+02 0.  0.
        -13    1    4    4    0    0 -0.24241716135E+02  0.76402245101E+02 -0.15954914288E+03  0.17855221324E+03  0.00000000000E+00 0.  1.
         13    1    4    4    0    0  0.40097309526E+02  0.98672212836E+01 -0.16404317178E+03  0.16916062926E+03  0.00000000000E+00 0. -1.
        -13    1    3    3    0    0  0.58764972808E+02 -0.15646726427E+02 -0.26465177284E+03  0.27154871192E+03  0.00000000000E+00 0.  1.
         13    1    3    3    0    0 -0.32898864915E+02 -0.36008560239E+02 -0.20663313960E+03  0.21231157788E+03  0.00000000000E+00 0. -1.
          3    1    1    2  501    0 -0.41721701283E+02 -0.34614179720E+02 -0.11791588944E+03  0.12978057936E+03  0.00000000000E+00 0. -1.
<scales pt_clust_5="13000.00000" pt_clust_6="13000.00000" pt_clust_7="13000.00000" pt_clust_8="13000.00000" pt_clust_9="54.21109"></scales>
<clustering>
<clus scale="   54.211">  1  9  2 -1</clus>
<clus scale="   92.187">  5  6 -1 -1</clus>
<clus scale="   93.134">  7  8 -1 -1</clus>
<clus scale="  112.546">  1  5  2 -1</clus>
<clus scale="   54.211">  1  5  2 -1</clus>
</clustering>
</event>
<event>
 9    1  0.1315259E-005  0.9666971E+02  0.7546771E-02  0.1288117E+00
          1   -1    0    0  502    0 -0.00000000000E+00  0.00000000000E+00  0.19952791431E+03  0.19952791431E+03  0.00000000000E+00 0. -1.
         21   -1    0    0  501  502  0.00000000000E+00 -0.00000000000E+00 -0.11312754714E+03  0.11312754714E+03  0.00000000000E+00 0. -1.
         23    2    1    2    0    0  0.70241527668E+00 -0.32802548576E+01  0.78945053405E+02  0.12426301213E+03  0.95904751015E+02 0.  0.
         23    2    1    2    0    0  0.22399504316E+02 -0.18465318617E+02  0.67923312489E+02  0.12010667098E+03  0.94706548083E+02 0.  0.
        -11    1    4    4    0    0 -0.83639199136E+01 -0.44747517785E+02  0.65245271924E+02  0.79556527153E+02  0.00000000000E+00 0. -1.
         11    1    4    4    0    0  0.30763424229E+02  0.26282199167E+02  0.26780405657E+01  0.40550143830E+02  0.00000000000E+00 0.  1.
        -13    1    3    3    0    0 -0.17770082314E+02  0.21750407493E+02 -0.10172332764E+02  0.29871933406E+02  0.00000000000E+00 0.  1.
         13    1    3    3    0    0  0.18472497590E+02 -0.25030662350E+02  0.89117386170E+02  0.94391078724E+02  0.00000000000E+00 0. -1.
          1    1    1    2  501    0 -0.23101919592E+02  0.21745573475E+02 -0.60467998722E+02  0.68285778344E+02  0.00000000000E+00 0. -1.
<scales pt_clust_5="13000.00000" pt_clust_6="13000.00000" pt_clust_7="13000.00000" pt_clust_8="13000.00000" pt_clust_9="31.72647"></scales>
<clustering>
<clus scale="   31.726">  2  9  1 -1</clus>
<clus scale="   94.707">  5  6 -1 -1</clus>
<clus scale="   95.481">  2  5  1 -1</clus>
<clus scale="   95.905">  7  8 -1 -1</clus>
<clus scale="   31.726">  2  5  1 -1</clus>
</clustering>
</event>
<event>
 9    1  0.1315259E-005  0.1136738E+03  0.7546771E-02  0.1261492E+00
         -1   -1    0    0    0  501 -0.00000000000E+00  0.00000000000E+00  0.24867317601E+03  0.24867317601E+03  0.00000000000E+00 0.  1.
         21   -1    0    0  501  502  0.00000000000E+00 -0.00000000000E+00 -0.62514177420E+02  0.62514177420E+02  0.00000000000E+00 0. -1.
         23    2    1    2    0    0 -0.13873062249E+01 -0.27860492110E+02  0.74782062170E+02  0.12017699125E+03  0.89844425337E+02 0.  0.
         23    2    1    2    0    0 -0.24194453865E+02  0.50289714032E+02  0.93751874389E+02  0.15269405682E+03  0.10682525029E+03 0.  0.
        -11    1    3    3    0    0  0.21788419751E+02  0.26777057245E+02  0.23729880544E+02  0.41890968724E+02  0.00000000000E+00 0.  1.
         11    1    3    3    0    0 -0.23175725976E+02 -0.54637549355E+02  0.51052181626E+02  0.78286022525E+02  0.00000000000E+00 0. -1.
        -13    1    4    4    0    0 -0.35087684044E+02  0.71530685328E+01  0.10141200274E+03  0.10754862277E+03  0.00000000000E+00 0.  1.
         13    1    4    4    0    0  0.10893230179E+02  0.43136645499E+02 -0.76601283482E+01  0.45145434044E+02  0.00000000000E+00 0. -1.
         -1    1    1    2    0  502  0.25581760089E+02 -0.22429221922E+02  0.17625062030E+02  0.38316305366E+02  0.00000000000E+00 0.  1.
<scales pt_clust_5="13000.00000" pt_clust_6="13000.00000" pt_clust_7="13000.00000" pt_clust_8="13000.00000" pt_clust_9="34.02200"></scales>
<clustering>
<clus scale="   34.022">  2  9  1 -1</clus>
<clus scale="   89.844">  5  6 -1 -1</clus>
<clus scale="   97.888">  1  5  2 -1</clus>
<clus scale="  106.825">  7  8 -1 -1</clus>
<clus scale="   34.022">  2  5  1 -1</clus>
</clustering>
</event>
<event>
 9    1  0.1315259E-005  0.1043185E+03  0.7546771E-02  0.1272201E+00
         -3   -1    0    0    0  501 -0.00000000000E+00  0.00000000000E+00  0.19125064687E+03  0.19125064687E+03  0.00000000000E+00 0.  1.
         21   -1    0    0  501  502  0.00000000000E+00 -0.00000000000E+00 -0.22787261103E+03  0.22787261103E+03  0.00000000000E+00 0. -1.
         23    2    1    2    0    0  0.35567154618E+02  0.27727983833E+02  0.14448283846E+03  0.17735790496E+03  0.92448213970E+02 0.  0.
         23    2    1    2    0    0 -0.71196525828E+02 -0.40194058792E+02 -0.14377296480E+03  0.18867560597E+03  0.90792682692E+02 0.  0.
        -11    1    3    3    0    0  0.44807523582E+01 -0.32283395949E+02  0.29382289971E+02  0.43881815820E+02  0.00000000000E+00 0. -1.
         11    1    3    3    0    0  0.31086402260E+02  0.60011379782E+02  0.11510054849E+03  0.13347608914E+03  0.00000000000E+00 0.  1.
        -13    1    4    4    0    0  0.18611179594E+02  0.78775304491E+01 -0.26802633463E+02  0.33568030213E+02  0.00000000000E+00 0.  1.
         13    1    4    4    0    0 -0.89807705422E+02 -0.48071589241E+02 -0.11697033134E+03  0.15510757576E+03  0.00000000000E+00 0. -1.
         -3    1    1    2    0  502  0.35629371210E+02  0.12466074959E+02 -0.37331837819E+02  0.53089746963E+02  0.00000000000E+00 0.  1.
<scales pt_clust_5="13000.00000" pt_clust_6="13000.00000" pt_clust_7="13000.00000" pt_clust_8="13000.00000" pt_clust_9="37.74725"></scales>
<clustering>
<clus scale="   37.747">  2  9  1 -1</clus>
<clus scale="   90.793">  7  8 -1 -1</clus>
<clus scale="   92.448">  5  6 -1 -1</clus>
<clus scale="  102.854">  2  7  1 -1</clus>
<clus scale="   37.747">  2  5  1 -1</clus>
</clustering>
</event>
<event>
 9    1  0.1315259E-005  0.9838071E+02  0.7546771E-02  0.1284668E+00
         -2   -1    0    0    0  501 -0.00000000000E+00  0.00000000000E+00  0.63258733350E+02  0.63258733350E+02  0.00000000000E+00 0.  1.
         21   -1    0    0  501  502  0.00000000000E+00 -0.00000000000E+00 -0.41155800340E+03  0.41155800340E+03  0.00000000000E+00 0. -1.
         23    2    1    2    0    0  0.27431459142E+02 -0.41632443321E+01 -0.22855704447E+02  0.99271030041E+02  0.92533975520E+02 0.  0.
         23    2    1    2    0    0 -0.23420899860E+02  0.60250976160E+02 -0.12529297585E+03  0.16764626750E+03  0.90709550374E+02 0.  0.
        -11    1    3    3    0    0 -0.19691871989E+02  0.12272338033E+02  0.22142580046E+02  0.32072947390E+02  0.00000000000E+00 0. -1.
         11    1    3    3    0    0  0.47123331131E+02 -0.16435582365E+02 -0.44998284493E+02  0.67198082650E+02  0.00000000000E+00 0.  1.
        -13    1    4    4    0    0 -0.46203535620E+02 -0.77667554979E+00 -0.54067769439E+02  0.71124493818E+02  0.00000000000E+00 0. -1.
         13    1    4    4    0    0  0.22782635761E+02  0.61027651710E+02 -0.71225206412E+02  0.96521773678E+02  0.00000000000E+00 0.  1.
         -2    1    1    2    0  502 -0.40105592826E+01 -0.56087731828E+02 -0.20015058975E+03  0.20789943921E+03  0.00000000000E+00 0.  1.
<scales pt_clust_5="13000.00000" pt_clust_6="13000.00000" pt_clust_7="13000.00000" pt_clust_8="13000.00000" pt_clust_9="56.23094"></scales>
<clustering>
<clus scale="   56.231">  2  9  1 -1</clus>
<clus scale="   90.710">  7  8 -1 -1</clus>
<clus scale="   92.534">  5  6 -1 -1</clus>
<clus scale="   96.667">  2  7  1 -1</clus>
<clus scale="   56.231">  2  5  1 -1</clus>
</clustering>
</event>
<event>
 9    1  0.1315259E-005  0.1146820E+03  0.7546771E-02  0.1252574E+00
         21   -1    0    0  501  502  0.00000000000E+00  0.00000000000E+00  0.65950564335E+02  0.65950564335E+02  0.00000000000E+00 0.  1.
         -1   -1    0    0    0  501 -0.00000000000E+00 -0.00000000000E+00 -0.57605465542E+03  0.57605465542E+03  0.00000000000E+00 0.  1.
         23    2    1    2    0    0 -0.21240157932E+02  0.80111835660E+02 -0.44519743851E+03  0.46195292106E+03  0.91272621829E+02 0.  0.
         23    2    1    2    0    0  0.23010785110E+02 -0.12808233896E+02 -0.58134393406E+02  0.11238566419E+03  0.92506122672E+02 0.  0.
        -11    1    4    4    0    0  0.56659827651E+02 -0.19681393096E+02 -0.47257019585E+02  0.76360455759E+02  0.00000000000E+00 0. -1.
         11    1    4    4    0    0 -0.33649042541E+02  0.68731592004E+01 -0.10877373821E+02  0.36025208431E+02  0.00000000000E+00 0.  1.
        -11    1    3    3    0    0 -0.56775883816E+02  0.59306423297E+02 -0.29418887353E+03  0.30543059136E+03  0.00000000000E+00 0.  1.
         11    1    3    3    0    0  0.35535725884E+02  0.20805412364E+02 -0.15100856498E+03  0.15652232970E+03  0.00000000000E+00 0. -1.
         -1    1    1    2    0  502 -0.17706271782E+01 -0.67303601764E+02 -0.67722591678E+01  0.67666634505E+02  0.00000000000E+00 0.  1.
<scales pt_clust_5="13000.00000" pt_clust_6="13000.00000" pt_clust_7="13000.00000" pt_clust_8="13000.00000" pt_clust_9="67.32689"></scales>
<clustering>
<clus scale="   67.327">  1  9  2 -1</clus>
<clus scale="   91.273">  7  8 -1 -1</clus>
<clus scale="   92.506">  5  6 -1 -1</clus>
<clus scale="  113.689">  2  7  1 -1</clus>
<clus scale="   67.327">  1  5  2 -1</clus>
</clustering>
</event>
<event>
 9    1  0.1315259E-005  0.1106044E+03  0.7546771E-02  0.1260114E+00
          1   -1    0    0  502    0 -0.00000000000E+00  0.00000000000E+00  0.62875420587E+02  0.62875420587E+02  0.00000000000E+00 0. -1.
         21   -1    0    0  501  502  0.00000000000E+00 -0.00000000000E+00 -0.30567039713E+03  0.30567039713E+03  0.00000000000E+00 0. -1.
         23    2    1    2    0    0  0.27948567785E+02 -0.68652313790E+02 -0.64124411956E+02  0.13412589635E+03  0.91561745466E+02 0.  0.
         23    2    1    2    0    0 -0.23221976390E+02  0.44284074654E+02 -0.73563049001E+02  0.12642111778E+03  0.89835613127E+02 0.  0.
        -11    1    4    4    0    0  0.11744655757E+02  0.62347670144E+02 -0.46384149262E+02  0.78591718483E+02  0.00000000000E+00 0. -1.
         11    1    4    4    0    0 -0.34966632147E+02 -0.18063595491E+02 -0.27178899739E+02  0.47829399294E+02  0.00000000000E+00 0.  1.
        -13    1    3    3    0    0 -0.10357779223E+02 -0.24149309033E+02  0.18948199580E+02  0.32396095205E+02  0.00000000000E+00 0. -1.
         13    1    3    3    0    0  0.38306347008E+02 -0.44503004757E+02 -0.83072611536E+02  0.10172980114E+03  0.00000000000E+00 0.  1.
          1    1    1    2  501    0 -0.47265913946E+01  0.24368239136E+02 -0.10510751559E+03  0.10799880360E+03  0.00000000000E+00 0. -1.
<scales pt_clust_5="13000.00000" pt_clust_6="13000.00000" pt_clust_7="13000.00000" pt_clust_8="13000.00000" pt_clust_9="24.82240"></scales>
<clustering>
<clus scale="   24.822">  2  9  1 -1</clus>
<clus scale="   89.836">  5  6 -1 -1</clus>
<clus scale="   91.562">  7  8 -1 -1</clus>
<clus scale="  109.180">  2  5  1 -1</clus>
<clus scale="   24.822">  2  5  1 -1</clus>
</clustering>
</event>
<event>
 9    1  0.1315259E-005  0.1315021E+03  0.7546771E-02  0.1225731E+00
         21   -1    0    0  501  502  0.00000000000E+00  0.00000000000E+00  0.77978560315E+02  0.77978560315E+02  0.00000000000E+00 0. -1.
          2   -1    0    0  502    0 -0.00000000000E+00 -0.00000000000E+00 -0.42085187018E+03  0.42085187018E+03  0.00000000000E+00 0. -1.
         23    2    1    2    0    0 -0.71821366490E+02  0.10257530912E+02 -0.17114416703E+03  0.20705642756E+03  0.91205880617E+02 0.  0.
         23    2    1    2    0    0  0.13868133172E+03 -0.23053622275E+00 -0.13546170787E+03  0.21505293405E+03  0.93087728675E+02 0.  0.
        -11    1    3    3    0    0 -0.87620539760E+02  0.23749302619E+02 -0.11083058494E+03  0.14326481397E+03  0.00000000000E+00 0. -1.
         11    1    3    3    0    0  0.15799173270E+02 -0.13491771706E+02 -0.60313582093E+02  0.63791613592E+02  0.00000000000E+00 0.  1.
        -13    1    4    4    0    0  0.12788412683E+03  0.17375675452E+02 -0.14340199346E+03  0.19292588142E+03  0.00000000000E+00 0. -1.
         13    1    4    4    0    0  0.10797204892E+02 -0.17606211675E+02  0.79402855889E+01  0.22127052634E+02  0.00000000000E+00 0.  1.
          2    1    1    2  501    0 -0.66859965228E+02 -0.10026994690E+02 -0.36267434961E+02  0.76721068888E+02  0.00000000000E+00 0. -1.
<scales pt_clust_5="13000.00000" pt_clust_6="13000.00000" pt_clust_7="13000.00000" pt_clust_8="13000.00000" pt_clust_9="67.60766"></scales>
<clustering>
<clus scale="   67.608">  1  9  2 -1</clus>
<clus scale="   91.206">  5  6 -1 -1</clus>
<clus scale="   93.088">  7  8 -1 -1</clus>
<clus scale="  130.177">  2  5  1 -1</clus>
<clus scale="   67.608">  1  5  2 -1</clus>
</clustering>
</event>
<event>
 9    1  0.1315259E-005  0.1470968E+03  0.7546771E-02  0.1216625E+00
          2   -1    0    0  502    0 -0.00000000000E+00  0.00000000000E+00  0.16215019955E+03  0.16215019955E+03  0.00000000000E+00 0. -1.
         21   -1    0    0  501  502  0.00000000000E+00 -0.00000000000E+00 -0.35273413229E+03  0.35273413229E+03  0.00000000000E+00 0. -1.
         23    2    1    2    0    0  0.67632057047E+02 -0.45560100412E+00 -0.99377232349E+02  0.15015322470E+03  0.89976962971E+02 0.  0.
         23    2    1    2    0    0  0.15666884091E+02  0.92184766417E+02  0.81386889087E+02  0.15226581466E+03  0.88417024275E+02 0.  0.
        -11    1    4    4    0    0 -0.27675832624E+02  0.45209185802E+02  0.58711930995E+01  0.53331914467E+02  0.00000000000E+00 0.  1.
         11    1    4    4    0    0  0.43342716716E+02  0.46975580615E+02  0.75515695987E+02  0.98933900190E+02  0.00000000000E+00 0. -1.
        -13    1    3    3    0    0  0.75205434347E+02 -0.29340754740E+02 -0.59260484037E+02  0.10014260937E+03  0.00000000000E+00 0. -1.
         13    1    3    3    0    0 -0.75733772993E+01  0.28885153735E+02 -0.40116748312E+02  0.50010615325E+02  0.00000000000E+00 0.  1.
          2    1    1    2  501    0 -0.83298941139E+02 -0.91729165413E+02 -0.17259358947E+03  0.21246529248E+03  0.00000000000E+00 0. -1.
<scales pt_clust_5="13000.00000" pt_clust_6="13000.00000" pt_clust_7="13000.00000" pt_clust_8="13000.00000" pt_clust_9="117.55804"></scales>
<clustering>
<clus scale="   88.417">  5  6 -1 -1</clus>
<clus scale="   89.977">  7  8 -1 -1</clus>
<clus scale="  112.562">  1  7  2 -1</clus>
<clus scale="  117.558">  2  9  1 -1</clus>
<clus scale="  117.558">  2  5  1 -1</clus>
</clustering>
</event>
<event>
 9    1  0.1315259E-005  0.1140817E+03  0.7546771E-02  0.1253739E+00
         21   -1    0    0  501  502  0.00000000000E+00  0.00000000000E+00  0.25567510132E+02  0.25567510132E+02  0.00000000000E+00 0. -1.
          1   -1    0    0  502    0 -0.00000000000E+00 -0.00000000000E+00 -0.77760506280E+03  0.77760506280E+03  0.00000000000E+00 0. -1.
         23    2    1    2    0    0 -0.55072897240E+02  0.46646994344E+02 -0.44464795369E+03  0.46001125823E+03  0.93217964426E+02 0.  0.
         23    2    1    2    0    0  0.27032988770E+02 -0.47460311333E+02 -0.29056249079E+03  0.31044970328E+03  0.94705826526E+02 0.  0.
        -13    1    3    3    0    0 -0.75202385325E+02  0.46362928291E+02 -0.41415075936E+03  0.42346873717E+03  0.00000000000E+00 0. -1.
         13    1    3    3    0    0  0.20129488086E+02  0.28406605304E+00 -0.30497194323E+02  0.36542521063E+02  0.00000000000E+00 0.  1.
        -13    1    4    4    0    0  0.31374835741E+02  0.17284099604E+02 -0.16792493977E+03  0.17170295808E+03  0.00000000000E+00 0.  1.
         13    1    4    4    0    0 -0.43418469711E+01 -0.64744410938E+02 -0.12263755102E+03  0.13874674520E+03  0.00000000000E+00 0. -1.
          1    1    1    2  501    0  0.28039908470E+02  0.81331698939E+00 -0.16827108188E+02  0.32711611417E+02  0.00000000000E+00 0. -1.
<scales pt_clust_5="13000.00000" pt_clust_6="13000.00000" pt_clust_7="13000.00000" pt_clust_8="13000.00000" pt_clust_9="28.05170"></scales>
<clustering>
<clus scale="   28.052">  1  9  2 -1</clus>
<clus scale="   93.218">  5  6 -1 -1</clus>
<clus scale="   94.706">  7  8 -1 -1</clus>
<clus scale="  112.850">  2  5  1 -1</clus>
<clus scale="   28.052">  1  5  2 -1</clus>
</clustering>
</event>
<event>
 9    1  0.1315259E-005  0.1173312E+03  0.7546771E-02  0.1255134E+00
         21   -1    0    0  501  502  0.00000000000E+00  0.00000000000E+00  0.59794724991E+02  0.59794724991E+02  0.00000000000E+00 0. -1.
          1   -1    0    0  502    0 -0.00000000000E+00 -0.00000000000E+00 -0.53582013083E+03  0.53582013083E+03  0.00000000000E+00 0. -1.
         23    2    1    2    0    0  0.49576679282E+02 -0.65703061059E+02 -0.39441132761E+03  0.40822847277E+03  0.65692094466E+02 0.  0.
         23    2    1    2    0    0 -0.62290437388E+02  0.18088534818E+02 -0.83399343224E+02  0.13807137594E+03  0.88887348497E+02 0.  0.
        -13    1    3    3    0    0  0.53840422861E+02 -0.17155099207E+02 -0.21905023340E+03  0.22622133701E+03  0.00000000000E+00 0. -1.
         13    1    3    3    0    0 -0.42637435783E+01 -0.48547961852E+02 -0.17536109421E+03  0.18200713577E+03  0.00000000000E+00 0.  1.
        -13    1    4    4    0    0 -0.40714385973E+02  0.19635018486E+02  0.64457096763E+01  0.45658978847E+02  0.00000000000E+00 0.  1.
         13    1    4    4    0    0 -0.21576051415E+02 -0.15464836683E+01 -0.89845052900E+02  0.92412397096E+02  0.00000000000E+00 0. -1.
          1    1    1    2  501    0  0.12713758106E+02  0.47614526241E+02  0.17852649960E+01  0.49315007102E+02  0.00000000000E+00 0. -1.
<scales pt_clust_5="13000.00000" pt_clust_6="13000.00000" pt_clust_7="13000.00000" pt_clust_8="13000.00000" pt_clust_9="49.28268"></scales>
<clustering>
<clus scale="   49.283">  1  9  2 -1</clus>
<clus scale="   65.692">  5  6 -1 -1</clus>
<clus scale="   88.887">  7  8 -1 -1</clus>
<clus scale="  100.901">  2  5  1 -1</clus>
<clus scale="   49.283">  1  5  2 -1</clus>
</clustering>
</event>
<event>
 9    1  0.1315259E-005  0.1243900E+03  0.7546771E-02  0.1236378E+00
          1   -1    0    0  502    0 -0.00000000000E+00  0.00000000000E+00  0.54988712294E+03  0.54988712294E+03  0.00000000000E+00 0. -1.
         21   -1    0    0  501  502  0.00000000000E+00 -0.00000000000E+00 -0.72012239614E+02  0.72012239614E+02  0.00000000000E+00 0. -1.
         23    2    1    2    0    0 -0.81616883368E+02  0.45107537010E+02  0.41384544719E+03  0.43377497354E+03  0.90535451423E+02 0.  0.
         23    2    1    2    0    0  0.45298346206E+02 -0.48994534688E+02  0.90026532485E+02  0.14329143337E+03  0.89304276081E+02 0.  0.
        -13    1    3    3    0    0 -0.16749435274E+02  0.57578929905E+02  0.14451163573E+03  0.15645922668E+03  0.00000000000E+00 0.  1.
         13    1    3    3    0    0 -0.64867448094E+02 -0.12471392895E+02  0.26933381146E+03  0.27731574686E+03  0.00000000000E+00 0. -1.
        -13    1    4    4    0    0 -0.64571486418E+01  0.21855727189E+02  0.11427803648E+02  0.25494357724E+02  0.00000000000E+00 0.  1.
         13    1    4    4    0    0  0.51755494848E+02 -0.70850261876E+02  0.78598728837E+02  0.11779707564E+03  0.00000000000E+00 0. -1.
          1    1    1    2  501    0  0.36318537162E+02  0.38869976772E+01 -0.25997096356E+02  0.44832955641E+02  0.00000000000E+00 0. -1.
<scales pt_clust_5="13000.00000" pt_clust_6="13000.00000" pt_clust_7="13000.00000" pt_clust_8="13000.00000" pt_clust_9="36.52595"></scales>
<clustering>
<clus scale="   36.526">  2  9  1 -1</clus>
<clus scale="   89.304">  7  8 -1 -1</clus>
<clus scale="   90.535">  5  6 -1 -1</clus>
<clus scale="  123.497">  2  7  1 -1</clus>
<clus scale="   36.526">  2  5  1 -1</clus>
</clustering>
</event>
<event>
 9    1  0.1315259E-005  0.1758926E+03  0.7546771E-02  0.1172125E+00
         -1   -1    0    0    0  501 -0.00000000000E+00  0.00000000000E+00  0.31482788702E+03  0.31482788702E+03  0.00000000000E+00 0.  1.
         21   -1    0    0  501  502  0.00000000000E+00 -0.00000000000E+00 -0.28655588411E+03  0.28655588411E+03  0.00000000000E+00 0. -1.
         23    2    1    2    0    0  0.17924271686E+02  0.14622542876E+03  0.23619478789E+03  0.29249286896E+03  0.89782765781E+02 0.  0.
         23    2    1    2    0    0 -0.36538196472E+02 -0.16429457430E+03 -0.14381963901E+03  0.23973755418E+03  0.91990539589E+02 0.  0.
        -13    1    4    4    0    0 -0.33948128495E+02 -0.81842609482E+01 -0.34878674326E+02  0.49355642821E+02  0.00000000000E+00 0.  1.
         13    1    4    4    0    0 -0.25900679777E+01 -0.15611031335E+03 -0.10894096469E+03  0.19038191136E+03  0.00000000000E+00 0. -1.
        -13    1    3    3    0    0 -0.37930379335E+01  0.57202854917E+02  0.25518714425E+02  0.62751561999E+02  0.00000000000E+00 0. -1.
         13    1    3    3    0    0  0.21717309620E+02  0.89022573842E+02  0.21067607347E+03  0.22974130696E+03  0.00000000000E+00 0.  1.
         -1    1    1    2    0  502  0.18613924786E+02  0.18069145539E+02 -0.64103145962E+02  0.69153347993E+02  0.00000000000E+00 0.  1.
<scales pt_clust_5="13000.00000" pt_clust_6="13000.00000" pt_clust_7="13000.00000" pt_clust_8="13000.00000" pt_clust_9="25.94171"></scales>
<clustering>
<clus scale="   25.942">  2  9  1 -1</clus>
<clus scale="   89.783">  7  8 -1 -1</clus>
<clus scale="   91.991">  5  6 -1 -1</clus>
<clus scale="  174.748">  1  7  2 -1</clus>
<clus scale="   25.942">  2  5  1 -1</clus>
</clustering>
</event>
<event>
 9    1  0.1315259E-005  0.1265918E+03  0.7546771E-02  0.1232918E+00
         21   -1    0    0  501  502  0.00000000000E+00  0.00000000000E+00  0.83061842776E+02  0.83061842776E+02  0.00000000000E+00 0.  1.
          2   -1    0    0  502    0 -0.00000000000E+00 -0.00000000000E+00 -0.28654629626E+03  0.28654629626E+03  0.00000000000E+00 0. -1.
         23    2    1    2    0    0 -0.23751045948E+02  0.81108454871E+02 -0.13857180319E+03  0.18666574282E+03  0.92191438140E+02 0.  0.
         23    2    1    2    0    0  0.26080399507E+01 -0.91750081352E+02 -0.82570223925E+02  0.15341172025E+03  0.91062806510E+02 0.  0.
        -11    1    3    3    0    0 -0.39101393585E+01  0.53338395104E+02 -0.10991666949E+02  0.54599361941E+02  0.00000000000E+00 0.  1.
         11    1    3    3    0    0 -0.19840906589E+02  0.27770059768E+02 -0.12758013625E+03  0.13206638088E+03  0.00000000000E+00 0. -1.
        -13    1    4    4    0    0  0.46818232366E+02 -0.45730419251E+02 -0.40042302999E+02  0.76724208410E+02  0.00000000000E+00 0.  1.
         13    1    4    4    0    0 -0.44210192416E+02 -0.46019662101E+02 -0.42527920926E+02  0.76687511836E+02  0.00000000000E+00 0. -1.
          2    1    1    2  501    0  0.21143005997E+02  0.10641626480E+02  0.17657573634E+02  0.29530675972E+02  0.00000000000E+00 0. -1.
<scales pt_clust_5="13000.00000" pt_clust_6="13000.00000" pt_clust_7="13000.00000" pt_clust_8="13000.00000" pt_clust_9="23.67004"></scales>
<clustering>
<clus scale="   23.670">  1  9  2 -1</clus>
<clus scale="   91.063">  7  8 -1 -1</clus>
<clus scale="   92.191">  5  6 -1 -1</clus>
<clus scale="  125.772">  1  7  2 -1</clus>
<clus scale="   23.670">  1  5  2 -1</clus>
</clustering>
</event>
<event>
 9    1  0.1315259E-005  0.2662070E+03  0.7546771E-02  0.1103577E+00
         21   -1    0    0  501  502  0.00000000000E+00  0.00000000000E+00  0.12524604601E+03  0.12524604601E+03  0.00000000000E+00 0. -1.
          2   -1    0    0  502    0 -0.00000000000E+00 -0.00000000000E+00 -0.83368721786E+03  0.83368721786E+03  0.00000000000E+00 0. -1.
         23    2    1    2    0    0 -0.13942472713E+03  0.19280583225E+03 -0.48151158738E+03  0.54485523940E+03  0.91654130460E+02 0.  0.
         23    2    1    2    0    0  0.16440120727E+03 -0.22971772074E+03 -0.16947846438E+03  0.34136665485E+03  0.89500027839E+02 0.  0.
        -11    1    4    4    0    0  0.23754993127E+02 -0.24557935921E+02  0.88639491294E+01  0.35298179972E+02  0.00000000000E+00 0.  1.
         11    1    4    4    0    0  0.14064621415E+03 -0.20515978482E+03 -0.17834241351E+03  0.30606847488E+03  0.00000000000E+00 0. -1.
        -13    1    3    3    0    0 -0.15581331810E+01  0.28724522638E+02 -0.17319223232E+02  0.33577990904E+02  0.00000000000E+00 0.  1.
         13    1    3    3    0    0 -0.13786659395E+03  0.16408130961E+03 -0.46419236415E+03  0.51127724849E+03  0.00000000000E+00 0. -1.
          2    1    1    2  501    0 -0.24976480146E+02  0.36911888490E+02 -0.57451120084E+02  0.72711369614E+02  0.00000000000E+00 0. -1.
<scales pt_clust_5="13000.00000" pt_clust_6="13000.00000" pt_clust_7="13000.00000" pt_clust_8="13000.00000" pt_clust_9="44.56808"></scales>
<clustering>
<clus scale="   44.568">  1  9  2 -1</clus>
<clus scale="   89.500">  5  6 -1 -1</clus>
<clus scale="   91.654">  7  8 -1 -1</clus>
<clus scale="  265.473">  1  5  2 -1</clus>
<clus scale="   44.568">  1  5  2 -1</clus>
</clustering>
</event>
<event>
 9    1  0.1315259E-005  0.1548261E+03  0.7546771E-02  0.1194768E+00
         -1   -1    0    0    0  501 -0.00000000000E+00  0.00000000000E+00  0.39171143678E+03  0.39171143678E+03  0.00000000000E+00 0.  1.
         21   -1    0    0  501  502  0.00000000000E+00 -0.00000000000E+00 -0.13969457567E+03  0.13969457567E+03  0.00000000000E+00 0.  1.
         23    2    1    2    0    0 -0.11954435147E+03  0.55845960921E+02  0.23692737926E+03  0.28599698515E+03  0.90829891310E+02 0.  0.
         23    2    1    2    0    0  0.96579059962E+02 -0.62354453663E+02  0.86700089880E+02  0.16992496093E+03  0.90232998663E+02 0.  0.
        -13    1    3    3    0    0 -0.15017182005E+02 -0.23090688522E+02  0.58424391674E+02  0.64591835353E+02  0.00000000000E+00 0. -1.
         13    1    3    3    0    0 -0.10452716947E+03  0.78936649444E+02  0.17850298758E+03  0.22140514980E+03  0.00000000000E+00 0.  1.
        -13    1    4    4    0    0  0.71802332729E+02 -0.85341778184E+02  0.58690893216E+02  0.12602942131E+03  0.00000000000E+00 0.  1.
         13    1    4    4    0    0  0.24776727233E+02  0.22987324521E+02  0.28009196664E+02  0.43895539623E+02  0.00000000000E+00 0. -1.
         -1    1    1    2    0  502  0.22965291509E+02  0.65084927417E+01 -0.71610608036E+02  0.75484066366E+02  0.00000000000E+00 0.  1.
<scales pt_clust_5="13000.00000" pt_clust_6="13000.00000" pt_clust_7="13000.00000" pt_clust_8="13000.00000" pt_clust_9="23.86975"></scales>
<clustering>
<clus scale="   23.870">  2  9  1 -1</clus>
<clus scale="   90.233">  7  8 -1 -1</clus>
<clus scale="   90.830">  5  6 -1 -1</clus>
<clus scale="  154.477">  2  7  1 -1</clus>
<clus scale="   23.870">  2  5  1 -1</clus>
</clustering>
</event>
<event>
 9    1  0.1315259E-005  0.9886588E+02  0.7546771E-02  0.1283919E+00
         21   -1    0    0  501  502  0.00000000000E+00  0.00000000000E+00  0.66867479084E+02  0.66867479084E+02  0.00000000000E+00 0. -1.
         -2   -1    0    0    0  501 -0.00000000000E+00 -0.00000000000E+00 -0.23112044595E+03  0.23112044595E+03  0.00000000000E+00 0.  1.
         23    2    1    2    0    0  0.27478668926E+02 -0.31217626813E+02 -0.84179772291E+02  0.12978252938E+03  0.89597172943E+02 0.  0.
         23    2    1    2    0    0  0.10898497621E+02  0.37857592491E+02 -0.29475259327E+02  0.10435363681E+03  0.92026713748E+02 0.  0.
        -11    1    4    4    0    0  0.28258103301E+02  0.49756977559E+02 -0.49233125111E+02  0.75486275747E+02  0.00000000000E+00 0.  1.
         11    1    4    4    0    0 -0.17359605680E+02 -0.11899385067E+02  0.19757865784E+02  0.28867361062E+02  0.00000000000E+00 0. -1.
        -13    1    3    3    0    0 -0.19148611029E+02 -0.30892198403E+02 -0.33912323357E+01  0.36503392764E+02  0.00000000000E+00 0.  1.
         13    1    3    3    0    0  0.46627279955E+02 -0.32542841022E+00 -0.80788539955E+02  0.93279136615E+02  0.00000000000E+00 0. -1.
         -2    1    1    2    0  502 -0.38377166547E+02 -0.66399656781E+01 -0.50597935250E+02  0.63851758847E+02  0.00000000000E+00 0.  1.
<scales pt_clust_5="13000.00000" pt_clust_6="13000.00000" pt_clust_7="13000.00000" pt_clust_8="13000.00000" pt_clust_9="38.94737"></scales>
<clustering>
<clus scale="   38.947">  1  9  2 -1</clus>
<clus scale="   89.597">  7  8 -1 -1</clus>
<clus scale="   92.027">  5  6 -1 -1</clus>
<clus scale="   96.608">  2  7  1 -1</clus>
<clus scale="   38.947">  1  5  2 -1</clus>
</clustering>
</event>
<event>
 9    1  0.1315259E-005  0.1558265E+03  0.7546771E-02  0.1196688E+00
         21   -1    0    0  501  502  0.00000000000E+00  0.00000000000E+00  0.92181485835E+02  0.92181485835E+02  0.00000000000E+00 0. -1.
         -1   -1    0    0    0  501 -0.00000000000E+00 -0.00000000000E+00 -0.49057563258E+03  0.49057563258E+03  0.00000000000E+00 0.  1.
         23    2    1    2    0    0  0.11421627766E+03 -0.31328444989E+02 -0.31306303265E+03  0.34295808409E+03  0.74732559739E+02 0.  0.
         23    2    1    2    0    0 -0.14449424746E+03  0.19147802534E+02 -0.10416052062E+03  0.20212052511E+03  0.93584543191E+02 0.  0.
        -11    1    4    4    0    0 -0.60066053067E+02  0.55030732131E+02 -0.47714828987E+02  0.94408776685E+02  0.00000000000E+00 0.  1.
         11    1    4    4    0    0 -0.84428194397E+02 -0.35882929596E+02 -0.56445691637E+02  0.10771174843E+03  0.00000000000E+00 0. -1.
        -11    1    3    3    0    0  0.88917708566E+02 -0.54423978499E+02 -0.25584556508E+03  0.27627030514E+03  0.00000000000E+00 0. -1.
         11    1    3    3    0    0  0.25298569091E+02  0.23095533510E+02 -0.57217467567E+02  0.66687778947E+02  0.00000000000E+00 0.  1.
         -1    1    1    2    0  502  0.30277969807E+02  0.12180642454E+02  0.18829406525E+02  0.37678509210E+02  0.00000000000E+00 0.  1.
<scales pt_clust_5="13000.00000" pt_clust_6="13000.00000" pt_clust_7="13000.00000" pt_clust_8="13000.00000" pt_clust_9="32.63623"></scales>
<clustering>
<clus scale="   32.636">  1  9  2 -1</clus>
<clus scale="   74.733">  7  8 -1 -1</clus>
<clus scale="   93.585">  5  6 -1 -1</clus>
<clus scale="  145.289">  2  7  1 -1</clus>
<clus scale="   32.636">  1  5  2 -1</clus>
</clustering>
</event>
<event>
 9    1  0.1315259E-005  0.1124744E+03  0.7546771E-02  0.1256424E+00
         21   -1    0    0  501  502  0.00000000000E+00  0.00000000000E+00  0.74110593149E+02  0.74110593149E+02  0.00000000000E+00 0.  1.
          1   -1    0    0  502    0 -0.00000000000E+00 -0.00000000000E+00 -0.27508955779E+03  0.27508955779E+03  0.00000000000E+00 0. -1.
         23    2    1    2    0    0  0.62990694419E+02 -0.40799098092E+02 -0.11813279380E+03  0.16631506577E+03  0.89849597342E+02 0.  0.
         23    2    1    2    0    0 -0.28924866686E+02  0.54300174459E+02 -0.94097927984E+02  0.14455283085E+03  0.90862225355E+02 0.  0.
        -11    1    3    3    0    0  0.23138869340E+01  0.26258197336E+02 -0.22041643618E+02  0.34361039761E+02  0.00000000000E+00 0.  1.
         11    1    3    3    0    0  0.60676807484E+02 -0.67057295428E+02 -0.96091150180E+02  0.13195402601E+03  0.00000000000E+00 0. -1.
        -11    1    4    4    0    0 -0.15579859529E+01  0.63637773180E+02 -0.96426338082E+02  0.11554320478E+03  0.00000000000E+00 0. -1.
         11    1    4    4    0    0 -0.27366880733E+02 -0.93375987207E+01  0.23284100979E+01  0.29009626066E+02  0.00000000000E+00 0.  1.
          1    1    1    2  501    0 -0.34065827733E+02 -0.13501076367E+02  0.11251757146E+02  0.38332254317E+02  0.00000000000E+00 0. -1.
<scales pt_clust_5="13000.00000" pt_clust_6="13000.00000" pt_clust_7="13000.00000" pt_clust_8="13000.00000" pt_clust_9="36.64369"></scales>
<clustering>
<clus scale="   36.644">  1  9  2 -1</clus>
<clus scale="   89.850">  5  6 -1 -1</clus>
<clus scale="   90.862">  7  8 -1 -1</clus>
<clus scale="  111.658">  2  5  1 -1</clus>
<clus scale="   36.644">  1  5  2 -1</clus>
</clustering>
</event>
<event>
 9    1  0.1315259E-005  0.1112797E+03  0.7546771E-02  0.1258889E+00
          2   -1    0    0  502    0 -0.00000000000E+00  0.00000000000E+00  0.76853092819E+03  0.76853092819E+03  0.00000000000E+00 0. -1.
         21   -1    0    0  501  502  0.00000000000E+00 -0.00000000000E+00 -0.48181067726E+02  0.48181067726E+02  0.00000000000E+00 0. -1.
         23    2    1    2    0    0 -0.74393893916E+01 -0.58683787928E+02  0.58937793152E+03  0.59924627473E+03  0.90722765231E+02 0.  0.
         23    2    1    2    0    0  0.20610272705E+02  0.96672565023E+02  0.10689888999E+03  0.17060283014E+03  0.88924601788E+02 0.  0.
        -11    1    3    3    0    0 -0.11318876705E+02 -0.82176551739E+02  0.49550734674E+03  0.50240285957E+03  0.00000000000E+00 0. -1.
         11    1    3    3    0    0  0.38794873135E+01  0.23492763811E+02  0.93870584778E+02  0.96843415160E+02  0.00000000000E+00 0.  1.
        -13    1    4    4    0    0  0.51750822130E+02  0.32094173362E+02  0.55450634496E+02  0.82358705799E+02  0.00000000000E+00 0. -1.
         13    1    4    4    0    0 -0.31140549425E+02  0.64578391661E+02  0.51448255489E+02  0.88244124342E+02  0.00000000000E+00 0.  1.
          2    1    1    2  501    0 -0.13170883314E+02 -0.37988777095E+02  0.24073038953E+02  0.46862891042E+02  0.00000000000E+00 0. -1.
<scales pt_clust_5="13000.00000" pt_clust_6="13000.00000" pt_clust_7="13000.00000" pt_clust_8="13000.00000" pt_clust_9="40.20721"></scales>
<clustering>
<clus scale="   40.207">  2  9  1 -1</clus>
<clus scale="   88.925">  7  8 -1 -1</clus>
<clus scale="   90.723">  5  6 -1 -1</clus>
<clus scale="  109.819">  2  7  1 -1</clus>
<clus scale="   40.207">  2  5  1 -1</clus>
</clustering>
</event>
<event>
 9    1  0.1315259E-005  0.1509205E+03  0.7546771E-02  0.1199814E+00
          1   -1    0    0  502    0 -0.00000000000E+00  0.00000000000E+00  0.66127836045E+03  0.66127836045E+03  0.00000000000E+00 0. -1.
         21   -1    0    0  501  502  0.00000000000E+00 -0.00000000000E+00 -0.83651366788E+02  0.83651366788E+02  0.00000000000E+00 0. -1.
         23    2    1    2    0    0 -0.89692568942E+02  0.54785407371E+02  0.31798228870E+03  0.34704070827E+03  0.90985270723E+02 0.  0.
         23    2    1    2    0    0  0.15212647258E+03 -0.13004715107E+02  0.26801092877E+03  0.32230057890E+03  0.93467742815E+02 0.  0.
        -11    1    4    4    0    0  0.75433645411E+02 -0.44981429208E+02  0.18529842671E+03  0.20505870080E+03  0.00000000000E+00 0.  1.
         11    1    4    4    0    0  0.76692827166E+02  0.31976714101E+02  0.82712502060E+02  0.11724187810E+03  0.00000000000E+00 0. -1.
        -13    1    3    3    0    0 -0.38929938441E+02 -0.10754398817E+02  0.39544274309E+02  0.56523860727E+02  0.00000000000E+00 0.  1.
         13    1    3    3    0    0 -0.50762630501E+02  0.65539806188E+02  0.27843801439E+03  0.29051684755E+03  0.00000000000E+00 0. -1.
          1    1    1    2  501    0 -0.62433903635E+02 -0.41780692264E+02 -0.83662238137E+01  0.75588440055E+02  0.00000000000E+00 0. -1.
<scales pt_clust_5="13000.00000" pt_clust_6="13000.00000" pt_clust_7="13000.00000" pt_clust_8="13000.00000" pt_clust_9="75.12402"></scales>
<clustering>
<clus scale="   75.124">  2  9  1 -1</clus>
<clus scale="   90.985">  7  8 -1 -1</clus>
<clus scale="   93.468">  5  6 -1 -1</clus>
<clus scale="  149.396">  1  7  2 -1</clus>
<clus scale="   75.124">  2  5  1 -1</clus>
</clustering>
</event>
<event>
 9    1  0.1315259E-005  0.2402761E+03  0.7546771E-02  0.1133755E+00
         -3   -1    0    0    0  501 -0.00000000000E+00  0.00000000000E+00  0.45124247641E+03  0.45124247641E+03  0.00000000000E+00 0.  1.
         21   -1    0    0  501  502  0.00000000000E+00 -0.00000000000E+00 -0.27280164412E+03  0.27280164412E+03  0.00000000000E+00 0.  1.
         23    2    1    2    0    0 -0.11204659904E+03 -0.88137786350E+02 -0.10761327893E+02  0.16974049613E+03  0.91505847407E+02 0.  0.
         23    2    1    2    0    0  0.55097637090E+02 -0.15971221686E+03  0.22763708302E+03  0.29710710099E+03  0.88939564139E+02 0.  0.
        -11    1    3    3    0    0 -0.54247536647E+02 -0.50372002829E+02 -0.50936524790E+02  0.89859131194E+02  0.00000000000E+00 0. -1.
         11    1    3    3    0    0 -0.57799062391E+02 -0.37765783521E+02  0.40175196897E+02  0.79881364935E+02  0.00000000000E+00 0.  1.
        -13    1    4    4    0    0  0.54549007312E+02 -0.63074501874E+02  0.57016891874E+02  0.10101936915E+03  0.00000000000E+00 0.  1.
         13    1    4    4    0    0  0.54862977813E+00 -0.96637714987E+02  0.17062019114E+03  0.19608773184E+03  0.00000000000E+00 0. -1.
         -3    1    1    2    0  502  0.56948961948E+02  0.24785000321E+03 -0.38434922832E+02  0.25719652341E+03  0.00000000000E+00 0.  1.
<scales pt_clust_5="13000.00000" pt_clust_6="13000.00000" pt_clust_7="13000.00000" pt_clust_8="13000.00000" pt_clust_9="223.20926"></scales>
<clustering>
<clus scale="   88.940">  7  8 -1 -1</clus>
<clus scale="   91.506">  5  6 -1 -1</clus>
<clus scale="  169.399">  1  5  2 -1</clus>
<clus scale="  223.209">  2  9  1 -1</clus>
<clus scale="  223.209">  2  5  1 -1</clus>
</clustering>
</event>
<event>
 9    1  0.1315259E-005  0.1064915E+03  0.7546771E-02  0.1268495E+00
          1   -1    0    0  502    0 -0.00000000000E+00  0.00000000000E+00  0.12106081691E+04  0.12106081691E+04  0.00000000000E+00 0. -1.
         21   -1    0    0  501  502  0.00000000000E+00 -0.00000000000E+00 -0.16809682913E+02  0.16809682913E+02  0.00000000000E+00 0.  1.
         23    2    1    2    0    0 -0.47666791195E+02  0.33507781744E+02  0.41755470424E+03  0.43191451593E+03  0.93826028461E+02 0.  0.
         23    2    1    2    0    0 -0.73543486185E+01 -0.58816097970E+02  0.40129396330E+03  0.41569390597E+03  0.90835888615E+02 0.  0.
        -13    1    4    4    0    0  0.86901393596E+00  0.22336569675E+02  0.45824341857E+02  0.50985761118E+02  0.00000000000E+00 0.  1.
         13    1    4    4    0    0 -0.82233625545E+01 -0.81152667645E+02  0.35546962144E+03  0.36470814485E+03  0.00000000000E+00 0. -1.
        -13    1    3    3    0    0 -0.61204189832E+02  0.54258891633E+02  0.36134636353E+03  0.37048775231E+03  0.00000000000E+00 0.  1.
         13    1    3    3    0    0  0.13537398637E+02 -0.20751109888E+02  0.56208340706E+02  0.61426763616E+02  0.00000000000E+00 0. -1.
          1    1    1    2  501    0  0.55021139813E+02  0.25308316225E+02  0.37494981869E+03  0.37980943015E+03  0.00000000000E+00 0. -1.
<scales pt_clust_5="13000.00000" pt_clust_6="13000.00000" pt_clust_7="13000.00000" pt_clust_8="13000.00000" pt_clust_9="60.56270"></scales>
<clustering>
<clus scale="   60.563">  2  9  1 -1</clus>
<clus scale="   90.836">  5  6 -1 -1</clus>
<clus scale="   93.826">  7  8 -1 -1</clus>
<clus scale="  103.867">  2  5  1 -1</clus>
<clus scale="   60.563">  2  5  1 -1</clus>
</clustering>
</event>
<event>
 9    1  0.1315259E-005  0.9893616E+02  0.7546771E-02  0.1283401E+00
         21   -1    0    0  501  502  0.00000000000E+00  0.00000000000E+00  0.75567484062E+02  0.75567484062E+02  0.00000000000E+00 0.  1.
          1   -1    0    0  502    0 -0.00000000000E+00 -0.00000000000E+00 -0.22937400941E+03  0.22937400941E+03  0.00000000000E+00 0. -1.
         23    2    1    2    0    0  0.43288588589E+02 -0.14621043825E+02 -0.97212664896E+02  0.14176317193E+03  0.92513879357E+02 0.  0.
         23    2    1    2    0    0 -0.22348787321E+02 -0.33674068826E+02 -0.45775570721E+02  0.10943887071E+03  0.90818788487E+02 0.  0.
        -11    1    4    4    0    0  0.27786149525E+02 -0.77238686524E+01  0.95655666604E+01  0.30384672417E+02  0.00000000000E+00 0.  1.
         11    1    4    4    0    0 -0.50134936846E+02 -0.25950200174E+02 -0.55341137382E+02  0.79054198297E+02  0.00000000000E+00 0. -1.
        -13    1    3    3    0    0 -0.14805618504E+02 -0.14392849167E+02 -0.77826810011E+02  0.80519393955E+02  0.00000000000E+00 0. -1.
         13    1    3    3    0    0  0.58094207093E+02 -0.22819465800E+00 -0.19385854886E+02  0.61243777971E+02  0.00000000000E+00 0.  1.
          1    1    1    2  501    0 -0.20939801268E+02  0.48295112651E+02 -0.10818289731E+02  0.53739450833E+02  0.00000000000E+00 0. -1.
<scales pt_clust_5="13000.00000" pt_clust_6="13000.00000" pt_clust_7="13000.00000" pt_clust_8="13000.00000" pt_clust_9="52.63927"></scales>
<clustering>
<clus scale="   52.639">  1  9  2 -1</clus>
<clus scale="   90.819">  5  6 -1 -1</clus>
<clus scale="   92.514">  7  8 -1 -1</clus>
<clus scale="   97.353">  1  5  2 -1</clus>
<clus scale="   52.639">  1  5  2 -1</clus>
</clustering>
</event>
<event>
 9    1  0.1315259E-005  0.1296413E+03  0.7546771E-02  0.1228786E+00
         21   -1    0    0  501  502  0.00000000000E+00  0.00000000000E+00  0.22787193441E+03  0.22787193441E+03  0.00000000000E+00 0.  1.
          1   -1    0    0  502    0 -0.00000000000E+00 -0.00000000000E+00 -0.31865421988E+03  0.31865421988E+03  0.00000000000E+00 0. -1.
         23    2    1    2    0    0 -0.47247048514E+02 -0.63281164703E+02 -0.14557213962E+03  0.18809414105E+03  0.89170447251E+02 0.  0.
         23    2    1    2    0    0  0.84875444839E+02  0.86297221193E+02 -0.11193309920E+03  0.18597280577E+03  0.86057040766E+02 0.  0.
        -11    1    4    4    0    0  0.49942226388E+02  0.96031369877E+02 -0.63585614097E+02  0.12553637042E+03  0.00000000000E+00 0.  1.
         11    1    4    4    0    0  0.34933218450E+02 -0.97341486840E+01 -0.48347485104E+02  0.60436435350E+02  0.00000000000E+00 0. -1.
        -13    1    3    3    0    0 -0.18947181289E+02 -0.80140299481E+02 -0.80501284738E+02  0.11516041040E+03  0.00000000000E+00 0. -1.
         13    1    3    3    0    0 -0.28299867225E+02  0.16859134778E+02 -0.65070854886E+02  0.72933730646E+02  0.00000000000E+00 0.  1.
          1    1    1    2  501    0 -0.37628396324E+02 -0.23016056491E+02  0.16672295336E+03  0.17245920748E+03  0.00000000000E+00 0. -1.
<scales pt_clust_5="13000.00000" pt_clust_6="13000.00000" pt_clust_7="13000.00000" pt_clust_8="13000.00000" pt_clust_9="44.10935"></scales>
<clustering>
<clus scale="   44.109">  1  9  2 -1</clus>
<clus scale="   86.057">  5  6 -1 -1</clus>
<clus scale="   89.170">  7  8 -1 -1</clus>
<clus scale="  127.520">  1  5  2 -1</clus>
<clus scale="   44.109">  1  5  2 -1</clus>
</clustering>
</event>
<event>
 9    1  0.1315259E-005  0.1675003E+03  0.7546771E-02  0.1200184E+00
         21   -1    0    0  501  502  0.00000000000E+00  0.00000000000E+00  0.77025098643E+02  0.77025098643E+02  0.00000000000E+00 0. -1.
          2   -1    0    0  502    0 -0.00000000000E+00 -0.00000000000E+00 -0.69279321065E+03  0.69279321065E+03  0.00000000000E+00 0. -1.
         23    2    1    2    0    0 -0.35617817417E+02 -0.48398956231E+02 -0.26507412006E+03  0.28638356826E+03  0.90222897116E+02 0.  0.
         23    2    1    2    0    0 -0.47622791193E+02 -0.81550444149E+02 -0.28631487619E+03  0.31622075798E+03  0.95398921751E+02 0.  0.
        -11    1    3    3    0    0  0.43179189309E+01  0.24635584000E+02 -0.55049787892E+02  0.60465159967E+02  0.00000000000E+00 0.  1.
         11    1    3    3    0    0 -0.39935736348E+02 -0.73034540232E+02 -0.21002433217E+03  0.22591840829E+03  0.00000000000E+00 0. -1.
        -13    1    4    4    0    0 -0.29483527264E+02 -0.64580800831E+02 -0.28226183324E+03  0.29105274560E+03  0.00000000000E+00 0. -1.
         13    1    4    4    0    0 -0.18139263929E+02 -0.16969643318E+02 -0.40530429455E+01  0.25168012383E+02  0.00000000000E+00 0.  1.
          2    1    1    2  501    0  0.83240608610E+02  0.12994940038E+03 -0.64379115761E+02  0.16721398305E+03  0.00000000000E+00 0. -1.
<scales pt_clust_5="13000.00000" pt_clust_6="13000.00000" pt_clust_7="13000.00000" pt_clust_8="13000.00000" pt_clust_9="137.67855"></scales>
<clustering>
<clus scale="   90.223">  5  6 -1 -1</clus>
<clus scale="   95.399">  7  8 -1 -1</clus>
<clus scale="  108.403">  2  5  1 -1</clus>
<clus scale="  137.679">  1  9  2 -1</clus>
<clus scale="  137.679">  1  5  2 -1</clus>
</clustering>
</event>
<event>
 9    1  0.1315259E-005  0.1801506E+03  0.7546771E-02  0.1168464E+00
          1   -1    0    0  502    0 -0.00000000000E+00  0.00000000000E+00  0.17024347308E+03  0.17024347308E+03  0.00000000000E+00 0. -1.
         21   -1    0    0  501  502  0.00000000000E+00 -0.00000000000E+00 -0.24020915922E+03  0.24020915922E+03  0.00000000000E+00 0.  1.
         23    2    1    2    0    0  0.59444030439E+02 -0.15572235359E+03  0.21672794316E+02  0.18780233333E+03  0.83767310028E+02 0.  0.
         23    2    1    2    0    0 -0.38854854177E+02  0.14501290358E+03 -0.51261234992E+02  0.17607854305E+03  0.76403515715E+02 0.  0.
        -11    1    3    3    0    0  0.29994486298E+02 -0.15374130961E+03  0.22655915966E+02  0.15826986453E+03  0.00000000000E+00 0.  1.
         11    1    3    3    0    0  0.29449544141E+02 -0.19810439744E+01 -0.98312165049E+00  0.29532468802E+02  0.00000000000E+00 0. -1.
        -13    1    4    4    0    0 -0.23615392348E+02  0.65359841272E+01 -0.23651895818E+02  0.34056101069E+02  0.00000000000E+00 0.  1.
         13    1    4    4    0    0 -0.15239461829E+02  0.13847691945E+03 -0.27609339174E+02  0.14202244198E+03  0.00000000000E+00 0. -1.
          1    1    1    2  501    0 -0.20589176261E+02  0.10709450009E+02 -0.40377245462E+02  0.46571755923E+02  0.00000000000E+00 0. -1.
<scales pt_clust_5="13000.00000" pt_clust_6="13000.00000" pt_clust_7="13000.00000" pt_clust_8="13000.00000" pt_clust_9="23.20790"></scales>
<clustering>
<clus scale="   23.208">  2  9  1 -1</clus>
<clus scale="   76.404">  7  8 -1 -1</clus>
<clus scale="   83.767">  5  6 -1 -1</clus>
<clus scale="  176.847">  2  7  1 -1</clus>
<clus scale="   23.208">  2  5  1 -1</clus>
</clustering>
</event>
<event>
 9    1  0.1315259E-005  0.2061102E+03  0.7546771E-02  0.1157647E+00
          3   -1    0    0  502    0 -0.00000000000E+00  0.00000000000E+00  0.22453554802E+03  0.22453554802E+03  0.00000000000E+00 0. -1.
         21   -1    0    0  501  502  0.00000000000E+00 -0.00000000000E+00 -0.11389792765E+04  0.11389792765E+04  0.00000000000E+00 0. -1.
         23    2    1    2    0    0 -0.10273138254E+03 -0.62487840287E+02  0.96692890570E+02  0.17989197084E+03  0.92483181953E+02 0.  0.
         23    2    1    2    0    0  0.22269222506E+03 -0.77370324898E+02 -0.12901751998E+03  0.28246525644E+03  0.86966121883E+02 0.  0.
        -11    1    3    3    0    0 -0.81768962486E+02 -0.87007985429E+02  0.77709466949E+02  0.14246162293E+03  0.00000000000E+00 0. -1.
         11    1    3    3    0    0 -0.20962420051E+02  0.24520145143E+02  0.18983423621E+02  0.37430347909E+02  0.00000000000E+00 0.  1.
        -13    1    4    4    0    0  0.61150055829E+02 -0.28690113640E+02 -0.84107548374E+02  0.10787275672E+03  0.00000000000E+00 0.  1.
         13    1    4    4    0    0  0.16154216924E+03 -0.48680211257E+02 -0.44909971604E+02  0.17459249972E+03  0.00000000000E+00 0. -1.
          3    1    1    2  501    0 -0.11996084253E+03  0.13985816518E+03 -0.88211909908E+03  0.90115759725E+03  0.00000000000E+00 0. -1.
<scales pt_clust_5="13000.00000" pt_clust_6="13000.00000" pt_clust_7="13000.00000" pt_clust_8="13000.00000" pt_clust_9="186.86441"></scales>
<clustering>
<clus scale="   86.966">  7  8 -1 -1</clus>
<clus scale="   92.483">  5  6 -1 -1</clus>
<clus scale="  151.696">  1  5  2 -1</clus>
<clus scale="  186.864">  2  9  1 -1</clus>
<clus scale="  186.864">  2  5  1 -1</clus>
</clustering>
</event>
<event>
 9    1  0.1315259E-005  0.1228007E+03  0.7546771E-02  0.1239303E+00
         21   -1    0    0  501  502  0.00000000000E+00  0.00000000000E+00  0.22822839903E+03  0.22822839903E+03  0.00000000000E+00 0. -1.
         -1   -1    0    0    0  501 -0.00000000000E+00 -0.00000000000E+00 -0.13623008252E+03  0.13623008252E+03  0.00000000000E+00 0.  1.
         23    2    1    2    0    0  0.61059153700E+02  0.18792189722E+02 -0.21618686052E+02  0.11464992001E+03  0.92713914416E+02 0.  0.
         23    2    1    2    0    0 -0.10308182219E+03 -0.34950398232E+02  0.15958978834E+02  0.14227213996E+03  0.90217960524E+02 0.  0.
        -11    1    4    4    0    0 -0.12875852238E+02  0.27584588435E+02 -0.40215302081E+01  0.30706184967E+02  0.00000000000E+00 0. -1.
         11    1    4    4    0    0 -0.90205969947E+02 -0.62534986667E+02  0.19980509042E+02  0.11156595499E+03  0.00000000000E+00 0.  1.
        -13    1    3    3    0    0  0.27629636269E+01  0.24518830093E+02 -0.45206885001E+02  0.51502130525E+02  0.00000000000E+00 0.  1.
         13    1    3    3    0    0  0.58296190073E+02 -0.57266403717E+01  0.23588198949E+02  0.63147789484E+02  0.00000000000E+00 0. -1.
         -1    1    1    2    0  502  0.42022668486E+02  0.16158208511E+02  0.97658023731E+02  0.10753642159E+03  0.00000000000E+00 0.  1.
<scales pt_clust_5="13000.00000" pt_clust_6="13000.00000" pt_clust_7="13000.00000" pt_clust_8="13000.00000" pt_clust_9="45.02213"></scales>
<clustering>
<clus scale="   45.022">  1  9  2 -1</clus>
<clus scale="   90.218">  5  6 -1 -1</clus>
<clus scale="   92.714">  7  8 -1 -1</clus>
<clus scale="  120.927">  1  5  2 -1</clus>
<clus scale="   45.022">  1  5  2 -1</clus>
</clustering>
</event>
<event>
 9    1  0.1315259E-005  0.1008713E+03  0.7546771E-02  0.1278523E+00
         -1   -1    0    0    0  501 -0.00000000000E+00  0.00000000000E+00  0.40431668908E+03  0.40431668908E+03  0.00000000000E+00 0.  1.
         21   -1    0    0  501  502  0.00000000000E+00 -0.00000000000E+00 -0.53482630694E+02  0.53482630694E+02  0.00000000000E+00 0. -1.
         23    2    1    2    0    0  0.37963666857E+02 -0.26860017401E+02  0.31273542108E+03  0.32909466040E+03  0.91308002778E+02 0.  0.
         23    2    1    2    0    0 -0.31452760682E+02  0.12226820752E+01  0.29599215510E+02  0.10092148042E+03  0.91204498492E+02 0.  0.
        -11    1    4    4    0    0 -0.60543365302E+02 -0.24520323098E+01  0.36582128795E+02  0.70779684174E+02  0.00000000000E+00 0. -1.
         11    1    4    4    0    0  0.29090604620E+02  0.36747143850E+01 -0.69829132850E+01  0.30141796246E+02  0.00000000000E+00 0.  1.
        -13    1    3    3    0    0  0.10653261259E+02 -0.55325559547E+02  0.12283293959E+03  0.13513822762E+03  0.00000000000E+00 0.  1.
         13    1    3    3    0    0  0.27310405598E+02  0.28465542146E+02  0.18990248148E+03  0.19395643278E+03  0.00000000000E+00 0. -1.
         -1    1    1    2    0  502 -0.65109061748E+01  0.25637335326E+02  0.84994217961E+01  0.27783178952E+02  0.00000000000E+00 0.  1.
<scales pt_clust_5="13000.00000" pt_clust_6="13000.00000" pt_clust_7="13000.00000" pt_clust_8="13000.00000" pt_clust_9="26.45118"></scales>
<clustering>
<clus scale="   26.451">  2  9  1 -1</clus>
<clus scale="   91.204">  5  6 -1 -1</clus>
<clus scale="   91.308">  7  8 -1 -1</clus>
<clus scale="  100.778">  2  5  1 -1</clus>
<clus scale="   26.451">  2  5  1 -1</clus>
</clustering>
</event>
<event>
 9    1  0.1315259E-005  0.1318477E+03  0.7546771E-02  0.1225270E+00
         21   -1    0    0  501  502  0.00000000000E+00  0.00000000000E+00  0.40684251031E+03  0.40684251031E+03  0.00000000000E+00 0. -1.
         -2   -1    0    0    0  501 -0.00000000000E+00 -0.00000000000E+00 -0.77388230926E+02  0.77388230926E+02  0.00000000000E+00 0.  1.
         23    2    1    2    0    0  0.31698543502E+02  0.97481765442E+02  0.25891171313E+02  0.13922524739E+03  0.90586006128E+02 0.  0.
         23    2    1    2    0    0  0.37501414149E+01 -0.75222049002E+02  0.19503309820E+03  0.22868323767E+03  0.92659017810E+02 0.  0.
        -11    1    3    3    0    0 -0.22734210726E+02  0.62904254083E+02 -0.62404195653E+01  0.67176873665E+02  0.00000000000E+00 0. -1.
         11    1    3    3    0    0  0.54432754228E+02  0.34577511359E+02  0.32131590879E+02  0.72048373729E+02  0.00000000000E+00 0.  1.
        -13    1    4    4    0    0  0.27326749315E+02 -0.21575390204E+02  0.12530130338E+02  0.37003416827E+02  0.00000000000E+00 0.  1.
         13    1    4    4    0    0 -0.23576607900E+02 -0.53646658798E+02  0.18250296786E+03  0.19167982084E+03  0.00000000000E+00 0. -1.
         -2    1    1    2    0  502 -0.35448684917E+02 -0.22259716440E+02  0.10853000988E+03  0.11632225618E+03  0.00000000000E+00 0.  1.
<scales pt_clust_5="13000.00000" pt_clust_6="13000.00000" pt_clust_7="13000.00000" pt_clust_8="13000.00000" pt_clust_9="41.85814"></scales>
<clustering>
<clus scale="   41.858">  1  9  2 -1</clus>
<clus scale="   90.586">  5  6 -1 -1</clus>
<clus scale="   92.659">  7  8 -1 -1</clus>
<clus scale="  130.399">  2  5  1 -1</clus>
<clus scale="   41.858">  1  5  2 -1</clus>
</clustering>
</event>
<event>
 9    1  0.1315259E-005  0.1326938E+03  0.7546771E-02  0.1223766E+00
         21   -1    0    0  501  502  0.00000000000E+00  0.00000000000E+00  0.15281237600E+03  0.15281237600E+03  0.00000000000E+00 0. -1.
          1   -1    0    0  502    0 -0.00000000000E+00 -0.00000000000E+00 -0.41319977414E+03  0.41319977414E+03  0.00000000000E+00 0. -1.
         23    2    1    2    0    0  0.10314041448E+03 -0.26400324646E+02 -0.23857799746E+03  0.27733270587E+03  0.93053998475E+02 0.  0.
         23    2    1    2    0    0 -0.67646193482E+02  0.47133700831E+02 -0.12611405742E+03  0.17656711652E+03  0.92052147783E+02 0.  0.
        -11    1    4    4    0    0 -0.22553841441E+02  0.40586738418E+02 -0.12232934714E+03  0.13084505444E+03  0.00000000000E+00 0. -1.
         11    1    4    4    0    0 -0.45092352042E+02  0.65469624125E+01 -0.37847102817E+01  0.45722062086E+02  0.00000000000E+00 0.  1.
        -11    1    3    3    0    0  0.46539935153E+02 -0.35197448248E+02 -0.40218825722E+02  0.70868751010E+02  0.00000000000E+00 0.  1.
         11    1    3    3    0    0  0.56600479332E+02  0.87971236018E+01 -0.19835917174E+03  0.20646395486E+03  0.00000000000E+00 0. -1.
          1    1    1    2  501    0 -0.35494221002E+02 -0.20733376184E+02  0.10430465675E+03  0.11211232774E+03  0.00000000000E+00 0. -1.
<scales pt_clust_5="13000.00000" pt_clust_6="13000.00000" pt_clust_7="13000.00000" pt_clust_8="13000.00000" pt_clust_9="41.10611"></scales>
<clustering>
<clus scale="   41.106">  1  9  2 -1</clus>
<clus scale="   92.052">  5  6 -1 -1</clus>
<clus scale="   93.054">  7  8 -1 -1</clus>
<clus scale="  131.993">  1  5  2 -1</clus>
<clus scale="   41.106">  1  5  2 -1</clus>
</clustering>
</event>
<event>
 9    1  0.1315259E-005  0.1209468E+03  0.7546771E-02  0.1242058E+00
          1   -1    0    0  502    0 -0.00000000000E+00  0.00000000000E+00  0.94051687543E+02  0.94051687543E+02  0.00000000000E+00 0. -1.
         21   -1    0    0  501  502  0.00000000000E+00 -0.00000000000E+00 -0.27871471477E+03  0.27871471477E+03  0.00000000000E+00 0.  1.
         23    2    1    2    0    0  0.17948910701E+02  0.74522450614E+02  0.30675936489E+01  0.11849889304E+03  0.90315106596E+02 0.  0.
         23    2    1    2    0    0  0.26800308013E+01 -0.84501413957E+02 -0.90212152092E+02  0.15409273855E+03  0.91971018053E+02 0.  0.
        -11    1    4    4    0    0  0.47024494635E+02 -0.49029634486E+02 -0.53506180959E+02  0.86476121296E+02  0.00000000000E+00 0.  1.
         11    1    4    4    0    0 -0.44344463834E+02 -0.35471779471E+02 -0.36705971133E+02  0.67616617250E+02  0.00000000000E+00 0. -1.
        -13    1    3    3    0    0  0.45366061197E+02  0.10445328931E+02 -0.99316963006E+01  0.47600661722E+02  0.00000000000E+00 0.  1.
         13    1    3    3    0    0 -0.27417150496E+02  0.64077121683E+02  0.12999289949E+02  0.70898231316E+02  0.00000000000E+00 0. -1.
          1    1    1    2  501    0 -0.20628941502E+02  0.99789633430E+01 -0.97518468786E+02  0.10017477073E+03  0.00000000000E+00 0. -1.
<scales pt_clust_5="13000.00000" pt_clust_6="13000.00000" pt_clust_7="13000.00000" pt_clust_8="13000.00000" pt_clust_9="22.91578"></scales>
<clustering>
<clus scale="   22.916">  2  9  1 -1</clus>
<clus scale="   90.315">  7  8 -1 -1</clus>
<clus scale="   91.971">  5  6 -1 -1</clus>
<clus scale="  119.692">  1  7  2 -1</clus>
<clus scale="   22.916">  2  5  1 -1</clus>
</clustering>
</event>
<event>
 9    1  0.1315259E-005  0.1028191E+03  0.7546771E-02  0.1274513E+00
         21   -1    0    0  501  502  0.00000000000E+00  0.00000000000E+00  0.81577539098E+02  0.81577539098E+02  0.00000000000E+00 0. -1.
          1   -1    0    0  502    0 -0.00000000000E+00 -0.00000000000E+00 -0.47240322156E+03  0.47240322156E+03  0.00000000000E+00 0. -1.
         23    2    1    2    0    0 -0.19654693272E+02  0.48442233158E+02 -0.25874776430E+03  0.27879739545E+03  0.89691834956E+02 0.  0.
         23    2    1    2    0    0 -0.94472875520E+00 -0.49997549474E+02 -0.18876188328E+03  0.21485238562E+03  0.89609439032E+02 0.  0.
        -11    1    3    3    0    0  0.10213707271E+02  0.62278714419E+02 -0.11349856160E+03  0.12986485888E+03  0.00000000000E+00 0.  1.
         11    1    3    3    0    0 -0.29868400544E+02 -0.13836481261E+02 -0.14524920270E+03  0.14893253657E+03  0.00000000000E+00 0. -1.
        -13    1    4    4    0    0 -0.17690155546E+02  0.20682207306E+02 -0.75947942089E+02  0.80677042644E+02  0.00000000000E+00 0.  1.
         13    1    4    4    0    0  0.16745426791E+02 -0.70679756781E+02 -0.11281394119E+03  0.13417534298E+03  0.00000000000E+00 0. -1.
          1    1    1    2  501    0  0.20599422027E+02  0.15553163158E+01  0.56683965115E+02  0.60330979587E+02  0.00000000000E+00 0. -1.
<scales pt_clust_5="13000.00000" pt_clust_6="13000.00000" pt_clust_7="13000.00000" pt_clust_8="13000.00000" pt_clust_9="20.65805"></scales>
<clustering>
<clus scale="   20.658">  1  9  2 -1</clus>
<clus scale="   89.609">  7  8 -1 -1</clus>
<clus scale="   89.692">  5  6 -1 -1</clus>
<clus scale="  102.747">  1  7  2 -1</clus>
<clus scale="   20.658">  1  5  2 -1</clus>
</clustering>
</event>
<event>
 9    1  0.1315259E-005  0.1198978E+03  0.7546771E-02  0.1243721E+00
          2   -1    0    0  502    0 -0.00000000000E+00  0.00000000000E+00  0.45945532256E+03  0.45945532256E+03  0.00000000000E+00 0. -1.
         21   -1    0    0  501  502  0.00000000000E+00 -0.00000000000E+00 -0.65157042479E+02  0.65157042479E+02  0.00000000000E+00 0. -1.
         23    2    1    2    0    0 -0.78164780397E+02  0.10393168018E+02  0.15886865579E+03  0.19928802792E+03  0.90877485902E+02 0.  0.
         23    2    1    2    0    0  0.78202507761E+02  0.15449222661E+02  0.37230434100E+02  0.12544750111E+03  0.89424043811E+02 0.  0.
        -11    1    3    3    0    0 -0.78594207794E+02 -0.13288784054E+02  0.66123745613E+02  0.10356636044E+03  0.00000000000E+00 0. -1.
         11    1    3    3    0    0  0.42942739672E+00  0.23681952072E+02  0.92744910182E+02  0.95721667487E+02  0.00000000000E+00 0.  1.
        -13    1    4    4    0    0  0.60312083315E+02  0.51143738486E+02  0.17857001603E+02  0.81068501198E+02  0.00000000000E+00 0. -1.
         13    1    4    4    0    0  0.17890424446E+02 -0.35694515825E+02  0.19373432497E+02  0.44378999917E+02  0.00000000000E+00 0.  1.
          2    1    1    2  501    0 -0.37727364238E-01 -0.25842390679E+02  0.19819919019E+03  0.19987683601E+03  0.00000000000E+00 0. -1.
<scales pt_clust_5="13000.00000" pt_clust_6="13000.00000" pt_clust_7="13000.00000" pt_clust_8="13000.00000" pt_clust_9="25.84243"></scales>
<clustering>
<clus scale="   25.842">  2  9  1 -1</clus>
<clus scale="   89.424">  7  8 -1 -1</clus>
<clus scale="   90.877">  5  6 -1 -1</clus>
<clus scale="  118.800">  2  7  1 -1</clus>
<clus scale="   25.842">  2  5  1 -1</clus>
</clustering>
</event>
<event>
 9    1  0.1315259E-005  0.1211621E+03  0.7546771E-02  0.1241884E+00
          2   -1    0    0  502    0 -0.00000000000E+00  0.00000000000E+00  0.58219393589E+03  0.58219393589E+03  0.00000000000E+00 0. -1.
         21   -1    0    0  501  502  0.00000000000E+00 -0.00000000000E+00 -0.82211113771E+02  0.82211113771E+02  0.00000000000E+00 0.  1.
         23    2    1    2    0    0  0.28833519785E+02  0.78224183548E+02  0.45908541659E+03  0.47479177468E+03  0.87848818000E+02 0.  0.
         23    2    1    2    0    0 -0.17799955975E+02 -0.56219699516E+02 -0.32252166660E+02  0.11243298761E+03  0.90130357824E+02 0.  0.
        -11    1    3    3    0    0 -0.21845923127E+02  0.45316274578E+02  0.11619739826E+03  0.12662007921E+03  0.00000000000E+00 0.  1.
         11    1    3    3    0    0  0.50679442912E+02  0.32907908969E+02  0.34288801834E+03  0.34817169547E+03  0.00000000000E+00 0. -1.
        -13    1    4    4    0    0 -0.42187843108E+02 -0.38012902115E+01  0.64692234435E+01  0.42849909747E+02  0.00000000000E+00 0. -1.
         13    1    4    4    0    0  0.24387887133E+02 -0.52418409305E+02 -0.38721390103E+02  0.69583077859E+02  0.00000000000E+00 0.  1.
          2    1    1    2  501    0 -0.11033563810E+02 -0.22004484032E+02  0.73149572191E+02  0.77180287377E+02  0.00000000000E+00 0. -1.
<scales pt_clust_5="13000.00000" pt_clust_6="13000.00000" pt_clust_7="13000.00000" pt_clust_8="13000.00000" pt_clust_9="24.61580"></scales>
<clustering>
<clus scale="   24.616">  2  9  1 -1</clus>
<clus scale="   87.849">  5  6 -1 -1</clus>
<clus scale="   90.130">  7  8 -1 -1</clus>
<clus scale="  119.475">  1  5  2 -1</clus>
<clus scale="   24.616">  2  5  1 -1</clus>
</clustering>
</event>
<event>
 9    1  0.1315259E-005  0.1033107E+03  0.7546771E-02  0.1276120E+00
         -3   -1    0    0    0  501 -0.00000000000E+00  0.00000000000E+00  0.25528091750E+03  0.25528091750E+03  0.00000000000E+00 0.  1.
         21   -1    0    0  501  502  0.00000000000E+00 -0.00000000000E+00 -0.16180125764E+03  0.16180125764E+03  0.00000000000E+00 0.  1.
         23    2    1    2    0    0  0.49672073696E+02 -0.16891939612E+02  0.21362464481E+03  0.23842206894E+03  0.91961630895E+02 0.  0.
         23    2    1    2    0    0 -0.62839246294E+01  0.58601952445E+01 -0.69446620233E+02  0.11102464916E+03  0.86196345993E+02 0.  0.
        -13    1    4    4    0    0 -0.15684441732E+01 -0.39020123429E+02 -0.19293962446E+02  0.43557858492E+02  0.00000000000E+00 0.  1.
         13    1    4    4    0    0 -0.47154804562E+01  0.44880318673E+02 -0.50152657787E+02  0.67466790670E+02  0.00000000000E+00 0. -1.
        -13    1    3    3    0    0 -0.22714309377E+02  0.22667611527E+01  0.18366116801E+02  0.29298332767E+02  0.00000000000E+00 0. -1.
         13    1    3    3    0    0  0.72386383073E+02 -0.19158700765E+02  0.19525852801E+03  0.20912373617E+03  0.00000000000E+00 0.  1.
         -3    1    1    2    0  502 -0.43388149067E+02  0.11031744367E+02 -0.50698364721E+02  0.67635457037E+02  0.00000000000E+00 0.  1.
<scales pt_clust_5="13000.00000" pt_clust_6="13000.00000" pt_clust_7="13000.00000" pt_clust_8="13000.00000" pt_clust_9="44.76864"></scales>
<clustering>
<clus scale="   44.769">  2  9  1 -1</clus>
<clus scale="   86.196">  5  6 -1 -1</clus>
<clus scale="   91.962">  7  8 -1 -1</clus>
<clus scale="   98.214">  2  5  1 -1</clus>
<clus scale="   44.769">  2  5  1 -1</clus>
</clustering>
</event>
<event>
 9    1  0.1315259E-005  0.1077201E+03  0.7546771E-02  0.1265291E+00
         21   -1    0    0  501  502  0.00000000000E+00  0.00000000000E+00  0.15412491965E+02  0.15412491965E+02  0.00000000000E+00 0.  1.
          1   -1    0    0  502    0 -0.00000000000E+00 -0.00000000000E+00 -0.95412808145E+03  0.95412808145E+03  0.00000000000E+00 0. -1.
         23    2    1    2    0    0 -0.99617482523E+01  0.55804431252E+02 -0.48150399207E+03  0.49387675420E+03  0.94099856422E+02 0.  0.
         23    2    1    2    0    0 -0.13603999150E+02 -0.48150910720E+02 -0.34832180177E+03  0.36399059762E+03  0.93045680024E+02 0.  0.
        -13    1    4    4    0    0 -0.27624506357E+02  0.18871327735E+02 -0.73312834522E+02  0.80585433347E+02  0.00000000000E+00 0.  1.
         13    1    4    4    0    0  0.14020507208E+02 -0.67022238455E+02 -0.27500896725E+03  0.28340516428E+03  0.00000000000E+00 0. -1.
        -13    1    3    3    0    0 -0.65305296963E+00  0.81286822894E+02 -0.39252172119E+03  0.40085068998E+03  0.00000000000E+00 0.  1.
         13    1    3    3    0    0 -0.93086952826E+01 -0.25482391641E+02 -0.88982270882E+02  0.93026064213E+02  0.00000000000E+00 0. -1.
          1    1    1    2  501    0  0.23565747402E+02 -0.76535205329E+01 -0.10888979564E+03  0.11167322159E+03  0.00000000000E+00 0. -1.
<scales pt_clust_5="13000.00000" pt_clust_6="13000.00000" pt_clust_7="13000.00000" pt_clust_8="13000.00000" pt_clust_9="24.77744"></scales>
<clustering>
<clus scale="   24.777">  1  9  2 -1</clus>
<clus scale="   93.046">  5  6 -1 -1</clus>
<clus scale="   94.100">  7  8 -1 -1</clus>
<clus scale="  106.800">  1  5  2 -1</clus>
<clus scale="   24.777">  1  5  2 -1</clus>
</clustering>
</event>
<event>
 9    1  0.1315259E-005  0.2342442E+03  0.7546771E-02  0.1155552E+00
         21   -1    0    0  501  502  0.00000000000E+00  0.00000000000E+00  0.12221229449E+03  0.12221229449E+03  0.00000000000E+00 0. -1.
          1   -1    0    0  502    0 -0.00000000000E+00 -0.00000000000E+00 -0.10182281610E+04  0.10182281610E+04  0.00000000000E+00 0. -1.
         23    2    1    2    0    0  0.10912100690E+02  0.58765352688E+02 -0.43291728355E+03  0.44631541606E+03  0.90596002069E+02 0.  0.
         23    2    1    2    0    0  0.17938317649E+03 -0.14886320765E+03 -0.40346321962E+03  0.47529567088E+03  0.93727405639E+02 0.  0.
        -13    1    4    4    0    0  0.14041868686E+03 -0.60690950915E+02 -0.27503547485E+03  0.31471465103E+03  0.00000000000E+00 0. -1.
         13    1    4    4    0    0  0.38964489623E+02 -0.88172256736E+02 -0.12842774477E+03  0.16058101985E+03  0.00000000000E+00 0.  1.
        -13    1    3    3    0    0 -0.32091391341E+02  0.56311880425E+02 -0.28342102127E+03  0.29073761465E+03  0.00000000000E+00 0. -1.
         13    1    3    3    0    0  0.43003492031E+02  0.24534722636E+01 -0.14949626229E+03  0.15557780141E+03  0.00000000000E+00 0.  1.
          1    1    1    2  501    0 -0.19029527718E+03  0.90097854962E+02 -0.59635363343E+02  0.21882936856E+03  0.00000000000E+00 0. -1.
<scales pt_clust_5="13000.00000" pt_clust_6="13000.00000" pt_clust_7="13000.00000" pt_clust_8="13000.00000" pt_clust_9="214.67541"></scales>
<clustering>
<clus scale="   90.596">  7  8 -1 -1</clus>
<clus scale="   93.727">  5  6 -1 -1</clus>
<clus scale="  108.536">  2  7  1 -1</clus>
<clus scale="  214.675">  1  9  2 -1</clus>
<clus scale="  214.675">  1  5  2 -1</clus>
</clustering>
</event>
<event>
 9    1  0.1315259E-005  0.1239477E+03  0.7546771E-02  0.1246869E+00
         21   -1    0    0  501  502  0.00000000000E+00  0.00000000000E+00  0.81750016660E+02  0.81750016660E+02  0.00000000000E+00 0. -1.
         -3   -1    0    0    0  501 -0.00000000000E+00 -0.00000000000E+00 -0.26003219161E+03  0.26003219161E+03  0.00000000000E+00 0.  1.
         23    2    1    2    0    0 -0.77908757354E+02  0.46214972660E+01 -0.13485433652E+03  0.18155521872E+03  0.93195883260E+02 0.  0.
         23    2    1    2    0    0  0.86098881807E+02  0.15422477125E+02 -0.69412267750E+02  0.12640348271E+03  0.59236030229E+02 0.  0.
        -13    1    3    3    0    0 -0.15097706977E+02 -0.40384529068E+02 -0.36585731356E+02  0.56545262249E+02  0.00000000000E+00 0. -1.
         13    1    3    3    0    0 -0.62811050377E+02  0.45006026334E+02 -0.98268605167E+02  0.12500995647E+03  0.00000000000E+00 0.  1.
        -13    1    4    4    0    0  0.53948684880E+02  0.29778348906E+02 -0.67123294440E+02  0.91119412423E+02  0.00000000000E+00 0.  1.
         13    1    4    4    0    0  0.32150196926E+02 -0.14355871781E+02 -0.22889733100E+01  0.35284070284E+02  0.00000000000E+00 0. -1.
         -3    1    1    2    0  502 -0.81901244525E+01 -0.20043974391E+02  0.25984429321E+02  0.33823506842E+02  0.00000000000E+00 0.  1.
<scales pt_clust_5="13000.00000" pt_clust_6="13000.00000" pt_clust_7="13000.00000" pt_clust_8="13000.00000" pt_clust_9="21.65269"></scales>
<clustering>
<clus scale="   21.653">  1  9  2 -1</clus>
<clus scale="   59.236">  7  8 -1 -1</clus>
<clus scale="   93.196">  5  6 -1 -1</clus>
<clus scale="  100.928">  1  7  2 -1</clus>
<clus scale="   21.653">  1  5  2 -1</clus>
</clustering>
</event>
<event>
 9    1  0.1315259E-005  0.1041147E+03  0.7546771E-02  0.1273072E+00
         21   -1    0    0  501  502  0.00000000000E+00  0.00000000000E+00  0.13214182589E+03  0.13214182589E+03  0.00000000000E+00 0. -1.
          2   -1    0    0  502    0 -0.00000000000E+00 -0.00000000000E+00 -0.17684976819E+03  0.17684976819E+03  0.00000000000E+00 0. -1.
         23    2    1    2    0    0 -0.30312972536E+02  0.33586095425E+02 -0.96897467283E+02  0.14038913855E+03  0.90956522295E+02 0.  0.
         23    2    1    2    0    0  0.72270957819E+02 -0.28267203768E+02  0.44334847817E+02  0.12558549270E+03  0.88227042860E+02 0.  0.
        -11    1    3    3    0    0 -0.62143315068E+02  0.25964728269E+02 -0.76042049834E+02  0.10157928955E+03  0.00000000000E+00 0. -1.
         11    1    3    3    0    0  0.31830342532E+02  0.76213671564E+01 -0.20855417449E+02  0.38809849007E+02  0.00000000000E+00 0.  1.
        -11    1    4    4    0    0  0.25118142101E+02 -0.31772543726E+02 -0.20457196744E+02  0.45375241002E+02  0.00000000000E+00 0.  1.
         11    1    4    4    0    0  0.47152815718E+02  0.35053399580E+01  0.64792044561E+02  0.80210251693E+02  0.00000000000E+00 0. -1.
          2    1    1    2  501    0 -0.41957985282E+02 -0.53188916575E+01  0.78546771693E+01  0.43016962827E+02  0.00000000000E+00 0. -1.
<scales pt_clust_5="13000.00000" pt_clust_6="13000.00000" pt_clust_7="13000.00000" pt_clust_8="13000.00000" pt_clust_9="42.29377"></scales>
<clustering>
<clus scale="   42.294">  1  9  2 -1</clus>
<clus scale="   88.227">  7  8 -1 -1</clus>
<clus scale="   90.957">  5  6 -1 -1</clus>
<clus scale="  101.739">  1  7  2 -1</clus>
<clus scale="   42.294">  1  5  2 -1</clus>
</clustering>
</event>
<event>
 9    1  0.1315259E-005  0.9955685E+02  0.7546771E-02  0.1285024E+00
         -2   -1    0    0    0  501 -0.00000000000E+00  0.00000000000E+00  0.23143836840E+03  0.23143836840E+03  0.00000000000E+00 0.  1.
         21   -1    0    0  501  502  0.00000000000E+00 -0.00000000000E+00 -0.14857144228E+03  0.14857144228E+03  0.00000000000E+00 0.  1.
         23    2    1    2    0    0  0.19905288634E+02 -0.13344130936E+01  0.12155564674E+03  0.15077491879E+03  0.86944233329E+02 0.  0.
         23    2    1    2    0    0 -0.58540801682E+02  0.21100175494E+02  0.55262397094E+02  0.12574479212E+03  0.94263340403E+02 0.  0.
        -11    1    3    3    0    0 -0.18859060371E+02 -0.13126443387E+02  0.10418747786E+03  0.10669113467E+03  0.00000000000E+00 0.  1.
         11    1    3    3    0    0  0.38764349005E+02  0.11792030293E+02  0.17368168871E+02  0.44083784118E+02  0.00000000000E+00 0. -1.
        -11    1    4    4    0    0 -0.68438282426E+02  0.47501664487E+02  0.49696718366E+02  0.97005002175E+02  0.00000000000E+00 0.  1.
         11    1    4    4    0    0  0.98974807442E+01 -0.26401488993E+02  0.55656787280E+01  0.28739789941E+02  0.00000000000E+00 0. -1.
         -2    1    1    2    0  502  0.38635513048E+02 -0.19765762401E+02 -0.93951117713E+02  0.10349009977E+03  0.00000000000E+00 0.  1.
<scales pt_clust_5="13000.00000" pt_clust_6="13000.00000" pt_clust_7="13000.00000" pt_clust_8="13000.00000" pt_clust_9="43.39802"></scales>
<clustering>
<clus scale="   43.398">  2  9  1 -1</clus>
<clus scale="   86.944">  5  6 -1 -1</clus>
<clus scale="   92.657">  1  5  2 -1</clus>
<clus scale="   94.263">  7  8 -1 -1</clus>
<clus scale="   43.398">  2  5  1 -1</clus>
</clustering>
</event>
<event>
 9    1  0.1315259E-005  0.1048656E+03  0.7546771E-02  0.1274998E+00
         -1   -1    0    0    0  501 -0.00000000000E+00  0.00000000000E+00  0.18917997310E+03  0.18917997310E+03  0.00000000000E+00 0.  1.
         21   -1    0    0  501  502  0.00000000000E+00 -0.00000000000E+00 -0.99210850075E+02  0.99210850075E+02  0.00000000000E+00 0.  1.
         23    2    1    2    0    0  0.28992217695E+02  0.14275505264E+02  0.63008713125E+02  0.11546567318E+03  0.91202439747E+02 0.  0.
         23    2    1    2    0    0 -0.30288190240E+02  0.26376443392E+02  0.57009814351E+02  0.12235611617E+03  0.10053759992E+03 0.  0.
        -11    1    4    4    0    0 -0.31173665442E+01  0.39500824312E+02  0.76696634068E+02  0.86327323443E+02  0.00000000000E+00 0.  1.
         11    1    4    4    0    0 -0.27170823696E+02 -0.13124380920E+02 -0.19686819717E+02  0.36028792727E+02  0.00000000000E+00 0. -1.
        -11    1    3    3    0    0  0.27315604530E+02  0.47668049426E+02  0.14980232090E+02  0.56945522566E+02  0.00000000000E+00 0.  1.
         11    1    3    3    0    0  0.16766131652E+01 -0.33392544162E+02  0.48028481035E+02  0.58520150614E+02  0.00000000000E+00 0. -1.
         -1    1    1    2    0  502  0.12959725446E+01 -0.40651948656E+02 -0.30049404449E+02  0.50569033826E+02  0.00000000000E+00 0.  1.
<scales pt_clust_5="13000.00000" pt_clust_6="13000.00000" pt_clust_7="13000.00000" pt_clust_8="13000.00000" pt_clust_9="40.67260"></scales>
<clustering>
<clus scale="   40.673">  2  9  1 -1</clus>
<clus scale="   91.202">  7  8 -1 -1</clus>
<clus scale="   95.952">  1  7  2 -1</clus>
<clus scale="  100.538">  5  6 -1 -1</clus>
<clus scale="   40.673">  2  5  1 -1</clus>
</clustering>
</event>
<event>
 9    1  0.1315259E-005  0.1159244E+03  0.7546771E-02  0.1254211E+00
         21   -1    0    0  501  502  0.00000000000E+00  0.00000000000E+00  0.11279906412E+03  0.11279906412E+03  0.00000000000E+00 0. -1.
         -3   -1    0    0    0  501 -0.00000000000E+00 -0.00000000000E+00 -0.17192334376E+03  0.17192334376E+03  0.00000000000E+00 0.  1.
         23    2    1    2    0    0  0.63566774931E+02 -0.27101117996E+02 -0.73985910909E+02  0.13587952276E+03  0.90631805788E+02 0.  0.
         23    2    1    2    0    0 -0.78637437295E+02  0.94083495147E+01 -0.13498597788E+02  0.11217598570E+03  0.78287138414E+02 0.  0.
        -11    1    4    4    0    0 -0.14741143078E+02  0.26496871371E+02  0.21666698553E+02  0.37267027221E+02  0.00000000000E+00 0. -1.
         11    1    4    4    0    0 -0.63896294217E+02 -0.17088521857E+02 -0.35165296341E+02  0.74908958480E+02  0.00000000000E+00 0.  1.
        -11    1    3    3    0    0 -0.21585965703E+02 -0.82579350704E+01 -0.30948520150E+02  0.38625876125E+02  0.00000000000E+00 0. -1.
         11    1    3    3    0    0  0.85152740634E+02 -0.18843182926E+02 -0.43037390759E+02  0.97253646634E+02  0.00000000000E+00 0.  1.
         -3    1    1    2    0  502  0.15070662364E+02  0.17692768481E+02  0.28360229057E+02  0.36666899416E+02  0.00000000000E+00 0.  1.
<scales pt_clust_5="13000.00000" pt_clust_6="13000.00000" pt_clust_7="13000.00000" pt_clust_8="13000.00000" pt_clust_9="23.24132"></scales>
<clustering>
<clus scale="   23.241">  1  9  2 -1</clus>
<clus scale="   78.287">  5  6 -1 -1</clus>
<clus scale="   90.632">  7  8 -1 -1</clus>
<clus scale="  106.552">  1  5  2 -1</clus>
<clus scale="   23.241">  1  5  2 -1</clus>
</clustering>
</event>
<event>
 9    1  0.1315259E-005  0.1220386E+03  0.7546771E-02  0.1240394E+00
         21   -1    0    0  501  502  0.00000000000E+00  0.00000000000E+00  0.90392544412E+02  0.90392544412E+02  0.00000000000E+00 0. -1.
         -3   -1    0    0    0  501 -0.00000000000E+00 -0.00000000000E+00 -0.28329018994E+03  0.28329018994E+03  0.00000000000E+00 0.  1.
         23    2    1    2    0    0  0.46101474869E+02  0.72078952411E+02 -0.19428049444E+03  0.23172158783E+03  0.92893823151E+02 0.  0.
         23    2    1    2    0    0 -0.20064003311E+02 -0.55994367001E+02  0.12664123601E+02  0.10934319178E+03  0.90871448747E+02 0.  0.
        -11    1    4    4    0    0  0.20141513680E+02 -0.20036653621E+02  0.39849836273E+02  0.48940346470E+02  0.00000000000E+00 0. -1.
         11    1    4    4    0    0 -0.40205516990E+02 -0.35957713379E+02 -0.27185712672E+02  0.60402845309E+02  0.00000000000E+00 0.  1.
        -13    1    3    3    0    0  0.29522801313E+02  0.34324593637E+02 -0.14900520536E+02  0.47663393060E+02  0.00000000000E+00 0.  1.
         13    1    3    3    0    0  0.16578673555E+02  0.37754358774E+02 -0.17937997390E+03  0.18405819477E+03  0.00000000000E+00 0. -1.
         -3    1    1    2    0  502 -0.26037471558E+02 -0.16084585410E+02 -0.11281274684E+02  0.32617954741E+02  0.00000000000E+00 0.  1.
<scales pt_clust_5="13000.00000" pt_clust_6="13000.00000" pt_clust_7="13000.00000" pt_clust_8="13000.00000" pt_clust_9="30.60496"></scales>
<clustering>
<clus scale="   30.605">  1  9  2 -1</clus>
<clus scale="   90.871">  5  6 -1 -1</clus>
<clus scale="   92.894">  7  8 -1 -1</clus>
<clus scale="  120.506">  1  5  2 -1</clus>
<clus scale="   30.605">  1  5  2 -1</clus>
</clustering>
</event>
<event>
 9    1  0.1315259E-005  0.1099927E+03  0.7546771E-02  0.1261483E+00
         21   -1    0    0  501  502  0.00000000000E+00  0.00000000000E+00  0.43307852903E+02  0.43307852903E+02  0.00000000000E+00 0. -1.
          2   -1    0    0  502    0 -0.00000000000E+00 -0.00000000000E+00 -0.47032540282E+03  0.47032540282E+03  0.00000000000E+00 0. -1.
         23    2    1    2    0    0  0.27640962027E+02 -0.62779630159E+02 -0.24976142801E+03  0.27478452158E+03  0.91763051574E+02 0.  0.
         23    2    1    2    0    0 -0.24803624760E+02  0.37437701334E+02 -0.18489093104E+03  0.21223005368E+03  0.94022008169E+02 0.  0.
        -11    1    3    3    0    0 -0.24400753395E+02 -0.45874778213E+02 -0.71995451160E+02  0.88787595024E+02  0.00000000000E+00 0.  1.
         11    1    3    3    0    0  0.52041715423E+02 -0.16904851947E+02 -0.17776597685E+03  0.18599692656E+03  0.00000000000E+00 0. -1.
        -13    1    4    4    0    0  0.27194726833E+02 -0.13851059815E+02 -0.44225674526E+02  0.53733744638E+02  0.00000000000E+00 0. -1.
         13    1    4    4    0    0 -0.51998351593E+02  0.51288761150E+02 -0.14066525652E+03  0.15849630904E+03  0.00000000000E+00 0.  1.
          2    1    1    2  501    0 -0.28373372670E+01  0.25341928825E+02  0.76348091323E+01  0.26618680468E+02  0.00000000000E+00 0. -1.
<scales pt_clust_5="13000.00000" pt_clust_6="13000.00000" pt_clust_7="13000.00000" pt_clust_8="13000.00000" pt_clust_9="25.50027"></scales>
<clustering>
<clus scale="   25.500">  1  9  2 -1</clus>
<clus scale="   91.763">  5  6 -1 -1</clus>
<clus scale="   94.022">  7  8 -1 -1</clus>
<clus scale="  108.068">  2  5  1 -1</clus>
<clus scale="   25.500">  1  5  2 -1</clus>
</clustering>
</event>
<event>
 9    1  0.1315259E-005  0.1187648E+03  0.7546771E-02  0.1245803E+00
         -1   -1    0    0    0  501 -0.00000000000E+00  0.00000000000E+00  0.25671969075E+03  0.25671969075E+03  0.00000000000E+00 0.  1.
         21   -1    0    0  501  502  0.00000000000E+00 -0.00000000000E+00 -0.99621051855E+02  0.99621051855E+02  0.00000000000E+00 0.  1.
         23    2    1    2    0    0  0.29209855703E+02 -0.88874860599E+02  0.14444003346E+03  0.19503527870E+03  0.91781698359E+02 0.  0.
         23    2    1    2    0    0 -0.24765311204E+02  0.30018451972E+02 -0.94224563717E+01  0.98286386617E+02  0.89760810002E+02 0.  0.
        -13    1    4    4    0    0 -0.22073560700E+02 -0.30240054943E+02 -0.54904340454E+01  0.37839765736E+02  0.00000000000E+00 0.  1.
         13    1    4    4    0    0 -0.26917505043E+01  0.60258506915E+02 -0.39320223264E+01  0.60446620881E+02  0.00000000000E+00 0. -1.
        -13    1    3    3    0    0 -0.65559247340E+01 -0.80833581983E+02  0.53957476829E+02  0.97408713322E+02  0.00000000000E+00 0. -1.
         13    1    3    3    0    0  0.35765780437E+02 -0.80412786153E+01  0.90482556636E+02  0.97626565377E+02  0.00000000000E+00 0.  1.
         -1    1    1    2    0  502 -0.44445444986E+01  0.58856408626E+02  0.22081061806E+02  0.63019077292E+02  0.00000000000E+00 0.  1.
<scales pt_clust_5="13000.00000" pt_clust_6="13000.00000" pt_clust_7="13000.00000" pt_clust_8="13000.00000" pt_clust_9="59.02399"></scales>
<clustering>
<clus scale="   59.024">  2  9  1 -1</clus>
<clus scale="   89.761">  5  6 -1 -1</clus>
<clus scale="   91.782">  7  8 -1 -1</clus>
<clus scale="  117.210">  2  5  1 -1</clus>
<clus scale="   59.024">  2  5  1 -1</clus>
</clustering>
</event>
<event>
 9    1  0.1315259E-005  0.1012644E+03  0.7546771E-02  0.1278030E+00
          1   -1    0    0  502    0 -0.00000000000E+00  0.00000000000E+00  0.13259492342E+03  0.13259492342E+03  0.00000000000E+00 0. -1.
         21   -1    0    0  501  502  0.00000000000E+00 -0.00000000000E+00 -0.20145656234E+03  0.20145656234E+03  0.00000000000E+00 0. -1.
         23    2    1    2    0    0  0.33960946698E+02 -0.24800169599E+02  0.79485580476E+02  0.12760015899E+03  0.90528717862E+02 0.  0.
         23    2    1    2    0    0 -0.37476914175E+02  0.51654195652E+02 -0.90317231090E+02  0.14241243010E+03  0.89729721897E+02 0.  0.
        -11    1    3    3    0    0 -0.24531008066E+02 -0.29895402020E+02  0.45675310320E+02  0.59847634803E+02  0.00000000000E+00 0.  1.
         11    1    3    3    0    0  0.58491954765E+02  0.50952324207E+01  0.33810270156E+02  0.67752524186E+02  0.00000000000E+00 0. -1.
        -13    1    4    4    0    0 -0.40277964093E+02  0.72560628819E+02 -0.49939647756E+02  0.96857254060E+02  0.00000000000E+00 0. -1.
         13    1    4    4    0    0  0.28010499178E+01 -0.20906433167E+02 -0.40377583334E+02  0.45555176043E+02  0.00000000000E+00 0.  1.
          1    1    1    2  501    0  0.35159674769E+01 -0.26854026052E+02 -0.58029988311E+02  0.64038896664E+02  0.00000000000E+00 0. -1.
<scales pt_clust_5="13000.00000" pt_clust_6="13000.00000" pt_clust_7="13000.00000" pt_clust_8="13000.00000" pt_clust_9="27.08322"></scales>
<clustering>
<clus scale="   27.083">  2  9  1 -1</clus>
<clus scale="   89.730">  7  8 -1 -1</clus>
<clus scale="   90.529">  5  6 -1 -1</clus>
<clus scale="  100.551">  2  7  1 -1</clus>
<clus scale="   27.083">  2  5  1 -1</clus>
</clustering>
</event>
<event>
 9    1  0.1315259E-005  0.2835129E+03  0.7546771E-02  0.1094046E+00
         21   -1    0    0  501  502  0.00000000000E+00  0.00000000000E+00  0.96449262563E+03  0.96449262563E+03  0.00000000000E+00 0. -1.
          1   -1    0    0  502    0 -0.00000000000E+00 -0.00000000000E+00 -0.28672243320E+03  0.28672243320E+03  0.00000000000E+00 0. -1.
         23    2    1    2    0    0 -0.20535882111E+03 -0.15347808108E+03 -0.13866046518E+03  0.30532339616E+03  0.90927910222E+02 0.  0.
         23    2    1    2    0    0  0.28966762041E+03  0.20675325898E+03  0.54206212475E+03  0.65395963282E+03  0.84720799446E+02 0.  0.
        -11    1    4    4    0    0  0.26923257361E+03  0.16073500981E+03  0.48822340795E+03  0.58024479156E+03  0.00000000000E+00 0. -1.
         11    1    4    4    0    0  0.20435046808E+02  0.46018249174E+02  0.53838716800E+02  0.73714841259E+02  0.00000000000E+00 0.  1.
        -13    1    3    3    0    0 -0.84486436397E+02 -0.12168403998E+02 -0.54000367831E+02  0.10100528559E+03  0.00000000000E+00 0.  1.
         13    1    3    3    0    0 -0.12087238471E+03 -0.14130967708E+03 -0.84660097352E+02  0.20431811057E+03  0.00000000000E+00 0. -1.
          1    1    1    2  501    0 -0.84308799303E+02 -0.53275177902E+02  0.27436853287E+03  0.29193202984E+03  0.00000000000E+00 0. -1.
<scales pt_clust_5="13000.00000" pt_clust_6="13000.00000" pt_clust_7="13000.00000" pt_clust_8="13000.00000" pt_clust_9="99.73073"></scales>
<clustering>
<clus scale="   84.721">  5  6 -1 -1</clus>
<clus scale="   90.928">  7  8 -1 -1</clus>
<clus scale="   99.731">  1  9  2 -1</clus>
<clus scale="  281.584">  1  5  2 -1</clus>
<clus scale="   99.731">  1  5  2 -1</clus>
</clustering>
</event>
<event>
 9    1  0.1315259E-005  0.9987806E+02  0.7546771E-02  0.1281170E+00
         21   -1    0    0  501  502  0.00000000000E+00  0.00000000000E+00  0.12308866948E+03  0.12308866948E+03  0.00000000000E+00 0.  1.
         -1   -1    0    0    0  501 -0.00000000000E+00 -0.00000000000E+00 -0.12247643604E+03  0.12247643604E+03  0.00000000000E+00 0.  1.
         23    2    1    2    0    0 -0.95451557453E+01  0.31087873725E+02 -0.29251398560E+02  0.10188228796E+03  0.92015163922E+02 0.  0.
         23    2    1    2    0    0 -0.10340238732E+02 -0.50057483858E+02  0.14651180085E+01  0.10416382695E+03  0.90748465813E+02 0.  0.
        -11    1    4    4    0    0 -0.41967349061E+02 -0.28304302520E+02 -0.26055118483E+02  0.56932074681E+02  0.00000000000E+00 0. -1.
         11    1    4    4    0    0  0.31627110329E+02 -0.21753181338E+02  0.27520236491E+02  0.47231752271E+02  0.00000000000E+00 0.  1.
        -13    1    3    3    0    0 -0.42590571898E+02 -0.74284021317E+01 -0.27226948383E+02  0.51092511106E+02  0.00000000000E+00 0.  1.
         13    1    3    3    0    0  0.33045416153E+02  0.38516275856E+02 -0.20244501767E+01  0.50789776856E+02  0.00000000000E+00 0. -1.
         -1    1    1    2    0  502  0.19885394477E+02  0.18969610133E+02  0.28398513993E+02  0.39518990614E+02  0.00000000000E+00 0.  1.
<scales pt_clust_5="13000.00000" pt_clust_6="13000.00000" pt_clust_7="13000.00000" pt_clust_8="13000.00000" pt_clust_9="27.48227"></scales>
<clustering>
<clus scale="   27.482">  1  9  2 -1</clus>
<clus scale="   90.748">  5  6 -1 -1</clus>
<clus scale="   92.015">  7  8 -1 -1</clus>
<clus scale="   98.712">  1  5  2 -1</clus>
<clus scale="   27.482">  1  5  2 -1</clus>
</clustering>
</event>
<event>
 9    1  0.1315259E-005  0.9840063E+02  0.7546771E-02  0.1284487E+00
         -1   -1    0    0    0  501 -0.00000000000E+00  0.00000000000E+00  0.36415860024E+02  0.36415860024E+02  0.00000000000E+00 0.  1.
         21   -1    0    0  501  502  0.00000000000E+00 -0.00000000000E+00 -0.39036761177E+03  0.39036761177E+03  0.00000000000E+00 0. -1.
         23    2    1    2    0    0  0.25855286707E+02 -0.30627277294E+02 -0.14572446264E+03  0.17410049697E+03  0.86422439608E+02 0.  0.
         23    2    1    2    0    0  0.43125147415E+01  0.55190352861E+02 -0.15773071569E+03  0.18893860369E+03  0.88058187908E+02 0.  0.
        -11    1    4    4    0    0  0.19277467516E+02  0.26294691935E+02 -0.52498390994E+01  0.33024118283E+02  0.00000000000E+00 0.  1.
         11    1    4    4    0    0 -0.14964952775E+02  0.28895660926E+02 -0.15248087659E+03  0.15591448540E+03  0.00000000000E+00 0. -1.
        -13    1    3    3    0    0  0.19619760588E+02  0.28299143103E+02 -0.69407645020E+02  0.77480305195E+02  0.00000000000E+00 0. -1.
         13    1    3    3    0    0  0.62355261182E+01 -0.58926420397E+02 -0.76316817622E+02  0.96620191776E+02  0.00000000000E+00 0.  1.
         -1    1    1    2    0  502 -0.30167801448E+02 -0.24563075566E+02 -0.50496573408E+02  0.63744371135E+02  0.00000000000E+00 0.  1.
<scales pt_clust_5="13000.00000" pt_clust_6="13000.00000" pt_clust_7="13000.00000" pt_clust_8="13000.00000" pt_clust_9="38.90299"></scales>
<clustering>
<clus scale="   38.903">  2  9  1 -1</clus>
<clus scale="   86.422">  7  8 -1 -1</clus>
<clus scale="   88.058">  5  6 -1 -1</clus>
<clus scale="   96.940">  1  7  2 -1</clus>
<clus scale="   38.903">  2  5  1 -1</clus>
</clustering>
</event>
<event>
 9    1  0.1315259E-005  0.1302406E+03  0.7546771E-02  0.1227533E+00
         21   -1    0    0  501  502  0.00000000000E+00  0.00000000000E+00  0.28287607063E+03  0.28287607063E+03  0.00000000000E+00 0.  1.
          1   -1    0    0  502    0 -0.00000000000E+00 -0.00000000000E+00 -0.14738296432E+03  0.14738296432E+03  0.00000000000E+00 0. -1.
         23    2    1    2    0    0  0.52803103912E+02  0.72493079706E+02 -0.78299980784E+02  0.15029451631E+03  0.91728622878E+02 0.  0.
         23    2    1    2    0    0 -0.89230446542E+02 -0.65873751095E+02  0.15816524478E+03  0.21314218972E+03  0.90066224021E+02 0.  0.
        -13    1    4    4    0    0 -0.10026832117E+03 -0.29037188712E+02  0.11355698656E+03  0.15424682737E+03  0.00000000000E+00 0.  1.
         13    1    4    4    0    0  0.11037874628E+02 -0.36836562383E+02  0.44608258226E+02  0.58895362351E+02  0.00000000000E+00 0. -1.
        -13    1    3    3    0    0  0.35559010507E+02  0.61645873437E+02 -0.98556958412E+02  0.12156533631E+03  0.00000000000E+00 0. -1.
         13    1    3    3    0    0  0.17244093406E+02  0.10847206269E+02  0.20256977628E+02  0.28729180006E+02  0.00000000000E+00 0.  1.
          1    1    1    2  501    0  0.36427342630E+02 -0.66193286109E+01  0.55627842303E+02  0.66822328915E+02  0.00000000000E+00 0. -1.
<scales pt_clust_5="13000.00000" pt_clust_6="13000.00000" pt_clust_7="13000.00000" pt_clust_8="13000.00000" pt_clust_9="37.02387"></scales>
<clustering>
<clus scale="   37.024">  1  9  2 -1</clus>
<clus scale="   90.066">  5  6 -1 -1</clus>
<clus scale="   91.729">  7  8 -1 -1</clus>
<clus scale="  129.075">  1  5  2 -1</clus>
<clus scale="   37.024">  1  5  2 -1</clus>
</clustering>
</event>
<event>
 9    1  0.1315259E-005  0.1000611E+03  0.7546771E-02  0.1281029E+00
         21   -1    0    0  501  502  0.00000000000E+00  0.00000000000E+00  0.45157376373E+03  0.45157376373E+03  0.00000000000E+00 0.  1.
          4   -1    0    0  502    0 -0.00000000000E+00 -0.00000000000E+00 -0.48757437869E+02  0.48757437869E+02  0.00000000000E+00 0. -1.
         23    2    1    2    0    0  0.22720627301E+01  0.31621563890E+02  0.57277473346E+02  0.11068996953E+03  0.89255110947E+02 0.  0.
         23    2    1    2    0    0 -0.23365132375E+02 -0.54753052847E+02  0.12010131495E+03  0.16204055827E+03  0.91043893072E+02 0.  0.
        -11    1    4    4    0    0 -0.20810235416E+02 -0.93268175035E+01  0.11385425559E+03  0.11611566190E+03  0.00000000000E+00 0.  1.
         11    1    4    4    0    0 -0.25548969587E+01 -0.45426235344E+02  0.62470593574E+01  0.45924896370E+02  0.00000000000E+00 0. -1.
        -13    1    3    3    0    0  0.35260193476E+02  0.33200184930E+02  0.47770236557E+01  0.48665732074E+02  0.00000000000E+00 0. -1.
         13    1    3    3    0    0 -0.32988130745E+02 -0.15786210406E+01  0.52500449691E+02  0.62024237457E+02  0.00000000000E+00 0.  1.
          4    1    1    2  501    0  0.21093069644E+02  0.23131488957E+02  0.22543753757E+03  0.22760067380E+03  0.00000000000E+00 0. -1.
<scales pt_clust_5="13000.00000" pt_clust_6="13000.00000" pt_clust_7="13000.00000" pt_clust_8="13000.00000" pt_clust_9="31.30469"></scales>
<clustering>
<clus scale="   31.305">  1  9  2 -1</clus>
<clus scale="   89.255">  7  8 -1 -1</clus>
<clus scale="   91.044">  5  6 -1 -1</clus>
<clus scale="   98.436">  2  7  1 -1</clus>
<clus scale="   31.305">  1  5  2 -1</clus>
</clustering>
</event>
<event>
 9    1  0.1315259E-005  0.1762877E+03  0.7546771E-02  0.1192879E+00
          2   -1    0    0  502    0 -0.00000000000E+00  0.00000000000E+00  0.23588077000E+03  0.23588077000E+03  0.00000000000E+00 0. -1.
         21   -1    0    0  501  502  0.00000000000E+00 -0.00000000000E+00 -0.21148284959E+03  0.21148284959E+03  0.00000000000E+00 0. -1.
         23    2    1    2    0    0  0.57393089972E+02 -0.21300428501E+01  0.15150546235E+02  0.11012534890E+03  0.92733756316E+02 0.  0.
         23    2    1    2    0    0 -0.12006113701E+03  0.12615222517E+03  0.19737863570E+02  0.19788678633E+03  0.91872391992E+02 0.  0.
        -11    1    3    3    0    0  0.31116085033E+02  0.31053530976E+02 -0.26014658122E+02  0.51081258511E+02  0.00000000000E+00 0. -1.
         11    1    3    3    0    0  0.26277004939E+02 -0.33183573826E+02  0.41165204356E+02  0.59044090391E+02  0.00000000000E+00 0.  1.
        -13    1    4    4    0    0  0.35591308281E+01  0.53252404371E+02  0.42852085911E+01  0.53542964021E+02  0.00000000000E+00 0.  1.
         13    1    4    4    0    0 -0.12362026784E+03  0.72899820800E+02  0.15452654978E+02  0.14434382231E+03  0.00000000000E+00 0. -1.
          2    1    1    2  501    0  0.62668047037E+02 -0.12402218232E+03 -0.10490489394E+02  0.13935148437E+03  0.00000000000E+00 0. -1.
<scales pt_clust_5="13000.00000" pt_clust_6="13000.00000" pt_clust_7="13000.00000" pt_clust_8="13000.00000" pt_clust_9="150.45536"></scales>
<clustering>
<clus scale="   91.872">  7  8 -1 -1</clus>
<clus scale="   92.734">  5  6 -1 -1</clus>
<clus scale="  109.078">  1  5  2 -1</clus>
<clus scale="  150.455">  2  9  1 -1</clus>
<clus scale="  150.455">  2  5  1 -1</clus>
</clustering>
</event>
<event>
 9    1  0.1315259E-005  0.3143669E+03  0.7546771E-02  0.1079393E+00
          2   -1    0    0  502    0 -0.00000000000E+00  0.00000000000E+00  0.82878838561E+03  0.82878838561E+03  0.00000000000E+00 0. -1.
         21   -1    0    0  501  502  0.00000000000E+00 -0.00000000000E+00 -0.17236897472E+03  0.17236897472E+03  0.00000000000E+00 0. -1.
         23    2    1    2    0    0 -0.22535397161E+03  0.20092479883E+03  0.32329294745E+03  0.44992086857E+03  0.82190454453E+02 0.  0.
         23    2    1    2    0    0  0.26532433807E+03 -0.11657936214E+03  0.14856602806E+03  0.34441691533E+03  0.11208655057E+03 0.  0.
        -11    1    3    3    0    0 -0.48705999795E+02  0.35867277572E+02  0.23741675246E+02  0.64980021237E+02  0.00000000000E+00 0.  1.
         11    1    3    3    0    0 -0.17664797181E+03  0.16505752126E+03  0.29955127220E+03  0.38494084734E+03  0.00000000000E+00 0. -1.
        -11    1    4    4    0    0  0.33574307515E+02 -0.54124076888E+02  0.63045447405E+02  0.89617957255E+02  0.00000000000E+00 0.  1.
         11    1    4    4    0    0  0.23175003056E+03 -0.62455285257E+02  0.85520580658E+02  0.25479895807E+03  0.00000000000E+00 0. -1.
          2    1    1    2  501    0 -0.39970366464E+02 -0.84345436683E+02  0.18456043538E+03  0.20681957642E+03  0.00000000000E+00 0. -1.
<scales pt_clust_5="13000.00000" pt_clust_6="13000.00000" pt_clust_7="13000.00000" pt_clust_8="13000.00000" pt_clust_9="93.33698"></scales>
<clustering>
<clus scale="   82.190">  5  6 -1 -1</clus>
<clus scale="   93.337">  2  9  1 -1</clus>
<clus scale="  112.087">  7  8 -1 -1</clus>
<clus scale="  304.989">  1  5  2 -1</clus>
<clus scale="   93.337">  2  5  1 -1</clus>
</clustering>
</event>
<event>
 9    1  0.1315259E-005  0.1268104E+03  0.7546771E-02  0.1240064E+00
         21   -1    0    0  501  502  0.00000000000E+00  0.00000000000E+00  0.24290762642E+03  0.24290762642E+03  0.00000000000E+00 0. -1.
          2   -1    0    0  502    0 -0.00000000000E+00 -0.00000000000E+00 -0.43298404746E+03  0.43298404746E+03  0.00000000000E+00 0. -1.
         23    2    1    2    0    0  0.31534274457E+02 -0.24585688141E+02 -0.32406072226E+03  0.34694369305E+03  0.11728473009E+03 0.  0.
         23    2    1    2    0    0 -0.61001153386E+02  0.46938818010E+02 -0.55748537128E+02  0.13564379227E+03  0.96782982182E+02 0.  0.
        -11    1    3    3    0    0  0.61261420340E+02  0.17577637471E+02 -0.23997029378E+03  0.24828950211E+03  0.00000000000E+00 0.  1.
         11    1    3    3    0    0 -0.29727145883E+02 -0.42163325611E+02 -0.84090428474E+02  0.98654190940E+02  0.00000000000E+00 0. -1.
        -13    1    4    4    0    0 -0.18210590501E+02  0.30416138435E+02 -0.77241478466E+02  0.84988311427E+02  0.00000000000E+00 0. -1.
         13    1    4    4    0    0 -0.42790562886E+02  0.16522679575E+02  0.21492941338E+02  0.50655480847E+02  0.00000000000E+00 0.  1.
          2    1    1    2  501    0  0.29466878929E+02 -0.22353129870E+02  0.18973283835E+03  0.19330418856E+03  0.00000000000E+00 0. -1.
<scales pt_clust_5="13000.00000" pt_clust_6="13000.00000" pt_clust_7="13000.00000" pt_clust_8="13000.00000" pt_clust_9="36.98593"></scales>
<clustering>
<clus scale="   36.986">  1  9  2 -1</clus>
<clus scale="   96.783">  7  8 -1 -1</clus>
<clus scale="  108.130">  1  7  2 -1</clus>
<clus scale="  117.285">  5  6 -1 -1</clus>
<clus scale="   36.986">  1  5  2 -1</clus>
</clustering>
</event>
<event>
 9    1  0.1315259E-005  0.1200110E+03  0.7546771E-02  0.1243442E+00
          2   -1    0    0  502    0 -0.00000000000E+00  0.00000000000E+00  0.35561276344E+03  0.35561276344E+03  0.00000000000E+00 0. -1.
         21   -1    0    0  501  502  0.00000000000E+00 -0.00000000000E+00 -0.60107650909E+02  0.60107650909E+02  0.00000000000E+00 0.  1.
         23    2    1    2    0    0 -0.36763426564E+02  0.54662857663E+02  0.15872620164E+03  0.19386349792E+03  0.89718845269E+02 0.  0.
         23    2    1    2    0    0  0.64759108414E+02 -0.79654913403E+02  0.10532897468E+03  0.17289305690E+03  0.90879969557E+02 0.  0.
        -11    1    4    4    0    0  0.42265463528E+02 -0.92320747854E+02  0.52983425386E+02  0.11452830767E+03  0.00000000000E+00 0.  1.
         11    1    4    4    0    0  0.22493644886E+02  0.12665834451E+02  0.52345549292E+02  0.58364749235E+02  0.00000000000E+00 0. -1.
        -13    1    3    3    0    0 -0.31390186373E+01  0.70478386905E+02  0.79075129470E+02  0.10597137613E+03  0.00000000000E+00 0. -1.
         13    1    3    3    0    0 -0.33624407927E+02 -0.15815529242E+02  0.79651072172E+02  0.87892121784E+02  0.00000000000E+00 0.  1.
          2    1    1    2  501    0 -0.27995681850E+02  0.24992055740E+02  0.31449936209E+02  0.48963859528E+02  0.00000000000E+00 0. -1.
<scales pt_clust_5="13000.00000" pt_clust_6="13000.00000" pt_clust_7="13000.00000" pt_clust_8="13000.00000" pt_clust_9="37.52814"></scales>
<clustering>
<clus scale="   37.528">  2  9  1 -1</clus>
<clus scale="   89.719">  7  8 -1 -1</clus>
<clus scale="   90.880">  5  6 -1 -1</clus>
<clus scale="  119.134">  1  7  2 -1</clus>
<clus scale="   37.528">  2  5  1 -1</clus>
</clustering>
</event>
<event>
 9    1  0.1315259E-005  0.1290491E+03  0.7546771E-02  0.1243334E+00
         -3   -1    0    0    0  501 -0.00000000000E+00  0.00000000000E+00  0.42033774730E+03  0.42033774730E+03  0.00000000000E+00 0.  1.
         21   -1    0    0  501  502  0.00000000000E+00 -0.00000000000E+00 -0.48958082563E+02  0.48958082563E+02  0.00000000000E+00 0. -1.
         23    2    1    2    0    0 -0.27001724915E+02 -0.29837338129E+02  0.21525230491E+03  0.23668837068E+03  0.89824663386E+02 0.  0.
         23    2    1    2    0    0  0.32523159928E+02 -0.92758695352E+01  0.13871544537E+03  0.18943913719E+03  0.12450467553E+03 0.  0.
        -11    1    4    4    0    0  0.68022200447E+02  0.27932099904E+02  0.57652058645E+02  0.93439722948E+02  0.00000000000E+00 0. -1.
         11    1    4    4    0    0 -0.35499040519E+02 -0.37207969439E+02  0.81063386728E+02  0.95999414245E+02  0.00000000000E+00 0.  1.
        -11    1    3    3    0    0 -0.20827544855E+02  0.20774496502E+02  0.15495933243E+03  0.15772685578E+03  0.00000000000E+00 0.  1.
         11    1    3    3    0    0 -0.61741800600E+01 -0.50611834631E+02  0.60292972481E+02  0.78961514896E+02  0.00000000000E+00 0. -1.
         -3    1    1    2    0  502 -0.55214350132E+01  0.39113207664E+02  0.17411914457E+02  0.43168321990E+02  0.00000000000E+00 0.  1.
<scales pt_clust_5="13000.00000" pt_clust_6="13000.00000" pt_clust_7="13000.00000" pt_clust_8="13000.00000" pt_clust_9="39.50100"></scales>
<clustering>
<clus scale="   39.501">  2  9  1 -1</clus>
<clus scale="   89.825">  7  8 -1 -1</clus>
<clus scale="   96.025">  1  7  2 -1</clus>
<clus scale="  124.505">  5  6 -1 -1</clus>
<clus scale="   39.501">  2  5  1 -1</clus>
</clustering>
</event>
<event>
 9    1  0.1315259E-005  0.1099322E+03  0.7546771E-02  0.1261889E+00
         21   -1    0    0  501  502  0.00000000000E+00  0.00000000000E+00  0.57630456450E+03  0.57630456450E+03  0.00000000000E+00 0.  1.
          1   -1    0    0  502    0 -0.00000000000E+00 -0.00000000000E+00 -0.52162058299E+02  0.52162058299E+02  0.00000000000E+00 0. -1.
         23    2    1    2    0    0  0.30246707143E+02  0.53141283227E+02  0.50207926808E+02  0.12468608166E+03  0.96368686667E+02 0.  0.
         23    2    1    2    0    0 -0.43118341565E+02 -0.10942019801E+02  0.18931294806E+03  0.21575983037E+03  0.93455834077E+02 0.  0.
        -11    1    4    4    0    0 -0.11640630162E+02 -0.19816531969E+02 -0.66022794382E+00  0.22992066258E+02  0.00000000000E+00 0. -1.
         11    1    4    4    0    0 -0.31477711403E+02  0.88745121682E+01  0.18997317600E+03  0.19276776411E+03  0.00000000000E+00 0.  1.
        -13    1    3    3    0    0 -0.34711602449E+02  0.22297476690E+02  0.10624938893E+02  0.42602372443E+02  0.00000000000E+00 0.  1.
         13    1    3    3    0    0  0.64958309592E+02  0.30843806537E+02  0.39582987915E+02  0.82083709219E+02  0.00000000000E+00 0. -1.
          1    1    1    2  501    0  0.12871634422E+02 -0.42199263426E+02  0.28462163133E+03  0.28802071076E+03  0.00000000000E+00 0. -1.
<scales pt_clust_5="13000.00000" pt_clust_6="13000.00000" pt_clust_7="13000.00000" pt_clust_8="13000.00000" pt_clust_9="44.11867"></scales>
<clustering>
<clus scale="   44.119">  1  9  2 -1</clus>
<clus scale="   93.456">  5  6 -1 -1</clus>
<clus scale="   96.369">  7  8 -1 -1</clus>
<clus scale="  107.388">  1  5  2 -1</clus>
<clus scale="   44.119">  1  5  2 -1</clus>
</clustering>
</event>
<event>
 9    1  0.1315259E-005  0.1040118E+03  0.7546771E-02  0.1273043E+00
         21   -1    0    0  501  502  0.00000000000E+00  0.00000000000E+00  0.23240117889E+03  0.23240117889E+03  0.00000000000E+00 0.  1.
         -3   -1    0    0    0  501 -0.00000000000E+00 -0.00000000000E+00 -0.26726187331E+03  0.26726187331E+03  0.00000000000E+00 0.  1.
         23    2    1    2    0    0 -0.15145692284E+02 -0.48210720126E+02 -0.23896392698E+03  0.26010551499E+03  0.89428491008E+02 0.  0.
         23    2    1    2    0    0  0.16551359656E+02  0.22081903180E+02  0.18064015184E+03  0.20441202352E+03  0.91607057304E+02 0.  0.
        -11    1    3    3    0    0 -0.45754999864E+02 -0.62781702424E+00 -0.95809781484E+02  0.10617640225E+03  0.00000000000E+00 0. -1.
         11    1    3    3    0    0  0.30609307580E+02 -0.47582903102E+02 -0.14315414549E+03  0.15392911274E+03  0.00000000000E+00 0.  1.
        -13    1    4    4    0    0 -0.28385722333E+02 -0.17737707040E+02  0.86551018421E+02  0.92797921707E+02  0.00000000000E+00 0.  1.
         13    1    4    4    0    0  0.44937081989E+02  0.39819610220E+02  0.94089133417E+02  0.11161410181E+03  0.00000000000E+00 0. -1.
         -3    1    1    2    0  502 -0.14056673721E+01  0.26128816946E+02  0.23463080721E+02  0.35145513692E+02  0.00000000000E+00 0.  1.
<scales pt_clust_5="13000.00000" pt_clust_6="13000.00000" pt_clust_7="13000.00000" pt_clust_8="13000.00000" pt_clust_9="26.16660"></scales>
<clustering>
<clus scale="   26.167">  1  9  2 -1</clus>
<clus scale="   89.428">  5  6 -1 -1</clus>
<clus scale="   91.607">  7  8 -1 -1</clus>
<clus scale="  102.098">  2  5  1 -1</clus>
<clus scale="   26.167">  1  5  2 -1</clus>
</clustering>
</event>
<event>
 9    1  0.1315259E-005  0.9325889E+02  0.7546771E-02  0.1295588E+00
          1   -1    0    0  502    0 -0.00000000000E+00  0.00000000000E+00  0.32109536099E+03  0.32109536099E+03  0.00000000000E+00 0. -1.
         21   -1    0    0  501  502  0.00000000000E+00 -0.00000000000E+00 -0.55547067653E+02  0.55547067653E+02  0.00000000000E+00 0. -1.
         23    2    1    2    0    0  0.24140179779E+02  0.93919150950E+01  0.19154869956E+03  0.21369744237E+03  0.91130325471E+02 0.  0.
         23    2    1    2    0    0 -0.70247287096E+00  0.10785324944E+02  0.89160972506E+02  0.12850206936E+03  0.91903678436E+02 0.  0.
        -11    1    4    4    0    0  0.34350838269E+02 -0.87344671908E+01  0.57016086959E+01  0.35899573098E+02  0.00000000000E+00 0. -1.
         11    1    4    4    0    0 -0.35053311140E+02  0.19519792135E+02  0.83459363810E+02  0.92602496265E+02  0.00000000000E+00 0.  1.
        -11    1    3    3    0    0  0.48121358058E+02  0.14241999412E+02  0.17957955015E+03  0.18645995410E+03  0.00000000000E+00 0. -1.
         11    1    3    3    0    0 -0.23981178280E+02 -0.48500843166E+01  0.11969149409E+02  0.27237488268E+02  0.00000000000E+00 0.  1.
          1    1    1    2  501    0 -0.23437706908E+02 -0.20177240039E+02 -0.15161378730E+02  0.34442916916E+02  0.00000000000E+00 0. -1.
<scales pt_clust_5="13000.00000" pt_clust_6="13000.00000" pt_clust_7="13000.00000" pt_clust_8="13000.00000" pt_clust_9="30.92648"></scales>
<clustering>
<clus scale="   30.926">  2  9  1 -1</clus>
<clus scale="   91.130">  7  8 -1 -1</clus>
<clus scale="   91.904">  5  6 -1 -1</clus>
<clus scale="   92.497">  1  7  2 -1</clus>
<clus scale="   30.926">  2  5  1 -1</clus>
</clustering>
</event>
<event>
 9    1  0.1315259E-005  0.9441193E+02  0.7546771E-02  0.1292829E+00
         21   -1    0    0  501  502  0.00000000000E+00  0.00000000000E+00  0.10410647873E+03  0.10410647873E+03  0.00000000000E+00 0.  1.
          3   -1    0    0  502    0 -0.00000000000E+00 -0.00000000000E+00 -0.21593980643E+03  0.21593980643E+03  0.00000000000E+00 0. -1.
         23    2    1    2    0    0  0.28836559431E+02 -0.24063474498E+02 -0.11836756181E+03  0.15435186541E+03  0.91667991698E+02 0.  0.
         23    2    1    2    0    0  0.11609054571E+02 -0.28633417256E+02  0.19172991277E+02  0.98073799549E+02  0.91083609018E+02 0.  0.
        -11    1    3    3    0    0  0.33399031117E+02  0.12628146237E+02 -0.11106474565E+03  0.11666337507E+03  0.00000000000E+00 0. -1.
         11    1    3    3    0    0 -0.45624716856E+01 -0.36691620735E+02 -0.73028161603E+01  0.37688490337E+02  0.00000000000E+00 0.  1.
        -11    1    4    4    0    0  0.40127862375E+02  0.95533936345E+01 -0.96663544220E+01  0.42366862953E+02  0.00000000000E+00 0. -1.
         11    1    4    4    0    0 -0.28518807804E+02 -0.38186810891E+02  0.28839345699E+02  0.55706936596E+02  0.00000000000E+00 0.  1.
          3    1    1    2  501    0 -0.40445614002E+02  0.52696891754E+02 -0.12638757165E+02  0.67620620193E+02  0.00000000000E+00 0. -1.
<scales pt_clust_5="13000.00000" pt_clust_6="13000.00000" pt_clust_7="13000.00000" pt_clust_8="13000.00000" pt_clust_9="66.42899"></scales>
<clustering>
<clus scale="   66.429">  1  9  2 -1</clus>
<clus scale="   91.084">  7  8 -1 -1</clus>
<clus scale="   91.668">  5  6 -1 -1</clus>
<clus scale="   93.845">  1  7  2 -1</clus>
<clus scale="   66.429">  1  5  2 -1</clus>
</clustering>
</event>
<event>
 9    1  0.1315259E-005  0.1111108E+03  0.7546771E-02  0.1259693E+00
         21   -1    0    0  501  502  0.00000000000E+00  0.00000000000E+00  0.19752444829E+03  0.19752444829E+03  0.00000000000E+00 0.  1.
          1   -1    0    0  502    0 -0.00000000000E+00 -0.00000000000E+00 -0.13756803449E+03  0.13756803449E+03  0.00000000000E+00 0. -1.
         23    2    1    2    0    0  0.51449392837E+01  0.67286574161E+02 -0.17314960715E+02  0.11442109698E+03  0.90765776081E+02 0.  0.
         23    2    1    2    0    0  0.68452798593E+02 -0.49010608077E+02  0.78752795823E+02  0.14482395626E+03  0.87659284271E+02 0.  0.
        -11    1    4    4    0    0  0.52686331978E+02 -0.74643017056E+02  0.61517649097E+02  0.11014468087E+03  0.00000000000E+00 0.  1.
         11    1    4    4    0    0  0.15766466615E+02  0.25632408978E+02  0.17235146725E+02  0.34679275399E+02  0.00000000000E+00 0. -1.
        -13    1    3    3    0    0 -0.16513786648E+02  0.83319045337E+02 -0.58638798588E+01  0.85141961173E+02  0.00000000000E+00 0.  1.
         13    1    3    3    0    0  0.21658725932E+02 -0.16032471176E+02 -0.11451080857E+02  0.29279135810E+02  0.00000000000E+00 0. -1.
          1    1    1    2  501    0 -0.73597737877E+02 -0.18275966084E+02 -0.14814213073E+01  0.75847429528E+02  0.00000000000E+00 0. -1.
<scales pt_clust_5="13000.00000" pt_clust_6="13000.00000" pt_clust_7="13000.00000" pt_clust_8="13000.00000" pt_clust_9="75.83300"></scales>
<clustering>
<clus scale="   75.833">  1  9  2 -1</clus>
<clus scale="   87.659">  5  6 -1 -1</clus>
<clus scale="   90.766">  7  8 -1 -1</clus>
<clus scale="  108.588">  1  5  2 -1</clus>
<clus scale="   75.833">  1  5  2 -1</clus>
</clustering>
</event>
<event>
 9    1  0.1315259E-005  0.9416009E+02  0.7546771E-02  0.1305312E+00
         21   -1    0    0  501  502  0.00000000000E+00  0.00000000000E+00  0.39943443999E+03  0.39943443999E+03  0.00000000000E+00 0. -1.
          1   -1    0    0  502    0 -0.00000000000E+00 -0.00000000000E+00 -0.64044493754E+02  0.64044493754E+02  0.00000000000E+00 0. -1.
         23    2    1    2    0    0  0.16227899224E+02 -0.24288900419E+02 -0.22358935192E+02  0.79654122393E+02  0.70650986083E+02 0.  0.
         23    2    1    2    0    0 -0.13528070974E+02 -0.66142585991E+01  0.16729589870E+03  0.19086203530E+03  0.90629143640E+02 0.  0.
        -11    1    3    3    0    0 -0.22236779944E+02 -0.65253924241E+01  0.11073079358E+02  0.25684006990E+02  0.00000000000E+00 0.  1.
         11    1    3    3    0    0  0.38464679168E+02 -0.17763507995E+02 -0.33432014550E+02  0.53970115404E+02  0.00000000000E+00 0. -1.
        -13    1    4    4    0    0 -0.52112100672E+02 -0.17456121470E+01  0.10834593599E+03  0.12023959432E+03  0.00000000000E+00 0.  1.
         13    1    4    4    0    0  0.38584029698E+02 -0.48686464522E+01  0.58949962715E+02  0.70622440981E+02  0.00000000000E+00 0. -1.
          1    1    1    2  501    0 -0.26998282499E+01  0.30903159018E+02  0.19045298272E+03  0.19296277604E+03  0.00000000000E+00 0. -1.
<scales pt_clust_5="13000.00000" pt_clust_6="13000.00000" pt_clust_7="13000.00000" pt_clust_8="13000.00000" pt_clust_9="31.02087"></scales>
<clustering>
<clus scale="   31.021">  1  9  2 -1</clus>
<clus scale="   70.651">  5  6 -1 -1</clus>
<clus scale="   75.127">  2  5  1 -1</clus>
<clus scale="   90.629">  7  8 -1 -1</clus>
<clus scale="   31.021">  1  5  2 -1</clus>
</clustering>
</event>
<event>
 9    1  0.1315259E-005  0.1012167E+03  0.7546771E-02  0.1282702E+00
          1   -1    0    0  502    0 -0.00000000000E+00  0.00000000000E+00  0.24965957032E+03  0.24965957032E+03  0.00000000000E+00 0. -1.
         21   -1    0    0  501  502  0.00000000000E+00 -0.00000000000E+00 -0.49460170041E+02  0.49460170041E+02  0.00000000000E+00 0.  1.
         23    2    1    2    0    0 -0.58445826315E+01  0.99666739473E+01  0.94292859850E+02  0.13119892125E+03  0.90490440285E+02 0.  0.
         23    2    1    2    0    0  0.27050814447E+02 -0.97249294759E+01  0.66776712410E+02  0.12341344726E+03  0.99726770872E+02 0.  0.
        -13    1    4    4    0    0  0.41555717399E+02 -0.27635657132E+02 -0.29334351117E+01  0.49992121731E+02  0.00000000000E+00 0.  1.
         13    1    4    4    0    0 -0.14504902952E+02  0.17910727656E+02  0.69710147521E+02  0.73421325528E+02  0.00000000000E+00 0. -1.
        -13    1    3    3    0    0 -0.40640243119E+02 -0.13223913311E+02  0.22963341138E+02  0.48516144533E+02  0.00000000000E+00 0. -1.
         13    1    3    3    0    0  0.34795660488E+02  0.23190587258E+02  0.71329518711E+02  0.82682776718E+02  0.00000000000E+00 0.  1.
          1    1    1    2  501    0 -0.21206231815E+02 -0.24174447139E+00  0.39129828018E+02  0.44507371849E+02  0.00000000000E+00 0. -1.
<scales pt_clust_5="13000.00000" pt_clust_6="13000.00000" pt_clust_7="13000.00000" pt_clust_8="13000.00000" pt_clust_9="21.20762"></scales>
<clustering>
<clus scale="   21.208">  2  9  1 -1</clus>
<clus scale="   90.490">  7  8 -1 -1</clus>
<clus scale="   92.130">  1  7  2 -1</clus>
<clus scale="   99.727">  5  6 -1 -1</clus>
<clus scale="   21.208">  2  5  1 -1</clus>
</clustering>
</event>
<event>
 9    1  0.1315259E-005  0.9938201E+02  0.7546771E-02  0.1282805E+00
         21   -1    0    0  501  502  0.00000000000E+00  0.00000000000E+00  0.23093783032E+03  0.23093783032E+03  0.00000000000E+00 0.  1.
          3   -1    0    0  502    0 -0.00000000000E+00 -0.00000000000E+00 -0.98221154858E+02  0.98221154858E+02  0.00000000000E+00 0. -1.
         23    2    1    2    0    0 -0.20321529760E+02  0.30166933139E+02 -0.29877031529E+02  0.10331710677E+03  0.91971621231E+02 0.  0.
         23    2    1    2    0    0 -0.14523979038E+02 -0.56218577485E+02  0.14219937077E+03  0.17779162756E+03  0.89541763225E+02 0.  0.
        -11    1    3    3    0    0 -0.18139753979E+02 -0.29703715432E+02  0.30789948076E+01  0.34940543698E+02  0.00000000000E+00 0.  1.
         11    1    3    3    0    0 -0.21817757816E+01  0.59870648571E+02 -0.32956026336E+02  0.68376563074E+02  0.00000000000E+00 0. -1.
        -13    1    4    4    0    0  0.98475847628E+01 -0.52710768924E+02  0.14344236888E+03  0.15313756324E+03  0.00000000000E+00 0.  1.
         13    1    4    4    0    0 -0.24371563801E+02 -0.35078085611E+01 -0.12429981112E+01  0.24654064316E+02  0.00000000000E+00 0. -1.
          3    1    1    2  501    0  0.34845508798E+02  0.26051644346E+02  0.20394336221E+02  0.48050250847E+02  0.00000000000E+00 0. -1.
<scales pt_clust_5="13000.00000" pt_clust_6="13000.00000" pt_clust_7="13000.00000" pt_clust_8="13000.00000" pt_clust_9="43.50744"></scales>
<clustering>
<clus scale="   43.507">  1  9  2 -1</clus>
<clus scale="   89.542">  7  8 -1 -1</clus>
<clus scale="   91.972">  5  6 -1 -1</clus>
<clus scale="   97.138">  1  7  2 -1</clus>
<clus scale="   43.507">  1  5  2 -1</clus>
</clustering>
</event>
<event>
 9    1  0.1315259E-005  0.1134862E+03  0.7546771E-02  0.1261736E+00
         21   -1    0    0  501  502  0.00000000000E+00  0.00000000000E+00  0.49016762761E+03  0.49016762761E+03  0.00000000000E+00 0.  1.
          1   -1    0    0  502    0 -0.00000000000E+00 -0.00000000000E+00 -0.51063530365E+02  0.51063530365E+02  0.00000000000E+00 0. -1.
         23    2    1    2    0    0  0.67056869959E+02  0.34104596117E+01  0.42162714392E+02  0.12046120313E+03  0.90691520720E+02 0.  0.
         23    2    1    2    0    0 -0.71514344440E+02  0.27030700616E+02  0.25097746264E+03  0.27159891437E+03  0.70223381397E+02 0.  0.
        -11    1    4    4    0    0 -0.75766775085E+02 -0.67604361320E+00  0.18170401888E+03  0.19686902174E+03  0.00000000000E+00 0.  1.
         11    1    4    4    0    0  0.42524306456E+01  0.27706744229E+02  0.69273443758E+02  0.74729892629E+02  0.00000000000E+00 0. -1.
        -13    1    3    3    0    0 -0.20237637244E+02 -0.12753710163E+02  0.65081435418E+01  0.24790623560E+02  0.00000000000E+00 0.  1.
         13    1    3    3    0    0  0.87294507203E+02  0.16164169775E+02  0.35654570851E+02  0.95670579568E+02  0.00000000000E+00 0. -1.
          1    1    1    2  501    0  0.44574744803E+01 -0.30441160227E+02  0.14596392021E+03  0.14917104048E+03  0.00000000000E+00 0. -1.
<scales pt_clust_5="13000.00000" pt_clust_6="13000.00000" pt_clust_7="13000.00000" pt_clust_8="13000.00000" pt_clust_9="30.76578"></scales>
<clustering>
<clus scale="   30.766">  1  9  2 -1</clus>
<clus scale="   70.223">  5  6 -1 -1</clus>
<clus scale="   90.692">  7  8 -1 -1</clus>
<clus scale="   97.906">  1  5  2 -1</clus>
<clus scale="   30.766">  1  5  2 -1</clus>
</clustering>
</event>
<event>
 9    1  0.1315259E-005  0.9340096E+02  0.7546771E-02  0.1296179E+00
         21   -1    0    0  501  502  0.00000000000E+00  0.00000000000E+00  0.13806046026E+03  0.13806046026E+03  0.00000000000E+00 0.  1.
          2   -1    0    0  502    0 -0.00000000000E+00 -0.00000000000E+00 -0.15879422724E+03  0.15879422724E+03  0.00000000000E+00 0. -1.
         23    2    1    2    0    0 -0.14355093211E+01  0.40756538038E+01 -0.83671927935E+02  0.12469408125E+03  0.92352318505E+02 0.  0.
         23    2    1    2    0    0  0.21734171856E+02 -0.28592678383E+02 -0.51138410149E+01  0.97032747460E+02  0.89996040059E+02 0.  0.
        -13    1    3    3    0    0  0.19790633161E+02  0.10874933480E+02 -0.96412075848E+02  0.99021319464E+02  0.00000000000E+00 0.  1.
         13    1    3    3    0    0 -0.21226142482E+02 -0.67992796759E+01  0.12740147913E+02  0.25672761785E+02  0.00000000000E+00 0. -1.
        -13    1    4    4    0    0  0.54041725420E+01 -0.41183966850E+02  0.33430579716E+02  0.53319113519E+02  0.00000000000E+00 0.  1.
         13    1    4    4    0    0  0.16329999314E+02  0.12591288467E+02 -0.38544420730E+02  0.43713633941E+02  0.00000000000E+00 0. -1.
          2    1    1    2  501    0 -0.20298662535E+02  0.24517024579E+02  0.68052001967E+02  0.75127858792E+02  0.00000000000E+00 0. -1.
<scales pt_clust_5="13000.00000" pt_clust_6="13000.00000" pt_clust_7="13000.00000" pt_clust_8="13000.00000" pt_clust_9="31.82955"></scales>
<clustering>
<clus scale="   31.830">  1  9  2 -1</clus>
<clus scale="   89.996">  7  8 -1 -1</clus>
<clus scale="   91.072">  1  7  2 -1</clus>
<clus scale="   92.352">  5  6 -1 -1</clus>
<clus scale="   31.830">  1  5  2 -1</clus>
</clustering>
</event>
<event>
 9    1  0.1315259E-005  0.1182904E+03  0.7546771E-02  0.1246333E+00
         21   -1    0    0  501  502  0.00000000000E+00  0.00000000000E+00  0.12176713264E+03  0.12176713264E+03  0.00000000000E+00 0. -1.
          2   -1    0    0  502    0 -0.00000000000E+00 -0.00000000000E+00 -0.44126290663E+03  0.44126290663E+03  0.00000000000E+00 0. -1.
         23    2    1    2    0    0  0.30404059509E+01  0.76634387777E+02 -0.26695439133E+03  0.29265258491E+03  0.92189017507E+02 0.  0.
         23    2    1    2    0    0 -0.11235678249E+03 -0.42880079986E+02 -0.30288845719E+02  0.15382446694E+03  0.91004420890E+02 0.  0.
        -11    1    4    4    0    0 -0.10964692153E+03 -0.94737086277E+01 -0.42750076165E+02  0.11806679282E+03  0.00000000000E+00 0. -1.
         11    1    4    4    0    0 -0.27098609667E+01 -0.33406371358E+02  0.12461230446E+02  0.35757674114E+02  0.00000000000E+00 0.  1.
        -13    1    3    3    0    0  0.43497071215E+02  0.27688197212E+02 -0.16174197454E+03  0.16976188558E+03  0.00000000000E+00 0.  1.
         13    1    3    3    0    0 -0.40456665265E+02  0.48946190565E+02 -0.10521241679E+03  0.12289069933E+03  0.00000000000E+00 0. -1.
          2    1    1    2  501    0  0.10931637654E+03 -0.33754307791E+02 -0.22252536946E+02  0.11655298742E+03  0.00000000000E+00 0. -1.
<scales pt_clust_5="13000.00000" pt_clust_6="13000.00000" pt_clust_7="13000.00000" pt_clust_8="13000.00000" pt_clust_9="114.40902"></scales>
<clustering>
<clus scale="   91.004">  5  6 -1 -1</clus>
<clus scale="   92.189">  7  8 -1 -1</clus>
<clus scale="  114.409">  1  9  2 -1</clus>
<clus scale="  117.370">  1  5  2 -1</clus>
<clus scale="  114.409">  1  5  2 -1</clus>
</clustering>
</event>
<event>
 9    1  0.1315259E-005  0.1966042E+03  0.7546771E-02  0.1153665E+00
         21   -1    0    0  501  502  0.00000000000E+00  0.00000000000E+00  0.10479994852E+03  0.10479994852E+03  0.00000000000E+00 0. -1.
          2   -1    0    0  502    0 -0.00000000000E+00 -0.00000000000E+00 -0.63909965845E+03  0.63909965845E+03  0.00000000000E+00 0. -1.
         23    2    1    2    0    0  0.17385670600E+01  0.19023191118E+03 -0.40593080561E+03  0.45741337606E+03  0.90862396041E+02 0.  0.
         23    2    1    2    0    0 -0.52941335486E+02 -0.14441334904E+03 -0.13156340096E+03  0.21770201077E+03  0.80170048263E+02 0.  0.
        -11    1    3    3    0    0  0.32858685778E+02  0.94221757114E+02 -0.13194551986E+03  0.16542990345E+03  0.00000000000E+00 0.  1.
         11    1    3    3    0    0 -0.31120118718E+02  0.96010154066E+02 -0.27398528575E+03  0.29198347261E+03  0.00000000000E+00 0. -1.
        -13    1    4    4    0    0  0.93490517422E+01 -0.52751794745E+02 -0.77964843390E+02  0.94597428201E+02  0.00000000000E+00 0.  1.
         13    1    4    4    0    0 -0.62290387229E+02 -0.91661554290E+02 -0.53598557569E+02  0.12310458257E+03  0.00000000000E+00 0. -1.
          2    1    1    2  501    0  0.51202768426E+02 -0.45818562144E+02  0.31944966288E+01  0.68784220140E+02  0.00000000000E+00 0. -1.
<scales pt_clust_5="13000.00000" pt_clust_6="13000.00000" pt_clust_7="13000.00000" pt_clust_8="13000.00000" pt_clust_9="68.71000"></scales>
<clustering>
<clus scale="   68.710">  1  9  2 -1</clus>
<clus scale="   80.170">  7  8 -1 -1</clus>
<clus scale="   90.862">  5  6 -1 -1</clus>
<clus scale="  191.897">  1  7  2 -1</clus>
<clus scale="   68.710">  1  5  2 -1</clus>
</clustering>
</event>
<event>
 9    1  0.1315259E-005  0.1262125E+03  0.7546771E-02  0.1247372E+00
         -2   -1    0    0    0  501 -0.00000000000E+00  0.00000000000E+00  0.25585055646E+03  0.25585055646E+03  0.00000000000E+00 0.  1.
         21   -1    0    0  501  502  0.00000000000E+00 -0.00000000000E+00 -0.15897855558E+03  0.15897855558E+03  0.00000000000E+00 0.  1.
         23    2    1    2    0    0 -0.60332967974E+01 -0.38870699550E+01  0.13589385851E+03  0.18446111201E+03  0.12452811362E+03 0.  0.
         23    2    1    2    0    0 -0.74884624242E+01  0.39391727638E+02  0.64844022850E+02  0.11977170796E+03  0.92372774415E+02 0.  0.
        -11    1    3    3    0    0 -0.43556801698E+02  0.17200722305E+02  0.55064301248E+01  0.47152736874E+02  0.00000000000E+00 0.  1.
         11    1    3    3    0    0  0.37523504901E+02 -0.21087792260E+02  0.13038742838E+03  0.13730837514E+03  0.00000000000E+00 0. -1.
        -13    1    4    4    0    0  0.31357077199E+02  0.51137515194E+02  0.41665395168E+02  0.73036408080E+02  0.00000000000E+00 0.  1.
         13    1    4    4    0    0 -0.38845539623E+02 -0.11745787557E+02  0.23178627682E+02  0.46735299883E+02  0.00000000000E+00 0. -1.
         -2    1    1    2    0  502  0.13521759222E+02 -0.35504657683E+02 -0.10386588048E+03  0.11059629206E+03  0.00000000000E+00 0.  1.
<scales pt_clust_5="13000.00000" pt_clust_6="13000.00000" pt_clust_7="13000.00000" pt_clust_8="13000.00000" pt_clust_9="37.99235"></scales>
<clustering>
<clus scale="   37.992">  2  9  1 -1</clus>
<clus scale="   92.373">  7  8 -1 -1</clus>
<clus scale="   94.631">  2  7  1 -1</clus>
<clus scale="  124.528">  5  6 -1 -1</clus>
<clus scale="   37.992">  2  5  1 -1</clus>
</clustering>
</event>
<event>
 9    1  0.1315259E-005  0.9957574E+02  0.7546771E-02  0.1282058E+00
          2   -1    0    0  502    0 -0.00000000000E+00  0.00000000000E+00  0.20375496636E+03  0.20375496636E+03  0.00000000000E+00 0. -1.
         21   -1    0    0  501  502  0.00000000000E+00 -0.00000000000E+00 -0.80769536499E+02  0.80769536499E+02  0.00000000000E+00 0.  1.
         23    2    1    2    0    0  0.18306614320E+02 -0.23679979391E+02  0.10969073104E+03  0.14528394173E+03  0.90440553388E+02 0.  0.
         23    2    1    2    0    0 -0.31006956167E+02  0.47343457194E+02  0.23153246980E+02  0.11063199883E+03  0.92198329970E+02 0.  0.
        -13    1    3    3    0    0 -0.59307039576E+01 -0.38889313689E+02  0.86621197058E+01  0.40281314358E+02  0.00000000000E+00 0.  1.
         13    1    3    3    0    0  0.24237318278E+02  0.15209334298E+02  0.10102861134E+03  0.10500262737E+03  0.00000000000E+00 0. -1.
        -13    1    4    4    0    0  0.13769362728E+02  0.54721081162E+02  0.31299838937E+02  0.64526521609E+02  0.00000000000E+00 0. -1.
         13    1    4    4    0    0 -0.44776318894E+02 -0.73776239674E+01 -0.81465919573E+01  0.46105477220E+02  0.00000000000E+00 0.  1.
          2    1    1    2  501    0  0.12700341846E+02 -0.23663477803E+02 -0.98585481621E+01  0.28608562296E+02  0.00000000000E+00 0. -1.
<scales pt_clust_5="13000.00000" pt_clust_6="13000.00000" pt_clust_7="13000.00000" pt_clust_8="13000.00000" pt_clust_9="26.85626"></scales>
<clustering>
<clus scale="   26.856">  2  9  1 -1</clus>
<clus scale="   90.441">  5  6 -1 -1</clus>
<clus scale="   92.198">  7  8 -1 -1</clus>
<clus scale="   97.950">  1  5  2 -1</clus>
<clus scale="   26.856">  2  5  1 -1</clus>
</clustering>
</event>
<event>
 9    1  0.1315259E-005  0.2009352E+03  0.7546771E-02  0.1149025E+00
          3   -1    0    0  502    0 -0.00000000000E+00  0.00000000000E+00  0.53822703511E+03  0.53822703511E+03  0.00000000000E+00 0. -1.
         21   -1    0    0  501  502  0.00000000000E+00 -0.00000000000E+00 -0.12235958731E+03  0.12235958731E+03  0.00000000000E+00 0. -1.
         23    2    1    2    0    0 -0.51851865822E+02  0.16295453791E+03  0.23180955640E+03  0.30269409926E+03  0.92979835843E+02 0.  0.
         23    2    1    2    0    0  0.69440969372E+02 -0.18278904618E+03  0.50877124608E+02  0.22209892639E+03  0.92225634528E+02 0.  0.
        -11    1    4    4    0    0  0.82736493887E+02 -0.15477001364E+03  0.17232207449E+02  0.17634067460E+03  0.00000000000E+00 0. -1.
         11    1    4    4    0    0 -0.13295524515E+02 -0.28019032535E+02  0.33644917159E+02  0.45758251791E+02  0.00000000000E+00 0.  1.
        -13    1    3    3    0    0 -0.70336384507E+02  0.14658119525E+03  0.16578231388E+03  0.23220040780E+03  0.00000000000E+00 0.  1.
         13    1    3    3    0    0  0.18484518685E+02  0.16373342655E+02  0.66027242516E+02  0.70493691455E+02  0.00000000000E+00 0. -1.
          3    1    1    2  501    0 -0.17589103550E+02  0.19834508273E+02  0.13318076680E+03  0.13579359678E+03  0.00000000000E+00 0. -1.
<scales pt_clust_5="13000.00000" pt_clust_6="13000.00000" pt_clust_7="13000.00000" pt_clust_8="13000.00000" pt_clust_9="26.51009"></scales>
<clustering>
<clus scale="   26.510">  2  9  1 -1</clus>
<clus scale="   92.226">  5  6 -1 -1</clus>
<clus scale="   92.980">  7  8 -1 -1</clus>
<clus scale="  200.587">  2  5  1 -1</clus>
<clus scale="   26.510">  2  5  1 -1</clus>
</clustering>
</event>
<event>
 9    1  0.1315259E-005  0.9355034E+02  0.7546771E-02  0.1294524E+00
          2   -1    0    0  502    0 -0.00000000000E+00  0.00000000000E+00  0.45456806980E+03  0.45456806980E+03  0.00000000000E+00 0.  1.
         21   -1    0    0  501  502  0.00000000000E+00 -0.00000000000E+00 -0.74267140273E+02  0.74267140273E+02  0.00000000000E+00 0. -1.
         23    2    1    2    0    0 -0.11353185067E+02  0.12273763133E+02  0.25654675769E+03  0.27283226375E+03  0.91332716984E+02 0.  0.
         23    2    1    2    0    0  0.56290103152E+02 -0.72691504965E+01 -0.16431561961E+02  0.10870592423E+03  0.91244536676E+02 0.  0.
        -11    1    4    4    0    0  0.23347676171E+02  0.30872137264E+02  0.22724734991E+02  0.44884478634E+02  0.00000000000E+00 0.  1.
         11    1    4    4    0    0  0.32942426981E+02 -0.38141287761E+02 -0.39156296951E+02  0.63821445599E+02  0.00000000000E+00 0. -1.
        -13    1    3    3    0    0  0.48808261894E+01  0.47040238475E+02  0.87262095191E+02  0.99253613321E+02  0.00000000000E+00 0.  1.
         13    1    3    3    0    0 -0.16234011256E+02 -0.34766475342E+02  0.16928466249E+03  0.17357865043E+03  0.00000000000E+00 0. -1.
          2    1    1    2  501    0 -0.44936918085E+02 -0.50046126365E+01  0.14018573381E+03  0.14729702209E+03  0.00000000000E+00 0.  1.
<scales pt_clust_5="13000.00000" pt_clust_6="13000.00000" pt_clust_7="13000.00000" pt_clust_8="13000.00000" pt_clust_9="45.21476"></scales>
<clustering>
<clus scale="   45.215">  2  9  1 -1</clus>
<clus scale="   91.245">  5  6 -1 -1</clus>
<clus scale="   91.333">  7  8 -1 -1</clus>
<clus scale="   93.464">  2  5  1 -1</clus>
<clus scale="   45.215">  2  5  1 -1</clus>
</clustering>
</event>
<event>
 9    1  0.1315259E-005  0.1014171E+03  0.7546771E-02  0.1277399E+00
          1   -1    0    0  502    0 -0.00000000000E+00  0.00000000000E+00  0.96062822380E+02  0.96062822380E+02  0.00000000000E+00 0. -1.
         21   -1    0    0  501  502  0.00000000000E+00 -0.00000000000E+00 -0.14505231269E+03  0.14505231269E+03  0.00000000000E+00 0.  1.
         23    2    1    2    0    0  0.69570195323E+01  0.50258453990E+02  0.28038107254E+01  0.10437004253E+03  0.91164313772E+02 0.  0.
         23    2    1    2    0    0 -0.20977384662E+02 -0.31961946657E+02 -0.26352730971E+02  0.10241499752E+03  0.91283890065E+02 0.  0.
        -11    1    4    4    0    0  0.25832974165E+02 -0.22596301107E+02  0.16666010750E+02  0.38153522671E+02  0.00000000000E+00 0. -1.
         11    1    4    4    0    0 -0.46810358827E+02 -0.93656455500E+01 -0.43018741721E+02  0.64261474846E+02  0.00000000000E+00 0.  1.
        -13    1    3    3    0    0 -0.29403498033E+02 -0.11397466234E+02  0.82127211366E+01  0.32587063715E+02  0.00000000000E+00 0.  1.
         13    1    3    3    0    0  0.36360517565E+02  0.61655920224E+02 -0.54089104112E+01  0.71782978818E+02  0.00000000000E+00 0. -1.
          1    1    1    2  501    0  0.14020365130E+02 -0.18296507333E+02 -0.25440570069E+02  0.34330095025E+02  0.00000000000E+00 0. -1.
<scales pt_clust_5="13000.00000" pt_clust_6="13000.00000" pt_clust_7="13000.00000" pt_clust_8="13000.00000" pt_clust_9="23.05066"></scales>
<clustering>
<clus scale="   23.051">  2  9  1 -1</clus>
<clus scale="   91.164">  7  8 -1 -1</clus>
<clus scale="   91.284">  5  6 -1 -1</clus>
<clus scale="  101.310">  1  7  2 -1</clus>
<clus scale="   23.051">  2  5  1 -1</clus>
</clustering>
</event>
<event>
 9    1  0.1315259E-005  0.1187307E+03  0.7546771E-02  0.1245889E+00
         21   -1    0    0  501  502  0.00000000000E+00  0.00000000000E+00  0.14909528028E+03  0.14909528028E+03  0.00000000000E+00 0.  1.
          1   -1    0    0  502    0 -0.00000000000E+00 -0.00000000000E+00 -0.14713882420E+03  0.14713882420E+03  0.00000000000E+00 0. -1.
         23    2    1    2    0    0  0.30645016072E+02 -0.66356078349E+02 -0.43592045441E+02  0.12328646522E+03  0.89202241772E+02 0.  0.
         23    2    1    2    0    0 -0.59539931595E+02  0.58735943369E+02  0.68036874055E+01  0.12401765642E+03  0.91319080387E+02 0.  0.
        -11    1    4    4    0    0 -0.68460324251E+02  0.65296931968E+01  0.15099145276E+02  0.70409069571E+02  0.00000000000E+00 0. -1.
         11    1    4    4    0    0  0.89203926563E+01  0.52206250172E+02 -0.82954578705E+01  0.53608586845E+02  0.00000000000E+00 0.  1.
        -13    1    3    3    0    0  0.34222857129E+02 -0.10009238314E+02  0.17822603287E+02  0.39862689192E+02  0.00000000000E+00 0.  1.
         13    1    3    3    0    0 -0.35778410567E+01 -0.56346840035E+02 -0.61414648729E+02  0.83423776030E+02  0.00000000000E+00 0. -1.
          1    1    1    2  501    0  0.28894915523E+02  0.76201349799E+01  0.38744814112E+02  0.48929982840E+02  0.00000000000E+00 0. -1.
<scales pt_clust_5="13000.00000" pt_clust_6="13000.00000" pt_clust_7="13000.00000" pt_clust_8="13000.00000" pt_clust_9="29.88281"></scales>
<clustering>
<clus scale="   29.883">  1  9  2 -1</clus>
<clus scale="   89.202">  7  8 -1 -1</clus>
<clus scale="   91.319">  5  6 -1 -1</clus>
<clus scale="  117.110">  2  7  1 -1</clus>
<clus scale="   29.883">  1  5  2 -1</clus>
</clustering>
</event>
<event>
 9    1  0.1315259E-005  0.1614370E+03  0.7546771E-02  0.1187176E+00
         21   -1    0    0  501  502  0.00000000000E+00  0.00000000000E+00  0.14221386250E+03  0.14221386250E+03  0.00000000000E+00 0. -1.
          2   -1    0    0  502    0 -0.00000000000E+00 -0.00000000000E+00 -0.65468037627E+03  0.65468037627E+03  0.00000000000E+00 0. -1.
         23    2    1    2    0    0  0.12698778113E+03 -0.13464968502E+02 -0.50726751450E+03  0.53086334551E+03  0.90489548578E+02 0.  0.
         23    2    1    2    0    0 -0.18263240696E+03  0.28542230151E+02  0.10324284412E+02  0.20632645006E+03  0.91075562976E+02 0.  0.
        -13    1    4    4    0    0 -0.11218137624E+03 -0.22485747551E+02 -0.15800400960E+02  0.11549858306E+03  0.00000000000E+00 0.  1.
         13    1    4    4    0    0 -0.70451030713E+02  0.51027977702E+02  0.26124685373E+02  0.90827866994E+02  0.00000000000E+00 0. -1.
        -13    1    3    3    0    0  0.10598421955E+02 -0.36208725774E+02 -0.11150170529E+03  0.11771163346E+03  0.00000000000E+00 0.  1.
         13    1    3    3    0    0  0.11638935918E+03  0.22743757271E+02 -0.39576580921E+03  0.41315171204E+03  0.00000000000E+00 0. -1.
          2    1    1    2  501    0  0.55644625826E+02 -0.15077261649E+02 -0.15523283689E+02  0.59704443207E+02  0.00000000000E+00 0. -1.
<scales pt_clust_5="13000.00000" pt_clust_6="13000.00000" pt_clust_7="13000.00000" pt_clust_8="13000.00000" pt_clust_9="57.65109"></scales>
<clustering>
<clus scale="   57.651">  1  9  2 -1</clus>
<clus scale="   90.490">  7  8 -1 -1</clus>
<clus scale="   91.076">  5  6 -1 -1</clus>
<clus scale="  161.107">  2  7  1 -1</clus>
<clus scale="   57.651">  1  5  2 -1</clus>
</clustering>
</event>
<event>
 9    1  0.1315259E-005  0.1766229E+03  0.7546771E-02  0.1200414E+00
         21   -1    0    0  501  502  0.00000000000E+00  0.00000000000E+00  0.50218678664E+03  0.50218678664E+03  0.00000000000E+00 0.  1.
         -3   -1    0    0    0  501 -0.00000000000E+00 -0.00000000000E+00 -0.14463396834E+03  0.14463396834E+03  0.00000000000E+00 0.  1.
         23    2    1    2    0    0  0.11787909607E+01 -0.11700724866E+02 -0.63957072428E+02  0.11204587907E+03  0.91244043052E+02 0.  0.
         23    2    1    2    0    0 -0.13822837687E+03 -0.57640419480E+02  0.20744711022E+03  0.27131015856E+03  0.90251850210E+02 0.  0.
        -13    1    4    4    0    0 -0.12301857587E+03 -0.78788423107E+02  0.15648605413E+03  0.21407725419E+03  0.00000000000E+00 0.  1.
         13    1    4    4    0    0 -0.15209800996E+02  0.21148003627E+02  0.50961056094E+02  0.57232904365E+02  0.00000000000E+00 0. -1.
        -13    1    3    3    0    0  0.36177427081E+02 -0.18698962672E+02 -0.64581019609E+02  0.76348972023E+02  0.00000000000E+00 0. -1.
         13    1    3    3    0    0 -0.34998636120E+02  0.69982378060E+01  0.62394718075E+00  0.35696907047E+02  0.00000000000E+00 0.  1.
         -3    1    1    2    0  502  0.13704958591E+03  0.69341144346E+02  0.21406278050E+03  0.26346471736E+03  0.00000000000E+00 0.  1.
<scales pt_clust_5="13000.00000" pt_clust_6="13000.00000" pt_clust_7="13000.00000" pt_clust_8="13000.00000" pt_clust_9="151.82314"></scales>
<clustering>
<clus scale="   90.252">  5  6 -1 -1</clus>
<clus scale="   91.244">  7  8 -1 -1</clus>
<clus scale="   91.999">  2  7  1 -1</clus>
<clus scale="  151.823">  1  9  2 -1</clus>
<clus scale="  151.823">  1  5  2 -1</clus>
</clustering>
</event>
<event>
 9    1  0.1315259E-005  0.1882769E+03  0.7546771E-02  0.1161971E+00
         21   -1    0    0  501  502  0.00000000000E+00  0.00000000000E+00  0.22083386427E+03  0.22083386427E+03  0.00000000000E+00 0. -1.
          1   -1    0    0  502    0 -0.00000000000E+00 -0.00000000000E+00 -0.42239709075E+03  0.42239709075E+03  0.00000000000E+00 0. -1.
         23    2    1    2    0    0  0.39543086353E+02  0.16188974319E+03 -0.19671410875E+03  0.27977147015E+03  0.10864478956E+03 0.  0.
         23    2    1    2    0    0 -0.87186005008E+02 -0.11796491156E+03 -0.13359506480E+03  0.21932497332E+03  0.93480921881E+02 0.  0.
        -11    1    3    3    0    0  0.30825110966E+02  0.54069524179E+02 -0.86780373413E+01  0.62841142917E+02  0.00000000000E+00 0.  1.
         11    1    3    3    0    0  0.87179753864E+01  0.10782021901E+03 -0.18803607140E+03  0.21693032723E+03  0.00000000000E+00 0. -1.
        -11    1    4    4    0    0 -0.10491956362E+01 -0.68172750352E+02 -0.83904058081E+02  0.10811343887E+03  0.00000000000E+00 0.  1.
         11    1    4    4    0    0 -0.86136809372E+02 -0.49792161206E+02 -0.49691006720E+02  0.11121153445E+03  0.00000000000E+00 0. -1.
          1    1    1    2  501    0  0.47642918655E+02 -0.43924831636E+02  0.12874594707E+03  0.14413451155E+03  0.00000000000E+00 0. -1.
<scales pt_clust_5="13000.00000" pt_clust_6="13000.00000" pt_clust_7="13000.00000" pt_clust_8="13000.00000" pt_clust_9="64.80153"></scales>
<clustering>
<clus scale="   64.802">  1  9  2 -1</clus>
<clus scale="   93.481">  7  8 -1 -1</clus>
<clus scale="  108.645">  5  6 -1 -1</clus>
<clus scale="  179.953">  1  7  2 -1</clus>
<clus scale="   64.802">  1  5  2 -1</clus>
</clustering>
</event>
<event>
 9    1  0.1315259E-005  0.1017868E+03  0.7546771E-02  0.1279262E+00
         -3   -1    0    0    0  501 -0.00000000000E+00  0.00000000000E+00  0.49946857938E+02  0.49946857938E+02  0.00000000000E+00 0.  1.
         21   -1    0    0  501  502  0.00000000000E+00 -0.00000000000E+00 -0.33390822370E+03  0.33390822370E+03  0.00000000000E+00 0. -1.
         23    2    1    2    0    0 -0.15313435190E+02  0.13634685479E+02 -0.77167533445E+02  0.12102642047E+03  0.90951417184E+02 0.  0.
         23    2    1    2    0    0  0.54303395880E+02 -0.23673759668E+02 -0.18557342994E+03  0.21731706350E+03  0.96332250518E+02 0.  0.
        -11    1    3    3    0    0  0.58128902632E+01 -0.37464611125E+02 -0.29968741482E+02  0.48327137780E+02  0.00000000000E+00 0. -1.
         11    1    3    3    0    0 -0.21126325453E+02  0.51099296604E+02 -0.47198791962E+02  0.72699282687E+02  0.00000000000E+00 0.  1.
        -13    1    4    4    0    0 -0.22497766953E+02  0.60975724341E+00 -0.10986202047E+02  0.25044319858E+02  0.00000000000E+00 0.  1.
         13    1    4    4    0    0  0.76801162833E+02 -0.24283516912E+02 -0.17458722789E+03  0.19227274364E+03  0.00000000000E+00 0. -1.
         -3    1    1    2    0  502 -0.38989960691E+02  0.10039074189E+02 -0.21220402384E+02  0.45511597671E+02  0.00000000000E+00 0.  1.
<scales pt_clust_5="13000.00000" pt_clust_6="13000.00000" pt_clust_7="13000.00000" pt_clust_8="13000.00000" pt_clust_9="40.26166"></scales>
<clustering>
<clus scale="   40.262">  2  9  1 -1</clus>
<clus scale="   90.951">  5  6 -1 -1</clus>
<clus scale="   96.332">  7  8 -1 -1</clus>
<clus scale="   96.710">  1  5  2 -1</clus>
<clus scale="   40.262">  2  5  1 -1</clus>
</clustering>
</event>
<event>
 9    1  0.1315259E-005  0.1742708E+03  0.7546771E-02  0.1194604E+00
         21   -1    0    0  501  502  0.00000000000E+00  0.00000000000E+00  0.56453832595E+03  0.56453832595E+03  0.00000000000E+00 0.  1.
          2   -1    0    0  502    0 -0.00000000000E+00 -0.00000000000E+00 -0.31134911046E+03  0.31134911046E+03  0.00000000000E+00 0. -1.
         23    2    1    2    0    0 -0.65395958743E+01 -0.33325277128E+02 -0.24727759899E+03  0.27011997958E+03  0.10327270692E+03 0.  0.
         23    2    1    2    0    0 -0.14051014222E+03 -0.24330495419E+02  0.34259351221E+03  0.38244752232E+03  0.92524157102E+02 0.  0.
        -11    1    4    4    0    0 -0.13041625862E+03  0.40130985791E+01  0.31751577884E+03  0.34327944197E+03  0.00000000000E+00 0.  1.
         11    1    4    4    0    0 -0.10093883607E+02 -0.28343593998E+02  0.25077733370E+02  0.39168080346E+02  0.00000000000E+00 0. -1.
        -11    1    3    3    0    0  0.27308581837E+02 -0.45730664477E+02 -0.21575320322E+03  0.22223072924E+03  0.00000000000E+00 0. -1.
         11    1    3    3    0    0 -0.33848177711E+02  0.12405387349E+02 -0.31524395766E+02  0.47889250339E+02  0.00000000000E+00 0.  1.
          2    1    1    2  501    0  0.14704973810E+03  0.57655772547E+02  0.15787330227E+03  0.22331993452E+03  0.00000000000E+00 0. -1.
<scales pt_clust_5="13000.00000" pt_clust_6="13000.00000" pt_clust_7="13000.00000" pt_clust_8="13000.00000" pt_clust_9="147.68078"></scales>
<clustering>
<clus scale="   92.524">  5  6 -1 -1</clus>
<clus scale="  103.273">  7  8 -1 -1</clus>
<clus scale="  108.713">  2  7  1 -1</clus>
<clus scale="  147.681">  1  9  2 -1</clus>
<clus scale="  147.681">  1  5  2 -1</clus>
</clustering>
</event>
<event>
 9    1  0.1315259E-005  0.1401195E+03  0.7546771E-02  0.1214048E+00
         21   -1    0    0  501  502  0.00000000000E+00  0.00000000000E+00  0.87603515244E+02  0.87603515244E+02  0.00000000000E+00 0. -1.
         -1   -1    0    0    0  501 -0.00000000000E+00 -0.00000000000E+00 -0.30920836297E+03  0.30920836297E+03  0.00000000000E+00 0.  1.
         23    2    1    2    0    0 -0.64349413331E+02 -0.70114210595E+02 -0.15457889854E+03  0.20465550088E+03  0.94511314888E+02 0.  0.
         23    2    1    2    0    0  0.91532330387E+02  0.78558681907E+02 -0.62623599594E+02  0.16335358654E+03  0.90625851730E+02 0.  0.
        -13    1    4    4    0    0  0.60077494246E+02  0.62176560461E+02 -0.85141405136E+02  0.12134368073E+03  0.00000000000E+00 0.  1.
         13    1    4    4    0    0  0.31454836141E+02  0.16382121446E+02  0.22517805542E+02  0.42009905810E+02  0.00000000000E+00 0. -1.
        -13    1    3    3    0    0 -0.29758362299E+02  0.21152731472E+02 -0.43280194915E+02  0.56623082284E+02  0.00000000000E+00 0.  1.
         13    1    3    3    0    0 -0.34591051032E+02 -0.91266942067E+02 -0.11129870362E+03  0.14803241859E+03  0.00000000000E+00 0. -1.
         -1    1    1    2    0  502 -0.27182917056E+02 -0.84444713116E+01 -0.44023495889E+01  0.28802790790E+02  0.00000000000E+00 0.  1.
<scales pt_clust_5="13000.00000" pt_clust_6="13000.00000" pt_clust_7="13000.00000" pt_clust_8="13000.00000" pt_clust_9="28.46437"></scales>
<clustering>
<clus scale="   28.464">  1  9  2 -1</clus>
<clus scale="   90.626">  5  6 -1 -1</clus>
<clus scale="   94.511">  7  8 -1 -1</clus>
<clus scale="  137.529">  1  5  2 -1</clus>
<clus scale="   28.464">  1  5  2 -1</clus>
</clustering>
</event>
<event>
 9    1  0.1315259E-005  0.1058469E+03  0.7546771E-02  0.1270568E+00
          1   -1    0    0  502    0 -0.00000000000E+00  0.00000000000E+00  0.52575851716E+03  0.52575851716E+03  0.00000000000E+00 0. -1.
         21   -1    0    0  501  502  0.00000000000E+00 -0.00000000000E+00 -0.37196482284E+02  0.37196482284E+02  0.00000000000E+00 0.  1.
         23    2    1    2    0    0  0.27711484462E+02 -0.38328340531E+02  0.34364769925E+03  0.35937451864E+03  0.93911210112E+02 0.  0.
         23    2    1    2    0    0 -0.12757648776E+02  0.17820599658E+02  0.14680784319E+03  0.17812915455E+03  0.98473963592E+02 0.  0.
        -11    1    4    4    0    0  0.25422711694E+02 -0.87276315626E+01  0.12296770591E+03  0.12587113457E+03  0.00000000000E+00 0. -1.
         11    1    4    4    0    0 -0.38180360469E+02  0.26548231220E+02  0.23840137278E+02  0.52258019977E+02  0.00000000000E+00 0.  1.
        -13    1    3    3    0    0  0.12615356770E+02  0.30540714322E+02  0.82353349047E+02  0.88735317416E+02  0.00000000000E+00 0.  1.
         13    1    3    3    0    0  0.15096127692E+02 -0.68869054853E+02  0.26129435021E+03  0.27063920122E+03  0.00000000000E+00 0. -1.
          1    1    1    2  501    0 -0.14953835686E+02  0.20507740873E+02 -0.18935075609E+01  0.25451326259E+02  0.00000000000E+00 0. -1.
<scales pt_clust_5="13000.00000" pt_clust_6="13000.00000" pt_clust_7="13000.00000" pt_clust_8="13000.00000" pt_clust_9="25.38079"></scales>
<clustering>
<clus scale="   25.381">  2  9  1 -1</clus>
<clus scale="   93.911">  7  8 -1 -1</clus>
<clus scale="   98.474">  5  6 -1 -1</clus>
<clus scale="  101.616">  1  7  2 -1</clus>
<clus scale="   25.381">  2  5  1 -1</clus>
</clustering>
</event>
<event>
 9    1  0.1315259E-005  0.1262379E+03  0.7546771E-02  0.1233515E+00
         21   -1    0    0  501  502  0.00000000000E+00  0.00000000000E+00  0.19488512797E+03  0.19488512797E+03  0.00000000000E+00 0. -1.
          1   -1    0    0  502    0 -0.00000000000E+00 -0.00000000000E+00 -0.25184457190E+03  0.25184457190E+03  0.00000000000E+00 0. -1.
         23    2    1    2    0    0  0.59616116387E+02 -0.67762474560E+02 -0.17470727814E+03  0.21765834392E+03  0.93309631600E+02 0.  0.
         23    2    1    2    0    0 -0.82183209228E+02  0.75697285534E+01  0.43921958520E+02  0.13118008836E+03  0.92020087326E+02 0.  0.
        -11    1    3    3    0    0 -0.17228770641E+02 -0.29442322100E+02 -0.17058090437E+02  0.38139996301E+02  0.00000000000E+00 0.  1.
         11    1    3    3    0    0  0.76844887028E+02 -0.38320152460E+02 -0.15764918770E+03  0.17951834762E+03  0.00000000000E+00 0. -1.
        -13    1    4    4    0    0 -0.43011663914E+02  0.49220219269E+02  0.31981837481E+02  0.72769987949E+02  0.00000000000E+00 0.  1.
         13    1    4    4    0    0 -0.39171545315E+02 -0.41650490715E+02  0.11940121039E+02  0.58410100407E+02  0.00000000000E+00 0. -1.
          1    1    1    2  501    0  0.22567092841E+02  0.60192746007E+02  0.73825875686E+02  0.97891267598E+02  0.00000000000E+00 0. -1.
<scales pt_clust_5="13000.00000" pt_clust_6="13000.00000" pt_clust_7="13000.00000" pt_clust_8="13000.00000" pt_clust_9="64.28406"></scales>
<clustering>
<clus scale="   64.284">  1  9  2 -1</clus>
<clus scale="   92.020">  7  8 -1 -1</clus>
<clus scale="   93.310">  5  6 -1 -1</clus>
<clus scale="  125.288">  1  7  2 -1</clus>
<clus scale="   64.284">  1  5  2 -1</clus>
</clustering>
</event>
<event>
 9    1  0.1315259E-005  0.1193294E+03  0.7546771E-02  0.1245351E+00
         -1   -1    0    0    0  501 -0.00000000000E+00  0.00000000000E+00  0.69264743919E+03  0.69264743919E+03  0.00000000000E+00 0.  1.
         21   -1    0    0  501  502  0.00000000000E+00 -0.00000000000E+00 -0.47775388414E+02  0.47775388414E+02  0.00000000000E+00 0.  1.
         23    2    1    2    0    0  0.60903149264E+02  0.13793384832E+01  0.43443620354E+03  0.44849251826E+03  0.93271795460E+02 0.  0.
         23    2    1    2    0    0 -0.97664003089E+02  0.27446047262E+02  0.19977671419E+03  0.24401496363E+03  0.96648972740E+02 0.  0.
        -11    1    3    3    0    0  0.63030435273E+02  0.34880193656E+02  0.35532828234E+03  0.36255710158E+03  0.00000000000E+00 0.  1.
         11    1    3    3    0    0 -0.21272860091E+01 -0.33500855173E+02  0.79107921204E+02  0.85935416682E+02  0.00000000000E+00 0. -1.
        -11    1    4    4    0    0 -0.19736270875E+02 -0.16944344832E+02  0.12371420331E+03  0.12641928378E+03  0.00000000000E+00 0. -1.
         11    1    4    4    0    0 -0.77927732214E+02  0.44390392093E+02  0.76062510878E+02  0.11759567985E+03  0.00000000000E+00 0.  1.
         -1    1    1    2    0  502  0.36760853825E+02 -0.28825385745E+02  0.10659133044E+02  0.47915345710E+02  0.00000000000E+00 0.  1.
<scales pt_clust_5="13000.00000" pt_clust_6="13000.00000" pt_clust_7="13000.00000" pt_clust_8="13000.00000" pt_clust_9="46.71470"></scales>
<clustering>
<clus scale="   46.715">  2  9  1 -1</clus>
<clus scale="   93.272">  5  6 -1 -1</clus>
<clus scale="   96.649">  7  8 -1 -1</clus>
<clus scale="  116.611">  1  5  2 -1</clus>
<clus scale="   46.715">  2  5  1 -1</clus>
</clustering>
</event>
<event>
 9    1  0.1315259E-005  0.1099995E+03  0.7546771E-02  0.1260770E+00
          3   -1    0    0  502    0 -0.00000000000E+00  0.00000000000E+00  0.24096105634E+03  0.24096105634E+03  0.00000000000E+00 0. -1.
         21   -1    0    0  501  502  0.00000000000E+00 -0.00000000000E+00 -0.69069187685E+03  0.69069187685E+03  0.00000000000E+00 0. -1.
         23    2    1    2    0    0 -0.70386072209E+02  0.41537147134E+02  0.13713994541E+03  0.18447649978E+03  0.92437441504E+02 0.  0.
         23    2    1    2    0    0 -0.13877583003E+02 -0.53621988808E+02  0.40013146032E+02  0.11453921823E+03  0.91925380952E+02 0.  0.
        -11    1    3    3    0    0 -0.65636786865E+02  0.42203909780E+01  0.13069320284E+03  0.14631033032E+03  0.00000000000E+00 0. -1.
         11    1    3    3    0    0 -0.47492853439E+01  0.37316756156E+02  0.64467425634E+01  0.38166169456E+02  0.00000000000E+00 0.  1.
        -11    1    4    4    0    0 -0.44022368953E+02 -0.60441502040E+02  0.18950296534E+02  0.77137914645E+02  0.00000000000E+00 0. -1.
         11    1    4    4    0    0  0.30144785951E+02  0.68195132314E+01  0.21062849499E+02  0.37401303583E+02  0.00000000000E+00 0.  1.
          3    1    1    2  501    0  0.84263655211E+02  0.12084841674E+02 -0.62688391194E+03  0.63263721519E+03  0.00000000000E+00 0. -1.
<scales pt_clust_5="13000.00000" pt_clust_6="13000.00000" pt_clust_7="13000.00000" pt_clust_8="13000.00000" pt_clust_9="85.12583"></scales>
<clustering>
<clus scale="   85.126">  2  9  1 -1</clus>
<clus scale="   91.925">  7  8 -1 -1</clus>
<clus scale="   92.437">  5  6 -1 -1</clus>
<clus scale="  109.570">  2  7  1 -1</clus>
<clus scale="   85.126">  2  5  1 -1</clus>
</clustering>
</event>
<event>
 9    1  0.1315259E-005  0.1371878E+03  0.7546771E-02  0.1231404E+00
         -1   -1    0    0    0  501 -0.00000000000E+00  0.00000000000E+00  0.15734646969E+03  0.15734646969E+03  0.00000000000E+00 0.  1.
         21   -1    0    0  501  502  0.00000000000E+00 -0.00000000000E+00 -0.25179797531E+03  0.25179797531E+03  0.00000000000E+00 0. -1.
         23    2    1    2    0    0  0.36386769545E+02  0.21586918096E+02  0.41833186949E+02  0.11019898657E+03  0.92756719869E+02 0.  0.
         23    2    1    2    0    0  0.71002329821E+02  0.35268856708E+01  0.82360054954E+01  0.11715064560E+03  0.92750591458E+02 0.  0.
        -11    1    4    4    0    0  0.17518253945E+02  0.44952253315E+02  0.10847635765E+02  0.49449625894E+02  0.00000000000E+00 0.  1.
         11    1    4    4    0    0  0.53484075876E+02 -0.41425367644E+02 -0.26116302692E+01  0.67701019708E+02  0.00000000000E+00 0. -1.
        -13    1    3    3    0    0  0.59499505065E+02  0.40468816426E+02  0.26848271676E+02  0.76803293536E+02  0.00000000000E+00 0. -1.
         13    1    3    3    0    0 -0.23112735521E+02 -0.18881898330E+02  0.14984915273E+02  0.33395693039E+02  0.00000000000E+00 0.  1.
         -1    1    1    2    0  502 -0.10738909937E+03 -0.25113803767E+02 -0.14452069806E+03  0.18179481282E+03  0.00000000000E+00 0.  1.
<scales pt_clust_5="13000.00000" pt_clust_6="13000.00000" pt_clust_7="13000.00000" pt_clust_8="13000.00000" pt_clust_9="101.08318"></scales>
<clustering>
<clus scale="   92.751">  5  6 -1 -1</clus>
<clus scale="   92.757">  7  8 -1 -1</clus>
<clus scale="  101.950">  1  7  2 -1</clus>
<clus scale="  101.083">  2  9  1 -1</clus>
<clus scale="  101.083">  2  5  1 -1</clus>
</clustering>
</event>
<event>
 9    1  0.1315259E-005  0.1111457E+03  0.7546771E-02  0.1267569E+00
         21   -1    0    0  501  502  0.00000000000E+00  0.00000000000E+00  0.57310723132E+02  0.57310723132E+02  0.00000000000E+00 0.  1.
         -1   -1    0    0    0  501 -0.00000000000E+00 -0.00000000000E+00 -0.25514335084E+03  0.25514335084E+03  0.00000000000E+00 0.  1.
         23    2    1    2    0    0  0.26578440958E+02  0.68273513445E+01 -0.10250758143E+03  0.13987674151E+03  0.91129974839E+02 0.  0.
         23    2    1    2    0    0 -0.79387385586E+00 -0.14527369028E+02 -0.94866289057E+02  0.14566368107E+03  0.10957472563E+03 0.  0.
        -11    1    4    4    0    0  0.14180151499E+02  0.15771477873E+02 -0.10750773330E+03  0.10957978340E+03  0.00000000000E+00 0. -1.
         11    1    4    4    0    0 -0.14974025355E+02 -0.30298846901E+02  0.12641444240E+02  0.36083897674E+02  0.00000000000E+00 0.  1.
        -13    1    3    3    0    0  0.56439937455E+02 -0.14432526388E+02 -0.57827603998E+02  0.82084079711E+02  0.00000000000E+00 0.  1.
         13    1    3    3    0    0 -0.29861496497E+02  0.21259877733E+02 -0.44679977431E+02  0.57792661796E+02  0.00000000000E+00 0. -1.
         -1    1    1    2    0  502 -0.25784567102E+02  0.77000176834E+01 -0.45875721945E+00  0.26913651390E+02  0.00000000000E+00 0.  1.
<scales pt_clust_5="13000.00000" pt_clust_6="13000.00000" pt_clust_7="13000.00000" pt_clust_8="13000.00000" pt_clust_9="26.90974"></scales>
<clustering>
<clus scale="   26.910">  1  9  2 -1</clus>
<clus scale="   91.130">  7  8 -1 -1</clus>
<clus scale="   93.013">  2  7  1 -1</clus>
<clus scale="  109.575">  5  6 -1 -1</clus>
<clus scale="   26.910">  1  5  2 -1</clus>
</clustering>
</event>
<event>
 9    1  0.1315259E-005  0.9605131E+02  0.7546771E-02  0.1289016E+00
         -2   -1    0    0    0  501 -0.00000000000E+00  0.00000000000E+00  0.11487182286E+03  0.11487182286E+03  0.00000000000E+00 0.  1.
         21   -1    0    0  501  502  0.00000000000E+00 -0.00000000000E+00 -0.17985089594E+03  0.17985089594E+03  0.00000000000E+00 0.  1.
         23    2    1    2    0    0 -0.17014134301E+02 -0.35377674181E+02  0.27184578729E+02  0.10307034312E+03  0.91342398226E+02 0.  0.
         23    2    1    2    0    0  0.20478348648E+02  0.84345382266E+01  0.19888924353E+01  0.93659340492E+02  0.90981383644E+02 0.  0.
        -11    1    4    4    0    0  0.19850392976E+02 -0.16811886846E+02  0.40184795841E+02  0.47869567132E+02  0.00000000000E+00 0.  1.
         11    1    4    4    0    0  0.62795567234E+00  0.25246425073E+02 -0.38195903406E+02  0.45789773359E+02  0.00000000000E+00 0. -1.
        -11    1    3    3    0    0  0.92025797509E+01 -0.32202172995E+02 -0.26851520047E+02  0.42926350282E+02  0.00000000000E+00 0.  1.
         11    1    3    3    0    0 -0.26216714052E+02 -0.31755011857E+01  0.54036098776E+02  0.60143992837E+02  0.00000000000E+00 0. -1.
         -2    1    1    2    0  502 -0.34642143472E+01  0.26943135954E+02 -0.94152544251E+02  0.97993035187E+02  0.00000000000E+00 0.  1.
<scales pt_clust_5="13000.00000" pt_clust_6="13000.00000" pt_clust_7="13000.00000" pt_clust_8="13000.00000" pt_clust_9="27.16493"></scales>
<clustering>
<clus scale="   27.165">  2  9  1 -1</clus>
<clus scale="   90.981">  5  6 -1 -1</clus>
<clus scale="   91.342">  7  8 -1 -1</clus>
<clus scale="   95.708">  2  5  1 -1</clus>
<clus scale="   27.165">  2  5  1 -1</clus>
</clustering>
</event>
<event>
 9    1  0.1315259E-005  0.1350858E+03  0.7546771E-02  0.1224505E+00
          1   -1    0    0  502    0 -0.00000000000E+00  0.00000000000E+00  0.46653024339E+03  0.46653024339E+03  0.00000000000E+00 0. -1.
         21   -1    0    0  501  502  0.00000000000E+00 -0.00000000000E+00 -0.48502899986E+02  0.48502899986E+02  0.00000000000E+00 0.  1.
         23    2    1    2    0    0 -0.52566061379E+01  0.75517199715E+02  0.25694729441E+03  0.28368606242E+03  0.93409798985E+02 0.  0.
         23    2    1    2    0    0 -0.12714980568E+02 -0.90955139786E+02  0.14115894286E+03  0.20039294728E+03  0.10861389406E+03 0.  0.
        -11    1    4    4    0    0  0.45053585061E+02 -0.16496173882E+02  0.46123151275E+02  0.66552944060E+02  0.00000000000E+00 0.  1.
         11    1    4    4    0    0 -0.57768565629E+02 -0.74458965904E+02  0.95035791587E+02  0.13384000322E+03  0.00000000000E+00 0. -1.
        -13    1    3    3    0    0  0.33432916232E+02  0.13744320701E+02  0.35958392424E+02  0.50986980936E+02  0.00000000000E+00 0. -1.
         13    1    3    3    0    0 -0.38689522370E+02  0.61772879015E+02  0.22098890199E+03  0.23269908149E+03  0.00000000000E+00 0.  1.
          1    1    1    2  501    0  0.17971586706E+02  0.15437940071E+02  0.19921106135E+02  0.30954133682E+02  0.00000000000E+00 0. -1.
<scales pt_clust_5="13000.00000" pt_clust_6="13000.00000" pt_clust_7="13000.00000" pt_clust_8="13000.00000" pt_clust_9="23.69194"></scales>
<clustering>
<clus scale="   23.692">  2  9  1 -1</clus>
<clus scale="   93.410">  7  8 -1 -1</clus>
<clus scale="  108.614">  5  6 -1 -1</clus>
<clus scale="  123.193">  1  7  2 -1</clus>
<clus scale="   23.692">  2  5  1 -1</clus>
</clustering>
</event>
<event>
 9    1  0.1315259E-005  0.9218979E+02  0.7546771E-02  0.1298544E+00
         21   -1    0    0  501  502  0.00000000000E+00  0.00000000000E+00  0.33184271682E+02  0.33184271682E+02  0.00000000000E+00 0.  1.
          2   -1    0    0  502    0 -0.00000000000E+00 -0.00000000000E+00 -0.43641402125E+03  0.43641402125E+03  0.00000000000E+00 0. -1.
         23    2    1    2    0    0  0.18058040751E+02  0.36501885906E+02 -0.24957291486E+03  0.26674281932E+03  0.84891762357E+02 0.  0.
         23    2    1    2    0    0 -0.15564087064E+02 -0.13645537606E+02 -0.15615950221E+03  0.17972765903E+03  0.86532073744E+02 0.  0.
        -11    1    3    3    0    0  0.47292657522E+02  0.32304774354E+02 -0.10932209704E+03  0.12341602329E+03  0.00000000000E+00 0. -1.
         11    1    3    3    0    0 -0.29234616770E+02  0.41971115512E+01 -0.14025081782E+03  0.14332679604E+03  0.00000000000E+00 0.  1.
        -13    1    4    4    0    0  0.26510739871E+02  0.13786204855E+02 -0.10007018950E+03  0.10443620827E+03  0.00000000000E+00 0. -1.
         13    1    4    4    0    0 -0.42074826935E+02 -0.27431742460E+02 -0.56089312716E+02  0.75291450756E+02  0.00000000000E+00 0.  1.
          2    1    1    2  501    0 -0.24939536871E+01 -0.22856348300E+02  0.25026675080E+01  0.23127814580E+02  0.00000000000E+00 0. -1.
<scales pt_clust_5="13000.00000" pt_clust_6="13000.00000" pt_clust_7="13000.00000" pt_clust_8="13000.00000" pt_clust_9="22.99201"></scales>
<clustering>
<clus scale="   22.992">  1  9  2 -1</clus>
<clus scale="   84.892">  5  6 -1 -1</clus>
<clus scale="   86.532">  7  8 -1 -1</clus>
<clus scale="   90.652">  2  5  1 -1</clus>
<clus scale="   22.992">  1  5  2 -1</clus>
</clustering>
</event>
<event>
 9    1  0.1315259E-005  0.1323717E+03  0.7546771E-02  0.1224223E+00
          1   -1    0    0  502    0 -0.00000000000E+00  0.00000000000E+00  0.19269364314E+03  0.19269364314E+03  0.00000000000E+00 0. -1.
         21   -1    0    0  501  502  0.00000000000E+00 -0.00000000000E+00 -0.24590713764E+03  0.24590713764E+03  0.00000000000E+00 0.  1.
         23    2    1    2    0    0  0.90300541563E+02 -0.13300293041E+01  0.10898019862E+03  0.16937917925E+03  0.93041205320E+02 0.  0.
         23    2    1    2    0    0 -0.10286429265E+03 -0.54525188319E+02 -0.81805915264E+02  0.17053093325E+03  0.93992194144E+02 0.  0.
        -11    1    4    4    0    0 -0.76410769743E+02 -0.43810202951E+02 -0.10259792647E+03  0.13521935561E+03  0.00000000000E+00 0.  1.
         11    1    4    4    0    0 -0.26453522903E+02 -0.10714985368E+02  0.20792011207E+02  0.35311577640E+02  0.00000000000E+00 0. -1.
        -11    1    3    3    0    0  0.27756615720E+02 -0.44963097216E+02  0.36936548420E+02  0.64470291116E+02  0.00000000000E+00 0.  1.
         11    1    3    3    0    0  0.62543925843E+02  0.43633067911E+02  0.72043650199E+02  0.10490888813E+03  0.00000000000E+00 0. -1.
          1    1    1    2  501    0  0.12563751083E+02  0.55855217623E+02 -0.80387777859E+02  0.98690668283E+02  0.00000000000E+00 0. -1.
<scales pt_clust_5="13000.00000" pt_clust_6="13000.00000" pt_clust_7="13000.00000" pt_clust_8="13000.00000" pt_clust_9="57.25079"></scales>
<clustering>
<clus scale="   57.251">  2  9  1 -1</clus>
<clus scale="   93.041">  7  8 -1 -1</clus>
<clus scale="   93.992">  5  6 -1 -1</clus>
<clus scale="  131.698">  1  7  2 -1</clus>
<clus scale="   57.251">  2  5  1 -1</clus>
</clustering>
</event>
<event>
 9    1  0.1315259E-005  0.1122925E+03  0.7546771E-02  0.1257236E+00
          2   -1    0    0  502    0 -0.00000000000E+00  0.00000000000E+00  0.45242831997E+03  0.45242831997E+03  0.00000000000E+00 0. -1.
         21   -1    0    0  501  502  0.00000000000E+00 -0.00000000000E+00 -0.93119861279E+02  0.93119861279E+02  0.00000000000E+00 0. -1.
         23    2    1    2    0    0 -0.39298912877E+02 -0.58175737213E+02  0.25588364156E+03  0.28084036451E+03  0.92011148058E+02 0.  0.
         23    2    1    2    0    0  0.54978007483E+02  0.27534558152E+02  0.16297107986E+03  0.19592938068E+03  0.89710735936E+02 0.  0.
        -11    1    4    4    0    0  0.75224308394E+02  0.33992544540E+02  0.10115480034E+03  0.13056218170E+03  0.00000000000E+00 0. -1.
         11    1    4    4    0    0 -0.20246300911E+02 -0.64579863883E+01  0.61816279520E+02  0.65367198979E+02  0.00000000000E+00 0.  1.
        -13    1    3    3    0    0 -0.38514659438E+02  0.47543401504E+01  0.39031649158E+02  0.55040461279E+02  0.00000000000E+00 0. -1.
         13    1    3    3    0    0 -0.78425343935E+00 -0.62930077364E+02  0.21685199241E+03  0.22579990324E+03  0.00000000000E+00 0.  1.
          2    1    1    2  501    0 -0.15679094605E+02  0.30641179061E+02 -0.59546262730E+02  0.68778436062E+02  0.00000000000E+00 0. -1.
<scales pt_clust_5="13000.00000" pt_clust_6="13000.00000" pt_clust_7="13000.00000" pt_clust_8="13000.00000" pt_clust_9="34.41970"></scales>
<clustering>
<clus scale="   34.420">  2  9  1 -1</clus>
<clus scale="   89.711">  5  6 -1 -1</clus>
<clus scale="   92.011">  7  8 -1 -1</clus>
<clus scale="  110.415">  2  5  1 -1</clus>
<clus scale="   34.420">  2  5  1 -1</clus>
</clustering>
</event>
<event>
 9    1  0.1941814E-005  0.1015661E+03  0.7546771E-02  0.1277952E+00
          3   -1    0    0  502    0 -0.00000000000E+00  0.00000000000E+00  0.90322539516E+03  0.90322539516E+03  0.00000000000E+00 0. -1.
         21   -1    0    0  501  502  0.00000000000E+00 -0.00000000000E+00 -0.13610444729E+03  0.13610444729E+03  0.00000000000E+00 0. -1.
         23    2    1    2    0    0  0.31040416116E+02 -0.30986407863E+02  0.48021235911E+03  0.49041776690E+03  0.89342102894E+02 0.  0.
         23    2    1    2    0    0  0.42468070925E+02  0.67956218800E+02  0.39488996633E+03  0.41315404637E+03  0.91304960429E+02 0.  0.
        -11    1    3    3    0    0  0.60370008842E+02 -0.86581938204E+01  0.34082814915E+03  0.34624172126E+03  0.00000000000E+00 0. -1.
         11    1    3    3    0    0 -0.29329592726E+02 -0.22328214043E+02  0.13938420996E+03  0.14417604564E+03  0.00000000000E+00 0.  1.
        -13    1    4    4    0    0  0.17922829797E+00 -0.20244857440E+02  0.37452730132E+02  0.42574562474E+02  0.00000000000E+00 0.  1.
         13    1    4    4    0    0  0.42288842627E+02  0.88201076239E+02  0.35743723620E+03  0.37057948389E+03  0.00000000000E+00 0. -1.
          3    1    1    2  501    0 -0.73508487041E+02 -0.36969810937E+02 -0.10798137757E+03  0.13575802919E+03  0.00000000000E+00 0. -1.
<scales pt_clust_5="13000.00000" pt_clust_6="13000.00000" pt_clust_7="13000.00000" pt_clust_8="13000.00000" pt_clust_9="82.28162"></scales>
<clustering>
<clus scale="   82.282">  2  9  1 -1</clus>
<clus scale="   89.342">  5  6 -1 -1</clus>
<clus scale="   91.305">  7  8 -1 -1</clus>
<clus scale="   99.805">  1  5  2 -1</clus>
<clus scale="   82.282">  2  5  1 -1</clus>
</clustering>
</event>
<event>
 9    1  0.1315259E-005  0.9936669E+02  0.7546771E-02  0.1283787E+00
         21   -1    0    0  501  502  0.00000000000E+00  0.00000000000E+00  0.42373167752E+02  0.42373167752E+02  0.00000000000E+00 0. -1.
         -2   -1    0    0    0  501 -0.00000000000E+00 -0.00000000000E+00 -0.41104852866E+03  0.41104852866E+03  0.00000000000E+00 0.  1.
         23    2    1    2    0    0 -0.82584992965E+01 -0.20056112219E+02 -0.25642604014E+03  0.27453978696E+03  0.95641675611E+02 0.  0.
         23    2    1    2    0    0  0.40096573341E+02  0.26666831161E+02 -0.67192764682E+02  0.12331701217E+03  0.91506080602E+02 0.  0.
        -11    1    4    4    0    0  0.25475831952E+02  0.56854761136E+02 -0.64486265771E+02  0.89665825990E+02  0.00000000000E+00 0. -1.
         11    1    4    4    0    0  0.14620741389E+02 -0.30187929975E+02 -0.27064989109E+01  0.33651186179E+02  0.00000000000E+00 0.  1.
        -13    1    3    3    0    0  0.27823578982E+02  0.16294596954E+02 -0.17782016978E+03  0.18071988883E+03  0.00000000000E+00 0.  1.
         13    1    3    3    0    0 -0.36082078278E+02 -0.36350709173E+02 -0.78605870355E+02  0.93819898127E+02  0.00000000000E+00 0. -1.
         -2    1    1    2    0  502 -0.31838074044E+02 -0.66107189422E+01 -0.45056556085E+02  0.55564897283E+02  0.00000000000E+00 0.  1.
<scales pt_clust_5="13000.00000" pt_clust_6="13000.00000" pt_clust_7="13000.00000" pt_clust_8="13000.00000" pt_clust_9="32.51714"></scales>
<clustering>
<clus scale="   32.517">  1  9  2 -1</clus>
<clus scale="   91.506">  5  6 -1 -1</clus>
<clus scale="   95.393">  1  5  2 -1</clus>
<clus scale="   95.642">  7  8 -1 -1</clus>
<clus scale="   32.517">  1  5  2 -1</clus>
</clustering>
</event>
<event>
 9    1  0.1315259E-005  0.1633880E+03  0.7546771E-02  0.1185595E+00
         21   -1    0    0  501  502  0.00000000000E+00  0.00000000000E+00  0.81031384457E+02  0.81031384457E+02  0.00000000000E+00 0.  1.
         -3   -1    0    0    0  501 -0.00000000000E+00 -0.00000000000E+00 -0.77039171252E+03  0.77039171252E+03  0.00000000000E+00 0.  1.
         23    2    1    2    0    0  0.13606455760E+03 -0.13162962489E+02 -0.52281490118E+03  0.54805286042E+03  0.91321900423E+02 0.  0.
         23    2    1    2    0    0 -0.12164384716E+03  0.74714282835E+02 -0.17211350719E+03  0.23990744868E+03  0.86908428615E+02 0.  0.
        -11    1    4    4    0    0 -0.81422929846E+01  0.35319553324E+02 -0.90423147690E+01  0.37356809800E+02  0.00000000000E+00 0. -1.
         11    1    4    4    0    0 -0.11350155418E+03  0.39394729510E+02 -0.16307119242E+03  0.20255063888E+03  0.00000000000E+00 0.  1.
        -13    1    3    3    0    0  0.12433335964E+02 -0.34480732510E+02 -0.83830158768E+02  0.91493192515E+02  0.00000000000E+00 0. -1.
         13    1    3    3    0    0  0.12363122164E+03  0.21317770021E+02 -0.43898474242E+03  0.45655966790E+03  0.00000000000E+00 0.  1.
         -3    1    1    2    0  502 -0.14420710438E+02 -0.61551320345E+02  0.55680803174E+01  0.63462787870E+02  0.00000000000E+00 0.  1.
<scales pt_clust_5="13000.00000" pt_clust_6="13000.00000" pt_clust_7="13000.00000" pt_clust_8="13000.00000" pt_clust_9="63.21805"></scales>
<clustering>
<clus scale="   63.218">  1  9  2 -1</clus>
<clus scale="   86.908">  5  6 -1 -1</clus>
<clus scale="   91.322">  7  8 -1 -1</clus>
<clus scale="  160.963">  1  5  2 -1</clus>
<clus scale="   63.218">  1  5  2 -1</clus>
</clustering>
</event>
<event>
 9    1  0.1315259E-005  0.1022598E+03  0.7546771E-02  0.1275656E+00
         21   -1    0    0  501  502  0.00000000000E+00  0.00000000000E+00  0.27781345284E+03  0.27781345284E+03  0.00000000000E+00 0. -1.
          3   -1    0    0  502    0 -0.00000000000E+00 -0.00000000000E+00 -0.22644960261E+03  0.22644960261E+03  0.00000000000E+00 0. -1.
         23    2    1    2    0    0  0.22850427175E+02 -0.45636344076E+02 -0.10019527202E+03  0.14473205691E+03  0.91123311174E+02 0.  0.
         23    2    1    2    0    0 -0.73026620328E+02 -0.22740744661E+02 -0.58763090199E+02  0.13275245089E+03  0.91214492843E+02 0.  0.
        -13    1    3    3    0    0 -0.18151518479E+02  0.10630235645E+02 -0.61678427229E+02  0.65166770048E+02  0.00000000000E+00 0.  1.
         13    1    3    3    0    0  0.41001945653E+02 -0.56266579721E+02 -0.38516844794E+02  0.79565286864E+02  0.00000000000E+00 0. -1.
        -13    1    4    4    0    0 -0.75544646415E+02  0.10776582333E+02 -0.15332341628E+02  0.77834497677E+02  0.00000000000E+00 0. -1.
         13    1    4    4    0    0  0.25180260874E+01 -0.33517326994E+02 -0.43430748571E+02  0.54917953218E+02  0.00000000000E+00 0.  1.
          3    1    1    2  501    0  0.50176193153E+02  0.68377088737E+02  0.21032221245E+03  0.22677854765E+03  0.00000000000E+00 0. -1.
<scales pt_clust_5="13000.00000" pt_clust_6="13000.00000" pt_clust_7="13000.00000" pt_clust_8="13000.00000" pt_clust_9="84.81201"></scales>
<clustering>
<clus scale="   84.812">  1  9  2 -1</clus>
<clus scale="   91.123">  5  6 -1 -1</clus>
<clus scale="   91.214">  7  8 -1 -1</clus>
<clus scale="  102.179">  2  5  1 -1</clus>
<clus scale="   84.812">  1  5  2 -1</clus>
</clustering>
</event>
<event>
 9    1  0.1315259E-005  0.1074467E+03  0.7546771E-02  0.1265450E+00
          1   -1    0    0  502    0 -0.00000000000E+00  0.00000000000E+00  0.17140796543E+03  0.17140796543E+03  0.00000000000E+00 0. -1.
         21   -1    0    0  501  502  0.00000000000E+00 -0.00000000000E+00 -0.22667081630E+03  0.22667081630E+03  0.00000000000E+00 0. -1.
         23    2    1    2    0    0  0.55565965253E+01 -0.64293882910E+02  0.91803150486E+02  0.14459116111E+03  0.91182269582E+02 0.  0.
         23    2    1    2    0    0  0.68392103935E+02  0.17171752303E+02 -0.10668031940E+03  0.15694794589E+03  0.90992407445E+02 0.  0.
        -13    1    3    3    0    0 -0.39380758802E+02 -0.41775061186E+02  0.29519396372E+02  0.64555361227E+02  0.00000000000E+00 0. -1.
         13    1    3    3    0    0  0.44937355328E+02 -0.22518821724E+02  0.62283754114E+02  0.80035799879E+02  0.00000000000E+00 0.  1.
        -13    1    4    4    0    0 -0.11674549722E+02  0.17712708385E+02 -0.61402869757E+02  0.64964202172E+02  0.00000000000E+00 0.  1.
         13    1    4    4    0    0  0.80066653657E+02 -0.54095608166E+00 -0.45277449643E+02  0.91983743713E+02  0.00000000000E+00 0. -1.
          1    1    1    2  501    0 -0.73948700460E+02  0.47122130607E+02 -0.40385681958E+02  0.96539674745E+02  0.00000000000E+00 0. -1.
<scales pt_clust_5="13000.00000" pt_clust_6="13000.00000" pt_clust_7="13000.00000" pt_clust_8="13000.00000" pt_clust_9="87.68640"></scales>
<clustering>
<clus scale="   87.686">  2  9  1 -1</clus>
<clus scale="   90.992">  7  8 -1 -1</clus>
<clus scale="   91.182">  5  6 -1 -1</clus>
<clus scale="  107.286">  2  7  1 -1</clus>
<clus scale="   87.686">  2  5  1 -1</clus>
</clustering>
</event>
<event>
 9    1  0.1315259E-005  0.9449513E+02  0.7546771E-02  0.1294111E+00
         -3   -1    0    0    0  501 -0.00000000000E+00  0.00000000000E+00  0.16463789627E+03  0.16463789627E+03  0.00000000000E+00 0.  1.
         21   -1    0    0  501  502  0.00000000000E+00 -0.00000000000E+00 -0.33186947413E+03  0.33186947413E+03  0.00000000000E+00 0. -1.
         23    2    1    2    0    0 -0.90733386120E+01 -0.21533153439E+02  0.12935044993E+03  0.16052020416E+03  0.92136826925E+02 0.  0.
         23    2    1    2    0    0 -0.36007436007E+02  0.11007377960E+02 -0.12330203341E+03  0.15662991201E+03  0.88948524860E+02 0.  0.
        -11    1    3    3    0    0  0.26032974569E+02 -0.24001842392E+02  0.11852301966E+03  0.12369927402E+03  0.00000000000E+00 0.  1.
         11    1    3    3    0    0 -0.35106313181E+02  0.24686889530E+01  0.10827430271E+02  0.36820930142E+02  0.00000000000E+00 0. -1.
        -13    1    4    4    0    0 -0.27371261251E+02 -0.23892432218E+02 -0.98880131640E+01  0.37653778882E+02  0.00000000000E+00 0.  1.
         13    1    4    4    0    0 -0.86361747558E+01  0.34899810178E+02 -0.11341402024E+03  0.11897613312E+03  0.00000000000E+00 0. -1.
         -3    1    1    2    0  502  0.45080774619E+02  0.10525775480E+02 -0.17327999439E+03  0.17935725423E+03  0.00000000000E+00 0.  1.
<scales pt_clust_5="13000.00000" pt_clust_6="13000.00000" pt_clust_7="13000.00000" pt_clust_8="13000.00000" pt_clust_9="46.29328"></scales>
<clustering>
<clus scale="   46.293">  2  9  1 -1</clus>
<clus scale="   88.949">  7  8 -1 -1</clus>
<clus scale="   91.389">  2  7  1 -1</clus>
<clus scale="   92.137">  5  6 -1 -1</clus>
<clus scale="   46.293">  2  5  1 -1</clus>
</clustering>
</event>
<event>
 9    1  0.1315259E-005  0.1666460E+03  0.7546771E-02  0.1181591E+00
         21   -1    0    0  501  502  0.00000000000E+00  0.00000000000E+00  0.20195224575E+03  0.20195224575E+03  0.00000000000E+00 0.  1.
          2   -1    0    0  502    0 -0.00000000000E+00 -0.00000000000E+00 -0.36053840056E+03  0.36053840056E+03  0.00000000000E+00 0. -1.
         23    2    1    2    0    0  0.58891750388E+01  0.13446019772E+03 -0.27982880852E+03  0.32432868813E+03  0.93652061991E+02 0.  0.
         23    2    1    2    0    0  0.78654751493E+01 -0.15355247445E+03  0.10043737714E+03  0.20675232645E+03  0.94966465956E+02 0.  0.
        -13    1    3    3    0    0 -0.12221153058E+02  0.22881070124E+02 -0.14982096217E+03  0.15205005971E+03  0.00000000000E+00 0.  1.
         13    1    3    3    0    0  0.18110328097E+02  0.11157912760E+03 -0.13000784634E+03  0.17227862842E+03  0.00000000000E+00 0. -1.
        -13    1    4    4    0    0 -0.12814487415E+02 -0.79800425820E+02  0.48305854274E+00  0.80824206735E+02  0.00000000000E+00 0.  1.
         13    1    4    4    0    0  0.20679962564E+02 -0.73752048634E+02  0.99954318595E+02  0.12592811972E+03  0.00000000000E+00 0. -1.
          2    1    1    2  501    0 -0.13754650188E+02  0.19092276735E+02  0.20805276560E+02  0.31409631731E+02  0.00000000000E+00 0. -1.
<scales pt_clust_5="13000.00000" pt_clust_6="13000.00000" pt_clust_7="13000.00000" pt_clust_8="13000.00000" pt_clust_9="23.53095"></scales>
<clustering>
<clus scale="   23.531">  1  9  2 -1</clus>
<clus scale="   93.652">  5  6 -1 -1</clus>
<clus scale="   94.966">  7  8 -1 -1</clus>
<clus scale="  165.900">  2  5  1 -1</clus>
<clus scale="   23.531">  1  5  2 -1</clus>
</clustering>
</event>
<event>
 9    1  0.1315259E-005  0.1514660E+03  0.7546771E-02  0.1201941E+00
          1   -1    0    0  502    0 -0.00000000000E+00  0.00000000000E+00  0.68409105070E+03  0.68409105070E+03  0.00000000000E+00 0. -1.
         21   -1    0    0  501  502  0.00000000000E+00 -0.00000000000E+00 -0.10823312608E+03  0.10823312608E+03  0.00000000000E+00 0. -1.
         23    2    1    2    0    0 -0.28073123756E+02  0.89811982916E+02  0.30790149363E+03  0.33471588098E+03  0.91526491526E+02 0.  0.
         23    2    1    2    0    0 -0.28993327455E+01 -0.19343293401E+03  0.28074616454E+03  0.34870387967E+03  0.73152448346E+02 0.  0.
        -11    1    3    3    0    0  0.19216957843E+02  0.75449196691E+02  0.14632290946E+03  0.16574759903E+03  0.00000000000E+00 0.  1.
         11    1    3    3    0    0 -0.47290081599E+02  0.14362786225E+02  0.16157858417E+03  0.16896828195E+03  0.00000000000E+00 0. -1.
        -11    1    4    4    0    0  0.21813460247E+02 -0.37466933658E+02  0.98136452403E+02  0.10728635261E+03  0.00000000000E+00 0.  1.
         11    1    4    4    0    0 -0.24712792992E+02 -0.15596600035E+03  0.18260971214E+03  0.24141752706E+03  0.00000000000E+00 0. -1.
          1    1    1    2  501    0  0.30972456502E+02  0.10362095110E+03 -0.12789733550E+02  0.10890441613E+03  0.00000000000E+00 0. -1.
<scales pt_clust_5="13000.00000" pt_clust_6="13000.00000" pt_clust_7="13000.00000" pt_clust_8="13000.00000" pt_clust_9="108.15080"></scales>
<clustering>
<clus scale="   73.152">  7  8 -1 -1</clus>
<clus scale="   91.526">  5  6 -1 -1</clus>
<clus scale="  108.151">  2  9  1 -1</clus>
<clus scale="  141.124">  2  7  1 -1</clus>
<clus scale="  108.151">  2  5  1 -1</clus>
</clustering>
</event>
<event>
 9    1  0.1315259E-005  0.1326297E+03  0.7546771E-02  0.1223892E+00
          1   -1    0    0  502    0 -0.00000000000E+00  0.00000000000E+00  0.44048797073E+03  0.44048797073E+03  0.00000000000E+00 0. -1.
         21   -1    0    0  501  502  0.00000000000E+00 -0.00000000000E+00 -0.11093298103E+03  0.11093298103E+03  0.00000000000E+00 0. -1.
         23    2    1    2    0    0  0.92662366307E+02 -0.28032416019E+02  0.32620635808E+03  0.35319056564E+03  0.94661803957E+02 0.  0.
         23    2    1    2    0    0 -0.68155207088E+02  0.39283539083E+02  0.58346047919E+02  0.13697759498E+03  0.95761534675E+02 0.  0.
        -11    1    3    3    0    0  0.21437019704E+02  0.10279845895E+02  0.83368033192E+01  0.25193716181E+02  0.00000000000E+00 0.  1.
         11    1    3    3    0    0  0.71225346603E+02 -0.38312261914E+02  0.31786955476E+03  0.32799684946E+03  0.00000000000E+00 0. -1.
        -13    1    4    4    0    0 -0.10476415954E+02 -0.25879429195E+02 -0.62370531345E+01  0.28607708375E+02  0.00000000000E+00 0.  1.
         13    1    4    4    0    0 -0.57678791134E+02  0.65162968278E+02  0.64583101053E+02  0.10836988661E+03  0.00000000000E+00 0. -1.
          1    1    1    2  501    0 -0.24507159219E+02 -0.11251123063E+02 -0.54997416298E+02  0.61252791142E+02  0.00000000000E+00 0. -1.
<scales pt_clust_5="13000.00000" pt_clust_6="13000.00000" pt_clust_7="13000.00000" pt_clust_8="13000.00000" pt_clust_9="26.96644"></scales>
<clustering>
<clus scale="   26.966">  2  9  1 -1</clus>
<clus scale="   94.662">  5  6 -1 -1</clus>
<clus scale="   95.762">  7  8 -1 -1</clus>
<clus scale="  131.838">  1  5  2 -1</clus>
<clus scale="   26.966">  2  5  1 -1</clus>
</clustering>
</event>
<event>
 9    1  0.1315259E-005  0.1691914E+03  0.7546771E-02  0.1178839E+00
          1   -1    0    0  502    0 -0.00000000000E+00  0.00000000000E+00  0.16961135440E+04  0.16961135440E+04  0.00000000000E+00 0. -1.
         21   -1    0    0  501  502  0.00000000000E+00 -0.00000000000E+00 -0.29919682215E+02  0.29919682215E+02  0.00000000000E+00 0.  1.
         23    2    1    2    0    0  0.25879513927E+02  0.11829440017E+03  0.75915104101E+03  0.77393555108E+03  0.89457363039E+02 0.  0.
         23    2    1    2    0    0 -0.79654902820E+02 -0.16995262912E+03  0.74732629364E+03  0.77583158621E+03  0.90494537405E+02 0.  0.
        -13    1    3    3    0    0 -0.25471670773E+02  0.15774135624E+02  0.85534326185E+02  0.90629743035E+02  0.00000000000E+00 0. -1.
         13    1    3    3    0    0  0.51351184700E+02  0.10252026455E+03  0.67361671483E+03  0.68330580804E+03  0.00000000000E+00 0.  1.
        -13    1    4    4    0    0 -0.80788667361E+02 -0.87549933073E+02  0.34038706688E+03  0.36063160546E+03  0.00000000000E+00 0.  1.
         13    1    4    4    0    0  0.11337645404E+01 -0.82402696046E+02  0.40693922676E+03  0.41519998075E+03  0.00000000000E+00 0. -1.
          1    1    1    2  501    0  0.53775388894E+02  0.51658228950E+02  0.15971652717E+03  0.17626608897E+03  0.00000000000E+00 0. -1.
<scales pt_clust_5="13000.00000" pt_clust_6="13000.00000" pt_clust_7="13000.00000" pt_clust_8="13000.00000" pt_clust_9="74.56786"></scales>
<clustering>
<clus scale="   74.568">  2  9  1 -1</clus>
<clus scale="   89.457">  5  6 -1 -1</clus>
<clus scale="   90.495">  7  8 -1 -1</clus>
<clus scale="  168.639">  1  5  2 -1</clus>
<clus scale="   74.568">  2  5  1 -1</clus>
</clustering>
</event>
<event>
 9    1  0.1315259E-005  0.1016580E+03  0.7546771E-02  0.1277708E+00
          1   -1    0    0  502    0 -0.00000000000E+00  0.00000000000E+00  0.10067693090E+03  0.10067693090E+03  0.00000000000E+00 0. -1.
         21   -1    0    0  501  502  0.00000000000E+00 -0.00000000000E+00 -0.20133775708E+03  0.20133775708E+03  0.00000000000E+00 0. -1.
         23    2    1    2    0    0 -0.45213640930E+02 -0.27915841656E+02  0.25273586521E+02  0.10837284146E+03  0.91007423041E+02 0.  0.
         23    2    1    2    0    0 -0.49996874235E+01  0.23580162288E+02 -0.91881716138E+02  0.13281617265E+03  0.92827070555E+02 0.  0.
        -13    1    3    3    0    0 -0.97756697207E+01 -0.37290235240E+02  0.50750688512E+02  0.63731920944E+02  0.00000000000E+00 0. -1.
         13    1    3    3    0    0 -0.35437971209E+02  0.93743935839E+01 -0.25477101991E+02  0.44640920514E+02  0.00000000000E+00 0.  1.
        -13    1    4    4    0    0 -0.81405087408E+01  0.49097118943E+02 -0.94671685113E+02  0.10695570547E+03  0.00000000000E+00 0. -1.
         13    1    4    4    0    0  0.31408213173E+01 -0.25516956655E+02  0.27899689754E+01  0.25860467172E+02  0.00000000000E+00 0.  1.
          1    1    1    2  501    0  0.50213328353E+02  0.43356793673E+01 -0.34052696556E+02  0.60825673877E+02  0.00000000000E+00 0. -1.
<scales pt_clust_5="13000.00000" pt_clust_6="13000.00000" pt_clust_7="13000.00000" pt_clust_8="13000.00000" pt_clust_9="50.40016"></scales>
<clustering>
<clus scale="   50.400">  2  9  1 -1</clus>
<clus scale="   91.007">  5  6 -1 -1</clus>
<clus scale="   92.827">  7  8 -1 -1</clus>
<clus scale="   99.999">  1  5  2 -1</clus>
<clus scale="   50.400">  2  5  1 -1</clus>
</clustering>
</event>
<event>
 9    1  0.1315259E-005  0.2726674E+03  0.7546771E-02  0.1099827E+00
         21   -1    0    0  501  502  0.00000000000E+00  0.00000000000E+00  0.22368946121E+03  0.22368946121E+03  0.00000000000E+00 0. -1.
          1   -1    0    0  502    0 -0.00000000000E+00 -0.00000000000E+00 -0.90160799662E+03  0.90160799662E+03  0.00000000000E+00 0. -1.
         23    2    1    2    0    0 -0.11013308381E+03  0.21614255423E+03 -0.57932928673E+03  0.63432967209E+03  0.88909001431E+02 0.  0.
         23    2    1    2    0    0  0.11515724331E+03 -0.33003070339E+03 -0.39281521175E+02  0.36246424789E+03  0.87497641252E+02 0.  0.
        -11    1    3    3    0    0 -0.75644820821E+02  0.20503808560E+03 -0.45392565736E+03  0.50379684187E+03  0.00000000000E+00 0. -1.
         11    1    3    3    0    0 -0.34488262992E+02  0.11104468624E+02 -0.12540362937E+03  0.13053283023E+03  0.00000000000E+00 0.  1.
        -11    1    4    4    0    0  0.68491887983E+02 -0.28500347580E+03 -0.15962995771E+02  0.29355227332E+03  0.00000000000E+00 0. -1.
         11    1    4    4    0    0  0.46665355325E+02 -0.45027227598E+02 -0.23318525404E+02  0.68911974575E+02  0.00000000000E+00 0.  1.
          1    1    1    2  501    0 -0.50241594945E+01  0.11388814917E+03 -0.59307727503E+02  0.12850353785E+03  0.00000000000E+00 0. -1.
<scales pt_clust_5="13000.00000" pt_clust_6="13000.00000" pt_clust_7="13000.00000" pt_clust_8="13000.00000" pt_clust_9="113.99892"></scales>
<clustering>
<clus scale="   87.498">  7  8 -1 -1</clus>
<clus scale="   88.909">  5  6 -1 -1</clus>
<clus scale="  113.999">  1  9  2 -1</clus>
<clus scale="  272.210">  1  7  2 -1</clus>
<clus scale="  113.999">  1  5  2 -1</clus>
</clustering>
</event>
<event>
 9    1  0.1315259E-005  0.2718068E+03  0.7546771E-02  0.1100311E+00
          2   -1    0    0  502    0 -0.00000000000E+00  0.00000000000E+00  0.12431321022E+04  0.12431321022E+04  0.00000000000E+00 0. -1.
         21   -1    0    0  501  502  0.00000000000E+00 -0.00000000000E+00 -0.89062118174E+02  0.89062118174E+02  0.00000000000E+00 0. -1.
         23    2    1    2    0    0  0.16599168470E+03 -0.18530021831E+03  0.82988010755E+03  0.87149389561E+03  0.94399189008E+02 0.  0.
         23    2    1    2    0    0 -0.16998397268E+03  0.21105395788E+03  0.32664107409E+03  0.43452396456E+03  0.93157717829E+02 0.  0.
        -13    1    3    3    0    0  0.16245507428E+03 -0.15899037401E+03  0.79932562116E+03  0.83101807371E+03  0.00000000000E+00 0. -1.
         13    1    3    3    0    0  0.35366104178E+01 -0.26309844296E+02  0.30554486393E+02  0.40475821905E+02  0.00000000000E+00 0.  1.
        -13    1    4    4    0    0 -0.31411901554E+02  0.28185378943E+02  0.97906813614E+01  0.43324134001E+02  0.00000000000E+00 0.  1.
         13    1    4    4    0    0 -0.13857207113E+03  0.18286857893E+03  0.31685039273E+03  0.39119983056E+03  0.00000000000E+00 0. -1.
          2    1    1    2  501    0  0.39922879799E+01 -0.25753739570E+02 -0.24511975902E+01  0.26176360228E+02  0.00000000000E+00 0. -1.
<scales pt_clust_5="13000.00000" pt_clust_6="13000.00000" pt_clust_7="13000.00000" pt_clust_8="13000.00000" pt_clust_9="26.06134"></scales>
<clustering>
<clus scale="   26.061">  2  9  1 -1</clus>
<clus scale="   93.158">  7  8 -1 -1</clus>
<clus scale="   94.399">  5  6 -1 -1</clus>
<clus scale="  271.378">  2  7  1 -1</clus>
<clus scale="   26.061">  2  5  1 -1</clus>
</clustering>
</event>
<event>
 9    1  0.1315259E-005  0.1067480E+03  0.7546771E-02  0.1267608E+00
         21   -1    0    0  501  502  0.00000000000E+00  0.00000000000E+00  0.23078661815E+03  0.23078661815E+03  0.00000000000E+00 0.  1.
         -1   -1    0    0    0  501 -0.00000000000E+00 -0.00000000000E+00 -0.26560111806E+03  0.26560111806E+03  0.00000000000E+00 0.  1.
         23    2    1    2    0    0 -0.42059897283E+02 -0.33138643455E+02 -0.23243363616E+03  0.25635046365E+03  0.93930614530E+02 0.  0.
         23    2    1    2    0    0  0.22267140802E+02  0.70819663633E+01  0.10319152291E+03  0.14010090385E+03  0.91835685074E+02 0.  0.
        -11    1    3    3    0    0 -0.42802721213E+02 -0.55929364130E+02 -0.21863295586E+03  0.22969661753E+03  0.00000000000E+00 0.  1.
         11    1    3    3    0    0  0.74282392963E+00  0.22790720675E+02 -0.13800680292E+02  0.26653846117E+02  0.00000000000E+00 0. -1.
        -11    1    4    4    0    0  0.91235439201E+01  0.49171109545E+02  0.46572480645E+02  0.68337639855E+02  0.00000000000E+00 0. -1.
         11    1    4    4    0    0  0.13143596882E+02 -0.42089143181E+02  0.56619042261E+02  0.71763263996E+02  0.00000000000E+00 0.  1.
         -1    1    1    2    0  502  0.19792756482E+02  0.26056677092E+02  0.94427613335E+02  0.99936368707E+02  0.00000000000E+00 0.  1.
<scales pt_clust_5="13000.00000" pt_clust_6="13000.00000" pt_clust_7="13000.00000" pt_clust_8="13000.00000" pt_clust_9="32.72161"></scales>
<clustering>
<clus scale="   32.722">  1  9  2 -1</clus>
<clus scale="   91.836">  7  8 -1 -1</clus>
<clus scale="   93.931">  5  6 -1 -1</clus>
<clus scale="  104.909">  1  7  2 -1</clus>
<clus scale="   32.722">  1  5  2 -1</clus>
</clustering>
</event>
<event>
 9    1  0.1315259E-005  0.1448548E+03  0.7546771E-02  0.1210823E+00
         21   -1    0    0  501  502  0.00000000000E+00  0.00000000000E+00  0.13118087688E+03  0.13118087688E+03  0.00000000000E+00 0.  1.
         -3   -1    0    0    0  501 -0.00000000000E+00 -0.00000000000E+00 -0.20601041382E+03  0.20601041382E+03  0.00000000000E+00 0.  1.
         23    2    1    2    0    0  0.16414847330E+02 -0.11730530316E+03 -0.78684056138E+02  0.15922951594E+03  0.71644097414E+02 0.  0.
         23    2    1    2    0    0 -0.41418655881E+02  0.94359339229E+02  0.22042108859E+02  0.13945857852E+03  0.91343585465E+02 0.  0.
        -11    1    4    4    0    0  0.16819728326E+02  0.25814072799E+02  0.37138748709E+02  0.48255116527E+02  0.00000000000E+00 0. -1.
         11    1    4    4    0    0 -0.58238384207E+02  0.68545266429E+02 -0.15096639850E+02  0.91203461994E+02  0.00000000000E+00 0.  1.
        -13    1    3    3    0    0  0.37664234191E+02 -0.42846809227E+02 -0.52393762864E+02  0.77456762036E+02  0.00000000000E+00 0.  1.
         13    1    3    3    0    0 -0.21249386860E+02 -0.74458493935E+02 -0.26290293274E+02  0.81772753906E+02  0.00000000000E+00 0. -1.
         -3    1    1    2    0  502  0.25003808551E+02  0.22945963933E+02 -0.18187589664E+02  0.38503196240E+02  0.00000000000E+00 0.  1.
<scales pt_clust_5="13000.00000" pt_clust_6="13000.00000" pt_clust_7="13000.00000" pt_clust_8="13000.00000" pt_clust_9="33.93684"></scales>
<clustering>
<clus scale="   33.937">  1  9  2 -1</clus>
<clus scale="   71.644">  7  8 -1 -1</clus>
<clus scale="   91.344">  5  6 -1 -1</clus>
<clus scale="  133.312">  2  7  1 -1</clus>
<clus scale="   33.937">  1  5  2 -1</clus>
</clustering>
</event>
<event>
 9    1  0.1315259E-005  0.1331591E+03  0.7546771E-02  0.1223396E+00
         21   -1    0    0  501  502  0.00000000000E+00  0.00000000000E+00  0.45159342598E+03  0.45159342598E+03  0.00000000000E+00 0.  1.
         -3   -1    0    0    0  501 -0.00000000000E+00 -0.00000000000E+00 -0.16052846439E+03  0.16052846439E+03  0.00000000000E+00 0.  1.
         23    2    1    2    0    0  0.46746158574E+02  0.63059532900E+02 -0.35325534511E+02  0.12461868926E+03  0.90112242744E+02 0.  0.
         23    2    1    2    0    0 -0.18310736197E+02 -0.16334964749E+03  0.51262617488E+02  0.19328894259E+03  0.87831480568E+02 0.  0.
        -11    1    3    3    0    0  0.65265789751E+02  0.73032643013E+02 -0.24506560717E+02  0.10096515129E+03  0.00000000000E+00 0.  1.
         11    1    3    3    0    0 -0.18519631177E+02 -0.99731101126E+01 -0.10818973794E+02  0.23653537964E+02  0.00000000000E+00 0. -1.
        -11    1    4    4    0    0 -0.48654850625E+02 -0.12051509775E+03  0.18157392943E+02  0.13122832847E+03  0.00000000000E+00 0.  1.
         11    1    4    4    0    0  0.30344114428E+02 -0.42834549740E+02  0.33105224545E+02  0.62060614113E+02  0.00000000000E+00 0. -1.
         -3    1    1    2    0  502 -0.28435422377E+02  0.10029011459E+03  0.27512787862E+03  0.29421425853E+03  0.00000000000E+00 0.  1.
<scales pt_clust_5="13000.00000" pt_clust_6="13000.00000" pt_clust_7="13000.00000" pt_clust_8="13000.00000" pt_clust_9="104.24337"></scales>
<clustering>
<clus scale="   87.831">  7  8 -1 -1</clus>
<clus scale="   90.112">  5  6 -1 -1</clus>
<clus scale="  104.243">  1  9  2 -1</clus>
<clus scale="  131.626">  1  7  2 -1</clus>
<clus scale="  104.243">  1  5  2 -1</clus>
</clustering>
</event>
<event>
 9    1  0.1315259E-005  0.1081434E+03  0.7546771E-02  0.1265674E+00
          1   -1    0    0  502    0 -0.00000000000E+00  0.00000000000E+00  0.12470112730E+03  0.12470112730E+03  0.00000000000E+00 0. -1.
         21   -1    0    0  501  502  0.00000000000E+00 -0.00000000000E+00 -0.28894018233E+03  0.28894018233E+03  0.00000000000E+00 0. -1.
         23    2    1    2    0    0  0.28674845401E+01 -0.40066481479E+02  0.21059532928E+02  0.10546481739E+03  0.95214381133E+02 0.  0.
         23    2    1    2    0    0 -0.60458119592E+02  0.50958963827E+02 -0.76043285044E+01  0.12106535612E+03  0.91361887145E+02 0.  0.
        -13    1    3    3    0    0  0.11835056549E+02 -0.66396456743E+02  0.33133121069E+02  0.75142276671E+02  0.00000000000E+00 0.  1.
         13    1    3    3    0    0 -0.89675720093E+01  0.26329975264E+02 -0.12073588140E+02  0.30322540720E+02  0.00000000000E+00 0. -1.
        -13    1    4    4    0    0 -0.27185001596E+02  0.14950513352E+02 -0.48261194644E+02  0.57373208641E+02  0.00000000000E+00 0.  1.
         13    1    4    4    0    0 -0.33273117996E+02  0.36008450475E+02  0.40656866140E+02  0.63692147484E+02  0.00000000000E+00 0. -1.
          1    1    1    2  501    0  0.57590635052E+02 -0.10892482348E+02 -0.17769425945E+03  0.18711113611E+03  0.00000000000E+00 0. -1.
<scales pt_clust_5="13000.00000" pt_clust_6="13000.00000" pt_clust_7="13000.00000" pt_clust_8="13000.00000" pt_clust_9="58.61167"></scales>
<clustering>
<clus scale="   58.612">  2  9  1 -1</clus>
<clus scale="   91.362">  7  8 -1 -1</clus>
<clus scale="   95.214">  5  6 -1 -1</clus>
<clus scale="  104.767">  2  7  1 -1</clus>
<clus scale="   58.612">  2  5  1 -1</clus>
</clustering>
</event>
<event>
 9    1  0.1315259E-005  0.1007563E+03  0.7546771E-02  0.1280193E+00
         21   -1    0    0  501  502  0.00000000000E+00  0.00000000000E+00  0.23061588558E+03  0.23061588558E+03  0.00000000000E+00 0. -1.
         -3   -1    0    0    0  501 -0.00000000000E+00 -0.00000000000E+00 -0.29374139984E+03  0.29374139984E+03  0.00000000000E+00 0.  1.
         23    2    1    2    0    0  0.24478112576E+02  0.52181885364E+01 -0.12842002804E+03  0.16058678943E+03  0.93112866192E+02 0.  0.
         23    2    1    2    0    0 -0.23492520046E+02 -0.34110769280E+02 -0.12971112174E+03  0.16663361335E+03  0.96053854261E+02 0.  0.
        -11    1    3    3    0    0  0.52821568875E+02  0.13237725861E+02 -0.11689442010E+03  0.12895604280E+03  0.00000000000E+00 0.  1.
         11    1    3    3    0    0 -0.28343456299E+02 -0.80195373241E+01 -0.11525607940E+02  0.31630746628E+02  0.00000000000E+00 0. -1.
        -11    1    4    4    0    0 -0.34255351284E+02  0.12816622199E+02 -0.10476400277E+02  0.38045365801E+02  0.00000000000E+00 0. -1.
         11    1    4    4    0    0  0.10762831238E+02 -0.46927391479E+02 -0.11923472146E+03  0.12858824755E+03  0.00000000000E+00 0.  1.
         -3    1    1    2    0  502 -0.98559253034E+00  0.28892580743E+02  0.19500563551E+03  0.19713688264E+03  0.00000000000E+00 0.  1.
<scales pt_clust_5="13000.00000" pt_clust_6="13000.00000" pt_clust_7="13000.00000" pt_clust_8="13000.00000" pt_clust_9="28.90939"></scales>
<clustering>
<clus scale="   28.909">  1  9  2 -1</clus>
<clus scale="   93.113">  5  6 -1 -1</clus>
<clus scale="   96.054">  7  8 -1 -1</clus>
<clus scale="   97.957">  2  5  1 -1</clus>
<clus scale="   28.909">  1  5  2 -1</clus>
</clustering>
</event>
<event>
 9    1  0.1315259E-005  0.9810074E+02  0.7546771E-02  0.1288129E+00
          2   -1    0    0  502    0 -0.00000000000E+00  0.00000000000E+00  0.31513140525E+03  0.31513140525E+03  0.00000000000E+00 0. -1.
         21   -1    0    0  501  502  0.00000000000E+00 -0.00000000000E+00 -0.80268552136E+02  0.80268552136E+02  0.00000000000E+00 0.  1.
         23    2    1    2    0    0  0.21146241731E+02 -0.70678379356E+01  0.16906726135E+03  0.19599907098E+03  0.96616660534E+02 0.  0.
         23    2    1    2    0    0 -0.10817091151E+02 -0.17750636257E+02  0.11256480365E+03  0.14545640391E+03  0.89747623205E+02 0.  0.
        -13    1    3    3    0    0  0.11316228803E+02 -0.46801334747E+02  0.47136821946E+02  0.67381762752E+02  0.00000000000E+00 0.  1.
         13    1    3    3    0    0  0.98300129283E+01  0.39733496811E+02  0.12193043940E+03  0.12861730823E+03  0.00000000000E+00 0. -1.
        -13    1    4    4    0    0  0.27862631044E+02  0.20861110922E+02  0.61461439566E+02  0.70633000157E+02  0.00000000000E+00 0. -1.
         13    1    4    4    0    0 -0.38679722195E+02 -0.38611747179E+02  0.51103364080E+02  0.74823403756E+02  0.00000000000E+00 0.  1.
          2    1    1    2  501    0 -0.10329150581E+02  0.24818474192E+02 -0.46769211873E+02  0.53944482500E+02  0.00000000000E+00 0. -1.
<scales pt_clust_5="13000.00000" pt_clust_6="13000.00000" pt_clust_7="13000.00000" pt_clust_8="13000.00000" pt_clust_9="26.88211"></scales>
<clustering>
<clus scale="   26.882">  2  9  1 -1</clus>
<clus scale="   89.748">  7  8 -1 -1</clus>
<clus scale="   91.343">  2  7  1 -1</clus>
<clus scale="   96.617">  5  6 -1 -1</clus>
<clus scale="   26.882">  2  5  1 -1</clus>
</clustering>
</event>
<event>
 9    1  0.1315259E-005  0.9885345E+02  0.7546771E-02  0.1284013E+00
         -1   -1    0    0    0  501 -0.00000000000E+00  0.00000000000E+00  0.37258948577E+02  0.37258948577E+02  0.00000000000E+00 0.  1.
         21   -1    0    0  501  502  0.00000000000E+00 -0.00000000000E+00 -0.51135989849E+03  0.51135989849E+03  0.00000000000E+00 0.  1.
         23    2    1    2    0    0  0.20954604041E+02 -0.36675677952E+02 -0.14557146680E+03  0.17591772016E+03  0.89284889736E+02 0.  0.
         23    2    1    2    0    0  0.46469869622E+02  0.34273275506E+02 -0.19891367841E+03  0.22657759008E+03  0.91851220308E+02 0.  0.
        -11    1    4    4    0    0 -0.25596451434E+02  0.95772610224E+01 -0.26426848844E+02  0.38016846194E+02  0.00000000000E+00 0. -1.
         11    1    4    4    0    0  0.72066321056E+02  0.24696014484E+02 -0.17248682956E+03  0.18856074388E+03  0.00000000000E+00 0.  1.
        -13    1    3    3    0    0 -0.11011638850E+02 -0.51171808452E+02 -0.12431041455E+03  0.13488101918E+03  0.00000000000E+00 0. -1.
         13    1    3    3    0    0  0.31966242891E+02  0.14496130500E+02 -0.21261052252E+02  0.41036700975E+02  0.00000000000E+00 0.  1.
         -1    1    1    2    0  502 -0.67424473663E+02  0.24024024457E+01 -0.12961580470E+03  0.14612353683E+03  0.00000000000E+00 0.  1.
<scales pt_clust_5="13000.00000" pt_clust_6="13000.00000" pt_clust_7="13000.00000" pt_clust_8="13000.00000" pt_clust_9="67.46726"></scales>
<clustering>
<clus scale="   67.467">  2  9  1 -1</clus>
<clus scale="   89.285">  7  8 -1 -1</clus>
<clus scale="   91.851">  5  6 -1 -1</clus>
<clus scale="   96.474">  1  7  2 -1</clus>
<clus scale="   67.467">  2  5  1 -1</clus>
</clustering>
</event>
<event>
 9    1  0.1498436E-005  0.1054428E+03  0.7546771E-02  0.1269316E+00
         21   -1    0    0  501  502  0.00000000000E+00  0.00000000000E+00  0.62741637749E+03  0.62741637749E+03  0.00000000000E+00 0. -1.
          1   -1    0    0  502    0 -0.00000000000E+00 -0.00000000000E+00 -0.15557469700E+03  0.15557469700E+03  0.00000000000E+00 0. -1.
         23    2    1    2    0    0  0.20192519305E+02 -0.49357178995E+02 -0.75456327632E+02  0.13088031078E+03  0.92693739895E+02 0.  0.
         23    2    1    2    0    0 -0.76386186196E+02 -0.27688142035E+01  0.23254016068E+02  0.12249113324E+03  0.92848331631E+02 0.  0.
        -13    1    3    3    0    0 -0.15936917005E+01 -0.30324837527E+02  0.16444833615E+02  0.34533580423E+02  0.00000000000E+00 0.  1.
         13    1    3    3    0    0  0.21786211005E+02 -0.19032341469E+02 -0.91901161247E+02  0.96346730356E+02  0.00000000000E+00 0. -1.
        -13    1    4    4    0    0 -0.91486866167E+02  0.17098823150E+02  0.83987237018E+01  0.93449210772E+02  0.00000000000E+00 0. -1.
         13    1    4    4    0    0  0.15100679971E+02 -0.19867637353E+02  0.14855292367E+02  0.29041922472E+02  0.00000000000E+00 0.  1.
          1    1    1    2  501    0  0.56193666891E+02  0.52125993199E+02  0.52404399205E+03  0.52961963046E+03  0.00000000000E+00 0. -1.
<scales pt_clust_5="13000.00000" pt_clust_6="13000.00000" pt_clust_7="13000.00000" pt_clust_8="13000.00000" pt_clust_9="76.64755"></scales>
<clustering>
<clus scale="   76.648">  1  9  2 -1</clus>
<clus scale="   92.694">  5  6 -1 -1</clus>
<clus scale="   92.848">  7  8 -1 -1</clus>
<clus scale="  105.307">  2  5  1 -1</clus>
<clus scale="   76.648">  1  5  2 -1</clus>
</clustering>
</event>
<event>
 9    1  0.1315259E-005  0.1172281E+03  0.7546771E-02  0.1248284E+00
          2   -1    0    0  502    0 -0.00000000000E+00  0.00000000000E+00  0.66883931500E+03  0.66883931500E+03  0.00000000000E+00 0. -1.
         21   -1    0    0  501  502  0.00000000000E+00 -0.00000000000E+00 -0.28318219554E+02  0.28318219554E+02  0.00000000000E+00 0.  1.
         23    2    1    2    0    0  0.65998833196E+02 -0.38057150759E+02  0.37205673734E+03  0.39117752924E+03  0.93752071321E+02 0.  0.
         23    2    1    2    0    0 -0.65674611512E+02  0.45283384657E+01  0.20531159974E+03  0.23447785665E+03  0.92159382737E+02 0.  0.
        -11    1    3    3    0    0  0.41367317966E+02 -0.67524392345E+02  0.20500419087E+03  0.21976696028E+03  0.00000000000E+00 0.  1.
         11    1    3    3    0    0  0.24631515230E+02  0.29467241587E+02  0.16705254647E+03  0.17141056896E+03  0.00000000000E+00 0. -1.
        -13    1    4    4    0    0 -0.72142330936E+02 -0.29983286017E+02  0.14362099575E+03  0.16349465977E+03  0.00000000000E+00 0.  1.
         13    1    4    4    0    0  0.64677194243E+01  0.34511624483E+02  0.61690603986E+02  0.70983196879E+02  0.00000000000E+00 0. -1.
          2    1    1    2  501    0 -0.32422168401E+00  0.33528812293E+02  0.63152758366E+02  0.71502148658E+02  0.00000000000E+00 0. -1.
<scales pt_clust_5="13000.00000" pt_clust_6="13000.00000" pt_clust_7="13000.00000" pt_clust_8="13000.00000" pt_clust_9="33.53038"></scales>
<clustering>
<clus scale="   33.530">  2  9  1 -1</clus>
<clus scale="   92.159">  7  8 -1 -1</clus>
<clus scale="   93.752">  5  6 -1 -1</clus>
<clus scale="  115.958">  2  7  1 -1</clus>
<clus scale="   33.530">  2  5  1 -1</clus>
</clustering>
</event>
<event>
 9    1  0.1315259E-005  0.1330759E+03  0.7546771E-02  0.1224923E+00
         -3   -1    0    0    0  501 -0.00000000000E+00  0.00000000000E+00  0.17543484043E+03  0.17543484043E+03  0.00000000000E+00 0.  1.
         21   -1    0    0  501  502  0.00000000000E+00 -0.00000000000E+00 -0.13270576444E+03  0.13270576444E+03  0.00000000000E+00 0. -1.
         23    2    1    2    0    0  0.86089779156E+02  0.65405021085E+02  0.27678155720E+02  0.14265536874E+03  0.88854977736E+02 0.  0.
         23    2    1    2    0    0 -0.75241167083E+02 -0.45643710396E+02 -0.22708007156E+02  0.12150866983E+03  0.80648135322E+02 0.  0.
        -11    1    4    4    0    0 -0.24651628899E+02  0.39569144096E+01  0.25599022919E+02  0.35758494843E+02  0.00000000000E+00 0.  1.
         11    1    4    4    0    0 -0.50589538185E+02 -0.49600624806E+02 -0.48307030075E+02  0.85750174983E+02  0.00000000000E+00 0. -1.
        -13    1    3    3    0    0  0.68729690157E+02  0.21921450035E+02  0.52914351111E+02  0.89466467652E+02  0.00000000000E+00 0.  1.
         13    1    3    3    0    0  0.17360088999E+02  0.43483571050E+02 -0.25236195390E+02  0.53188901089E+02  0.00000000000E+00 0. -1.
         -3    1    1    2    0  502 -0.10848612073E+02 -0.19761310689E+02  0.37758927425E+02  0.43976566309E+02  0.00000000000E+00 0.  1.
<scales pt_clust_5="13000.00000" pt_clust_6="13000.00000" pt_clust_7="13000.00000" pt_clust_8="13000.00000" pt_clust_9="22.54334"></scales>
<clustering>
<clus scale="   22.543">  2  9  1 -1</clus>
<clus scale="   80.648">  5  6 -1 -1</clus>
<clus scale="   88.855">  7  8 -1 -1</clus>
<clus scale="  127.742">  2  5  1 -1</clus>
<clus scale="   22.543">  2  5  1 -1</clus>
</clustering>
</event>
<event>
 9    1  0.1315259E-005  0.9528422E+02  0.7546771E-02  0.1292366E+00
          1   -1    0    0  502    0 -0.00000000000E+00  0.00000000000E+00  0.49944688092E+03  0.49944688092E+03  0.00000000000E+00 0. -1.
         21   -1    0    0  501  502  0.00000000000E+00 -0.00000000000E+00 -0.26819370109E+02  0.26819370109E+02  0.00000000000E+00 0.  1.
         23    2    1    2    0    0  0.28676788002E+02  0.20732281646E+01  0.23266215165E+03  0.25245864217E+03  0.93685819382E+02 0.  0.
         23    2    1    2    0    0  0.45309654572E+01 -0.19940124769E+02  0.15114810215E+03  0.17731674904E+03  0.90428659638E+02 0.  0.
        -13    1    4    4    0    0  0.20390804503E+02  0.15388744322E+02  0.48785766851E+01  0.26007669456E+02  0.00000000000E+00 0.  1.
         13    1    4    4    0    0 -0.15859839046E+02 -0.35328869090E+02  0.14626952546E+03  0.15130907959E+03  0.00000000000E+00 0. -1.
        -13    1    3    3    0    0  0.30671919705E+01 -0.25817133300E+02  0.12111666829E+02  0.28681431480E+02  0.00000000000E+00 0. -1.
         13    1    3    3    0    0  0.25609596031E+02  0.27890361464E+02  0.22055048482E+03  0.22377721069E+03  0.00000000000E+00 0.  1.
          1    1    1    2  501    0 -0.33207753459E+02  0.17866896604E+02  0.88817257012E+02  0.96490859811E+02  0.00000000000E+00 0. -1.
<scales pt_clust_5="13000.00000" pt_clust_6="13000.00000" pt_clust_7="13000.00000" pt_clust_8="13000.00000" pt_clust_9="37.70918"></scales>
<clustering>
<clus scale="   37.709">  2  9  1 -1</clus>
<clus scale="   90.429">  5  6 -1 -1</clus>
<clus scale="   92.084">  2  5  1 -1</clus>
<clus scale="   93.686">  7  8 -1 -1</clus>
<clus scale="   37.709">  2  5  1 -1</clus>
</clustering>
</event>
<event>
 9    1  0.1315259E-005  0.9217368E+02  0.7546771E-02  0.1298465E+00
         -1   -1    0    0    0  501 -0.00000000000E+00  0.00000000000E+00  0.35149960850E+03  0.35149960850E+03  0.00000000000E+00 0.  1.
         21   -1    0    0  501  502  0.00000000000E+00 -0.00000000000E+00 -0.42646100038E+02  0.42646100038E+02  0.00000000000E+00 0.  1.
         23    2    1    2    0    0  0.80290411328E+00 -0.76203932975E+01  0.20820193656E+03  0.22726766477E+03  0.90795539631E+02 0.  0.
         23    2    1    2    0    0 -0.56643946256E+01 -0.15130124197E+02  0.10762040045E+03  0.14259256030E+03  0.92138383074E+02 0.  0.
        -11    1    3    3    0    0 -0.44846657058E+02 -0.40013029601E+01  0.94002582615E+02  0.10422916393E+03  0.00000000000E+00 0. -1.
         11    1    3    3    0    0  0.45649561171E+02 -0.36190903374E+01  0.11419935394E+03  0.12303850085E+03  0.00000000000E+00 0.  1.
        -11    1    4    4    0    0 -0.19675823982E+02  0.35181371405E+02  0.57384037410E+02  0.70126989760E+02  0.00000000000E+00 0. -1.
         11    1    4    4    0    0  0.14011429356E+02 -0.50311495602E+02  0.50236363037E+02  0.72465570539E+02  0.00000000000E+00 0.  1.
         -1    1    1    2    0  502  0.48614905124E+01  0.22750517494E+02 -0.69688285364E+01  0.24285483471E+02  0.00000000000E+00 0.  1.
<scales pt_clust_5="13000.00000" pt_clust_6="13000.00000" pt_clust_7="13000.00000" pt_clust_8="13000.00000" pt_clust_9="23.26414"></scales>
<clustering>
<clus scale="   23.264">  2  9  1 -1</clus>
<clus scale="   90.796">  5  6 -1 -1</clus>
<clus scale="   90.831">  1  5  2 -1</clus>
<clus scale="   92.138">  7  8 -1 -1</clus>
<clus scale="   23.264">  2  5  1 -1</clus>
</clustering>
</event>
<event>
 9    1  0.1315259E-005  0.1561087E+03  0.7546771E-02  0.1200814E+00
          2   -1    0    0  502    0 -0.00000000000E+00  0.00000000000E+00  0.48857959037E+03  0.48857959037E+03  0.00000000000E+00 0. -1.
         21   -1    0    0  501  502  0.00000000000E+00 -0.00000000000E+00 -0.12566020603E+03  0.12566020603E+03  0.00000000000E+00 0. -1.
         23    2    1    2    0    0 -0.72974199159E+02  0.62452518517E+02  0.30740604979E+03  0.33465014286E+03  0.90921327827E+02 0.  0.
         23    2    1    2    0    0  0.49593124261E+02 -0.86088820018E+02  0.12556080766E+03  0.20205257918E+03  0.12324352083E+03 0.  0.
        -11    1    4    4    0    0  0.54462740266E+01 -0.32003798493E+02  0.12814157772E+03  0.13218989734E+03  0.00000000000E+00 0. -1.
         11    1    4    4    0    0  0.44146850234E+02 -0.54085021525E+02 -0.25807700659E+01  0.69862681834E+02  0.00000000000E+00 0.  1.
        -13    1    3    3    0    0 -0.37579243933E+01  0.62599878841E+02  0.15794797933E+03  0.16994243437E+03  0.00000000000E+00 0.  1.
         13    1    3    3    0    0 -0.69216274766E+02 -0.14736032413E+00  0.14945807046E+03  0.16470770849E+03  0.00000000000E+00 0. -1.
          2    1    1    2  501    0  0.23381074898E+02  0.23636301500E+02 -0.70047473112E+02  0.77537074367E+02  0.00000000000E+00 0. -1.
<scales pt_clust_5="13000.00000" pt_clust_6="13000.00000" pt_clust_7="13000.00000" pt_clust_8="13000.00000" pt_clust_9="33.24680"></scales>
<clustering>
<clus scale="   33.247">  2  9  1 -1</clus>
<clus scale="   90.921">  7  8 -1 -1</clus>
<clus scale="  123.244">  5  6 -1 -1</clus>
<clus scale="  132.089">  1  7  2 -1</clus>
<clus scale="   33.247">  2  5  1 -1</clus>
</clustering>
</event>
<event>
 9    1  0.1315259E-005  0.9571103E+02  0.7546771E-02  0.1292727E+00
          1   -1    0    0  502    0 -0.00000000000E+00  0.00000000000E+00  0.10013793488E+03  0.10013793488E+03  0.00000000000E+00 0. -1.
         21   -1    0    0  501  502  0.00000000000E+00 -0.00000000000E+00 -0.20882056100E+03  0.20882056100E+03  0.00000000000E+00 0.  1.
         23    2    1    2    0    0  0.13023160871E+02  0.12525750116E+02  0.13594852491E+02  0.93879844396E+02  0.91115904399E+02 0.  0.
         23    2    1    2    0    0 -0.21509196538E+01 -0.73063247726E+02 -0.97467685716E+02  0.14875731201E+03  0.85357621184E+02 0.  0.
        -13    1    3    3    0    0 -0.11795796569E+02 -0.34591034553E+02 -0.61940063958E+01  0.37068129213E+02  0.00000000000E+00 0.  1.
         13    1    3    3    0    0  0.24818957441E+02  0.47116784669E+02  0.19788858887E+02  0.56811715183E+02  0.00000000000E+00 0. -1.
        -13    1    4    4    0    0  0.97014762654E+01 -0.26471623007E+02  0.10882145377E+02  0.30220631270E+02  0.00000000000E+00 0. -1.
         13    1    4    4    0    0 -0.11852395919E+02 -0.46591624718E+02 -0.10834983109E+03  0.11853668074E+03  0.00000000000E+00 0.  1.
          1    1    1    2  501    0 -0.10872241217E+02  0.60537497610E+02 -0.24809792892E+02  0.66321339471E+02  0.00000000000E+00 0. -1.
<scales pt_clust_5="13000.00000" pt_clust_6="13000.00000" pt_clust_7="13000.00000" pt_clust_8="13000.00000" pt_clust_9="61.50605"></scales>
<clustering>
<clus scale="   61.506">  2  9  1 -1</clus>
<clus scale="   85.358">  7  8 -1 -1</clus>
<clus scale="   90.246">  2  7  1 -1</clus>
<clus scale="   91.116">  5  6 -1 -1</clus>
<clus scale="   61.506">  2  5  1 -1</clus>
</clustering>
</event>
<event>
 9    1  0.1315259E-005  0.1316456E+03  0.7546771E-02  0.1226264E+00
         21   -1    0    0  501  502  0.00000000000E+00  0.00000000000E+00  0.61695074765E+02  0.61695074765E+02  0.00000000000E+00 0. -1.
         -1   -1    0    0    0  501 -0.00000000000E+00 -0.00000000000E+00 -0.39695252059E+03  0.39695252059E+03  0.00000000000E+00 0.  1.
         23    2    1    2    0    0 -0.87404180923E+02  0.46259774837E+01 -0.20941961275E+03  0.24346414113E+03  0.88075668029E+02 0.  0.
         23    2    1    2    0    0  0.10181909882E+03 -0.29447990896E+02 -0.12168630738E+03  0.18618074102E+03  0.92851482877E+02 0.  0.
        -11    1    4    4    0    0  0.53965922133E+02 -0.22547921276E+02 -0.12470436201E+03  0.13773854729E+03  0.00000000000E+00 0.  1.
         11    1    4    4    0    0  0.47853176684E+02 -0.69000696199E+01  0.30180546337E+01  0.48442193729E+02  0.00000000000E+00 0. -1.
        -13    1    3    3    0    0 -0.75419910606E+00 -0.29102338732E+02 -0.70754400517E+02  0.76509477376E+02  0.00000000000E+00 0. -1.
         13    1    3    3    0    0 -0.86649981817E+02  0.33728316215E+02 -0.13866521223E+03  0.16695466375E+03  0.00000000000E+00 0.  1.
         -1    1    1    2    0  502 -0.14414917894E+02  0.24822013412E+02 -0.41515256953E+01  0.29002713206E+02  0.00000000000E+00 0.  1.
<scales pt_clust_5="13000.00000" pt_clust_6="13000.00000" pt_clust_7="13000.00000" pt_clust_8="13000.00000" pt_clust_9="28.70405"></scales>
<clustering>
<clus scale="   28.704">  1  9  2 -1</clus>
<clus scale="   88.076">  7  8 -1 -1</clus>
<clus scale="   92.851">  5  6 -1 -1</clus>
<clus scale="  128.322">  2  7  1 -1</clus>
<clus scale="   28.704">  1  5  2 -1</clus>
</clustering>
</event>
<event>
 9    1  0.1315259E-005  0.9465646E+02  0.7546771E-02  0.1292175E+00
         21   -1    0    0  501  502  0.00000000000E+00  0.00000000000E+00  0.33974837928E+03  0.33974837928E+03  0.00000000000E+00 0.  1.
         -1   -1    0    0    0  501 -0.00000000000E+00 -0.00000000000E+00 -0.67666350574E+02  0.67666350574E+02  0.00000000000E+00 0.  1.
         23    2    1    2    0    0 -0.33266871332E+02  0.35579534471E+02  0.26077515232E+02  0.10603884671E+03  0.90507525710E+02 0.  0.
         23    2    1    2    0    0  0.53451004929E+01  0.12183462087E+02  0.66191904358E+02  0.11324427090E+03  0.90916939244E+02 0.  0.
        -11    1    4    4    0    0 -0.41183359982E+02  0.11317659740E+02  0.45217290283E+02  0.62199372199E+02  0.00000000000E+00 0.  1.
         11    1    4    4    0    0  0.46528460475E+02  0.86580234700E+00  0.20974614075E+02  0.51044898701E+02  0.00000000000E+00 0. -1.
        -11    1    3    3    0    0 -0.18019702760E+02 -0.27524647823E+02  0.24640017021E+02  0.41102875375E+02  0.00000000000E+00 0. -1.
         11    1    3    3    0    0 -0.15247168572E+02  0.63104182293E+02  0.14374982104E+01  0.64935971337E+02  0.00000000000E+00 0.  1.
         -1    1    1    2    0  502  0.27921770839E+02 -0.47762996557E+02  0.17981260912E+03  0.18813161224E+03  0.00000000000E+00 0.  1.
<scales pt_clust_5="13000.00000" pt_clust_6="13000.00000" pt_clust_7="13000.00000" pt_clust_8="13000.00000" pt_clust_9="55.32566"></scales>
<clustering>
<clus scale="   55.326">  1  9  2 -1</clus>
<clus scale="   90.508">  7  8 -1 -1</clus>
<clus scale="   90.917">  5  6 -1 -1</clus>
<clus scale="   94.263">  2  7  1 -1</clus>
<clus scale="   55.326">  1  5  2 -1</clus>
</clustering>
</event>
<event>
 9    1  0.1315259E-005  0.1246379E+03  0.7546771E-02  0.1236249E+00
          1   -1    0    0  502    0 -0.00000000000E+00  0.00000000000E+00  0.72832419154E+03  0.72832419154E+03  0.00000000000E+00 0. -1.
         21   -1    0    0  501  502  0.00000000000E+00 -0.00000000000E+00 -0.10197998652E+03  0.10197998652E+03  0.00000000000E+00 0.  1.
         23    2    1    2    0    0  0.76564662729E+02 -0.40532923581E+01  0.37446499819E+03  0.39291483522E+03  0.90991516703E+02 0.  0.
         23    2    1    2    0    0 -0.91225370843E+02 -0.16188836372E+02  0.33010328320E+03  0.35526939239E+03  0.93080700927E+02 0.  0.
        -11    1    3    3    0    0  0.14772614802E+02  0.23163648978E+02  0.25520370116E+02  0.37497654232E+02  0.00000000000E+00 0.  1.
         11    1    3    3    0    0  0.61792047927E+02 -0.27216941336E+02  0.34894462807E+03  0.35541718099E+03  0.00000000000E+00 0. -1.
        -13    1    4    4    0    0 -0.30449201211E+02  0.36470596809E+02  0.85862322598E+02  0.98130508650E+02  0.00000000000E+00 0.  1.
         13    1    4    4    0    0 -0.60776169632E+02 -0.52659433181E+02  0.24424096060E+03  0.25713888374E+03  0.00000000000E+00 0. -1.
          1    1    1    2  501    0  0.14660708114E+02  0.20242128730E+02 -0.78224076367E+02  0.82119950447E+02  0.00000000000E+00 0. -1.
<scales pt_clust_5="13000.00000" pt_clust_6="13000.00000" pt_clust_7="13000.00000" pt_clust_8="13000.00000" pt_clust_9="24.99360"></scales>
<clustering>
<clus scale="   24.994">  2  9  1 -1</clus>
<clus scale="   90.992">  5  6 -1 -1</clus>
<clus scale="   93.081">  7  8 -1 -1</clus>
<clus scale="  123.085">  1  5  2 -1</clus>
<clus scale="   24.994">  2  5  1 -1</clus>
</clustering>
</event>
<event>
 9    1  0.1315259E-005  0.1178487E+03  0.7546771E-02  0.1259113E+00
         21   -1    0    0  501  502  0.00000000000E+00  0.00000000000E+00  0.24107361614E+03  0.24107361614E+03  0.00000000000E+00 0.  1.
         -2   -1    0    0    0  501 -0.00000000000E+00 -0.00000000000E+00 -0.17042012339E+03  0.17042012339E+03  0.00000000000E+00 0.  1.
         23    2    1    2    0    0 -0.90710394346E+01  0.13282046103E+02 -0.11773089054E+03  0.16598156527E+03  0.11589055577E+03 0.  0.
         23    2    1    2    0    0  0.22836264538E+02 -0.33891497884E+02  0.61107958741E+02  0.11584521945E+03  0.89531020557E+02 0.  0.
        -11    1    4    4    0    0  0.52446768110E+02 -0.12792513565E+02  0.58181908165E+02  0.79369051438E+02  0.00000000000E+00 0.  1.
         11    1    4    4    0    0 -0.29610503572E+02 -0.21098984319E+02  0.29260505755E+01  0.36476168015E+02  0.00000000000E+00 0. -1.
        -11    1    3    3    0    0  0.36612641508E+02 -0.31612818303E+02 -0.74066536133E+02  0.88463029420E+02  0.00000000000E+00 0.  1.
         11    1    3    3    0    0 -0.45683680943E+02  0.44894864406E+02 -0.43664354407E+02  0.77518535850E+02  0.00000000000E+00 0. -1.
         -2    1    1    2    0  502 -0.13765225103E+02  0.20609451781E+02  0.12727642454E+03  0.12966695481E+03  0.00000000000E+00 0.  1.
<scales pt_clust_5="13000.00000" pt_clust_6="13000.00000" pt_clust_7="13000.00000" pt_clust_8="13000.00000" pt_clust_9="24.78368"></scales>
<clustering>
<clus scale="   24.784">  1  9  2 -1</clus>
<clus scale="   89.531">  5  6 -1 -1</clus>
<clus scale="   92.052">  1  5  2 -1</clus>
<clus scale="  115.891">  7  8 -1 -1</clus>
<clus scale="   24.784">  1  5  2 -1</clus>
</clustering>
</event>
<event>
 9    1  0.1315259E-005  0.9608983E+02  0.7546771E-02  0.1288940E+00
         21   -1    0    0  501  502  0.00000000000E+00  0.00000000000E+00  0.87413241856E+02  0.87413241856E+02  0.00000000000E+00 0.  1.
          2   -1    0    0  502    0 -0.00000000000E+00 -0.00000000000E+00 -0.53122266478E+03  0.53122266478E+03  0.00000000000E+00 0. -1.
         23    2    1    2    0    0 -0.24958533260E+02  0.15405764105E+01 -0.44748197212E+03  0.45740311820E+03  0.91390346335E+02 0.  0.
         23    2    1    2    0    0  0.61511378910E+02 -0.25114844237E+02 -0.14255085838E+02  0.11418752591E+03  0.91766979165E+02 0.  0.
        -11    1    3    3    0    0  0.33376871202E+02  0.26770488312E+00 -0.11137726535E+03  0.11627115908E+03  0.00000000000E+00 0.  1.
         11    1    3    3    0    0 -0.58335404462E+02  0.12728715274E+01 -0.33610470677E+03  0.34113195911E+03  0.00000000000E+00 0. -1.
        -11    1    4    4    0    0  0.85984979575E+02 -0.18783160869E+02 -0.10776886675E+02  0.88669978748E+02  0.00000000000E+00 0.  1.
         11    1    4    4    0    0 -0.24473600665E+02 -0.63316833682E+01 -0.34781991631E+01  0.25517547163E+02  0.00000000000E+00 0. -1.
          2    1    1    2  501    0 -0.36552845650E+02  0.23574267827E+02  0.17927635034E+02  0.47045262531E+02  0.00000000000E+00 0. -1.
<scales pt_clust_5="13000.00000" pt_clust_6="13000.00000" pt_clust_7="13000.00000" pt_clust_8="13000.00000" pt_clust_9="43.49548"></scales>
<clustering>
<clus scale="   43.495">  1  9  2 -1</clus>
<clus scale="   91.390">  5  6 -1 -1</clus>
<clus scale="   91.767">  7  8 -1 -1</clus>
<clus scale="   95.730">  2  5  1 -1</clus>
<clus scale="   43.495">  1  5  2 -1</clus>
</clustering>
</event>
<event>
 9    1  0.1315259E-005  0.1207583E+03  0.7546771E-02  0.1245474E+00
         21   -1    0    0  501  502  0.00000000000E+00  0.00000000000E+00  0.54367391165E+02  0.54367391165E+02  0.00000000000E+00 0.  1.
          1   -1    0    0  502    0 -0.00000000000E+00 -0.00000000000E+00 -0.32946115444E+03  0.32946115444E+03  0.00000000000E+00 0. -1.
         23    2    1    2    0    0 -0.72166715363E+02 -0.28360661864E+02 -0.17255306591E+03  0.20970039666E+03  0.90483887287E+02 0.  0.
         23    2    1    2    0    0  0.45641314563E+02  0.20385938663E+02 -0.87769018143E+02  0.14273713741E+03  0.10085521187E+03 0.  0.
        -11    1    4    4    0    0  0.61251583599E+02  0.47462755017E+02 -0.44488944627E+02  0.89351753207E+02  0.00000000000E+00 0. -1.
         11    1    4    4    0    0 -0.15610269036E+02 -0.27076816354E+02 -0.43280073515E+02  0.53385384206E+02  0.00000000000E+00 0.  1.
        -13    1    3    3    0    0 -0.60589985409E+02  0.21100038405E+02 -0.68171576136E+02  0.93614751751E+02  0.00000000000E+00 0.  1.
         13    1    3    3    0    0 -0.11576729955E+02 -0.49460700270E+02 -0.10438148977E+03  0.11608564491E+03  0.00000000000E+00 0. -1.
          1    1    1    2  501    0  0.26525400801E+02  0.79747232015E+01 -0.14771679226E+02  0.31391011531E+02  0.00000000000E+00 0. -1.
<scales pt_clust_5="13000.00000" pt_clust_6="13000.00000" pt_clust_7="13000.00000" pt_clust_8="13000.00000" pt_clust_9="27.69825"></scales>
<clustering>
<clus scale="   27.698">  1  9  2 -1</clus>
<clus scale="   90.484">  7  8 -1 -1</clus>
<clus scale="  100.855">  5  6 -1 -1</clus>
<clus scale="  112.241">  2  7  1 -1</clus>
<clus scale="   27.698">  1  5  2 -1</clus>
</clustering>
</event>
<event>
 9    1  0.1315259E-005  0.1002201E+03  0.7546771E-02  0.1288089E+00
         -1   -1    0    0    0  501 -0.00000000000E+00  0.00000000000E+00  0.78006703762E+03  0.78006703762E+03  0.00000000000E+00 0.  1.
         21   -1    0    0  501  502  0.00000000000E+00 -0.00000000000E+00 -0.40594895207E+02  0.40594895207E+02  0.00000000000E+00 0.  1.
         23    2    1    2    0    0 -0.13435750748E+02 -0.24038015955E+02  0.45584070402E+03  0.46565128759E+03  0.91005651394E+02 0.  0.
         23    2    1    2    0    0  0.39996143990E+02  0.10109098395E+03  0.17093104729E+03  0.21592796292E+03  0.74755492594E+02 0.  0.
        -11    1    3    3    0    0  0.37136007574E+02 -0.22328823697E+02  0.24667649370E+03  0.25045349263E+03  0.00000000000E+00 0. -1.
         11    1    3    3    0    0 -0.50571758322E+02 -0.17091922576E+01  0.20916421031E+03  0.21519779495E+03  0.00000000000E+00 0.  1.
        -13    1    4    4    0    0  0.23532950935E+02  0.48621773590E+02  0.24124039352E+02  0.59159495615E+02  0.00000000000E+00 0.  1.
         13    1    4    4    0    0  0.16463193055E+02  0.52469210357E+02  0.14680700794E+03  0.15676846730E+03  0.00000000000E+00 0. -1.
         -1    1    1    2    0  502 -0.26560393242E+02 -0.77052967992E+02  0.11270039111E+03  0.13908268232E+03  0.00000000000E+00 0.  1.
<scales pt_clust_5="13000.00000" pt_clust_6="13000.00000" pt_clust_7="13000.00000" pt_clust_8="13000.00000" pt_clust_9="81.50224"></scales>
<clustering>
<clus scale="   74.755">  7  8 -1 -1</clus>
<clus scale="   81.502">  2  9  1 -1</clus>
<clus scale="   85.735">  2  7  1 -1</clus>
<clus scale="   91.006">  5  6 -1 -1</clus>
<clus scale="   81.502">  2  5  1 -1</clus>
</clustering>
</event>
<event>
 9    1  0.1315259E-005  0.1094722E+03  0.7546771E-02  0.1262833E+00
          1   -1    0    0  502    0 -0.00000000000E+00  0.00000000000E+00  0.52760137098E+02  0.52760137098E+02  0.00000000000E+00 0. -1.
         21   -1    0    0  501  502  0.00000000000E+00 -0.00000000000E+00 -0.59198543573E+03  0.59198543573E+03  0.00000000000E+00 0. -1.
         23    2    1    2    0    0  0.45745600217E+02 -0.54778692459E+02 -0.35948864122E+02  0.11922336033E+03  0.88478945125E+02 0.  0.
         23    2    1    2    0    0 -0.18633705447E+02  0.11306243641E+02 -0.25170328616E+03  0.26878507530E+03  0.91737812909E+02 0.  0.
        -13    1    3    3    0    0  0.18664327082E+02  0.22010248456E+02 -0.22725406580E+02  0.36732169100E+02  0.00000000000E+00 0.  1.
         13    1    3    3    0    0  0.27081273135E+02 -0.76788940916E+02 -0.13223457542E+02  0.82491191232E+02  0.00000000000E+00 0. -1.
        -13    1    4    4    0    0 -0.48519784204E+02  0.30191793311E+02 -0.12901686468E+03  0.14110657396E+03  0.00000000000E+00 0.  1.
         13    1    4    4    0    0  0.29886078757E+02 -0.18885549670E+02 -0.12268642147E+03  0.12767850133E+03  0.00000000000E+00 0. -1.
          1    1    1    2  501    0 -0.27111894770E+02  0.43472448818E+02 -0.25157314836E+03  0.25673713720E+03  0.00000000000E+00 0. -1.
<scales pt_clust_5="13000.00000" pt_clust_6="13000.00000" pt_clust_7="13000.00000" pt_clust_8="13000.00000" pt_clust_9="51.23386"></scales>
<clustering>
<clus scale="   51.234">  2  9  1 -1</clus>
<clus scale="   88.479">  5  6 -1 -1</clus>
<clus scale="   91.738">  7  8 -1 -1</clus>
<clus scale="  106.756">  1  5  2 -1</clus>
<clus scale="   51.234">  2  5  1 -1</clus>
</clustering>
</event>
<event>
 9    1  0.1315259E-005  0.1159096E+03  0.7546771E-02  0.1250497E+00
         21   -1    0    0  501  502  0.00000000000E+00  0.00000000000E+00  0.55989018432E+03  0.55989018432E+03  0.00000000000E+00 0. -1.
          2   -1    0    0  502    0 -0.00000000000E+00 -0.00000000000E+00 -0.51078701434E+02  0.51078701434E+02  0.00000000000E+00 0. -1.
         23    2    1    2    0    0 -0.16613120400E+02  0.58474410916E+02  0.92689560879E+02  0.14333324015E+03  0.90872496037E+02 0.  0.
         23    2    1    2    0    0 -0.11605998306E+02 -0.10497149686E+03  0.37211049226E+03  0.39766919928E+03  0.92308500443E+02 0.  0.
        -13    1    4    4    0    0  0.17056775968E+02 -0.74909820014E+02  0.32881574711E+03  0.33767174932E+03  0.00000000000E+00 0. -1.
         13    1    4    4    0    0 -0.28662774273E+02 -0.30061676849E+02  0.43294745154E+02  0.59997449962E+02  0.00000000000E+00 0.  1.
        -13    1    3    3    0    0 -0.49937277594E+02  0.52135976935E+02  0.78251433172E+02  0.10646679566E+03  0.00000000000E+00 0. -1.
         13    1    3    3    0    0  0.33324157194E+02  0.63384339809E+01  0.14438127707E+02  0.36866444495E+02  0.00000000000E+00 0.  1.
          2    1    1    2  501    0  0.28219118705E+02  0.46497085947E+02  0.44011429741E+02  0.69966446315E+02  0.00000000000E+00 0. -1.
<scales pt_clust_5="13000.00000" pt_clust_6="13000.00000" pt_clust_7="13000.00000" pt_clust_8="13000.00000" pt_clust_9="54.39026"></scales>
<clustering>
<clus scale="   54.390">  1  9  2 -1</clus>
<clus scale="   90.872">  7  8 -1 -1</clus>
<clus scale="   92.309">  5  6 -1 -1</clus>
<clus scale="  114.769">  2  7  1 -1</clus>
<clus scale="   54.390">  1  5  2 -1</clus>
</clustering>
</event>
<event>
 9    1  0.1315259E-005  0.1411402E+03  0.7546771E-02  0.1211873E+00
         -1   -1    0    0    0  501 -0.00000000000E+00  0.00000000000E+00  0.92574201036E+02  0.92574201036E+02  0.00000000000E+00 0.  1.
         21   -1    0    0  501  502  0.00000000000E+00 -0.00000000000E+00 -0.52201833109E+03  0.52201833109E+03  0.00000000000E+00 0. -1.
         23    2    1    2    0    0  0.10271625718E+03 -0.30342732900E+02 -0.14299466155E+02  0.14135255708E+03  0.91130454479E+02 0.  0.
         23    2    1    2    0    0 -0.11213370221E+03  0.59694720806E+01 -0.42205606897E+03  0.44621199632E+03  0.91456101685E+02 0.  0.
        -11    1    4    4    0    0 -0.40893568418E+02  0.41456221190E+02 -0.11362424010E+03  0.12767681916E+03  0.00000000000E+00 0.  1.
         11    1    4    4    0    0 -0.71240133795E+02 -0.35486749109E+02 -0.30843182887E+03  0.31853517716E+03  0.00000000000E+00 0. -1.
        -11    1    3    3    0    0 -0.52596748602E+01 -0.28132403588E+02 -0.17059938405E+02  0.33318730613E+02  0.00000000000E+00 0. -1.
         11    1    3    3    0    0  0.10797593204E+03 -0.22103293118E+01  0.27604722497E+01  0.10803382647E+03  0.00000000000E+00 0.  1.
         -1    1    1    2    0  502  0.94174450367E+01  0.24373260819E+02  0.69114050690E+01  0.27027978726E+02  0.00000000000E+00 0.  1.
<scales pt_clust_5="13000.00000" pt_clust_6="13000.00000" pt_clust_7="13000.00000" pt_clust_8="13000.00000" pt_clust_9="26.12939"></scales>
<clustering>
<clus scale="   26.129">  2  9  1 -1</clus>
<clus scale="   91.130">  7  8 -1 -1</clus>
<clus scale="   91.456">  5  6 -1 -1</clus>
<clus scale="  140.929">  1  7  2 -1</clus>
<clus scale="   26.129">  2  5  1 -1</clus>
</clustering>
</event>
<event>
 9    1  0.1315259E-005  0.1081171E+03  0.7546771E-02  0.1264841E+00
         21   -1    0    0  501  502  0.00000000000E+00  0.00000000000E+00  0.81004905309E+02  0.81004905309E+02  0.00000000000E+00 0. -1.
         -2   -1    0    0    0  501 -0.00000000000E+00 -0.00000000000E+00 -0.47837193034E+03  0.47837193034E+03  0.00000000000E+00 0.  1.
         23    2    1    2    0    0 -0.58653696585E+02 -0.86364102706E+01 -0.40251731378E+03  0.41720050694E+03  0.92310516152E+02 0.  0.
         23    2    1    2    0    0  0.27593482611E+02  0.34423749768E+02  0.11472105694E+02  0.10131449884E+03  0.90479962620E+02 0.  0.
        -11    1    4    4    0    0 -0.36396712359E+01 -0.28204715345E+02 -0.62579986626E+01  0.29118992457E+02  0.00000000000E+00 0.  1.
         11    1    4    4    0    0  0.31233153847E+02  0.62628465113E+02  0.17730104357E+02  0.72195506385E+02  0.00000000000E+00 0. -1.
        -13    1    3    3    0    0 -0.61837816981E+02 -0.32006629883E+02 -0.37286946879E+03  0.37931514697E+03  0.00000000000E+00 0.  1.
         13    1    3    3    0    0  0.31841203964E+01  0.23370219612E+02 -0.29647844991E+02  0.37885359970E+02  0.00000000000E+00 0. -1.
         -2    1    1    2    0  502  0.31060213973E+02 -0.25787339497E+02 -0.63218169406E+01  0.40861829864E+02  0.00000000000E+00 0.  1.
<scales pt_clust_5="13000.00000" pt_clust_6="13000.00000" pt_clust_7="13000.00000" pt_clust_8="13000.00000" pt_clust_9="40.36984"></scales>
<clustering>
<clus scale="   40.370">  1  9  2 -1</clus>
<clus scale="   90.480">  5  6 -1 -1</clus>
<clus scale="   92.311">  7  8 -1 -1</clus>
<clus scale="  106.558">  1  5  2 -1</clus>
<clus scale="   40.370">  1  5  2 -1</clus>
</clustering>
</event>
<event>
 9    1  0.1315259E-005  0.1170999E+03  0.7546771E-02  0.1248262E+00
         -2   -1    0    0    0  501 -0.00000000000E+00  0.00000000000E+00  0.52708623029E+03  0.52708623029E+03  0.00000000000E+00 0.  1.
         21   -1    0    0  501  502  0.00000000000E+00 -0.00000000000E+00 -0.53016209019E+02  0.53016209019E+02  0.00000000000E+00 0. -1.
         23    2    1    2    0    0 -0.58343304338E+02 -0.37658512413E+02  0.36107978451E+03  0.37908539509E+03  0.92222672215E+02 0.  0.
         23    2    1    2    0    0  0.49090574161E+02  0.73973473539E+02  0.75762635766E+02  0.14819390825E+03  0.91320853076E+02 0.  0.
        -11    1    4    4    0    0 -0.25038074162E+02  0.18221647164E+02  0.35415155798E+02  0.47044307236E+02  0.00000000000E+00 0. -1.
         11    1    4    4    0    0  0.74128648323E+02  0.55751826375E+02  0.40347479967E+02  0.10114960102E+03  0.00000000000E+00 0.  1.
        -11    1    3    3    0    0  0.25131985189E+02 -0.13528293850E+02  0.87314866759E+02  0.91861403055E+02  0.00000000000E+00 0.  1.
         11    1    3    3    0    0 -0.83475289527E+02 -0.24130218563E+02  0.27376491775E+03  0.28722399204E+03  0.00000000000E+00 0. -1.
         -2    1    1    2    0  502  0.92527301771E+01 -0.36314961126E+02  0.37227600995E+02  0.52823135965E+02  0.00000000000E+00 0.  1.
<scales pt_clust_5="13000.00000" pt_clust_6="13000.00000" pt_clust_7="13000.00000" pt_clust_8="13000.00000" pt_clust_9="37.47518"></scales>
<clustering>
<clus scale="   37.475">  2  9  1 -1</clus>
<clus scale="   91.321">  5  6 -1 -1</clus>
<clus scale="   92.223">  7  8 -1 -1</clus>
<clus scale="  116.391">  2  5  1 -1</clus>
<clus scale="   37.475">  2  5  1 -1</clus>
</clustering>
</event>
<event>
 9    1  0.1315259E-005  0.9936414E+02  0.7546771E-02  0.1282792E+00
         21   -1    0    0  501  502  0.00000000000E+00  0.00000000000E+00  0.24437293930E+03  0.24437293930E+03  0.00000000000E+00 0.  1.
          2   -1    0    0  502    0 -0.00000000000E+00 -0.00000000000E+00 -0.31046708456E+03  0.31046708456E+03  0.00000000000E+00 0. -1.
         23    2    1    2    0    0  0.31982914124E+02  0.73217862725E+01 -0.28728076798E+03  0.30405288803E+03  0.94028738774E+02 0.  0.
         23    2    1    2    0    0 -0.20800942138E+02  0.10296179461E+02  0.15728533925E+03  0.18356509151E+03  0.91753879333E+02 0.  0.
        -11    1    4    4    0    0 -0.30358509337E+00  0.45295619293E+02  0.43639420735E+02  0.62898206120E+02  0.00000000000E+00 0. -1.
         11    1    4    4    0    0 -0.20497357045E+02 -0.34999439833E+02  0.11364591852E+03  0.12066688539E+03  0.00000000000E+00 0.  1.
        -11    1    3    3    0    0  0.45261007147E+02  0.42096809455E+02 -0.16340189933E+03  0.17470226341E+03  0.00000000000E+00 0.  1.
         11    1    3    3    0    0 -0.13278093023E+02 -0.34775023182E+02 -0.12387886865E+03  0.12935062462E+03  0.00000000000E+00 0. -1.
          2    1    1    2  501    0 -0.11181971986E+02 -0.17617965733E+02  0.63901283469E+02  0.67222044324E+02  0.00000000000E+00 0. -1.
<scales pt_clust_5="13000.00000" pt_clust_6="13000.00000" pt_clust_7="13000.00000" pt_clust_8="13000.00000" pt_clust_9="20.86694"></scales>
<clustering>
<clus scale="   20.867">  1  9  2 -1</clus>
<clus scale="   91.754">  5  6 -1 -1</clus>
<clus scale="   94.029">  7  8 -1 -1</clus>
<clus scale="   97.214">  1  5  2 -1</clus>
<clus scale="   20.867">  1  5  2 -1</clus>
</clustering>
</event>
<event>
 9    1  0.1315259E-005  0.9362743E+02  0.7546771E-02  0.1296382E+00
         21   -1    0    0  501  502  0.00000000000E+00  0.00000000000E+00  0.74119643591E+03  0.74119643591E+03  0.00000000000E+00 0.  1.
         -1   -1    0    0    0  501 -0.00000000000E+00 -0.00000000000E+00 -0.33664541551E+02  0.33664541551E+02  0.00000000000E+00 0.  1.
         23    2    1    2    0    0 -0.16636239423E+02  0.93644902270E+01  0.76947930219E+02  0.11936689281E+03  0.89235715910E+02 0.  0.
         23    2    1    2    0    0 -0.48546179575E+01  0.46597110542E+02  0.25875823545E+03  0.27886704071E+03  0.92823186525E+02 0.  0.
        -11    1    3    3    0    0 -0.39235299028E+02  0.15238012641E+02  0.34299808641E+01  0.42229971440E+02  0.00000000000E+00 0.  1.
         11    1    3    3    0    0  0.22599059605E+02 -0.58735224143E+01  0.73517949355E+02  0.77136921367E+02  0.00000000000E+00 0. -1.
        -13    1    4    4    0    0  0.42693829807E+02  0.16135137647E+02  0.14229855698E+03  0.14943890086E+03  0.00000000000E+00 0. -1.
         13    1    4    4    0    0 -0.47548447765E+02  0.30461972895E+02  0.11645967846E+03  0.12942813985E+03  0.00000000000E+00 0.  1.
         -1    1    1    2    0  502  0.21490857381E+02 -0.55961600769E+02  0.37182572869E+03  0.37662704394E+03  0.00000000000E+00 0.  1.
<scales pt_clust_5="13000.00000" pt_clust_6="13000.00000" pt_clust_7="13000.00000" pt_clust_8="13000.00000" pt_clust_9="59.94629"></scales>
<clustering>
<clus scale="   59.946">  1  9  2 -1</clus>
<clus scale="   89.236">  5  6 -1 -1</clus>
<clus scale="   90.072">  2  5  1 -1</clus>
<clus scale="   92.823">  7  8 -1 -1</clus>
<clus scale="   59.946">  1  5  2 -1</clus>
</clustering>
</event>
<event>
 9    1  0.1315259E-005  0.9290589E+02  0.7546771E-02  0.1296486E+00
          1   -1    0    0  502    0 -0.00000000000E+00  0.00000000000E+00  0.51565980882E+03  0.51565980882E+03  0.00000000000E+00 0. -1.
         21   -1    0    0  501  502  0.00000000000E+00 -0.00000000000E+00 -0.25058465536E+02  0.25058465536E+02  0.00000000000E+00 0.  1.
         23    2    1    2    0    0  0.57645673356E+01  0.74710617480E+00  0.29543930362E+03  0.30940643994E+03  0.91728809814E+02 0.  0.
         23    2    1    2    0    0 -0.30589793006E+02  0.11418788659E+01  0.17394341031E+03  0.19859959930E+03  0.90820986174E+02 0.  0.
        -11    1    4    4    0    0 -0.51051154234E+02  0.30907236208E+02  0.10545740624E+03  0.12117236537E+03  0.00000000000E+00 0.  1.
         11    1    4    4    0    0  0.20461361228E+02 -0.29765357342E+02  0.68486004070E+02  0.77427233932E+02  0.00000000000E+00 0. -1.
        -13    1    3    3    0    0  0.39615484773E+01 -0.44414376728E+02  0.17983709108E+03  0.18528278402E+03  0.00000000000E+00 0. -1.
         13    1    3    3    0    0  0.18030188583E+01  0.45161482903E+02  0.11560221254E+03  0.12412365592E+03  0.00000000000E+00 0.  1.
          1    1    1    2  501    0  0.24825225670E+02 -0.18889850407E+01  0.21218629346E+02  0.32712235103E+02  0.00000000000E+00 0. -1.
<scales pt_clust_5="13000.00000" pt_clust_6="13000.00000" pt_clust_7="13000.00000" pt_clust_8="13000.00000" pt_clust_9="24.89699"></scales>
<clustering>
<clus scale="   24.897">  2  9  1 -1</clus>
<clus scale="   90.821">  5  6 -1 -1</clus>
<clus scale="   91.729">  7  8 -1 -1</clus>
<clus scale="   92.010">  2  5  1 -1</clus>
<clus scale="   24.897">  2  5  1 -1</clus>
</clustering>
</event>
<event>
 9    1  0.1315259E-005  0.2079671E+03  0.7546771E-02  0.1169544E+00
         21   -1    0    0  501  502  0.00000000000E+00  0.00000000000E+00  0.92558708540E+03  0.92558708540E+03  0.00000000000E+00 0.  1.
          3   -1    0    0  502    0 -0.00000000000E+00 -0.00000000000E+00 -0.74668131689E+02  0.74668131689E+02  0.00000000000E+00 0. -1.
         23    2    1    2    0    0  0.67026240956E+02  0.58030868925E+01  0.22565098858E+03  0.25198092429E+03  0.89720815687E+02 0.  0.
         23    2    1    2    0    0 -0.22880999776E+03  0.10244198606E+02  0.34618190644E+03  0.42528740840E+03  0.92566239604E+02 0.  0.
        -11    1    4    4    0    0 -0.85471680786E+02  0.14782147523E+02  0.60889848352E+02  0.10597874190E+03  0.00000000000E+00 0. -1.
         11    1    4    4    0    0 -0.14333831697E+03 -0.45379489177E+01  0.28529205809E+03  0.31930866650E+03  0.00000000000E+00 0.  1.
        -11    1    3    3    0    0  0.38160885457E+02 -0.40696596808E+02  0.13523097809E+03  0.14628699056E+03  0.00000000000E+00 0. -1.
         11    1    3    3    0    0  0.28865355500E+02  0.46499683701E+02  0.90420010487E+02  0.10569393374E+03  0.00000000000E+00 0.  1.
          3    1    1    2  501    0  0.16178375680E+03 -0.16047285498E+02  0.27908605869E+03  0.32298688439E+03  0.00000000000E+00 0. -1.
<scales pt_clust_5="13000.00000" pt_clust_6="13000.00000" pt_clust_7="13000.00000" pt_clust_8="13000.00000" pt_clust_9="186.23053"></scales>
<clustering>
<clus scale="   89.721">  7  8 -1 -1</clus>
<clus scale="   92.566">  5  6 -1 -1</clus>
<clus scale="  112.143">  2  7  1 -1</clus>
<clus scale="  186.231">  1  9  2 -1</clus>
<clus scale="  186.231">  1  5  2 -1</clus>
</clustering>
</event>
<event>
 9    1  0.1315259E-005  0.1247578E+03  0.7546771E-02  0.1236481E+00
         -2   -1    0    0    0  501 -0.00000000000E+00  0.00000000000E+00  0.28742725872E+03  0.28742725872E+03  0.00000000000E+00 0.  1.
         21   -1    0    0  501  502  0.00000000000E+00 -0.00000000000E+00 -0.28482252921E+03  0.28482252921E+03  0.00000000000E+00 0.  1.
         23    2    1    2    0    0 -0.63646467324E+01 -0.82247663347E+02  0.19899740335E+03  0.23444027500E+03  0.92504535839E+02 0.  0.
         23    2    1    2    0    0 -0.29745625648E+02  0.88592964838E+02  0.88418443537E+01  0.12932588748E+03  0.88957806274E+02 0.  0.
        -11    1    4    4    0    0  0.14901163351E+02  0.62585991303E+02 -0.23358161342E+02  0.68444537239E+02  0.00000000000E+00 0. -1.
         11    1    4    4    0    0 -0.44646788999E+02  0.26006973535E+02  0.32200005696E+02  0.60881350241E+02  0.00000000000E+00 0.  1.
        -13    1    3    3    0    0  0.78267748372E+01 -0.45374440419E+02  0.18422009972E+02  0.49593030751E+02  0.00000000000E+00 0. -1.
         13    1    3    3    0    0 -0.14191421570E+02 -0.36873222928E+02  0.18057539338E+03  0.18484724425E+03  0.00000000000E+00 0.  1.
         -2    1    1    2    0  502  0.36110272380E+02 -0.63453014914E+01 -0.20523451819E+03  0.20848362545E+03  0.00000000000E+00 0.  1.
<scales pt_clust_5="13000.00000" pt_clust_6="13000.00000" pt_clust_7="13000.00000" pt_clust_8="13000.00000" pt_clust_9="36.66353"></scales>
<clustering>
<clus scale="   36.664">  2  9  1 -1</clus>
<clus scale="   88.958">  5  6 -1 -1</clus>
<clus scale="   92.505">  7  8 -1 -1</clus>
<clus scale="  122.151">  2  5  1 -1</clus>
<clus scale="   36.664">  2  5  1 -1</clus>
</clustering>
</event>
<event>
 9    1  0.1315259E-005  0.9825739E+02  0.7546771E-02  0.1284642E+00
         21   -1    0    0  501  502  0.00000000000E+00  0.00000000000E+00  0.13681795955E+03  0.13681795955E+03  0.00000000000E+00 0.  1.
          1   -1    0    0  502    0 -0.00000000000E+00 -0.00000000000E+00 -0.13315534484E+03  0.13315534484E+03  0.00000000000E+00 0. -1.
         23    2    1    2    0    0  0.16165227418E+02 -0.32203371527E+02 -0.71874082390E+02  0.12242657963E+03  0.92325575903E+02 0.  0.
         23    2    1    2    0    0  0.77211941415E+01  0.31832485755E+02  0.39989466395E+02  0.10471794587E+03  0.91070120102E+02 0.  0.
        -11    1    4    4    0    0 -0.87443044561E+00  0.52908128527E+02 -0.61482201905E+01  0.53271336611E+02  0.00000000000E+00 0. -1.
         11    1    4    4    0    0  0.85956245871E+01 -0.21075642773E+02  0.46137686585E+02  0.51446609254E+02  0.00000000000E+00 0.  1.
        -11    1    3    3    0    0  0.35684896233E+01 -0.51145035282E+02 -0.82646197745E+02  0.97257096162E+02  0.00000000000E+00 0.  1.
         11    1    3    3    0    0  0.12596737795E+02  0.18941663755E+02  0.10772115355E+02  0.25169483470E+02  0.00000000000E+00 0. -1.
          1    1    1    2  501    0 -0.23886421560E+02  0.37088577211E+00  0.35547230697E+02  0.42828778892E+02  0.00000000000E+00 0. -1.
<scales pt_clust_5="13000.00000" pt_clust_6="13000.00000" pt_clust_7="13000.00000" pt_clust_8="13000.00000" pt_clust_9="23.88930"></scales>
<clustering>
<clus scale="   23.889">  1  9  2 -1</clus>
<clus scale="   91.070">  5  6 -1 -1</clus>
<clus scale="   92.326">  7  8 -1 -1</clus>
<clus scale="   97.079">  1  5  2 -1</clus>
<clus scale="   23.889">  1  5  2 -1</clus>
</clustering>
</event>
<event>
 9    1  0.1315259E-005  0.3640753E+03  0.7546771E-02  0.1057072E+00
          2   -1    0    0  502    0 -0.00000000000E+00  0.00000000000E+00  0.25789588549E+04  0.25789588549E+04  0.00000000000E+00 0. -1.
         21   -1    0    0  501  502  0.00000000000E+00 -0.00000000000E+00 -0.65005440434E+02  0.65005440434E+02  0.00000000000E+00 0.  1.
         23    2    1    2    0    0  0.23959091122E+03 -0.25031097665E+03  0.14635118690E+04  0.15067078616E+04  0.90786561539E+02 0.  0.
         23    2    1    2    0    0 -0.26117778883E+03  0.25031248052E+03  0.10517536254E+04  0.11156297179E+04  0.87027602612E+02 0.  0.
        -11    1    3    3    0    0  0.50610703679E+02 -0.83290256900E+02  0.57045987771E+03  0.57872548095E+03  0.00000000000E+00 0.  1.
         11    1    3    3    0    0  0.18898020754E+03 -0.16702071975E+03  0.89305199130E+03  0.92798238067E+03  0.00000000000E+00 0. -1.
        -13    1    4    4    0    0 -0.79292900408E+02  0.34536107632E+02  0.31561604559E+03  0.32725157757E+03  0.00000000000E+00 0. -1.
         13    1    4    4    0    0 -0.18188488842E+03  0.21577637289E+03  0.73613757979E+03  0.78837814030E+03  0.00000000000E+00 0.  1.
          2    1    1    2  501    0  0.21586877603E+02 -0.15038672661E-02 -0.13120798725E+01  0.21626715897E+02  0.00000000000E+00 0. -1.
<scales pt_clust_5="13000.00000" pt_clust_6="13000.00000" pt_clust_7="13000.00000" pt_clust_8="13000.00000" pt_clust_9="21.58688"></scales>
<clustering>
<clus scale="   21.587">  2  9  1 -1</clus>
<clus scale="   87.028">  7  8 -1 -1</clus>
<clus scale="   90.787">  5  6 -1 -1</clus>
<clus scale="  363.156">  2  7  1 -1</clus>
<clus scale="   21.587">  2  5  1 -1</clus>
</clustering>
</event>
<event>
 9    1  0.1315259E-005  0.1019742E+03  0.7546771E-02  0.1281348E+00
         21   -1    0    0  501  502  0.00000000000E+00  0.00000000000E+00  0.21838831218E+03  0.21838831218E+03  0.00000000000E+00 0.  1.
          2   -1    0    0  502    0 -0.00000000000E+00 -0.00000000000E+00 -0.70020495188E+02  0.70020495188E+02  0.00000000000E+00 0. -1.
         23    2    1    2    0    0  0.29464858288E+02  0.15576176359E+02  0.43923035244E+02  0.10388135316E+03  0.88041509335E+02 0.  0.
         23    2    1    2    0    0 -0.64123270642E+02 -0.42027674050E+02  0.73520496012E+02  0.13107468323E+03  0.76793163923E+02 0.  0.
        -13    1    4    4    0    0 -0.32238246415E+02 -0.58160386147E+02  0.25504085662E+02  0.71220737388E+02  0.00000000000E+00 0. -1.
         13    1    4    4    0    0 -0.31885024227E+02  0.16132712097E+02  0.48016410350E+02  0.59853945839E+02  0.00000000000E+00 0.  1.
        -13    1    3    3    0    0 -0.29244416083E+02 -0.66374324713E+01  0.22730042295E+02  0.37629060639E+02  0.00000000000E+00 0.  1.
         13    1    3    3    0    0  0.58709274371E+02  0.22213608831E+02  0.21192992949E+02  0.66252292523E+02  0.00000000000E+00 0. -1.
          2    1    1    2  501    0  0.34658412354E+02  0.26451497691E+02  0.30924285735E+02  0.53452770978E+02  0.00000000000E+00 0. -1.
<scales pt_clust_5="13000.00000" pt_clust_6="13000.00000" pt_clust_7="13000.00000" pt_clust_8="13000.00000" pt_clust_9="43.59917"></scales>
<clustering>
<clus scale="   43.599">  1  9  2 -1</clus>
<clus scale="   76.793">  5  6 -1 -1</clus>
<clus scale="   88.042">  7  8 -1 -1</clus>
<clus scale="   92.437">  1  5  2 -1</clus>
<clus scale="   43.599">  1  5  2 -1</clus>
</clustering>
</event>
<event>
 9    1  0.1315259E-005  0.1393936E+03  0.7546771E-02  0.1218121E+00
          2   -1    0    0  502    0 -0.00000000000E+00  0.00000000000E+00  0.43885656950E+02  0.43885656950E+02  0.00000000000E+00 0. -1.
         21   -1    0    0  501  502  0.00000000000E+00 -0.00000000000E+00 -0.90661711396E+03  0.90661711396E+03  0.00000000000E+00 0. -1.
         23    2    1    2    0    0 -0.90323426980E+02 -0.67475757942E+02 -0.24001929600E+03  0.28551760104E+03  0.10582881781E+03 0.  0.
         23    2    1    2    0    0  0.23968936811E+00  0.89780673471E+02 -0.24682653569E+03  0.27781260840E+03  0.90531098983E+02 0.  0.
        -13    1    3    3    0    0 -0.11117737841E+03 -0.42448876579E+02 -0.20915899591E+03  0.24064455565E+03  0.00000000000E+00 0. -1.
         13    1    3    3    0    0  0.20853951427E+02 -0.25026881363E+02 -0.30860300088E+02  0.44873045388E+02  0.00000000000E+00 0.  1.
        -13    1    4    4    0    0  0.42130757098E+02  0.21294217484E+02 -0.93260489930E+02  0.10452733314E+03  0.00000000000E+00 0.  1.
         13    1    4    4    0    0 -0.41891067730E+02  0.68486455987E+02 -0.15356604576E+03  0.17328527525E+03  0.00000000000E+00 0. -1.
          2    1    1    2  501    0  0.90083737612E+02 -0.22304915529E+02 -0.37588562532E+03  0.38717256148E+03  0.00000000000E+00 0. -1.
<scales pt_clust_5="13000.00000" pt_clust_6="13000.00000" pt_clust_7="13000.00000" pt_clust_8="13000.00000" pt_clust_9="92.80404"></scales>
<clustering>
<clus scale="   90.531">  7  8 -1 -1</clus>
<clus scale="   92.804">  2  9  1 -1</clus>
<clus scale="  105.829">  5  6 -1 -1</clus>
<clus scale="  128.167">  2  7  1 -1</clus>
<clus scale="   92.804">  2  5  1 -1</clus>
</clustering>
</event>
<event>
 9    1  0.1315259E-005  0.1007094E+03  0.7546771E-02  0.1288178E+00
         21   -1    0    0  501  502  0.00000000000E+00  0.00000000000E+00  0.39099188107E+02  0.39099188107E+02  0.00000000000E+00 0.  1.
          2   -1    0    0  502    0 -0.00000000000E+00 -0.00000000000E+00 -0.64358224593E+03  0.64358224593E+03  0.00000000000E+00 0. -1.
         23    2    1    2    0    0 -0.28349782555E+02 -0.39849839617E+01 -0.27415140101E+03  0.28567394567E+03  0.75040137884E+02 0.  0.
         23    2    1    2    0    0  0.52124960621E+02  0.33683593408E+01 -0.35015017586E+03  0.36604924205E+03  0.93051300829E+02 0.  0.
        -11    1    3    3    0    0 -0.23136856301E+01  0.33735874390E+02 -0.13489333563E+03  0.13906715773E+03  0.00000000000E+00 0.  1.
         11    1    3    3    0    0 -0.26036096924E+02 -0.37720858351E+02 -0.13925806538E+03  0.14660678794E+03  0.00000000000E+00 0. -1.
        -11    1    4    4    0    0 -0.18189087940E+02  0.23889592291E+02 -0.64323256391E+02  0.70986173672E+02  0.00000000000E+00 0.  1.
         11    1    4    4    0    0  0.70314048561E+02 -0.20521232950E+02 -0.28582691947E+03  0.29506306838E+03  0.00000000000E+00 0. -1.
          2    1    1    2  501    0 -0.23775178066E+02  0.61662462095E+00  0.19818519042E+02  0.30958246317E+02  0.00000000000E+00 0. -1.
<scales pt_clust_5="13000.00000" pt_clust_6="13000.00000" pt_clust_7="13000.00000" pt_clust_8="13000.00000" pt_clust_9="23.78317"></scales>
<clustering>
<clus scale="   23.783">  1  9  2 -1</clus>
<clus scale="   75.040">  5  6 -1 -1</clus>
<clus scale="   84.350">  2  5  1 -1</clus>
<clus scale="   93.051">  7  8 -1 -1</clus>
<clus scale="   23.783">  1  5  2 -1</clus>
</clustering>
</event>
<event>
 9    1  0.1315259E-005  0.1755271E+03  0.7546771E-02  0.1175978E+00
         21   -1    0    0  501  502  0.00000000000E+00  0.00000000000E+00  0.27941383775E+03  0.27941383775E+03  0.00000000000E+00 0. -1.
          4   -1    0    0  502    0 -0.00000000000E+00 -0.00000000000E+00 -0.14417323036E+03  0.14417323036E+03  0.00000000000E+00 0. -1.
         23    2    1    2    0    0 -0.95931262381E+02 -0.79292757228E+02  0.37623874873E+02  0.17326655122E+03  0.11452333107E+03 0.  0.
         23    2    1    2    0    0  0.81457512078E+02  0.11871193434E+03  0.33268315479E+02  0.17348250711E+03  0.90893068102E+02 0.  0.
        -11    1    3    3    0    0 -0.61703463000E+02  0.16319234267E+02 -0.29839600719E+01  0.63894747601E+02  0.00000000000E+00 0. -1.
         11    1    3    3    0    0 -0.34227799380E+02 -0.95611991495E+02  0.40607834945E+02  0.10937180362E+03  0.00000000000E+00 0.  1.
        -13    1    4    4    0    0  0.54356360620E+02  0.76215370835E+02  0.64960456257E+02  0.11394409844E+03  0.00000000000E+00 0.  1.
         13    1    4    4    0    0  0.27101151457E+02  0.42496563503E+02 -0.31692140778E+02  0.59538408670E+02  0.00000000000E+00 0. -1.
          4    1    1    2  501    0  0.14473750303E+02 -0.39419177109E+02  0.64348417044E+02  0.76838009786E+02  0.00000000000E+00 0. -1.
<scales pt_clust_5="13000.00000" pt_clust_6="13000.00000" pt_clust_7="13000.00000" pt_clust_8="13000.00000" pt_clust_9="41.99239"></scales>
<clustering>
<clus scale="   41.992">  1  9  2 -1</clus>
<clus scale="   90.893">  7  8 -1 -1</clus>
<clus scale="  114.523">  5  6 -1 -1</clus>
<clus scale="  161.108">  1  7  2 -1</clus>
<clus scale="   41.992">  1  5  2 -1</clus>
</clustering>
</event>
<event>
 9    1  0.1315259E-005  0.1950249E+03  0.7546771E-02  0.1175502E+00
          1   -1    0    0  502    0 -0.00000000000E+00  0.00000000000E+00  0.84721634743E+03  0.84721634743E+03  0.00000000000E+00 0. -1.
         21   -1    0    0  501  502  0.00000000000E+00 -0.00000000000E+00 -0.33143835909E+03  0.33143835909E+03  0.00000000000E+00 0. -1.
         23    2    1    2    0    0 -0.73058729604E+02  0.24840298340E+02  0.67263991171E+02  0.13646061010E+03  0.90235443193E+02 0.  0.
         23    2    1    2    0    0  0.23589968847E+02 -0.18611363063E+03  0.70453146853E+03  0.73559795874E+03  0.97698498520E+02 0.  0.
        -11    1    3    3    0    0 -0.10825616049E+02  0.31100290695E+02 -0.12389944148E+02  0.35184268646E+02  0.00000000000E+00 0.  1.
         11    1    3    3    0    0 -0.62233113555E+02 -0.62599923548E+01  0.79653935318E+02  0.10127634146E+03  0.00000000000E+00 0. -1.
        -11    1    4    4    0    0  0.43401809144E+02 -0.58380073297E+02  0.15729025362E+03  0.17329793386E+03  0.00000000000E+00 0. -1.
         11    1    4    4    0    0 -0.19811840297E+02 -0.12773355733E+03  0.54724121491E+03  0.56230002488E+03  0.00000000000E+00 0.  1.
          1    1    1    2  501    0  0.49468760757E+02  0.16127333229E+03 -0.25601747136E+03  0.30659613768E+03  0.00000000000E+00 0. -1.
<scales pt_clust_5="13000.00000" pt_clust_6="13000.00000" pt_clust_7="13000.00000" pt_clust_8="13000.00000" pt_clust_9="168.78892"></scales>
<clustering>
<clus scale="   90.235">  5  6 -1 -1</clus>
<clus scale="   97.698">  7  8 -1 -1</clus>
<clus scale="  118.731">  1  5  2 -1</clus>
<clus scale="  168.789">  2  9  1 -1</clus>
<clus scale="  168.789">  2  5  1 -1</clus>
</clustering>
</event>
<event>
 9    1  0.1315259E-005  0.1331930E+03  0.7546771E-02  0.1236159E+00
          1   -1    0    0  502    0 -0.00000000000E+00  0.00000000000E+00  0.20415124841E+03  0.20415124841E+03  0.00000000000E+00 0. -1.
         21   -1    0    0  501  502  0.00000000000E+00 -0.00000000000E+00 -0.12434916716E+03  0.12434916716E+03  0.00000000000E+00 0.  1.
         23    2    1    2    0    0 -0.28702133085E+02  0.39347575168E+02  0.10200031858E+03  0.14639249782E+03  0.93030394561E+02 0.  0.
         23    2    1    2    0    0 -0.12097135577E+02 -0.23278796022E+02  0.58957082832E+01  0.13003051606E+03  0.12722001689E+03 0.  0.
        -13    1    3    3    0    0 -0.55051963500E+02  0.80315099252E+01  0.86047165917E+02  0.10246628030E+03  0.00000000000E+00 0.  1.
         13    1    3    3    0    0  0.26349830416E+02  0.31316065243E+02  0.15953152660E+02  0.43926217514E+02  0.00000000000E+00 0. -1.
        -13    1    4    4    0    0 -0.32336913751E+02  0.10378588907E+02 -0.50772006391E+02  0.61083448917E+02  0.00000000000E+00 0.  1.
         13    1    4    4    0    0  0.20239778174E+02 -0.33657384930E+02  0.56667714674E+02  0.68947067140E+02  0.00000000000E+00 0. -1.
          1    1    1    2  501    0  0.40799268662E+02 -0.16068779146E+02 -0.28093945609E+02  0.52077401687E+02  0.00000000000E+00 0. -1.
<scales pt_clust_5="13000.00000" pt_clust_6="13000.00000" pt_clust_7="13000.00000" pt_clust_8="13000.00000" pt_clust_9="43.84958"></scales>
<clustering>
<clus scale="   43.850">  2  9  1 -1</clus>
<clus scale="   93.030">  5  6 -1 -1</clus>
<clus scale="  101.045">  1  5  2 -1</clus>
<clus scale="  127.220">  7  8 -1 -1</clus>
<clus scale="   43.850">  2  5  1 -1</clus>
</clustering>
</event>
<event>
 9    1  0.1315259E-005  0.1261343E+03  0.7546771E-02  0.1248300E+00
         -1   -1    0    0    0  501 -0.00000000000E+00  0.00000000000E+00  0.69736985683E+02  0.69736985683E+02  0.00000000000E+00 0.  1.
         21   -1    0    0  501  502  0.00000000000E+00 -0.00000000000E+00 -0.30366218513E+03  0.30366218513E+03  0.00000000000E+00 0. -1.
         23    2    1    2    0    0 -0.86945132172E+01 -0.47296304843E+01 -0.34203490019E+02  0.96750475094E+02  0.89960056341E+02 0.  0.
         23    2    1    2    0    0  0.40979385100E+02  0.32010186983E+02 -0.97373352930E+02  0.16591600952E+03  0.12386521013E+03 0.  0.
        -11    1    4    4    0    0  0.69742847256E+02  0.56400201585E+01 -0.10595596381E+02  0.70768221917E+02  0.00000000000E+00 0.  1.
         11    1    4    4    0    0 -0.28763462156E+02  0.26370166824E+02 -0.86777756549E+02  0.95147787600E+02  0.00000000000E+00 0. -1.
        -11    1    3    3    0    0  0.35225525930E+02  0.19582551578E+02 -0.15248128075E+02  0.43090827483E+02  0.00000000000E+00 0.  1.
         11    1    3    3    0    0 -0.43920039147E+02 -0.24312182062E+02 -0.18955361944E+02  0.53659647611E+02  0.00000000000E+00 0. -1.
         -1    1    1    2    0  502 -0.32284871882E+02 -0.27280556499E+02 -0.10234835650E+03  0.11073268620E+03  0.00000000000E+00 0.  1.
<scales pt_clust_5="13000.00000" pt_clust_6="13000.00000" pt_clust_7="13000.00000" pt_clust_8="13000.00000" pt_clust_9="42.26750"></scales>
<clustering>
<clus scale="   42.268">  2  9  1 -1</clus>
<clus scale="   89.960">  7  8 -1 -1</clus>
<clus scale="   93.060">  1  7  2 -1</clus>
<clus scale="  123.865">  5  6 -1 -1</clus>
<clus scale="   42.268">  2  5  1 -1</clus>
</clustering>
</event>
<event>
 9    1  0.1315259E-005  0.9396271E+02  0.7546771E-02  0.1294637E+00
          1   -1    0    0  502    0 -0.00000000000E+00  0.00000000000E+00  0.25239705528E+03  0.25239705528E+03  0.00000000000E+00 0. -1.
         21   -1    0    0  501  502  0.00000000000E+00 -0.00000000000E+00 -0.10455726445E+03  0.10455726445E+03  0.00000000000E+00 0.  1.
         23    2    1    2    0    0  0.21795533660E+02 -0.85937152821E+01  0.18552419336E+03  0.20716493268E+03  0.89158206471E+02 0.  0.
         23    2    1    2    0    0 -0.23839927761E+02 -0.13555362478E+02 -0.64484445245E+02  0.11496118751E+03  0.91135837894E+02 0.  0.
        -13    1    4    4    0    0  0.66527047934E+01 -0.29423923634E+02  0.10927104596E+02  0.32084690709E+02  0.00000000000E+00 0. -1.
         13    1    4    4    0    0 -0.30492632555E+02  0.15868561156E+02 -0.75411549841E+02  0.82876496805E+02  0.00000000000E+00 0.  1.
        -13    1    3    3    0    0 -0.21066480167E+02 -0.34203660957E+02  0.10494169447E+03  0.11236746081E+03  0.00000000000E+00 0.  1.
         13    1    3    3    0    0  0.42862013827E+02  0.25609945675E+02  0.80582498890E+02  0.94797471877E+02  0.00000000000E+00 0. -1.
          1    1    1    2  501    0  0.20443941010E+01  0.22149077760E+02  0.26800042716E+02  0.34828199529E+02  0.00000000000E+00 0. -1.
<scales pt_clust_5="13000.00000" pt_clust_6="13000.00000" pt_clust_7="13000.00000" pt_clust_8="13000.00000" pt_clust_9="22.24324"></scales>
<clustering>
<clus scale="   22.243">  2  9  1 -1</clus>
<clus scale="   89.158">  7  8 -1 -1</clus>
<clus scale="   91.136">  5  6 -1 -1</clus>
<clus scale="   92.046">  1  7  2 -1</clus>
<clus scale="   22.243">  2  5  1 -1</clus>
</clustering>
</event>
<event>
 9    1  0.1315259E-005  0.1109931E+03  0.7546771E-02  0.1259253E+00
         21   -1    0    0  501  502  0.00000000000E+00  0.00000000000E+00  0.48268870858E+02  0.48268870858E+02  0.00000000000E+00 0. -1.
          1   -1    0    0  502    0 -0.00000000000E+00 -0.00000000000E+00 -0.61728161816E+03  0.61728161816E+03  0.00000000000E+00 0. -1.
         23    2    1    2    0    0  0.40285910132E+02  0.23573994500E+02 -0.36410560506E+03  0.37859859650E+03  0.92656990369E+02 0.  0.
         23    2    1    2    0    0 -0.73435197581E+02 -0.61404723272E+02 -0.19337676007E+03  0.23534773561E+03  0.93971894917E+02 0.  0.
        -13    1    4    4    0    0 -0.95108887812E+02 -0.47252440481E+02 -0.13725180219E+03  0.17354120801E+03  0.00000000000E+00 0. -1.
         13    1    4    4    0    0  0.21673690230E+02 -0.14152282791E+02 -0.56124957883E+02  0.61806527598E+02  0.00000000000E+00 0.  1.
        -13    1    3    3    0    0  0.65858030549E+02  0.12663573200E+01 -0.28515298963E+03  0.29266211122E+03  0.00000000000E+00 0.  1.
         13    1    3    3    0    0 -0.25572120418E+02  0.22307637180E+02 -0.78952615433E+02  0.85936485284E+02  0.00000000000E+00 0. -1.
          1    1    1    2  501    0  0.33149287450E+02  0.37830728772E+02 -0.11530382172E+02  0.51604156915E+02  0.00000000000E+00 0. -1.
<scales pt_clust_5="13000.00000" pt_clust_6="13000.00000" pt_clust_7="13000.00000" pt_clust_8="13000.00000" pt_clust_9="50.29950"></scales>
<clustering>
<clus scale="   50.299">  1  9  2 -1</clus>
<clus scale="   92.657">  7  8 -1 -1</clus>
<clus scale="   93.972">  5  6 -1 -1</clus>
<clus scale="  109.882">  2  7  1 -1</clus>
<clus scale="   50.299">  1  5  2 -1</clus>
</clustering>
</event>
<event>
 9    1  0.1315259E-005  0.1875414E+03  0.7546771E-02  0.1161157E+00
         21   -1    0    0  501  502  0.00000000000E+00  0.00000000000E+00  0.44227592613E+02  0.44227592613E+02  0.00000000000E+00 0.  1.
          2   -1    0    0  502    0 -0.00000000000E+00 -0.00000000000E+00 -0.11138943979E+04  0.11138943979E+04  0.00000000000E+00 0. -1.
         23    2    1    2    0    0  0.69826290682E+02  0.11713174441E+03 -0.33163739113E+03  0.36973675481E+03  0.90146282444E+02 0.  0.
         23    2    1    2    0    0 -0.13135002234E+03 -0.13774561660E+03 -0.56504614532E+03  0.60363320573E+03  0.94176522846E+02 0.  0.
        -13    1    4    4    0    0 -0.94332055007E+02 -0.45952122932E+02 -0.37439685527E+03  0.38882276096E+03  0.00000000000E+00 0. -1.
         13    1    4    4    0    0 -0.37017967334E+02 -0.91793493669E+02 -0.19064929005E+03  0.21481044477E+03  0.00000000000E+00 0.  1.
        -13    1    3    3    0    0 -0.20936486811E+02  0.17176259109E+02 -0.75209411194E+02  0.79936323965E+02  0.00000000000E+00 0. -1.
         13    1    3    3    0    0  0.90762777493E+02  0.99955485305E+02 -0.25642797994E+03  0.28980043084E+03  0.00000000000E+00 0.  1.
          2    1    1    2  501    0  0.61523731660E+02  0.20613872186E+02 -0.17298326881E+03  0.18475202995E+03  0.00000000000E+00 0. -1.
<scales pt_clust_5="13000.00000" pt_clust_6="13000.00000" pt_clust_7="13000.00000" pt_clust_8="13000.00000" pt_clust_9="64.88533"></scales>
<clustering>
<clus scale="   64.885">  1  9  2 -1</clus>
<clus scale="   90.146">  7  8 -1 -1</clus>
<clus scale="   94.177">  5  6 -1 -1</clus>
<clus scale="  185.550">  2  7  1 -1</clus>
<clus scale="   64.885">  1  5  2 -1</clus>
</clustering>
</event>
<event>
 9    1  0.1315259E-005  0.2277585E+03  0.7546771E-02  0.1134757E+00
         21   -1    0    0  501  502  0.00000000000E+00  0.00000000000E+00  0.30473955452E+03  0.30473955452E+03  0.00000000000E+00 0.  1.
          2   -1    0    0  502    0 -0.00000000000E+00 -0.00000000000E+00 -0.55770379957E+03  0.55770379957E+03  0.00000000000E+00 0. -1.
         23    2    1    2    0    0  0.14291259948E+03 -0.43111558550E+02 -0.29224044202E+03  0.35082578645E+03  0.12406304413E+03 0.  0.
         23    2    1    2    0    0  0.53119051516E+02  0.16829017958E+03 -0.11830477237E+03  0.23067298724E+03  0.89837573987E+02 0.  0.
        -11    1    3    3    0    0  0.38576202440E+02  0.19573925755E+02 -0.11388539812E+02  0.44732100366E+02  0.00000000000E+00 0.  1.
         11    1    3    3    0    0  0.10433639704E+03 -0.62685484305E+02 -0.28085190220E+03  0.30609368609E+03  0.00000000000E+00 0. -1.
        -13    1    4    4    0    0  0.14497066018E+02  0.23476219688E+02 -0.66666875753E+02  0.72151023115E+02  0.00000000000E+00 0. -1.
         13    1    4    4    0    0  0.38621985499E+02  0.14481395989E+03 -0.51637896622E+02  0.15852196412E+03  0.00000000000E+00 0.  1.
          2    1    1    2  501    0 -0.19603165100E+03 -0.12517862103E+03  0.15758096934E+03  0.28094458039E+03  0.00000000000E+00 0. -1.
<scales pt_clust_5="13000.00000" pt_clust_6="13000.00000" pt_clust_7="13000.00000" pt_clust_8="13000.00000" pt_clust_9="209.29203"></scales>
<clustering>
<clus scale="   89.838">  7  8 -1 -1</clus>
<clus scale="  124.063">  5  6 -1 -1</clus>
<clus scale="  194.099">  2  5  1 -1</clus>
<clus scale="  209.292">  1  9  2 -1</clus>
<clus scale="  209.292">  1  5  2 -1</clus>
</clustering>
</event>
<event>
 9    1  0.1315259E-005  0.1377990E+03  0.7546771E-02  0.1231257E+00
         21   -1    0    0  501  502  0.00000000000E+00  0.00000000000E+00  0.63870683853E+03  0.63870683853E+03  0.00000000000E+00 0. -1.
          2   -1    0    0  502    0 -0.00000000000E+00 -0.00000000000E+00 -0.13583963242E+03  0.13583963242E+03  0.00000000000E+00 0. -1.
         23    2    1    2    0    0 -0.40595798117E+02 -0.22984914869E+02 -0.60304234361E+02  0.11755124051E+03  0.89472723930E+02 0.  0.
         23    2    1    2    0    0 -0.47003821685E+02  0.87104180846E+02  0.65397301768E+02  0.14752092606E+03  0.87687621546E+02 0.  0.
        -11    1    3    3    0    0 -0.48114738469E+02  0.16617301175E+02 -0.58008721436E+02  0.77176256186E+02  0.00000000000E+00 0.  1.
         11    1    3    3    0    0  0.75189403520E+01 -0.39602216044E+02 -0.22955129246E+01  0.40374984324E+02  0.00000000000E+00 0. -1.
        -11    1    4    4    0    0 -0.70817293075E+02  0.69022469528E+02  0.35048168886E+02  0.10491694067E+03  0.00000000000E+00 0. -1.
         11    1    4    4    0    0  0.23813471390E+02  0.18081711318E+02  0.30349132882E+02  0.42603985382E+02  0.00000000000E+00 0.  1.
          2    1    1    2  501    0  0.87599619802E+02 -0.64119265977E+02  0.49777413871E+03  0.50947430438E+03  0.00000000000E+00 0. -1.
<scales pt_clust_5="13000.00000" pt_clust_6="13000.00000" pt_clust_7="13000.00000" pt_clust_8="13000.00000" pt_clust_9="106.29888"></scales>
<clustering>
<clus scale="   87.688">  7  8 -1 -1</clus>
<clus scale="   89.473">  5  6 -1 -1</clus>
<clus scale="  100.904">  2  5  1 -1</clus>
<clus scale="  106.299">  1  9  2 -1</clus>
<clus scale="  106.299">  1  5  2 -1</clus>
</clustering>
</event>
<event>
 9    1  0.1315259E-005  0.1645284E+03  0.7546771E-02  0.1206127E+00
         21   -1    0    0  501  502  0.00000000000E+00  0.00000000000E+00  0.86365373170E+03  0.86365373170E+03  0.00000000000E+00 0. -1.
          1   -1    0    0  502    0 -0.00000000000E+00 -0.00000000000E+00 -0.64106884324E+02  0.64106884324E+02  0.00000000000E+00 0. -1.
         23    2    1    2    0    0 -0.36569926207E+02  0.37295900511E+01  0.22332012888E+03  0.24493389003E+03  0.93645401261E+02 0.  0.
         23    2    1    2    0    0 -0.10720782385E+03  0.79533556120E+01  0.71258400735E+02  0.15765862474E+03  0.90673639617E+02 0.  0.
        -11    1    4    4    0    0 -0.78786708165E+02  0.45517945669E+02  0.32374236281E+02  0.96578051006E+02  0.00000000000E+00 0. -1.
         11    1    4    4    0    0 -0.28421115680E+02 -0.37564590057E+02  0.38884164454E+02  0.61080573736E+02  0.00000000000E+00 0.  1.
        -13    1    3    3    0    0  0.21245602625E+02  0.29998557393E+02  0.91752847937E+02  0.98842673887E+02  0.00000000000E+00 0.  1.
         13    1    3    3    0    0 -0.57815528832E+02 -0.26268967342E+02  0.13156728094E+03  0.14609121614E+03  0.00000000000E+00 0. -1.
          1    1    1    2  501    0  0.14377775005E+03 -0.11682945663E+02  0.50496831776E+03  0.52516810125E+03  0.00000000000E+00 0. -1.
<scales pt_clust_5="13000.00000" pt_clust_6="13000.00000" pt_clust_7="13000.00000" pt_clust_8="13000.00000" pt_clust_9="137.28755"></scales>
<clustering>
<clus scale="   90.674">  5  6 -1 -1</clus>
<clus scale="   93.645">  7  8 -1 -1</clus>
<clus scale="  100.602">  2  7  1 -1</clus>
<clus scale="  137.288">  1  9  2 -1</clus>
<clus scale="  137.288">  1  5  2 -1</clus>
</clustering>
</event>
<event>
 9    1  0.1315259E-005  0.2408474E+03  0.7546771E-02  0.1119365E+00
          2   -1    0    0  502    0 -0.00000000000E+00  0.00000000000E+00  0.22963585314E+04  0.22963585314E+04  0.00000000000E+00 0. -1.
         21   -1    0    0  501  502  0.00000000000E+00 -0.00000000000E+00 -0.53162394683E+02  0.53162394683E+02  0.00000000000E+00 0. -1.
         23    2    1    2    0    0  0.12085955339E+03 -0.13702389922E+03  0.79092682552E+03  0.81708065071E+03  0.93128759387E+02 0.  0.
         23    2    1    2    0    0 -0.81818100272E+02  0.28843293536E+03  0.11526431853E+04  0.11944687580E+04  0.91002974164E+02 0.  0.
        -13    1    3    3    0    0  0.11830908931E+03 -0.78628080290E+02  0.63139581249E+03  0.64717855933E+03  0.00000000000E+00 0.  1.
         13    1    3    3    0    0  0.25504640784E+01 -0.58395818933E+02  0.15953101303E+03  0.16990209138E+03  0.00000000000E+00 0. -1.
        -13    1    4    4    0    0 -0.80729335145E+02  0.23730905417E+03  0.10535557248E+04  0.10829646707E+04  0.00000000000E+00 0. -1.
         13    1    4    4    0    0 -0.10887651270E+01  0.51123881189E+02  0.99087460495E+02  0.11150408721E+03  0.00000000000E+00 0.  1.
          2    1    1    2  501    0 -0.39041453117E+02 -0.15140903614E+03  0.29962612583E+03  0.33797151739E+03  0.00000000000E+00 0. -1.
<scales pt_clust_5="13000.00000" pt_clust_6="13000.00000" pt_clust_7="13000.00000" pt_clust_8="13000.00000" pt_clust_9="156.36154"></scales>
<clustering>
<clus scale="   91.003">  7  8 -1 -1</clus>
<clus scale="   93.129">  5  6 -1 -1</clus>
<clus scale="  156.362">  2  9  1 -1</clus>
<clus scale="  240.033">  2  7  1 -1</clus>
<clus scale="  156.362">  2  5  1 -1</clus>
</clustering>
</event>
<event>
 9    1  0.1315259E-005  0.1043633E+03  0.7546771E-02  0.1272749E+00
         -3   -1    0    0    0  501 -0.00000000000E+00  0.00000000000E+00  0.46120504954E+03  0.46120504954E+03  0.00000000000E+00 0.  1.
         21   -1    0    0  501  502  0.00000000000E+00 -0.00000000000E+00 -0.12135885814E+03  0.12135885814E+03  0.00000000000E+00 0.  1.
         23    2    1    2    0    0  0.32574690556E+02 -0.48885112291E+02  0.32069894531E+03  0.33824024971E+03  0.90043258151E+02 0.  0.
         23    2    1    2    0    0  0.72990455591E-01  0.26636534629E+02  0.10921993581E+03  0.14596736830E+03  0.93101922235E+02 0.  0.
        -13    1    4    4    0    0 -0.20466465103E+02  0.24407521710E+02 -0.28769549497E+01  0.31982498020E+02  0.00000000000E+00 0. -1.
         13    1    4    4    0    0  0.20539455559E+02  0.22290129194E+01  0.11209689076E+03  0.11398487028E+03  0.00000000000E+00 0.  1.
        -13    1    3    3    0    0 -0.26815738183E+02 -0.21840601655E+02  0.57744718415E+02  0.67309347046E+02  0.00000000000E+00 0. -1.
         13    1    3    3    0    0  0.59390428739E+02 -0.27044510637E+02  0.26295422689E+03  0.27093090267E+03  0.00000000000E+00 0.  1.
         -3    1    1    2    0  502 -0.32647681011E+02  0.22248577662E+02 -0.90072689723E+02  0.98356289669E+02  0.00000000000E+00 0.  1.
<scales pt_clust_5="13000.00000" pt_clust_6="13000.00000" pt_clust_7="13000.00000" pt_clust_8="13000.00000" pt_clust_9="39.50785"></scales>
<clustering>
<clus scale="   39.508">  2  9  1 -1</clus>
<clus scale="   90.043">  7  8 -1 -1</clus>
<clus scale="   93.102">  5  6 -1 -1</clus>
<clus scale="  101.644">  1  7  2 -1</clus>
<clus scale="   39.508">  2  5  1 -1</clus>
</clustering>
</event>
<event>
 9    1  0.1315259E-005  0.1407024E+03  0.7546771E-02  0.1212616E+00
          1   -1    0    0  502    0 -0.00000000000E+00  0.00000000000E+00  0.43642617705E+03  0.43642617705E+03  0.00000000000E+00 0. -1.
         21   -1    0    0  501  502  0.00000000000E+00 -0.00000000000E+00 -0.78822420511E+02  0.78822420511E+02  0.00000000000E+00 0.  1.
         23    2    1    2    0    0  0.76016724308E+01  0.87733182383E+02  0.15854884300E+03  0.20300849571E+03  0.91213030857E+02 0.  0.
         23    2    1    2    0    0 -0.40354460163E+02 -0.14018036270E+03  0.11310290232E+03  0.20635714732E+03  0.92260442200E+02 0.  0.
        -11    1    3    3    0    0 -0.17010750775E+02  0.30908140220E+02  0.27891753254E+01  0.35390087211E+02  0.00000000000E+00 0.  1.
         11    1    3    3    0    0  0.24612423206E+02  0.56825042164E+02  0.15575966768E+03  0.16761840850E+03  0.00000000000E+00 0. -1.
        -11    1    4    4    0    0 -0.64897983229E+02 -0.73410669083E+02  0.85530682417E+02  0.13006295475E+03  0.00000000000E+00 0.  1.
         11    1    4    4    0    0  0.24543523066E+02 -0.66769693621E+02  0.27572219907E+02  0.76294192579E+02  0.00000000000E+00 0. -1.
          1    1    1    2  501    0  0.32752787732E+02  0.52447180321E+02  0.85952011216E+02  0.10588295453E+03  0.00000000000E+00 0. -1.
<scales pt_clust_5="13000.00000" pt_clust_6="13000.00000" pt_clust_7="13000.00000" pt_clust_8="13000.00000" pt_clust_9="61.83410"></scales>
<clustering>
<clus scale="   61.834">  2  9  1 -1</clus>
<clus scale="   91.213">  5  6 -1 -1</clus>
<clus scale="   92.260">  7  8 -1 -1</clus>
<clus scale="  140.018">  1  5  2 -1</clus>
<clus scale="   61.834">  2  5  1 -1</clus>
</clustering>
</event>
<event>
 9    1  0.1315259E-005  0.9390912E+02  0.7546771E-02  0.1307738E+00
          3   -1    0    0  502    0 -0.00000000000E+00  0.00000000000E+00  0.19103137073E+03  0.19103137073E+03  0.00000000000E+00 0. -1.
         21   -1    0    0  501  502  0.00000000000E+00 -0.00000000000E+00 -0.70315855013E+02  0.70315855013E+02  0.00000000000E+00 0.  1.
         23    2    1    2    0    0  0.24973663418E+01 -0.14374025087E+02  0.12558981770E+03  0.15679392950E+03  0.92729092434E+02 0.  0.
         23    2    1    2    0    0  0.25082553955E+02  0.12214901389E+02  0.12651612064E+01  0.76215921147E+02  0.70914932663E+02 0.  0.
        -11    1    4    4    0    0  0.74932137986E+00 -0.26926730099E+02 -0.10062969590E+02  0.28755410505E+02  0.00000000000E+00 0.  1.
         11    1    4    4    0    0  0.24333232575E+02  0.39141631488E+02  0.11328130796E+02  0.47460510642E+02  0.00000000000E+00 0. -1.
        -11    1    3    3    0    0  0.41040589590E+01 -0.51317459912E+02  0.46022171837E+02  0.69053351058E+02  0.00000000000E+00 0.  1.
         11    1    3    3    0    0 -0.16066926172E+01  0.36943434825E+02  0.79567645862E+02  0.87740578445E+02  0.00000000000E+00 0. -1.
          3    1    1    2  501    0 -0.27579920296E+02  0.21591236977E+01 -0.61394631919E+01  0.28337375090E+02  0.00000000000E+00 0. -1.
<scales pt_clust_5="13000.00000" pt_clust_6="13000.00000" pt_clust_7="13000.00000" pt_clust_8="13000.00000" pt_clust_9="27.66431"></scales>
<clustering>
<clus scale="   27.664">  2  9  1 -1</clus>
<clus scale="   70.915">  5  6 -1 -1</clus>
<clus scale="   72.451">  2  5  1 -1</clus>
<clus scale="   92.729">  7  8 -1 -1</clus>
<clus scale="   27.664">  2  5  1 -1</clus>
</clustering>
</event>
<event>
 9    1  0.1315259E-005  0.1001776E+03  0.7546771E-02  0.1280224E+00
         21   -1    0    0  501  502  0.00000000000E+00  0.00000000000E+00  0.27423059580E+03  0.27423059580E+03  0.00000000000E+00 0. -1.
          1   -1    0    0  502    0 -0.00000000000E+00 -0.00000000000E+00 -0.16688728974E+03  0.16688728974E+03  0.00000000000E+00 0. -1.
         23    2    1    2    0    0  0.85700788845E+01 -0.25240430967E+02 -0.36938528434E+02  0.10188327376E+03  0.91132985144E+02 0.  0.
         23    2    1    2    0    0  0.38852866442E+02  0.52795672469E+02 -0.60611052678E+02  0.12712774653E+03  0.90503237333E+02 0.  0.
        -13    1    3    3    0    0 -0.13029010013E+02  0.17240369456E+02  0.18733512848E+02  0.28599474550E+02  0.00000000000E+00 0.  1.
         13    1    3    3    0    0  0.21599088898E+02 -0.42480800423E+02 -0.55672041282E+02  0.73283799208E+02  0.00000000000E+00 0. -1.
        -13    1    4    4    0    0  0.32888085737E+01  0.67391267916E+02 -0.18192267295E+02  0.69881026341E+02  0.00000000000E+00 0.  1.
         13    1    4    4    0    0  0.35564057868E+02 -0.14595595447E+02 -0.42418785382E+02  0.57246720184E+02  0.00000000000E+00 0. -1.
          1    1    1    2  501    0 -0.47422945326E+02 -0.27555241502E+02  0.20489288717E+03  0.21210686526E+03  0.00000000000E+00 0. -1.
<scales pt_clust_5="13000.00000" pt_clust_6="13000.00000" pt_clust_7="13000.00000" pt_clust_8="13000.00000" pt_clust_9="54.84731"></scales>
<clustering>
<clus scale="   54.847">  1  9  2 -1</clus>
<clus scale="   90.503">  7  8 -1 -1</clus>
<clus scale="   91.133">  5  6 -1 -1</clus>
<clus scale="   99.605">  1  7  2 -1</clus>
<clus scale="   54.847">  1  5  2 -1</clus>
</clustering>
</event>
<event>
 9    1  0.1315259E-005  0.1417472E+03  0.7546771E-02  0.1211225E+00
         -4   -1    0    0    0  501 -0.00000000000E+00  0.00000000000E+00  0.16460130407E+03  0.16460130407E+03  0.00000000000E+00 0.  1.
         21   -1    0    0  501  502  0.00000000000E+00 -0.00000000000E+00 -0.16118466219E+03  0.16118466219E+03  0.00000000000E+00 0. -1.
         23    2    1    2    0    0 -0.87424252690E+01 -0.11465978173E+03  0.60818394804E+02  0.15953725010E+03  0.92357790553E+02 0.  0.
         23    2    1    2    0    0  0.15785871668E+02  0.93167312059E+02 -0.38920254186E+02  0.13704080310E+03  0.91301992030E+02 0.  0.
        -11    1    3    3    0    0  0.21080194970E+02 -0.91780315989E+02  0.77265902514E+01  0.94486513429E+02  0.00000000000E+00 0. -1.
         11    1    3    3    0    0 -0.29822620239E+02 -0.22879465744E+02  0.53091804553E+02  0.65050736670E+02  0.00000000000E+00 0.  1.
        -13    1    4    4    0    0  0.45388265633E+02  0.68655426464E+02  0.56297358440E-01  0.82302280707E+02  0.00000000000E+00 0. -1.
         13    1    4    4    0    0 -0.29602393965E+02  0.24511885595E+02 -0.38976551544E+02  0.54738522396E+02  0.00000000000E+00 0.  1.
         -4    1    1    2    0  502 -0.70434463988E+01  0.21492469674E+02 -0.18481498736E+02  0.29207913061E+02  0.00000000000E+00 0.  1.
<scales pt_clust_5="13000.00000" pt_clust_6="13000.00000" pt_clust_7="13000.00000" pt_clust_8="13000.00000" pt_clust_9="22.61717"></scales>
<clustering>
<clus scale="   22.617">  2  9  1 -1</clus>
<clus scale="   91.302">  7  8 -1 -1</clus>
<clus scale="   92.358">  5  6 -1 -1</clus>
<clus scale="  141.062">  2  7  1 -1</clus>
<clus scale="   22.617">  2  5  1 -1</clus>
</clustering>
</event>
<event>
 9    1  0.1315259E-005  0.1158042E+03  0.7546771E-02  0.1251250E+00
         -1   -1    0    0    0  501 -0.00000000000E+00  0.00000000000E+00  0.63874241145E+02  0.63874241145E+02  0.00000000000E+00 0.  1.
         21   -1    0    0  501  502  0.00000000000E+00 -0.00000000000E+00 -0.38707944942E+03  0.38707944942E+03  0.00000000000E+00 0. -1.
         23    2    1    2    0    0  0.34553296768E+02 -0.17345077132E+02 -0.45061092107E+02  0.11745021776E+03  0.10133740480E+03 0.  0.
         23    2    1    2    0    0 -0.66495798687E+02  0.34962883162E+02 -0.13701659682E+03  0.18773760837E+03  0.10405655842E+03 0.  0.
        -11    1    4    4    0    0 -0.43909838510E+02  0.40308117271E+02 -0.14981217951E+03  0.16123432440E+03  0.00000000000E+00 0. -1.
         11    1    4    4    0    0 -0.22585960178E+02 -0.53452341095E+01  0.12795582687E+02  0.26503283969E+02  0.00000000000E+00 0.  1.
        -13    1    3    3    0    0  0.45937983601E+02 -0.53328450280E+02 -0.24895572937E+02  0.74659302827E+02  0.00000000000E+00 0.  1.
         13    1    3    3    0    0 -0.11384686834E+02  0.35983373148E+02 -0.20165519170E+02  0.42790914933E+02  0.00000000000E+00 0. -1.
         -1    1    1    2    0  502  0.31942501920E+02 -0.17617806029E+02 -0.14112751934E+03  0.14576586443E+03  0.00000000000E+00 0.  1.
<scales pt_clust_5="13000.00000" pt_clust_6="13000.00000" pt_clust_7="13000.00000" pt_clust_8="13000.00000" pt_clust_9="36.47891"></scales>
<clustering>
<clus scale="   36.479">  2  9  1 -1</clus>
<clus scale="  101.337">  7  8 -1 -1</clus>
<clus scale="  104.057">  5  6 -1 -1</clus>
<clus scale="  113.367">  1  7  2 -1</clus>
<clus scale="   36.479">  2  5  1 -1</clus>
</clustering>
</event>
<event>
 9    1  0.1315259E-005  0.9587693E+02  0.7546771E-02  0.1289564E+00
          2   -1    0    0  502    0 -0.00000000000E+00  0.00000000000E+00  0.14156949622E+03  0.14156949622E+03  0.00000000000E+00 0. -1.
         21   -1    0    0  501  502  0.00000000000E+00 -0.00000000000E+00 -0.13803863036E+03  0.13803863036E+03  0.00000000000E+00 0.  1.
         23    2    1    2    0    0 -0.33382113046E+02  0.85268693727E+01  0.93046602912E+02  0.13440465385E+03  0.90663485980E+02 0.  0.
         23    2    1    2    0    0  0.15924405166E+02  0.26897654092E+01 -0.82904302801E+02  0.12342514582E+03  0.89999009326E+02 0.  0.
        -13    1    4    4    0    0  0.22399616474E+02  0.25666047399E+02  0.30646473112E+01  0.34203521316E+02  0.00000000000E+00 0. -1.
         13    1    4    4    0    0 -0.64752113081E+01 -0.22976281990E+02 -0.85968950112E+02  0.89221624503E+02  0.00000000000E+00 0.  1.
        -13    1    3    3    0    0  0.14977033908E+02  0.37596336042E+02  0.35930653911E+02  0.54118461905E+02  0.00000000000E+00 0.  1.
         13    1    3    3    0    0 -0.48359146954E+02 -0.29069466670E+02  0.57115949001E+02  0.80286191944E+02  0.00000000000E+00 0. -1.
          2    1    1    2  501    0  0.17457707881E+02 -0.11216634782E+02 -0.66114342530E+01  0.21778326914E+02  0.00000000000E+00 0. -1.
<scales pt_clust_5="13000.00000" pt_clust_6="13000.00000" pt_clust_7="13000.00000" pt_clust_8="13000.00000" pt_clust_9="20.75053"></scales>
<clustering>
<clus scale="   20.751">  2  9  1 -1</clus>
<clus scale="   89.999">  5  6 -1 -1</clus>
<clus scale="   90.663">  7  8 -1 -1</clus>
<clus scale="   95.249">  2  5  1 -1</clus>
<clus scale="   20.751">  2  5  1 -1</clus>
</clustering>
</event>
<event>
 9    1  0.1315259E-005  0.1441929E+03  0.7546771E-02  0.1212944E+00
         21   -1    0    0  501  502  0.00000000000E+00  0.00000000000E+00  0.16030052867E+03  0.16030052867E+03  0.00000000000E+00 0.  1.
          1   -1    0    0  502    0 -0.00000000000E+00 -0.00000000000E+00 -0.49726777971E+03  0.49726777971E+03  0.00000000000E+00 0. -1.
         23    2    1    2    0    0  0.11188008488E+03 -0.22418250388E+02 -0.44364197453E+03  0.46698998199E+03  0.90783866231E+02 0.  0.
         23    2    1    2    0    0 -0.92503562453E+02  0.31103139099E+02  0.44842771986E+02  0.12520197639E+03  0.64345523262E+02 0.  0.
        -11    1    4    4    0    0 -0.15260849875E+02  0.14996406504E+02 -0.15035120477E+02  0.26150345977E+02  0.00000000000E+00 0.  1.
         11    1    4    4    0    0 -0.77242712578E+02  0.16106732595E+02  0.59877892463E+02  0.99051630411E+02  0.00000000000E+00 0. -1.
        -13    1    3    3    0    0  0.19608405991E+02 -0.29102130770E+02 -0.41518733581E+02  0.54362016510E+02  0.00000000000E+00 0.  1.
         13    1    3    3    0    0  0.92271678888E+02  0.66838803824E+01 -0.40212324095E+03  0.41262796548E+03  0.00000000000E+00 0. -1.
          1    1    1    2  501    0 -0.19376522426E+02 -0.86848887112E+01  0.61831951503E+02  0.65376350005E+02  0.00000000000E+00 0. -1.
<scales pt_clust_5="13000.00000" pt_clust_6="13000.00000" pt_clust_7="13000.00000" pt_clust_8="13000.00000" pt_clust_9="21.23386"></scales>
<clustering>
<clus scale="   21.234">  1  9  2 -1</clus>
<clus scale="   64.346">  5  6 -1 -1</clus>
<clus scale="   90.784">  7  8 -1 -1</clus>
<clus scale="  129.191">  1  5  2 -1</clus>
<clus scale="   21.234">  1  5  2 -1</clus>
</clustering>
</event>
<event>
 9    1  0.1315259E-005  0.1137680E+03  0.7546771E-02  0.1254039E+00
         -3   -1    0    0    0  501 -0.00000000000E+00  0.00000000000E+00  0.20628332579E+03  0.20628332579E+03  0.00000000000E+00 0.  1.
         21   -1    0    0  501  502  0.00000000000E+00 -0.00000000000E+00 -0.10400456200E+03  0.10400456200E+03  0.00000000000E+00 0. -1.
         23    2    1    2    0    0  0.59055398758E+02 -0.42970907327E+01  0.82845288845E+02  0.13862894172E+03  0.94067191344E+02 0.  0.
         23    2    1    2    0    0 -0.61673358573E+02  0.38667594199E+02  0.46027438668E+02  0.12812247713E+03  0.94858094206E+02 0.  0.
        -13    1    4    4    0    0 -0.54466893038E+02  0.65886896599E+02  0.50981140921E+02  0.99532920736E+02  0.00000000000E+00 0.  1.
         13    1    4    4    0    0 -0.72064655357E+01 -0.27219302401E+02 -0.49537022530E+01  0.28589556392E+02  0.00000000000E+00 0. -1.
        -13    1    3    3    0    0  0.27466917363E+02 -0.49142285324E+02  0.41776571095E+02  0.70104761955E+02  0.00000000000E+00 0.  1.
         13    1    3    3    0    0  0.31588481395E+02  0.44845194592E+02  0.41068717750E+02  0.68524179765E+02  0.00000000000E+00 0. -1.
         -3    1    1    2    0  502  0.26179598153E+01 -0.34370503466E+02 -0.26593963723E+02  0.43536468950E+02  0.00000000000E+00 0.  1.
<scales pt_clust_5="13000.00000" pt_clust_6="13000.00000" pt_clust_7="13000.00000" pt_clust_8="13000.00000" pt_clust_9="34.47006"></scales>
<clustering>
<clus scale="   34.470">  2  9  1 -1</clus>
<clus scale="   94.067">  7  8 -1 -1</clus>
<clus scale="   94.858">  5  6 -1 -1</clus>
<clus scale="  113.109">  1  7  2 -1</clus>
<clus scale="   34.470">  2  5  1 -1</clus>
</clustering>
</event>
<event>
 9    1  0.1315259E-005  0.1110431E+03  0.7546771E-02  0.1259249E+00
          1   -1    0    0  502    0 -0.00000000000E+00  0.00000000000E+00  0.27642317870E+03  0.27642317870E+03  0.00000000000E+00 0. -1.
         21   -1    0    0  501  502  0.00000000000E+00 -0.00000000000E+00 -0.99048844885E+02  0.99048844885E+02  0.00000000000E+00 0.  1.
         23    2    1    2    0    0  0.47174926194E+02 -0.47410113268E+02  0.15616490947E+03  0.19210604138E+03  0.89688682017E+02 0.  0.
         23    2    1    2    0    0 -0.14250433899E+02  0.61390692634E+02  0.63631216584E+02  0.12787645843E+03  0.91277406228E+02 0.  0.
        -11    1    4    4    0    0 -0.68610938062E+01  0.80353447632E+02  0.25375018232E+02  0.84543732498E+02  0.00000000000E+00 0. -1.
         11    1    4    4    0    0 -0.73893400933E+01 -0.18962754998E+02  0.38256198352E+02  0.43332725930E+02  0.00000000000E+00 0.  1.
        -13    1    3    3    0    0  0.16344634490E+02 -0.61105448427E+02  0.49756927443E+02  0.80478411594E+02  0.00000000000E+00 0.  1.
         13    1    3    3    0    0  0.30830291704E+02  0.13695335159E+02  0.10640798203E+03  0.11162762978E+03  0.00000000000E+00 0. -1.
          1    1    1    2  501    0 -0.32924492294E+02 -0.13980579366E+02 -0.42421792241E+02  0.55489523779E+02  0.00000000000E+00 0. -1.
<scales pt_clust_5="13000.00000" pt_clust_6="13000.00000" pt_clust_7="13000.00000" pt_clust_8="13000.00000" pt_clust_9="35.76980"></scales>
<clustering>
<clus scale="   35.770">  2  9  1 -1</clus>
<clus scale="   89.689">  7  8 -1 -1</clus>
<clus scale="   91.277">  5  6 -1 -1</clus>
<clus scale="  109.741">  1  7  2 -1</clus>
<clus scale="   35.770">  2  5  1 -1</clus>
</clustering>
</event>
<event>
 9    1  0.1315259E-005  0.1098709E+03  0.7546771E-02  0.1262671E+00
         21   -1    0    0  501  502  0.00000000000E+00  0.00000000000E+00  0.36955813508E+03  0.36955813508E+03  0.00000000000E+00 0. -1.
          3   -1    0    0  502    0 -0.00000000000E+00 -0.00000000000E+00 -0.13206029015E+03  0.13206029015E+03  0.00000000000E+00 0. -1.
         23    2    1    2    0    0 -0.66359759215E+02 -0.66014658040E+01 -0.32536004513E+02  0.11456758737E+03  0.87292287703E+02 0.  0.
         23    2    1    2    0    0  0.48192099357E+02 -0.39291071940E+02 -0.14905306781E+01  0.11107678494E+03  0.92030232510E+02 0.  0.
        -11    1    3    3    0    0 -0.42408340316E+02 -0.22929900032E+02 -0.58393184670E+02  0.75723257060E+02  0.00000000000E+00 0. -1.
         11    1    3    3    0    0 -0.23951418899E+02  0.16328434228E+02  0.25857180157E+02  0.38844330311E+02  0.00000000000E+00 0.  1.
        -13    1    4    4    0    0  0.34109493333E+02 -0.63648893839E+02  0.20836564612E+02  0.75158510145E+02  0.00000000000E+00 0. -1.
         13    1    4    4    0    0  0.14082606024E+02  0.24357821899E+02 -0.22327095290E+02  0.35918274794E+02  0.00000000000E+00 0.  1.
          3    1    1    2  501    0  0.18167659858E+02  0.45892537744E+02  0.27152438012E+03  0.27597405292E+03  0.00000000000E+00 0. -1.
<scales pt_clust_5="13000.00000" pt_clust_6="13000.00000" pt_clust_7="13000.00000" pt_clust_8="13000.00000" pt_clust_9="49.35776"></scales>
<clustering>
<clus scale="   49.358">  1  9  2 -1</clus>
<clus scale="   87.292">  5  6 -1 -1</clus>
<clus scale="   92.030">  7  8 -1 -1</clus>
<clus scale="  105.934">  2  5  1 -1</clus>
<clus scale="   49.358">  1  5  2 -1</clus>
</clustering>
</event>
<event>
 9    1  0.1315259E-005  0.1022591E+03  0.7546771E-02  0.1276580E+00
          1   -1    0    0  502    0 -0.00000000000E+00  0.00000000000E+00  0.24568948426E+03  0.24568948426E+03  0.00000000000E+00 0. -1.
         21   -1    0    0  501  502  0.00000000000E+00 -0.00000000000E+00 -0.70586618188E+02  0.70586618188E+02  0.00000000000E+00 0. -1.
         23    2    1    2    0    0  0.26018241818E+02 -0.15815529814E+02  0.11288784967E+03  0.14794782101E+03  0.90652144208E+02 0.  0.
         23    2    1    2    0    0 -0.56288619771E+02  0.40341251025E+02  0.57061669894E+02  0.12902988754E+03  0.92719212995E+02 0.  0.
        -13    1    4    4    0    0 -0.45868163053E+01  0.60166229839E+02  0.28771500072E+02  0.66849183340E+02  0.00000000000E+00 0. -1.
         13    1    4    4    0    0 -0.51701803466E+02 -0.19824978815E+02  0.28290169822E+02  0.62180704203E+02  0.00000000000E+00 0.  1.
        -13    1    3    3    0    0 -0.26398903234E+02  0.56209080708E+01  0.75265551298E+02  0.79958738807E+02  0.00000000000E+00 0.  1.
         13    1    3    3    0    0  0.52417145052E+02 -0.21436437885E+02  0.37622298371E+02  0.67989082207E+02  0.00000000000E+00 0. -1.
          1    1    1    2  501    0  0.30270377953E+02 -0.24525721210E+02  0.51533465134E+01  0.39298393893E+02  0.00000000000E+00 0. -1.
<scales pt_clust_5="13000.00000" pt_clust_6="13000.00000" pt_clust_7="13000.00000" pt_clust_8="13000.00000" pt_clust_9="38.95904"></scales>
<clustering>
<clus scale="   38.959">  2  9  1 -1</clus>
<clus scale="   90.652">  7  8 -1 -1</clus>
<clus scale="   92.719">  5  6 -1 -1</clus>
<clus scale="  100.389">  1  7  2 -1</clus>
<clus scale="   38.959">  2  5  1 -1</clus>
</clustering>
</event>
<event>
 9    1  0.1315259E-005  0.1177058E+03  0.7546771E-02  0.1247369E+00
         21   -1    0    0  501  502  0.00000000000E+00  0.00000000000E+00  0.10333584674E+03  0.10333584674E+03  0.00000000000E+00 0. -1.
          2   -1    0    0  502    0 -0.00000000000E+00 -0.00000000000E+00 -0.52740772133E+03  0.52740772133E+03  0.00000000000E+00 0. -1.
         23    2    1    2    0    0 -0.55411916575E+02  0.26024620532E+02 -0.28549535921E+03  0.30515641335E+03  0.88685258658E+02 0.  0.
         23    2    1    2    0    0  0.15458821812E+03  0.53465941837E+01 -0.13001249426E+03  0.22121553809E+03  0.90038671565E+02 0.  0.
        -13    1    4    4    0    0  0.50419794202E+02  0.35808623585E+02 -0.16153177537E+02  0.63916651312E+02  0.00000000000E+00 0.  1.
         13    1    4    4    0    0  0.10416842392E+03 -0.30462029401E+02 -0.11385931672E+03  0.15729888678E+03  0.00000000000E+00 0. -1.
        -13    1    3    3    0    0  0.22326628272E+02  0.11048416245E+01 -0.10039598300E+03  0.10285452060E+03  0.00000000000E+00 0.  1.
         13    1    3    3    0    0 -0.77738544847E+02  0.24919778907E+02 -0.18509937621E+03  0.20230189274E+03  0.00000000000E+00 0. -1.
          2    1    1    2  501    0 -0.99176301549E+02 -0.31371214715E+02 -0.85640211269E+01  0.10437161664E+03  0.00000000000E+00 0. -1.
<scales pt_clust_5="13000.00000" pt_clust_6="13000.00000" pt_clust_7="13000.00000" pt_clust_8="13000.00000" pt_clust_9="104.01967"></scales>
<clustering>
<clus scale="   88.685">  7  8 -1 -1</clus>
<clus scale="   90.039">  5  6 -1 -1</clus>
<clus scale="  104.020">  1  9  2 -1</clus>
<clus scale="  116.674">  2  7  1 -1</clus>
<clus scale="  104.020">  1  5  2 -1</clus>
</clustering>
</event>
<event>
 9    1  0.1315259E-005  0.1174306E+03  0.7546771E-02  0.1247802E+00
         21   -1    0    0  501  502  0.00000000000E+00  0.00000000000E+00  0.17061237544E+03  0.17061237544E+03  0.00000000000E+00 0. -1.
          1   -1    0    0  502    0 -0.00000000000E+00 -0.00000000000E+00 -0.28372731560E+03  0.28372731560E+03  0.00000000000E+00 0. -1.
         23    2    1    2    0    0  0.66523153790E+02  0.40601503427E+02 -0.23486431836E+03  0.26340068402E+03  0.90248879411E+02 0.  0.
         23    2    1    2    0    0 -0.40991169311E+02 -0.25190623649E+02  0.53327214030E+02  0.11630007617E+03  0.91471703167E+02 0.  0.
        -11    1    3    3    0    0  0.85576019856E+02  0.33323345494E+02 -0.14802556825E+03  0.17419893623E+03  0.00000000000E+00 0. -1.
         11    1    3    3    0    0 -0.19052866066E+02  0.72781579334E+01 -0.86838750107E+02  0.89201747788E+02  0.00000000000E+00 0.  1.
        -13    1    4    4    0    0 -0.57825011706E+02 -0.43444878377E+02  0.20570423757E+02  0.75195290874E+02  0.00000000000E+00 0.  1.
         13    1    4    4    0    0  0.16833842395E+02  0.18254254728E+02  0.32756790273E+02  0.41104785299E+02  0.00000000000E+00 0. -1.
          1    1    1    2  501    0 -0.25531984479E+02 -0.15410879778E+02  0.68422164174E+02  0.74638930842E+02  0.00000000000E+00 0. -1.
<scales pt_clust_5="13000.00000" pt_clust_6="13000.00000" pt_clust_7="13000.00000" pt_clust_8="13000.00000" pt_clust_9="29.82243"></scales>
<clustering>
<clus scale="   29.822">  1  9  2 -1</clus>
<clus scale="   90.249">  5  6 -1 -1</clus>
<clus scale="   91.472">  7  8 -1 -1</clus>
<clus scale="  116.481">  2  5  1 -1</clus>
<clus scale="   29.822">  1  5  2 -1</clus>
</clustering>
</event>
<event>
 9    1  0.1315259E-005  0.1756174E+03  0.7546771E-02  0.1196060E+00
         -1   -1    0    0    0  501 -0.00000000000E+00  0.00000000000E+00  0.49808627597E+03  0.49808627597E+03  0.00000000000E+00 0.  1.
         21   -1    0    0  501  502  0.00000000000E+00 -0.00000000000E+00 -0.15536335611E+03  0.15536335611E+03  0.00000000000E+00 0.  1.
         23    2    1    2    0    0  0.19811711964E+02  0.42644992782E+02  0.15602344919E+03  0.18690046253E+03  0.91527956701E+02 0.  0.
         23    2    1    2    0    0  0.12660055711E+03 -0.30169167739E+02  0.25575189403E+03  0.30419019715E+03  0.10091959672E+03 0.  0.
        -13    1    4    4    0    0  0.11924169421E+03 -0.60126669537E+02  0.20031878930E+03  0.24075177128E+03  0.00000000000E+00 0.  1.
         13    1    4    4    0    0  0.73588628905E+01  0.29957501798E+02  0.55433104728E+02  0.63438425870E+02  0.00000000000E+00 0. -1.
        -13    1    3    3    0    0 -0.28205593851E+02  0.37323844047E+02  0.11264052793E+03  0.12196931331E+03  0.00000000000E+00 0. -1.
         13    1    3    3    0    0  0.48017305815E+02  0.53211487347E+01  0.43382921266E+02  0.64931149221E+02  0.00000000000E+00 0.  1.
         -1    1    1    2    0  502 -0.14641226907E+03 -0.12475825043E+02 -0.69052423355E+02  0.16235897239E+03  0.00000000000E+00 0.  1.
<scales pt_clust_5="13000.00000" pt_clust_6="13000.00000" pt_clust_7="13000.00000" pt_clust_8="13000.00000" pt_clust_9="143.72435"></scales>
<clustering>
<clus scale="   91.528">  7  8 -1 -1</clus>
<clus scale="  100.920">  5  6 -1 -1</clus>
<clus scale="  102.900">  1  7  2 -1</clus>
<clus scale="  143.724">  2  9  1 -1</clus>
<clus scale="  143.724">  2  5  1 -1</clus>
</clustering>
</event>
<event>
 9    1  0.1315259E-005  0.1157238E+03  0.7546771E-02  0.1252822E+00
          1   -1    0    0  502    0 -0.00000000000E+00  0.00000000000E+00  0.55259445801E+03  0.55259445801E+03  0.00000000000E+00 0. -1.
         21   -1    0    0  501  502  0.00000000000E+00 -0.00000000000E+00 -0.17097818159E+03  0.17097818159E+03  0.00000000000E+00 0.  1.
         23    2    1    2    0    0  0.42787135589E+02 -0.52075179176E+02  0.47705190759E+03  0.48940001825E+03  0.85972623910E+02 0.  0.
         23    2    1    2    0    0 -0.36923309894E+02  0.10101752648E+03 -0.11319964892E+03  0.18177702862E+03  0.93063720915E+02 0.  0.
        -11    1    3    3    0    0 -0.25458375977E+02 -0.18477494999E+02  0.10319794777E+03  0.10788588023E+03  0.00000000000E+00 0.  1.
         11    1    3    3    0    0  0.68245511566E+02 -0.33597684177E+02  0.37385395982E+03  0.38151413802E+03  0.00000000000E+00 0. -1.
        -11    1    4    4    0    0 -0.55619524321E+02  0.46188415722E+02 -0.98189740207E+02  0.12193492656E+03  0.00000000000E+00 0.  1.
         11    1    4    4    0    0  0.18696214427E+02  0.54829110756E+02 -0.15009908714E+02  0.59842102067E+02  0.00000000000E+00 0. -1.
          1    1    1    2  501    0 -0.58638256951E+01 -0.48942347303E+02  0.17764017747E+02  0.52395592732E+02  0.00000000000E+00 0. -1.
<scales pt_clust_5="13000.00000" pt_clust_6="13000.00000" pt_clust_7="13000.00000" pt_clust_8="13000.00000" pt_clust_9="49.29237"></scales>
<clustering>
<clus scale="   49.292">  2  9  1 -1</clus>
<clus scale="   85.973">  5  6 -1 -1</clus>
<clus scale="   93.064">  7  8 -1 -1</clus>
<clus scale="  110.102">  1  5  2 -1</clus>
<clus scale="   49.292">  2  5  1 -1</clus>
</clustering>
</event>
<event>
 9    1  0.1315259E-005  0.9279106E+02  0.7546771E-02  0.1298656E+00
          1   -1    0    0  502    0 -0.00000000000E+00  0.00000000000E+00  0.16685561992E+03  0.16685561992E+03  0.00000000000E+00 0. -1.
         21   -1    0    0  501  502  0.00000000000E+00 -0.00000000000E+00 -0.88526205786E+02  0.88526205786E+02  0.00000000000E+00 0.  1.
         23    2    1    2    0    0  0.72898243711E+01 -0.93185028452E+01  0.61905561121E+02  0.10833125881E+03  0.88110085136E+02 0.  0.
         23    2    1    2    0    0 -0.13877123847E+02 -0.15153476332E+02  0.48480044449E+02  0.10618652783E+03  0.92212046781E+02 0.  0.
        -11    1    3    3    0    0  0.15865636069E+02  0.30639440015E+02  0.42412747888E+00  0.34506138242E+02  0.00000000000E+00 0.  1.
         11    1    3    3    0    0 -0.85758116982E+01 -0.39957942860E+02  0.61481433642E+02  0.73825120566E+02  0.00000000000E+00 0. -1.
        -13    1    4    4    0    0 -0.44877161192E+02 -0.52714983050E+00 -0.22786252653E+01  0.44938064229E+02  0.00000000000E+00 0.  1.
         13    1    4    4    0    0  0.31000037344E+02 -0.14626326502E+02  0.50758669714E+02  0.61248463601E+02  0.00000000000E+00 0. -1.
          1    1    1    2  501    0  0.65872994761E+01  0.24471979177E+02 -0.32056191439E+02  0.40864039066E+02  0.00000000000E+00 0. -1.
<scales pt_clust_5="13000.00000" pt_clust_6="13000.00000" pt_clust_7="13000.00000" pt_clust_8="13000.00000" pt_clust_9="25.34305"></scales>
<clustering>
<clus scale="   25.343">  2  9  1 -1</clus>
<clus scale="   88.110">  5  6 -1 -1</clus>
<clus scale="   88.716">  1  5  2 -1</clus>
<clus scale="   92.212">  7  8 -1 -1</clus>
<clus scale="   25.343">  2  5  1 -1</clus>
</clustering>
</event>
<event>
 9    1  0.1315259E-005  0.2003137E+03  0.7546771E-02  0.1149983E+00
         21   -1    0    0  501  502  0.00000000000E+00  0.00000000000E+00  0.26882621500E+03  0.26882621500E+03  0.00000000000E+00 0. -1.
          1   -1    0    0  502    0 -0.00000000000E+00 -0.00000000000E+00 -0.42196963221E+03  0.42196963221E+03  0.00000000000E+00 0. -1.
         23    2    1    2    0    0  0.17703294877E+03 -0.61406955767E+02 -0.20722220911E+03  0.29555755858E+03  0.96445566592E+02 0.  0.
         23    2    1    2    0    0 -0.11736579977E+03  0.12511696887E+03 -0.99680236741E+02  0.21843055880E+03  0.91360672970E+02 0.  0.
        -11    1    4    4    0    0 -0.29490134995E+02  0.20126949845E+02  0.16062239939E+02  0.39150449856E+02  0.00000000000E+00 0.  1.
         11    1    4    4    0    0 -0.87875664776E+02  0.10499001902E+03 -0.11574247668E+03  0.17928010894E+03  0.00000000000E+00 0. -1.
        -11    1    3    3    0    0  0.17680333350E+03 -0.31977710506E+02 -0.18981355873E+03  0.26136407516E+03  0.00000000000E+00 0. -1.
         11    1    3    3    0    0  0.22961526448E+00 -0.29429245261E+02 -0.17408650382E+02  0.34193483413E+02  0.00000000000E+00 0.  1.
          1    1    1    2  501    0 -0.59667148998E+02 -0.63710013100E+02  0.15375902865E+03  0.17680772983E+03  0.00000000000E+00 0. -1.
<scales pt_clust_5="13000.00000" pt_clust_6="13000.00000" pt_clust_7="13000.00000" pt_clust_8="13000.00000" pt_clust_9="87.28765"></scales>
<clustering>
<clus scale="   87.288">  1  9  2 -1</clus>
<clus scale="   91.361">  5  6 -1 -1</clus>
<clus scale="   96.446">  7  8 -1 -1</clus>
<clus scale="  197.916">  1  5  2 -1</clus>
<clus scale="   87.288">  1  5  2 -1</clus>
</clustering>
</event>
<event>
 9    1  0.1315259E-005  0.9569735E+02  0.7546771E-02  0.1291047E+00
         21   -1    0    0  501  502  0.00000000000E+00  0.00000000000E+00  0.25518265515E+03  0.25518265515E+03  0.00000000000E+00 0.  1.
          3   -1    0    0  502    0 -0.00000000000E+00 -0.00000000000E+00 -0.55645429257E+02  0.55645429257E+02  0.00000000000E+00 0. -1.
         23    2    1    2    0    0 -0.11038348338E+02 -0.21241320361E+02  0.30711006786E+02  0.99960992380E+02  0.92065168414E+02 0.  0.
         23    2    1    2    0    0 -0.12768149810E+02  0.35498287127E+02  0.11645977038E+03  0.15160280761E+03  0.89428066732E+02 0.  0.
        -11    1    4    4    0    0 -0.40307561221E+02 -0.37928045857E+01  0.85219703571E+02  0.94347669473E+02  0.00000000000E+00 0.  1.
         11    1    4    4    0    0  0.27539411411E+02  0.39291091713E+02  0.31240066811E+02  0.57255138138E+02  0.00000000000E+00 0. -1.
        -13    1    3    3    0    0 -0.33408375512E+02 -0.47704139703E+02  0.29510361179E+02  0.65289094924E+02  0.00000000000E+00 0.  1.
         13    1    3    3    0    0  0.22370027174E+02  0.26462819342E+02  0.12006456078E+01  0.34671897456E+02  0.00000000000E+00 0. -1.
          3    1    1    2  501    0  0.23806498148E+02 -0.14256966766E+02  0.52366448724E+02  0.59264284416E+02  0.00000000000E+00 0. -1.
<scales pt_clust_5="13000.00000" pt_clust_6="13000.00000" pt_clust_7="13000.00000" pt_clust_8="13000.00000" pt_clust_9="27.74906"></scales>
<clustering>
<clus scale="   27.749">  1  9  2 -1</clus>
<clus scale="   89.428">  5  6 -1 -1</clus>
<clus scale="   92.065">  7  8 -1 -1</clus>
<clus scale="   93.163">  1  5  2 -1</clus>
<clus scale="   27.749">  1  5  2 -1</clus>
</clustering>
</event>
<event>
 9    1  0.1315259E-005  0.1001816E+03  0.7546771E-02  0.1282966E+00
         21   -1    0    0  501  502  0.00000000000E+00  0.00000000000E+00  0.62695316246E+02  0.62695316246E+02  0.00000000000E+00 0. -1.
          2   -1    0    0  502    0 -0.00000000000E+00 -0.00000000000E+00 -0.46103374777E+03  0.46103374777E+03  0.00000000000E+00 0. -1.
         23    2    1    2    0    0 -0.45947592037E+02 -0.19272029905E+02 -0.25848159706E+03  0.28005540984E+03  0.95580877862E+02 0.  0.
         23    2    1    2    0    0 -0.31304353790E+02 -0.22683590782E+02 -0.28320038072E+02  0.10165747837E+03  0.89653279329E+02 0.  0.
        -13    1    4    4    0    0 -0.48350082699E+02 -0.43783538125E+02 -0.34568436490E+02  0.73822120730E+02  0.00000000000E+00 0. -1.
         13    1    4    4    0    0  0.17045728909E+02  0.21099947343E+02  0.62483984188E+01  0.27835357636E+02  0.00000000000E+00 0.  1.
        -13    1    3    3    0    0  0.28316628198E+02 -0.13906276196E+02 -0.55371385714E+02  0.63727594542E+02  0.00000000000E+00 0.  1.
         13    1    3    3    0    0 -0.74264220235E+02 -0.53657537085E+01 -0.20311021134E+03  0.21632781530E+03  0.00000000000E+00 0. -1.
          2    1    1    2  501    0  0.77251945827E+02  0.41955620687E+02 -0.11153679639E+03  0.14201617581E+03  0.00000000000E+00 0. -1.
<scales pt_clust_5="13000.00000" pt_clust_6="13000.00000" pt_clust_7="13000.00000" pt_clust_8="13000.00000" pt_clust_9="87.90987"></scales>
<clustering>
<clus scale="   87.910">  1  9  2 -1</clus>
<clus scale="   89.653">  5  6 -1 -1</clus>
<clus scale="   94.543">  1  5  2 -1</clus>
<clus scale="   95.581">  7  8 -1 -1</clus>
<clus scale="   87.910">  1  5  2 -1</clus>
</clustering>
</event>
<event>
 9    1  0.1315259E-005  0.1063694E+03  0.7546771E-02  0.1268446E+00
          1   -1    0    0  502    0 -0.00000000000E+00  0.00000000000E+00  0.23432817371E+03  0.23432817371E+03  0.00000000000E+00 0. -1.
         21   -1    0    0  501  502  0.00000000000E+00 -0.00000000000E+00 -0.13875583151E+03  0.13875583151E+03  0.00000000000E+00 0. -1.
         23    2    1    2    0    0  0.39446046902E+02  0.42690513635E+02  0.17699991301E+03  0.20800853234E+03  0.92520861164E+02 0.  0.
         23    2    1    2    0    0  0.22538921251E+01 -0.36652197423E+02 -0.37826863622E+02  0.10444241387E+03  0.90160316090E+02 0.  0.
        -11    1    3    3    0    0 -0.12211333140E+02  0.26253891382E+02  0.73005142901E+01  0.29861027757E+02  0.00000000000E+00 0.  1.
         11    1    3    3    0    0  0.51657380042E+02  0.16436622253E+02  0.16969939872E+03  0.17814750458E+03  0.00000000000E+00 0. -1.
        -13    1    4    4    0    0 -0.14006832974E+02  0.17453094494E+02 -0.42211360746E+02  0.47776572223E+02  0.00000000000E+00 0.  1.
         13    1    4    4    0    0  0.16260725099E+02 -0.54105291917E+02  0.43844971245E+01  0.56665841644E+02  0.00000000000E+00 0. -1.
          1    1    1    2  501    0 -0.41699939027E+02 -0.60383162124E+01 -0.43600707184E+02  0.60633059006E+02  0.00000000000E+00 0. -1.
<scales pt_clust_5="13000.00000" pt_clust_6="13000.00000" pt_clust_7="13000.00000" pt_clust_8="13000.00000" pt_clust_9="42.13486"></scales>
<clustering>
<clus scale="   42.135">  2  9  1 -1</clus>
<clus scale="   90.160">  7  8 -1 -1</clus>
<clus scale="   92.521">  5  6 -1 -1</clus>
<clus scale="  104.323">  2  7  1 -1</clus>
<clus scale="   42.135">  2  5  1 -1</clus>
</clustering>
</event>
<event>
 9    1  0.1315259E-005  0.1033003E+03  0.7546771E-02  0.1275110E+00
          2   -1    0    0  502    0 -0.00000000000E+00  0.00000000000E+00  0.50137346971E+03  0.50137346971E+03  0.00000000000E+00 0. -1.
         21   -1    0    0  501  502  0.00000000000E+00 -0.00000000000E+00 -0.51746143960E+02  0.51746143960E+02  0.00000000000E+00 0. -1.
         23    2    1    2    0    0 -0.37768336502E+02  0.13925577676E+02  0.26275908529E+03  0.28194446036E+03  0.93967935335E+02 0.  0.
         23    2    1    2    0    0  0.25518900526E+02  0.51335904417E+02  0.16748293889E+03  0.20200218428E+03  0.97302406281E+02 0.  0.
        -11    1    3    3    0    0 -0.41859624684E+02 -0.28909371219E+02  0.19619534008E+03  0.20268347588E+03  0.00000000000E+00 0. -1.
         11    1    3    3    0    0  0.40912881823E+01  0.42834948894E+02  0.66563745207E+02  0.79260984487E+02  0.00000000000E+00 0.  1.
        -13    1    4    4    0    0  0.59706634586E+02  0.51297307291E+02  0.11891951628E+03  0.14261187644E+03  0.00000000000E+00 0. -1.
         13    1    4    4    0    0 -0.34187734060E+02  0.38597126012E-01  0.48563422613E+02  0.59390307844E+02  0.00000000000E+00 0.  1.
          2    1    1    2  501    0  0.12249435977E+02 -0.65261482092E+02  0.19385301564E+02  0.69172969022E+02  0.00000000000E+00 0. -1.
<scales pt_clust_5="13000.00000" pt_clust_6="13000.00000" pt_clust_7="13000.00000" pt_clust_8="13000.00000" pt_clust_9="66.40113"></scales>
<clustering>
<clus scale="   66.401">  2  9  1 -1</clus>
<clus scale="   93.968">  5  6 -1 -1</clus>
<clus scale="   97.302">  7  8 -1 -1</clus>
<clus scale="  100.166">  1  5  2 -1</clus>
<clus scale="   66.401">  2  5  1 -1</clus>
</clustering>
</event>
<event>
 9    1  0.1315259E-005  0.1998128E+03  0.7546771E-02  0.1150125E+00
         21   -1    0    0  501  502  0.00000000000E+00  0.00000000000E+00  0.20411604298E+03  0.20411604298E+03  0.00000000000E+00 0.  1.
          2   -1    0    0  502    0 -0.00000000000E+00 -0.00000000000E+00 -0.46633716814E+03  0.46633716814E+03  0.00000000000E+00 0. -1.
         23    2    1    2    0    0 -0.16200573404E+03 -0.48888180911E+02 -0.18951866876E+03  0.27042084172E+03  0.92596942359E+02 0.  0.
         23    2    1    2    0    0  0.18337187929E+03  0.33942232298E+02 -0.18924988080E+03  0.28060374772E+03  0.90253114068E+02 0.  0.
        -13    1    3    3    0    0 -0.91042080062E+02  0.20549478480E+02 -0.99147289232E+02  0.13616580470E+03  0.00000000000E+00 0. -1.
         13    1    3    3    0    0 -0.70963653974E+02 -0.69437659391E+02 -0.90371379527E+02  0.13425503702E+03  0.00000000000E+00 0.  1.
        -13    1    4    4    0    0  0.74188436514E+02 -0.25602227995E+02 -0.46274634608E+02  0.91108396972E+02  0.00000000000E+00 0.  1.
         13    1    4    4    0    0  0.10918344278E+03  0.59544460293E+02 -0.14297524620E+03  0.18949535074E+03  0.00000000000E+00 0. -1.
          2    1    1    2  501    0 -0.21366145257E+02  0.14945948613E+02  0.11654742440E+03  0.11942862169E+03  0.00000000000E+00 0. -1.
<scales pt_clust_5="13000.00000" pt_clust_6="13000.00000" pt_clust_7="13000.00000" pt_clust_8="13000.00000" pt_clust_9="26.07477"></scales>
<clustering>
<clus scale="   26.075">  1  9  2 -1</clus>
<clus scale="   90.253">  7  8 -1 -1</clus>
<clus scale="   92.597">  5  6 -1 -1</clus>
<clus scale="  198.737">  1  7  2 -1</clus>
<clus scale="   26.075">  1  5  2 -1</clus>
</clustering>
</event>
<event>
 9    1  0.1315259E-005  0.9852867E+02  0.7546771E-02  0.1286072E+00
         21   -1    0    0  501  502  0.00000000000E+00  0.00000000000E+00  0.23904600409E+03  0.23904600409E+03  0.00000000000E+00 0.  1.
          3   -1    0    0  502    0 -0.00000000000E+00 -0.00000000000E+00 -0.10073620333E+03  0.10073620333E+03  0.00000000000E+00 0. -1.
         23    2    1    2    0    0 -0.11869068310E+02 -0.20430961227E+02 -0.51324228996E+02  0.10795271941E+03  0.91985402031E+02 0.  0.
         23    2    1    2    0    0 -0.86926838822E+01 -0.77983644877E+01  0.12756540780E+03  0.16061014853E+03  0.96882967036E+02 0.  0.
        -11    1    3    3    0    0  0.15703097079E+02  0.32046319634E+02 -0.19824117536E+02  0.40823393980E+02  0.00000000000E+00 0. -1.
         11    1    3    3    0    0 -0.27572165389E+02 -0.52477280861E+02 -0.31500111460E+02  0.67129325430E+02  0.00000000000E+00 0.  1.
        -11    1    4    4    0    0 -0.84671257838E+01 -0.39539435058E+02  0.12181591549E+03  0.12835176824E+03  0.00000000000E+00 0.  1.
         11    1    4    4    0    0 -0.22555809842E+00  0.31741070570E+02  0.57494923178E+01  0.32258380296E+02  0.00000000000E+00 0. -1.
          3    1    1    2  501    0  0.20561752192E+02  0.28229325715E+02  0.62068621959E+02  0.71219339476E+02  0.00000000000E+00 0. -1.
<scales pt_clust_5="13000.00000" pt_clust_6="13000.00000" pt_clust_7="13000.00000" pt_clust_8="13000.00000" pt_clust_9="34.92392"></scales>
<clustering>
<clus scale="   34.924">  1  9  2 -1</clus>
<clus scale="   91.985">  5  6 -1 -1</clus>
<clus scale="   93.717">  2  5  1 -1</clus>
<clus scale="   96.883">  7  8 -1 -1</clus>
<clus scale="   34.924">  1  5  2 -1</clus>
</clustering>
</event>
<event>
 9    1  0.1315259E-005  0.1969816E+03  0.7546771E-02  0.1152521E+00
         21   -1    0    0  501  502  0.00000000000E+00  0.00000000000E+00  0.19075089119E+03  0.19075089119E+03  0.00000000000E+00 0. -1.
          2   -1    0    0  502    0 -0.00000000000E+00 -0.00000000000E+00 -0.30529514884E+03  0.30529514884E+03  0.00000000000E+00 0. -1.
         23    2    1    2    0    0  0.16771620387E+03  0.22329933403E+02 -0.15717758522E+03  0.24830223608E+03  0.91224208294E+02 0.  0.
         23    2    1    2    0    0 -0.19113730342E+03 -0.69070334175E+01  0.53486480276E+02  0.21767380775E+03  0.89106156558E+02 0.  0.
        -13    1    3    3    0    0  0.12411731926E+03  0.56574315368E+02 -0.10455463766E+03  0.17186458145E+03  0.00000000000E+00 0. -1.
         13    1    3    3    0    0  0.43598884608E+02 -0.34244381965E+02 -0.52622947560E+02  0.76437654629E+02  0.00000000000E+00 0.  1.
        -13    1    4    4    0    0 -0.15647616190E+03 -0.39135958571E+02  0.27322646173E+02  0.16359382473E+03  0.00000000000E+00 0. -1.
         13    1    4    4    0    0 -0.34661141528E+02  0.32228925154E+02  0.26163834103E+02  0.54079983021E+02  0.00000000000E+00 0.  1.
          2    1    1    2  501    0  0.23421099555E+02 -0.15422899986E+02 -0.10853152696E+02  0.30069996205E+02  0.00000000000E+00 0. -1.
<scales pt_clust_5="13000.00000" pt_clust_6="13000.00000" pt_clust_7="13000.00000" pt_clust_8="13000.00000" pt_clust_9="28.04308"></scales>
<clustering>
<clus scale="   28.043">  1  9  2 -1</clus>
<clus scale="   89.106">  7  8 -1 -1</clus>
<clus scale="   91.224">  5  6 -1 -1</clus>
<clus scale="  196.010">  1  7  2 -1</clus>
<clus scale="   28.043">  1  5  2 -1</clus>
</clustering>
</event>
<event>
 9    1  0.1315259E-005  0.1325512E+03  0.7546771E-02  0.1223905E+00
          2   -1    0    0  502    0 -0.00000000000E+00  0.00000000000E+00  0.69013951387E+02  0.69013951387E+02  0.00000000000E+00 0. -1.
         21   -1    0    0  501  502  0.00000000000E+00 -0.00000000000E+00 -0.41958018400E+03  0.41958018400E+03  0.00000000000E+00 0.  1.
         23    2    1    2    0    0  0.96372392299E+02 -0.43340622213E+01 -0.63670297637E+02  0.14767003878E+03  0.91902728246E+02 0.  0.
         23    2    1    2    0    0 -0.93622130888E+02 -0.23014444074E+02 -0.14563310765E+03  0.19701200150E+03  0.91158974669E+02 0.  0.
        -13    1    4    4    0    0 -0.99700177163E+02  0.40506220974E+01 -0.87968930680E+02  0.13302280117E+03  0.00000000000E+00 0. -1.
         13    1    4    4    0    0  0.60780462746E+01 -0.27065066172E+02 -0.57664176965E+02  0.63989200327E+02  0.00000000000E+00 0.  1.
        -13    1    3    3    0    0  0.60837678882E+02 -0.36337002841E+02 -0.69788442733E+02  0.99458673258E+02  0.00000000000E+00 0.  1.
         13    1    3    3    0    0  0.35534713417E+02  0.32002940620E+02  0.61181450958E+01  0.48211365521E+02  0.00000000000E+00 0. -1.
          2    1    1    2  501    0 -0.27502614104E+01  0.27348506296E+02 -0.14126282733E+03  0.14391209511E+03  0.00000000000E+00 0. -1.
<scales pt_clust_5="13000.00000" pt_clust_6="13000.00000" pt_clust_7="13000.00000" pt_clust_8="13000.00000" pt_clust_9="27.48645"></scales>
<clustering>
<clus scale="   27.486">  2  9  1 -1</clus>
<clus scale="   91.159">  5  6 -1 -1</clus>
<clus scale="   91.903">  7  8 -1 -1</clus>
<clus scale="  132.037">  2  5  1 -1</clus>
<clus scale="   27.486">  2  5  1 -1</clus>
</clustering>
</event>
<event>
 9    1  0.1315259E-005  0.1302926E+03  0.7546771E-02  0.1241017E+00
          2   -1    0    0  502    0 -0.00000000000E+00  0.00000000000E+00  0.51172801014E+02  0.51172801014E+02  0.00000000000E+00 0. -1.
         21   -1    0    0  501  502  0.00000000000E+00 -0.00000000000E+00 -0.61951466565E+03  0.61951466565E+03  0.00000000000E+00 0. -1.
         23    2    1    2    0    0 -0.18006279724E+02  0.25290390704E+02 -0.67753103503E+02  0.11896032821E+03  0.92721338874E+02 0.  0.
         23    2    1    2    0    0 -0.65419024748E+02  0.38066154202E+02 -0.18147205117E+03  0.21585616949E+03  0.89067949675E+02 0.  0.
        -11    1    4    4    0    0 -0.42682348722E+02 -0.20513656243E+02 -0.43732668655E+02  0.64460369938E+02  0.00000000000E+00 0. -1.
         11    1    4    4    0    0 -0.22736676026E+02  0.58579810445E+02 -0.13773938251E+03  0.15139579956E+03  0.00000000000E+00 0.  1.
        -13    1    3    3    0    0  0.18907463754E+01 -0.33601444290E+02 -0.35544405578E+02  0.48949328373E+02  0.00000000000E+00 0.  1.
         13    1    3    3    0    0 -0.19897026100E+02  0.58891834993E+02 -0.32208697924E+02  0.70010999839E+02  0.00000000000E+00 0. -1.
          2    1    1    2  501    0  0.83425304472E+02 -0.63356544906E+02 -0.31911670996E+03  0.33587096896E+03  0.00000000000E+00 0. -1.
<scales pt_clust_5="13000.00000" pt_clust_6="13000.00000" pt_clust_7="13000.00000" pt_clust_8="13000.00000" pt_clust_9="95.09504"></scales>
<clustering>
<clus scale="   89.068">  5  6 -1 -1</clus>
<clus scale="   92.721">  7  8 -1 -1</clus>
<clus scale="   97.781">  1  7  2 -1</clus>
<clus scale="   95.095">  2  9  1 -1</clus>
<clus scale="   95.095">  2  5  1 -1</clus>
</clustering>
</event>
<event>
 9    1  0.1315259E-005  0.1963023E+03  0.7546771E-02  0.1154046E+00
         21   -1    0    0  501  502  0.00000000000E+00  0.00000000000E+00  0.25605563532E+03  0.25605563532E+03  0.00000000000E+00 0.  1.
          1   -1    0    0  502    0 -0.00000000000E+00 -0.00000000000E+00 -0.16899642436E+03  0.16899642436E+03  0.00000000000E+00 0. -1.
         23    2    1    2    0    0  0.12817947861E+03 -0.13128491416E+03  0.22183290891E+02  0.20893370539E+03  0.97444791691E+02 0.  0.
         23    2    1    2    0    0 -0.11030345857E+03  0.11078301005E+03  0.60376496656E+02  0.18854799021E+03  0.86401938486E+02 0.  0.
        -11    1    3    3    0    0  0.10755707317E+03 -0.14199872536E+03  0.36225473209E+02  0.18178131616E+03  0.00000000000E+00 0.  1.
         11    1    3    3    0    0  0.20622405438E+02  0.10713811202E+02 -0.14042182319E+02  0.27152389228E+02  0.00000000000E+00 0. -1.
        -13    1    4    4    0    0 -0.33241125685E+01  0.39985169034E+02  0.43466067504E+02  0.59153719167E+02  0.00000000000E+00 0.  1.
         13    1    4    4    0    0 -0.10697934600E+03  0.70797841016E+02  0.16910429152E+02  0.12939427104E+03  0.00000000000E+00 0. -1.
          1    1    1    2  501    0 -0.17876020041E+02  0.20501904113E+02  0.44994234131E+01  0.27570364086E+02  0.00000000000E+00 0. -1.
<scales pt_clust_5="13000.00000" pt_clust_6="13000.00000" pt_clust_7="13000.00000" pt_clust_8="13000.00000" pt_clust_9="27.20075"></scales>
<clustering>
<clus scale="   27.201">  1  9  2 -1</clus>
<clus scale="   86.402">  7  8 -1 -1</clus>
<clus scale="   97.445">  5  6 -1 -1</clus>
<clus scale="  191.061">  1  7  2 -1</clus>
<clus scale="   27.201">  1  5  2 -1</clus>
</clustering>
</event>
<event>
 9    1  0.1315259E-005  0.1072204E+03  0.7546771E-02  0.1266488E+00
         21   -1    0    0  501  502  0.00000000000E+00  0.00000000000E+00  0.10816318507E+03  0.10816318507E+03  0.00000000000E+00 0. -1.
         -2   -1    0    0    0  501 -0.00000000000E+00 -0.00000000000E+00 -0.14752591788E+03  0.14752591788E+03  0.00000000000E+00 0.  1.
         23    2    1    2    0    0  0.45457039116E+02  0.25791980277E+02 -0.58556127328E+02  0.12001149248E+03  0.90787497092E+02 0.  0.
         23    2    1    2    0    0 -0.49018082905E+02 -0.46858015600E+02  0.10025409621E+02  0.11242872181E+03  0.89113761962E+02 0.  0.
        -11    1    4    4    0    0 -0.71041035017E+02 -0.31857478871E+02  0.25113531244E+02  0.81807194475E+02  0.00000000000E+00 0.  1.
         11    1    4    4    0    0  0.22022952113E+02 -0.15000536730E+02 -0.15088121623E+02  0.30621527331E+02  0.00000000000E+00 0. -1.
        -11    1    3    3    0    0  0.25528404695E+02 -0.23913723143E+02 -0.56461201630E+02  0.66418618552E+02  0.00000000000E+00 0.  1.
         11    1    3    3    0    0  0.19928634421E+02  0.49705703420E+02 -0.20949256978E+01  0.53592873930E+02  0.00000000000E+00 0. -1.
         -2    1    1    2    0  502  0.35610437884E+01  0.21066035323E+02  0.91679848965E+01  0.23248888665E+02  0.00000000000E+00 0.  1.
<scales pt_clust_5="13000.00000" pt_clust_6="13000.00000" pt_clust_7="13000.00000" pt_clust_8="13000.00000" pt_clust_9="21.36490"></scales>
<clustering>
<clus scale="   21.365">  1  9  2 -1</clus>
<clus scale="   89.114">  5  6 -1 -1</clus>
<clus scale="   90.787">  7  8 -1 -1</clus>
<clus scale="  105.807">  1  5  2 -1</clus>
<clus scale="   21.365">  1  5  2 -1</clus>
</clustering>
</event>
<event>
 9    1  0.1616763E-005  0.1200310E+03  0.7546771E-02  0.1243797E+00
         21   -1    0    0  501  502  0.00000000000E+00  0.00000000000E+00  0.42832486215E+03  0.42832486215E+03  0.00000000000E+00 0. -1.
          3   -1    0    0  502    0 -0.00000000000E+00 -0.00000000000E+00 -0.22024891618E+03  0.22024891618E+03  0.00000000000E+00 0. -1.
         23    2    1    2    0    0  0.49990255126E+02  0.68597711365E+02 -0.11251115222E+03  0.16712777154E+03  0.89823499350E+02 0.  0.
         23    2    1    2    0    0 -0.84000678769E+02 -0.28146697286E+01 -0.25665315647E+02  0.12736289287E+03  0.92187643709E+02 0.  0.
        -13    1    3    3    0    0  0.76037678641E+02  0.44634303690E+02 -0.81635413242E+02  0.12015943714E+03  0.00000000000E+00 0. -1.
         13    1    3    3    0    0 -0.26047423515E+02  0.23963407674E+02 -0.30875738973E+02  0.46968334399E+02  0.00000000000E+00 0.  1.
        -13    1    4    4    0    0 -0.84139133990E+02  0.27409588748E+02 -0.35837416959E+02  0.95472508494E+02  0.00000000000E+00 0. -1.
         13    1    4    4    0    0  0.13845522088E+00 -0.30224258476E+02  0.10172101312E+02  0.31890384372E+02  0.00000000000E+00 0.  1.
          3    1    1    2  501    0  0.34010423643E+02 -0.65783041636E+02  0.34625241383E+03  0.35408311393E+03  0.00000000000E+00 0. -1.
<scales pt_clust_5="13000.00000" pt_clust_6="13000.00000" pt_clust_7="13000.00000" pt_clust_8="13000.00000" pt_clust_9="74.05483"></scales>
<clustering>
<clus scale="   74.055">  1  9  2 -1</clus>
<clus scale="   89.823">  5  6 -1 -1</clus>
<clus scale="   92.188">  7  8 -1 -1</clus>
<clus scale="  118.225">  2  5  1 -1</clus>
<clus scale="   74.055">  1  5  2 -1</clus>
</clustering>
</event>
<event>
 9    1  0.1315259E-005  0.2919524E+03  0.7546771E-02  0.1089503E+00
         21   -1    0    0  501  502  0.00000000000E+00  0.00000000000E+00  0.46384251334E+03  0.46384251334E+03  0.00000000000E+00 0.  1.
          1   -1    0    0  502    0 -0.00000000000E+00 -0.00000000000E+00 -0.45471439998E+03  0.45471439998E+03  0.00000000000E+00 0. -1.
         23    2    1    2    0    0  0.23243478721E+03  0.16323721298E+03 -0.33064332757E+03  0.44574708748E+03  0.93236998682E+02 0.  0.
         23    2    1    2    0    0 -0.21187860967E+03 -0.11937319458E+03  0.20723998590E+03  0.33170279159E+03  0.89083249669E+02 0.  0.
        -11    1    3    3    0    0  0.53145002349E+02  0.26516240171E+02 -0.21605271820E+02  0.63200395868E+02  0.00000000000E+00 0.  1.
         11    1    3    3    0    0  0.17928978486E+03  0.13672097281E+03 -0.30903805575E+03  0.38254669161E+03  0.00000000000E+00 0. -1.
        -13    1    4    4    0    0 -0.18751683900E+03 -0.84121171531E+02  0.20261476870E+03  0.28860298146E+03  0.00000000000E+00 0.  1.
         13    1    4    4    0    0 -0.24361770664E+02 -0.35252023054E+02  0.46252171987E+01  0.43099810132E+02  0.00000000000E+00 0. -1.
          1    1    1    2  501    0 -0.20556177546E+02 -0.43864018394E+02  0.13253145503E+03  0.14110703426E+03  0.00000000000E+00 0. -1.
<scales pt_clust_5="13000.00000" pt_clust_6="13000.00000" pt_clust_7="13000.00000" pt_clust_8="13000.00000" pt_clust_9="48.44181"></scales>
<clustering>
<clus scale="   48.442">  1  9  2 -1</clus>
<clus scale="   89.083">  7  8 -1 -1</clus>
<clus scale="   93.237">  5  6 -1 -1</clus>
<clus scale="  290.653">  1  7  2 -1</clus>
<clus scale="   48.442">  1  5  2 -1</clus>
</clustering>
</event>
<event>
 9    1  0.1315259E-005  0.2488974E+03  0.7546771E-02  0.1114196E+00
          2   -1    0    0  502    0 -0.00000000000E+00  0.00000000000E+00  0.49524390769E+03  0.49524390769E+03  0.00000000000E+00 0. -1.
         21   -1    0    0  501  502  0.00000000000E+00 -0.00000000000E+00 -0.31241543486E+03  0.31241543486E+03  0.00000000000E+00 0. -1.
         23    2    1    2    0    0 -0.21047437177E+03 -0.62784625901E+02  0.31280249576E+03  0.39310472206E+03  0.91894236651E+02 0.  0.
         23    2    1    2    0    0  0.29152434948E+03  0.35328589725E+02 -0.87152064459E+02  0.31886421901E+03  0.88568347790E+02 0.  0.
        -11    1    4    4    0    0  0.20817310740E+03  0.61520796468E+02 -0.44283704035E+02  0.22154434654E+03  0.00000000000E+00 0. -1.
         11    1    4    4    0    0  0.83351242088E+02 -0.26192206744E+02 -0.42868360424E+02  0.97319872467E+02  0.00000000000E+00 0.  1.
        -13    1    3    3    0    0 -0.16127456963E+03 -0.44936175304E+02  0.15996568428E+03  0.23155510534E+03  0.00000000000E+00 0. -1.
         13    1    3    3    0    0 -0.49199802134E+02 -0.17848450597E+02  0.15283681148E+03  0.16154961672E+03  0.00000000000E+00 0.  1.
          2    1    1    2  501    0 -0.81049977715E+02  0.27456036176E+02 -0.42821958469E+02  0.95690401489E+02  0.00000000000E+00 0. -1.
<scales pt_clust_5="13000.00000" pt_clust_6="13000.00000" pt_clust_7="13000.00000" pt_clust_8="13000.00000" pt_clust_9="85.57414"></scales>
<clustering>
<clus scale="   85.574">  2  9  1 -1</clus>
<clus scale="   88.568">  5  6 -1 -1</clus>
<clus scale="   91.894">  7  8 -1 -1</clus>
<clus scale="  247.689">  2  5  1 -1</clus>
<clus scale="   85.574">  2  5  1 -1</clus>
</clustering>
</event>
<event>
 9    1  0.1315259E-005  0.9900912E+02  0.7546771E-02  0.1284793E+00
          2   -1    0    0  502    0 -0.00000000000E+00  0.00000000000E+00  0.34115314521E+03  0.34115314521E+03  0.00000000000E+00 0. -1.
         21   -1    0    0  501  502  0.00000000000E+00 -0.00000000000E+00 -0.87590421946E+02  0.87590421946E+02  0.00000000000E+00 0. -1.
         23    2    1    2    0    0 -0.37944331239E+02  0.35704048102E+02  0.17826771843E+03  0.20837390396E+03  0.94476203857E+02 0.  0.
         23    2    1    2    0    0 -0.39920472862E+02  0.29066109887E+02  0.47894456356E+02  0.11544640009E+03  0.92711970354E+02 0.  0.
        -11    1    4    4    0    0 -0.23282814148E+02 -0.33217377206E+02  0.17690257766E+02  0.44254138823E+02  0.00000000000E+00 0.  1.
         11    1    4    4    0    0 -0.16637658714E+02  0.62283487094E+02  0.30204198590E+02  0.71192261268E+02  0.00000000000E+00 0. -1.
        -13    1    3    3    0    0 -0.61679804032E+02  0.32336083009E+02  0.16879448678E+03  0.18259682159E+03  0.00000000000E+00 0. -1.
         13    1    3    3    0    0  0.23735472793E+02  0.33679650932E+01  0.94732316512E+01  0.25777082370E+02  0.00000000000E+00 0.  1.
          2    1    1    2  501    0  0.77864804100E+02 -0.64770157990E+02  0.27400548483E+02  0.10492326311E+03  0.00000000000E+00 0. -1.
<scales pt_clust_5="13000.00000" pt_clust_6="13000.00000" pt_clust_7="13000.00000" pt_clust_8="13000.00000" pt_clust_9="101.28228"></scales>
<clustering>
<clus scale="   92.712">  5  6 -1 -1</clus>
<clus scale="   94.476">  7  8 -1 -1</clus>
<clus scale="  101.282">  2  9  1 -1</clus>
<clus scale="  101.282">  2  5  1 -1</clus>
<clus scale="   99.009">  2  5  1 -1</clus>
</clustering>
</event>
<event>
 9    1  0.1315259E-005  0.2651860E+03  0.7546771E-02  0.1104276E+00
          2   -1    0    0  502    0 -0.00000000000E+00  0.00000000000E+00  0.54151602021E+03  0.54151602021E+03  0.00000000000E+00 0. -1.
         21   -1    0    0  501  502  0.00000000000E+00 -0.00000000000E+00 -0.38191790599E+03  0.38191790599E+03  0.00000000000E+00 0. -1.
         23    2    1    2    0    0  0.13313356965E+03  0.20781735702E+03  0.33990944590E+03  0.42901625407E+03  0.87200422017E+02 0.  0.
         23    2    1    2    0    0 -0.26197734492E+03 -0.13370021082E+03 -0.15054208729E+03  0.34282519969E+03  0.91423858334E+02 0.  0.
        -11    1    3    3    0    0  0.76841137896E+02  0.67934443661E+02  0.86648634482E+02  0.13426702859E+03  0.00000000000E+00 0. -1.
         11    1    3    3    0    0  0.56292431752E+02  0.13988291336E+03  0.25326081142E+03  0.29474922548E+03  0.00000000000E+00 0.  1.
        -11    1    4    4    0    0 -0.15635183176E+03 -0.12163138132E+03 -0.72495055348E+02  0.21093985225E+03  0.00000000000E+00 0. -1.
         11    1    4    4    0    0 -0.10562551316E+03 -0.12068829505E+02 -0.78047031940E+02  0.13188534744E+03  0.00000000000E+00 0.  1.
          2    1    1    2  501    0  0.12884377527E+03 -0.74117146202E+02 -0.29769244396E+02  0.15159247244E+03  0.00000000000E+00 0. -1.
<scales pt_clust_5="13000.00000" pt_clust_6="13000.00000" pt_clust_7="13000.00000" pt_clust_8="13000.00000" pt_clust_9="148.64074"></scales>
<clustering>
<clus scale="   87.200">  5  6 -1 -1</clus>
<clus scale="   91.424">  7  8 -1 -1</clus>
<clus scale="  148.641">  2  9  1 -1</clus>
<clus scale="  263.760">  1  5  2 -1</clus>
<clus scale="  148.641">  2  5  1 -1</clus>
</clustering>
</event>
<event>
 9    1  0.1315259E-005  0.1450287E+03  0.7546771E-02  0.1206926E+00
          2   -1    0    0  502    0 -0.00000000000E+00  0.00000000000E+00  0.55591009460E+03  0.55591009460E+03  0.00000000000E+00 0. -1.
         21   -1    0    0  501  502  0.00000000000E+00 -0.00000000000E+00 -0.67515004721E+02  0.67515004721E+02  0.00000000000E+00 0.  1.
         23    2    1    2    0    0 -0.54757726328E+02 -0.86885541222E+02  0.27382354010E+03  0.30643023145E+03  0.91502184510E+02 0.  0.
         23    2    1    2    0    0  0.54330361122E+02  0.11502133370E+03  0.23507106550E+03  0.28218056615E+03  0.90475249272E+02 0.  0.
        -11    1    3    3    0    0 -0.13033539749E+02  0.18962719865E+02  0.34941888531E+02  0.41837704015E+02  0.00000000000E+00 0. -1.
         11    1    3    3    0    0 -0.41724186578E+02 -0.10584826109E+03  0.23888165157E+03  0.26459252744E+03  0.00000000000E+00 0.  1.
        -13    1    4    4    0    0  0.24370050060E+02  0.16170937896E+02  0.45801152733E+01  0.29603648901E+02  0.00000000000E+00 0.  1.
         13    1    4    4    0    0  0.29960311062E+02  0.98850395805E+02  0.23049095023E+03  0.25257691725E+03  0.00000000000E+00 0. -1.
          2    1    1    2  501    0  0.42736520623E+00 -0.28135792479E+02 -0.20499515720E+02  0.34814301719E+02  0.00000000000E+00 0. -1.
<scales pt_clust_5="13000.00000" pt_clust_6="13000.00000" pt_clust_7="13000.00000" pt_clust_8="13000.00000" pt_clust_9="28.13904"></scales>
<clustering>
<clus scale="   28.139">  2  9  1 -1</clus>
<clus scale="   90.475">  7  8 -1 -1</clus>
<clus scale="   91.502">  5  6 -1 -1</clus>
<clus scale="  144.383">  2  7  1 -1</clus>
<clus scale="   28.139">  2  5  1 -1</clus>
</clustering>
</event>
<event>
 9    1  0.1315259E-005  0.9966814E+02  0.7546771E-02  0.1281084E+00
         21   -1    0    0  501  502  0.00000000000E+00  0.00000000000E+00  0.18032443506E+03  0.18032443506E+03  0.00000000000E+00 0. -1.
          1   -1    0    0  502    0 -0.00000000000E+00 -0.00000000000E+00 -0.54750671692E+03  0.54750671692E+03  0.00000000000E+00 0. -1.
         23    2    1    2    0    0  0.15306638047E+02 -0.39660518507E+02 -0.31931290801E+03  0.33464775259E+03  0.90670475885E+02 0.  0.
         23    2    1    2    0    0  0.13919466497E+02  0.42556480784E+02 -0.20748500912E+03  0.23088828914E+03  0.90854650122E+02 0.  0.
        -11    1    4    4    0    0  0.36786387127E+02  0.60012827099E+02 -0.16694652417E+03  0.18117924723E+03  0.00000000000E+00 0. -1.
         11    1    4    4    0    0 -0.22866920630E+02 -0.17456346314E+02 -0.40538484950E+02  0.49709041911E+02  0.00000000000E+00 0.  1.
        -13    1    3    3    0    0  0.52518621890E+02 -0.14004851080E+02 -0.19221178825E+03  0.19974912526E+03  0.00000000000E+00 0.  1.
         13    1    3    3    0    0 -0.37211983843E+02 -0.25655667427E+02 -0.12710111976E+03  0.13489862734E+03  0.00000000000E+00 0. -1.
          1    1    1    2  501    0 -0.29226104544E+02 -0.28959622769E+01  0.15961563528E+03  0.16229511024E+03  0.00000000000E+00 0. -1.
<scales pt_clust_5="13000.00000" pt_clust_6="13000.00000" pt_clust_7="13000.00000" pt_clust_8="13000.00000" pt_clust_9="29.36923"></scales>
<clustering>
<clus scale="   29.369">  1  9  2 -1</clus>
<clus scale="   90.670">  7  8 -1 -1</clus>
<clus scale="   90.855">  5  6 -1 -1</clus>
<clus scale="   99.500">  2  7  1 -1</clus>
<clus scale="   29.369">  1  5  2 -1</clus>
</clustering>
</event>
<event>
 9    1  0.1315259E-005  0.1190331E+03  0.7546771E-02  0.1246770E+00
          2   -1    0    0  502    0 -0.00000000000E+00  0.00000000000E+00  0.75263002266E+03  0.75263002266E+03  0.00000000000E+00 0. -1.
         21   -1    0    0  501  502  0.00000000000E+00 -0.00000000000E+00 -0.53236546539E+02  0.53236546539E+02  0.00000000000E+00 0.  1.
         23    2    1    2    0    0  0.11238349749E+01  0.91335717542E+02  0.49073010690E+03  0.50738209301E+03  0.90978427071E+02 0.  0.
         23    2    1    2    0    0 -0.17294813381E+02 -0.56570330598E+02  0.23178492116E+03  0.25371016619E+03  0.84529792858E+02 0.  0.
        -11    1    3    3    0    0 -0.37161462419E+02  0.79276676061E+02  0.36721495946E+03  0.37750840005E+03  0.00000000000E+00 0. -1.
         11    1    3    3    0    0  0.38285297394E+02  0.12059041481E+02  0.12351514743E+03  0.12987369296E+03  0.00000000000E+00 0.  1.
        -11    1    4    4    0    0  0.46633876459E+01  0.19593582028E+02  0.79732410268E+02  0.82236931413E+02  0.00000000000E+00 0.  1.
         11    1    4    4    0    0 -0.21958201027E+02 -0.76163912625E+02  0.15205251089E+03  0.17147323478E+03  0.00000000000E+00 0. -1.
          2    1    1    2  501    0  0.16170978406E+02 -0.34765386944E+02 -0.23121551928E+02  0.44774309995E+02  0.00000000000E+00 0. -1.
<scales pt_clust_5="13000.00000" pt_clust_6="13000.00000" pt_clust_7="13000.00000" pt_clust_8="13000.00000" pt_clust_9="38.34231"></scales>
<clustering>
<clus scale="   38.342">  2  9  1 -1</clus>
<clus scale="   84.530">  7  8 -1 -1</clus>
<clus scale="   90.978">  5  6 -1 -1</clus>
<clus scale="  114.180">  2  7  1 -1</clus>
<clus scale="   38.342">  2  5  1 -1</clus>
</clustering>
</event>
<event>
 9    1  0.1315259E-005  0.1579703E+03  0.7546771E-02  0.1191454E+00
         21   -1    0    0  501  502  0.00000000000E+00  0.00000000000E+00  0.35038853719E+03  0.35038853719E+03  0.00000000000E+00 0.  1.
          3   -1    0    0  502    0 -0.00000000000E+00 -0.00000000000E+00 -0.13535981165E+03  0.13535981165E+03  0.00000000000E+00 0. -1.
         23    2    1    2    0    0  0.12627341408E+03  0.15431306124E+02 -0.28618897786E+02  0.15992669647E+03  0.92598091897E+02 0.  0.
         23    2    1    2    0    0 -0.13235795543E+03  0.26054251286E+02  0.14070996945E+03  0.21467205183E+03  0.89929650035E+02 0.  0.
        -11    1    4    4    0    0 -0.87802703241E+02 -0.14910374728E+01  0.13625350418E+03  0.16210044815E+03  0.00000000000E+00 0.  1.
         11    1    4    4    0    0 -0.44555252192E+02  0.27545288759E+02  0.44564652769E+01  0.52571603679E+02  0.00000000000E+00 0. -1.
        -13    1    3    3    0    0  0.49859079844E+02 -0.39130592020E+02 -0.13875043088E+02  0.64881799415E+02  0.00000000000E+00 0.  1.
         13    1    3    3    0    0  0.76414334235E+02  0.54561898143E+02 -0.14743854698E+02  0.95044897059E+02  0.00000000000E+00 0. -1.
          3    1    1    2  501    0  0.60845413543E+01 -0.41485557409E+02  0.10293765387E+03  0.11114960054E+03  0.00000000000E+00 0. -1.
<scales pt_clust_5="13000.00000" pt_clust_6="13000.00000" pt_clust_7="13000.00000" pt_clust_8="13000.00000" pt_clust_9="41.92938"></scales>
<clustering>
<clus scale="   41.929">  1  9  2 -1</clus>
<clus scale="   89.930">  5  6 -1 -1</clus>
<clus scale="   92.598">  7  8 -1 -1</clus>
<clus scale="  156.421">  1  5  2 -1</clus>
<clus scale="   41.929">  1  5  2 -1</clus>
</clustering>
</event>
<event>
 9    1  0.1315259E-005  0.1298827E+03  0.7546771E-02  0.1239748E+00
         21   -1    0    0  501  502  0.00000000000E+00  0.00000000000E+00  0.38957690503E+02  0.38957690503E+02  0.00000000000E+00 0. -1.
          2   -1    0    0  502    0 -0.00000000000E+00 -0.00000000000E+00 -0.71557076466E+03  0.71557076466E+03  0.00000000000E+00 0. -1.
         23    2    1    2    0    0  0.25209669934E+01 -0.33093472425E+02 -0.26419244105E+03  0.28294189166E+03  0.95691875070E+02 0.  0.
         23    2    1    2    0    0 -0.78056076706E+02 -0.34488046265E+02 -0.19611512646E+03  0.23271235671E+03  0.91715438681E+02 0.  0.
        -11    1    3    3    0    0  0.52620964815E+01 -0.66942500041E+02 -0.16744749626E+03  0.18040967817E+03  0.00000000000E+00 0. -1.
         11    1    3    3    0    0 -0.27411294882E+01  0.33849027616E+02 -0.96744944785E+02  0.10253221349E+03  0.00000000000E+00 0.  1.
        -13    1    4    4    0    0 -0.32352267767E+02 -0.21566159615E+02 -0.17748471607E+03  0.18169367878E+03  0.00000000000E+00 0.  1.
         13    1    4    4    0    0 -0.45703808939E+02 -0.12921886650E+02 -0.18630410388E+02  0.51018677926E+02  0.00000000000E+00 0. -1.
          2    1    1    2  501    0  0.75535109713E+02  0.67581518690E+02 -0.21630550665E+03  0.23887420680E+03  0.00000000000E+00 0. -1.
<scales pt_clust_5="13000.00000" pt_clust_6="13000.00000" pt_clust_7="13000.00000" pt_clust_8="13000.00000" pt_clust_9="91.96624"></scales>
<clustering>
<clus scale="   91.715">  7  8 -1 -1</clus>
<clus scale="   95.692">  5  6 -1 -1</clus>
<clus scale="  101.284">  2  5  1 -1</clus>
<clus scale="   91.966">  1  9  2 -1</clus>
<clus scale="   91.966">  1  5  2 -1</clus>
</clustering>
</event>
<event>
 9    1  0.1315259E-005  0.1005215E+03  0.7546771E-02  0.1279333E+00
         21   -1    0    0  501  502  0.00000000000E+00  0.00000000000E+00  0.13929151358E+03  0.13929151358E+03  0.00000000000E+00 0. -1.
          1   -1    0    0  502    0 -0.00000000000E+00 -0.00000000000E+00 -0.20082243551E+03  0.20082243551E+03  0.00000000000E+00 0. -1.
         23    2    1    2    0    0  0.15990878284E+02 -0.42008810653E+02 -0.89854346744E+02  0.13585843109E+03  0.91450868272E+02 0.  0.
         23    2    1    2    0    0  0.12455978344E+02  0.41020479399E+02 -0.55990840082E+02  0.11526621688E+03  0.91178371633E+02 0.  0.
        -11    1    3    3    0    0  0.41204947669E+02  0.44589184801E+01 -0.14707313334E+02  0.43977661738E+02  0.00000000000E+00 0. -1.
         11    1    3    3    0    0 -0.25214069385E+02 -0.46467729133E+02 -0.75147033410E+02  0.91880769348E+02  0.00000000000E+00 0.  1.
        -13    1    4    4    0    0  0.27508261837E+02  0.56584046978E+02 -0.66199826545E+02  0.91328395783E+02  0.00000000000E+00 0. -1.
         13    1    4    4    0    0 -0.15052283493E+02 -0.15563567579E+02  0.10208986464E+02  0.23937821095E+02  0.00000000000E+00 0.  1.
          1    1    1    2  501    0 -0.28446856628E+02  0.98833125400E+00  0.84314264892E+02  0.88989301127E+02  0.00000000000E+00 0. -1.
<scales pt_clust_5="13000.00000" pt_clust_6="13000.00000" pt_clust_7="13000.00000" pt_clust_8="13000.00000" pt_clust_9="28.46402"></scales>
<clustering>
<clus scale="   28.464">  1  9  2 -1</clus>
<clus scale="   91.178">  7  8 -1 -1</clus>
<clus scale="   91.451">  5  6 -1 -1</clus>
<clus scale="  100.274">  1  7  2 -1</clus>
<clus scale="   28.464">  1  5  2 -1</clus>
</clustering>
</event>
<event>
 9    1  0.1315259E-005  0.1298277E+03  0.7546771E-02  0.1227767E+00
          1   -1    0    0  502    0 -0.00000000000E+00  0.00000000000E+00  0.77418896146E+03  0.77418896146E+03  0.00000000000E+00 0. -1.
         21   -1    0    0  501  502  0.00000000000E+00 -0.00000000000E+00 -0.90730735975E+02  0.90730735975E+02  0.00000000000E+00 0. -1.
         23    2    1    2    0    0  0.64897312067E+02  0.28943778321E+02  0.34719352074E+03  0.36601311345E+03  0.91503305719E+02 0.  0.
         23    2    1    2    0    0 -0.81512744291E+02 -0.12923363297E+03  0.35351731574E+03  0.39579606018E+03  0.91292767231E+02 0.  0.
        -11    1    3    3    0    0  0.49692063879E+02 -0.22493505454E+02  0.10938519358E+03  0.12223084543E+03  0.00000000000E+00 0. -1.
         11    1    3    3    0    0  0.15205248187E+02  0.51437283775E+02  0.23780832716E+03  0.24378226802E+03  0.00000000000E+00 0.  1.
        -13    1    4    4    0    0 -0.14455226656E+02 -0.58727477125E+02  0.54741638286E+02  0.81575223625E+02  0.00000000000E+00 0.  1.
         13    1    4    4    0    0 -0.67057517636E+02 -0.70506155843E+02  0.29877567746E+03  0.31422083655E+03  0.00000000000E+00 0. -1.
          1    1    1    2  501    0  0.16615432225E+02  0.10028985465E+03 -0.17252611000E+02  0.10311052381E+03  0.00000000000E+00 0. -1.
<scales pt_clust_5="13000.00000" pt_clust_6="13000.00000" pt_clust_7="13000.00000" pt_clust_8="13000.00000" pt_clust_9="101.65691"></scales>
<clustering>
<clus scale="   91.293">  7  8 -1 -1</clus>
<clus scale="   91.503">  5  6 -1 -1</clus>
<clus scale="  101.657">  2  9  1 -1</clus>
<clus scale="  129.679">  2  7  1 -1</clus>
<clus scale="  101.657">  2  5  1 -1</clus>
</clustering>
</event>
<event>
 9    1  0.1315259E-005  0.1062418E+03  0.7546771E-02  0.1272462E+00
          1   -1    0    0  502    0 -0.00000000000E+00  0.00000000000E+00  0.28094837095E+03  0.28094837095E+03  0.00000000000E+00 0. -1.
         21   -1    0    0  501  502  0.00000000000E+00 -0.00000000000E+00 -0.56983207304E+02  0.56983207304E+02  0.00000000000E+00 0.  1.
         23    2    1    2    0    0 -0.43328941483E+02 -0.15277836158E+02  0.15970156941E+03  0.19431401367E+03  0.10071015436E+03 0.  0.
         23    2    1    2    0    0  0.15469390949E+02  0.84481643810E+01  0.67868307235E+02  0.11470748108E+03  0.90780094466E+02 0.  0.
        -11    1    4    4    0    0 -0.21141937605E+02 -0.29703391832E+02  0.42696770053E+02  0.56145232968E+02  0.00000000000E+00 0.  1.
         11    1    4    4    0    0  0.36611328554E+02  0.38151556213E+02  0.25171537181E+02  0.58562248113E+02  0.00000000000E+00 0. -1.
        -13    1    3    3    0    0 -0.49828295411E+02  0.11146848819E+02  0.24926835408E+02  0.56819524687E+02  0.00000000000E+00 0.  1.
         13    1    3    3    0    0  0.64993539285E+01 -0.26424684977E+02  0.13477473400E+03  0.13749448899E+03  0.00000000000E+00 0. -1.
          1    1    1    2  501    0  0.27859550533E+02  0.68296717771E+01 -0.36047129893E+01  0.28910083505E+02  0.00000000000E+00 0. -1.
<scales pt_clust_5="13000.00000" pt_clust_6="13000.00000" pt_clust_7="13000.00000" pt_clust_8="13000.00000" pt_clust_9="28.68447"></scales>
<clustering>
<clus scale="   28.684">  2  9  1 -1</clus>
<clus scale="   90.780">  5  6 -1 -1</clus>
<clus scale="   96.880">  2  5  1 -1</clus>
<clus scale="  100.710">  7  8 -1 -1</clus>
<clus scale="   28.684">  2  5  1 -1</clus>
</clustering>
</event>
<event>
 9    1  0.1315259E-005  0.9540783E+02  0.7546771E-02  0.1292622E+00
         21   -1    0    0  501  502  0.00000000000E+00  0.00000000000E+00  0.10023807236E+03  0.10023807236E+03  0.00000000000E+00 0.  1.
          2   -1    0    0  502    0 -0.00000000000E+00 -0.00000000000E+00 -0.24349524404E+03  0.24349524404E+03  0.00000000000E+00 0. -1.
         23    2    1    2    0    0 -0.14623700743E+02  0.10217150921E+02 -0.18196968851E+03  0.20323810654E+03  0.88738478778E+02 0.  0.
         23    2    1    2    0    0  0.44830607596E+02 -0.89323414294E+01  0.21859885308E+02  0.10588135214E+03  0.92970081453E+02 0.  0.
        -13    1    4    4    0    0  0.63890583339E+02 -0.54759113676E+00  0.42361041152E+02  0.76660056764E+02  0.00000000000E+00 0.  1.
         13    1    4    4    0    0 -0.19059975743E+02 -0.83847502927E+01 -0.20501155844E+02  0.29221295381E+02  0.00000000000E+00 0. -1.
        -13    1    3    3    0    0 -0.10662892889E+02 -0.23247972609E+02 -0.91508343825E+01  0.27164375294E+02  0.00000000000E+00 0.  1.
         13    1    3    3    0    0 -0.39608078540E+01  0.33465123531E+02 -0.17281885413E+03  0.17607373124E+03  0.00000000000E+00 0. -1.
          2    1    1    2  501    0 -0.30206906853E+02 -0.12848094918E+01  0.16852631518E+02  0.34613857718E+02  0.00000000000E+00 0. -1.
<scales pt_clust_5="13000.00000" pt_clust_6="13000.00000" pt_clust_7="13000.00000" pt_clust_8="13000.00000" pt_clust_9="30.23422"></scales>
<clustering>
<clus scale="   30.234">  1  9  2 -1</clus>
<clus scale="   88.738">  7  8 -1 -1</clus>
<clus scale="   91.289">  2  7  1 -1</clus>
<clus scale="   92.970">  5  6 -1 -1</clus>
<clus scale="   30.234">  1  5  2 -1</clus>
</clustering>
</event>
<event>
 9    1  0.1315259E-005  0.1050787E+03  0.7546771E-02  0.1274993E+00
          1   -1    0    0  502    0 -0.00000000000E+00  0.00000000000E+00  0.14469531939E+03  0.14469531939E+03  0.00000000000E+00 0. -1.
         21   -1    0    0  501  502  0.00000000000E+00 -0.00000000000E+00 -0.17624128244E+03  0.17624128244E+03  0.00000000000E+00 0.  1.
         23    2    1    2    0    0  0.49943447036E+02 -0.10590522204E+02  0.67839181826E+02  0.12089916802E+03  0.86069432286E+02 0.  0.
         23    2    1    2    0    0 -0.14032242808E+02  0.24517640913E+02 -0.82369858585E+01  0.10108509116E+03  0.96707441100E+02 0.  0.
        -11    1    4    4    0    0  0.84201990374E+01  0.57429231722E+02 -0.16611934109E+02  0.60373609821E+02  0.00000000000E+00 0.  1.
         11    1    4    4    0    0 -0.22452441846E+02 -0.32911590809E+02  0.83749482503E+01  0.40711481337E+02  0.00000000000E+00 0. -1.
        -13    1    3    3    0    0  0.39557608860E+02  0.20325119714E+02  0.75291013283E+02  0.87445134749E+02  0.00000000000E+00 0.  1.
         13    1    3    3    0    0  0.10385838177E+02 -0.30915641919E+02 -0.74518314572E+01  0.33454033268E+02  0.00000000000E+00 0. -1.
          1    1    1    2  501    0 -0.35911204228E+02 -0.13927118708E+02 -0.91148159014E+02  0.98952342652E+02  0.00000000000E+00 0. -1.
<scales pt_clust_5="13000.00000" pt_clust_6="13000.00000" pt_clust_7="13000.00000" pt_clust_8="13000.00000" pt_clust_9="38.51726"></scales>
<clustering>
<clus scale="   38.517">  2  9  1 -1</clus>
<clus scale="   86.069">  7  8 -1 -1</clus>
<clus scale="   95.379">  1  7  2 -1</clus>
<clus scale="   96.707">  5  6 -1 -1</clus>
<clus scale="   38.517">  2  5  1 -1</clus>
</clustering>
</event>
<event>
 9    1  0.1315259E-005  0.9727758E+02  0.7546771E-02  0.1287611E+00
          1   -1    0    0  502    0 -0.00000000000E+00  0.00000000000E+00  0.16931384710E+03  0.16931384710E+03  0.00000000000E+00 0. -1.
         21   -1    0    0  501  502  0.00000000000E+00 -0.00000000000E+00 -0.83518701901E+02  0.83518701901E+02  0.00000000000E+00 0.  1.
         23    2    1    2    0    0 -0.47874036855E+01  0.28800686064E+02  0.64249905534E+02  0.11314518042E+03  0.88438581739E+02 0.  0.
         23    2    1    2    0    0 -0.21369090738E+02 -0.39338397902E+02  0.36164914178E+02  0.10792354554E+03  0.91298647719E+02 0.  0.
        -11    1    3    3    0    0 -0.10259698493E+02 -0.28604113209E+02  0.40849546361E+02  0.50913084207E+02  0.00000000000E+00 0.  1.
         11    1    3    3    0    0  0.54722948070E+01  0.57404799273E+02  0.23400359173E+02  0.62232096216E+02  0.00000000000E+00 0. -1.
        -11    1    4    4    0    0 -0.37803116455E+02 -0.62553072519E+02  0.23358727895E+02  0.76730650096E+02  0.00000000000E+00 0.  1.
         11    1    4    4    0    0  0.16434025717E+02  0.23214674617E+02  0.12806186283E+02  0.31192895441E+02  0.00000000000E+00 0. -1.
          1    1    1    2  501    0  0.26156494423E+02  0.10537711838E+02 -0.14619674513E+02  0.31763823041E+02  0.00000000000E+00 0. -1.
<scales pt_clust_5="13000.00000" pt_clust_6="13000.00000" pt_clust_7="13000.00000" pt_clust_8="13000.00000" pt_clust_9="28.19939"></scales>
<clustering>
<clus scale="   28.199">  2  9  1 -1</clus>
<clus scale="   88.439">  5  6 -1 -1</clus>
<clus scale="   91.299">  7  8 -1 -1</clus>
<clus scale="   94.598">  1  5  2 -1</clus>
<clus scale="   28.199">  2  5  1 -1</clus>
</clustering>
</event>
<event>
 9    1  0.1315259E-005  0.1145134E+03  0.7546771E-02  0.1261766E+00
         21   -1    0    0  501  502  0.00000000000E+00  0.00000000000E+00  0.97048405128E+02  0.97048405128E+02  0.00000000000E+00 0. -1.
          1   -1    0    0  502    0 -0.00000000000E+00 -0.00000000000E+00 -0.31263392541E+03  0.31263392541E+03  0.00000000000E+00 0. -1.
         23    2    1    2    0    0 -0.36443975744E+00  0.31882531984E+02 -0.17521492830E+03  0.20963689846E+03  0.11059262829E+03 0.  0.
         23    2    1    2    0    0  0.28368949692E+02 -0.20381454956E+02 -0.96153457576E+02  0.13657689307E+03  0.90485133056E+02 0.  0.
        -11    1    4    4    0    0  0.54571454627E+02  0.99159284646E+01 -0.67301235748E+02  0.87211384753E+02  0.00000000000E+00 0. -1.
         11    1    4    4    0    0 -0.26202504935E+02 -0.30297383421E+02 -0.28852221828E+02  0.49365508317E+02  0.00000000000E+00 0.  1.
        -11    1    3    3    0    0 -0.24508466102E+02 -0.20393213937E+02 -0.81234859257E+01  0.32901962083E+02  0.00000000000E+00 0.  1.
         11    1    3    3    0    0  0.24144026345E+02  0.52275745920E+02 -0.16709144238E+03  0.17673493637E+03  0.00000000000E+00 0. -1.
          1    1    1    2  501    0 -0.28004509935E+02 -0.11501077027E+02  0.55782865598E+02  0.63468539008E+02  0.00000000000E+00 0. -1.
<scales pt_clust_5="13000.00000" pt_clust_6="13000.00000" pt_clust_7="13000.00000" pt_clust_8="13000.00000" pt_clust_9="30.27420"></scales>
<clustering>
<clus scale="   30.274">  1  9  2 -1</clus>
<clus scale="   90.485">  5  6 -1 -1</clus>
<clus scale="   95.237">  1  5  2 -1</clus>
<clus scale="  110.593">  7  8 -1 -1</clus>
<clus scale="   30.274">  1  5  2 -1</clus>
</clustering>
</event>
<event>
 9    1  0.1315259E-005  0.9772099E+02  0.7546771E-02  0.1287101E+00
         -4   -1    0    0    0  501 -0.00000000000E+00  0.00000000000E+00  0.33497827736E+02  0.33497827736E+02  0.00000000000E+00 0.  1.
         21   -1    0    0  501  502  0.00000000000E+00 -0.00000000000E+00 -0.38754750045E+03  0.38754750045E+03  0.00000000000E+00 0. -1.
         23    2    1    2    0    0 -0.15221834522E+02 -0.82309064153E+01 -0.10158247837E+03  0.13757828276E+03  0.91155536912E+02 0.  0.
         23    2    1    2    0    0  0.17337663843E+02  0.32548802169E+02 -0.17681559756E+03  0.20397490189E+03  0.94773339866E+02 0.  0.
        -11    1    4    4    0    0 -0.31655105700E+02  0.19448290798E+01 -0.21635192064E+02  0.38391530481E+02  0.00000000000E+00 0.  1.
         11    1    4    4    0    0  0.48992769544E+02  0.30603973089E+02 -0.15518040550E+03  0.16558337141E+03  0.00000000000E+00 0. -1.
        -13    1    3    3    0    0  0.22915608593E+02 -0.30760119513E+02 -0.79088147933E+02  0.87899062641E+02  0.00000000000E+00 0. -1.
         13    1    3    3    0    0 -0.38137443115E+02  0.22529213098E+02 -0.22494330435E+02  0.49679220121E+02  0.00000000000E+00 0.  1.
         -4    1    1    2    0  502 -0.21158293211E+01 -0.24317895754E+02 -0.75651596782E+02  0.79492143532E+02  0.00000000000E+00 0.  1.
<scales pt_clust_5="13000.00000" pt_clust_6="13000.00000" pt_clust_7="13000.00000" pt_clust_8="13000.00000" pt_clust_9="24.40977"></scales>
<clustering>
<clus scale="   24.410">  2  9  1 -1</clus>
<clus scale="   91.156">  7  8 -1 -1</clus>
<clus scale="   94.216">  1  7  2 -1</clus>
<clus scale="   94.773">  5  6 -1 -1</clus>
<clus scale="   24.410">  2  5  1 -1</clus>
</clustering>
</event>
<event>
 9    1  0.1315259E-005  0.2539280E+03  0.7546771E-02  0.1110855E+00
         21   -1    0    0  501  502  0.00000000000E+00  0.00000000000E+00  0.35089562630E+03  0.35089562630E+03  0.00000000000E+00 0.  1.
          2   -1    0    0  502    0 -0.00000000000E+00 -0.00000000000E+00 -0.93562730432E+03  0.93562730432E+03  0.00000000000E+00 0. -1.
         23    2    1    2    0    0  0.19560509856E+03  0.11675551854E+03 -0.63584639542E+03  0.68156484891E+03  0.91306073255E+02 0.  0.
         23    2    1    2    0    0 -0.24194435966E+03 -0.11271071969E+03 -0.20243318731E+03  0.34717866535E+03  0.91175933488E+02 0.  0.
        -13    1    4    4    0    0 -0.16730619388E+03 -0.69796357026E+02 -0.81574474138E+02  0.19878955907E+03  0.00000000000E+00 0.  1.
         13    1    4    4    0    0 -0.74638165782E+02 -0.42914362668E+02 -0.12085871317E+03  0.14838910628E+03  0.00000000000E+00 0. -1.
        -13    1    3    3    0    0  0.13368766177E+03  0.11100894888E+03 -0.37341255679E+03  0.41186443790E+03  0.00000000000E+00 0.  1.
         13    1    3    3    0    0  0.61917436797E+02  0.57465696603E+01 -0.26243383863E+03  0.26970041101E+03  0.00000000000E+00 0. -1.
          2    1    1    2  501    0  0.46339261099E+02 -0.40447988421E+01  0.25354790471E+03  0.25777941636E+03  0.00000000000E+00 0. -1.
<scales pt_clust_5="13000.00000" pt_clust_6="13000.00000" pt_clust_7="13000.00000" pt_clust_8="13000.00000" pt_clust_9="46.51545"></scales>
<clustering>
<clus scale="   46.515">  1  9  2 -1</clus>
<clus scale="   91.176">  5  6 -1 -1</clus>
<clus scale="   91.306">  7  8 -1 -1</clus>
<clus scale="  253.881">  1  5  2 -1</clus>
<clus scale="   46.515">  1  5  2 -1</clus>
</clustering>
</event>
<event>
 9    1  0.1315259E-005  0.1465809E+03  0.7546771E-02  0.1215517E+00
          1   -1    0    0  502    0 -0.00000000000E+00  0.00000000000E+00  0.73405861173E+03  0.73405861173E+03  0.00000000000E+00 0. -1.
         21   -1    0    0  501  502  0.00000000000E+00 -0.00000000000E+00 -0.64551838255E+02  0.64551838255E+02  0.00000000000E+00 0. -1.
         23    2    1    2    0    0 -0.10283915389E+02  0.70495222506E+02  0.18747421688E+03  0.22069757608E+03  0.92116788808E+02 0.  0.
         23    2    1    2    0    0 -0.10500972462E+03 -0.37345502379E+02  0.41778661942E+03  0.44182809219E+03  0.90800192018E+02 0.  0.
        -11    1    4    4    0    0 -0.10079222735E+03  0.37920291448E+01  0.26507012102E+03  0.28361174453E+03  0.00000000000E+00 0.  1.
         11    1    4    4    0    0 -0.42174972701E+01 -0.41137531524E+02  0.15271649840E+03  0.15821634766E+03  0.00000000000E+00 0. -1.
        -11    1    3    3    0    0  0.16611489404E+02  0.65036446379E+02  0.59136633356E+02  0.89458495083E+02  0.00000000000E+00 0.  1.
         11    1    3    3    0    0 -0.26895404793E+02  0.54587761270E+01  0.12833758352E+03  0.13123908100E+03  0.00000000000E+00 0. -1.
          1    1    1    2  501    0  0.11529364001E+03 -0.33149720127E+02  0.64245937171E+02  0.13608478171E+03  0.00000000000E+00 0. -1.
<scales pt_clust_5="13000.00000" pt_clust_6="13000.00000" pt_clust_7="13000.00000" pt_clust_8="13000.00000" pt_clust_9="115.07080"></scales>
<clustering>
<clus scale="   90.800">  5  6 -1 -1</clus>
<clus scale="   92.117">  7  8 -1 -1</clus>
<clus scale="  116.451">  1  7  2 -1</clus>
<clus scale="  115.071">  2  9  1 -1</clus>
<clus scale="  115.071">  2  5  1 -1</clus>
</clustering>
</event>
<event>
 9    1  0.1315259E-005  0.1011666E+03  0.7546771E-02  0.1281554E+00
         -2   -1    0    0    0  501 -0.00000000000E+00  0.00000000000E+00  0.47888285535E+02  0.47888285535E+02  0.00000000000E+00 0.  1.
         21   -1    0    0  501  502  0.00000000000E+00 -0.00000000000E+00 -0.34493323659E+03  0.34493323659E+03  0.00000000000E+00 0. -1.
         23    2    1    2    0    0  0.42566232609E+01  0.13703651492E+02 -0.33244264141E+02  0.99148135282E+02  0.92299852252E+02 0.  0.
         23    2    1    2    0    0 -0.18155806345E+02 -0.30881877600E+02 -0.19996914604E+03  0.22612529766E+03  0.99305927336E+02 0.  0.
        -11    1    3    3    0    0 -0.33062583449E+02  0.17556375705E+02  0.12973945837E+02  0.39619238039E+02  0.00000000000E+00 0. -1.
         11    1    3    3    0    0  0.37319206710E+02 -0.38527242133E+01 -0.46218209978E+02  0.59528897242E+02  0.00000000000E+00 0.  1.
        -13    1    4    4    0    0 -0.48950702390E+02 -0.49145501279E+02 -0.12230570389E+03  0.14060631837E+03  0.00000000000E+00 0. -1.
         13    1    4    4    0    0  0.30794896044E+02  0.18263623679E+02 -0.77663442146E+02  0.85518979286E+02  0.00000000000E+00 0.  1.
         -2    1    1    2    0  502  0.13899183084E+02  0.17178226107E+02 -0.63831540876E+02  0.67548089190E+02  0.00000000000E+00 0.  1.
<scales pt_clust_5="13000.00000" pt_clust_6="13000.00000" pt_clust_7="13000.00000" pt_clust_8="13000.00000" pt_clust_9="22.09703"></scales>
<clustering>
<clus scale="   22.097">  2  9  1 -1</clus>
<clus scale="   92.300">  5  6 -1 -1</clus>
<clus scale="   94.299">  1  5  2 -1</clus>
<clus scale="   99.306">  7  8 -1 -1</clus>
<clus scale="   22.097">  2  5  1 -1</clus>
</clustering>
</event>
<event>
 9    1  0.1315259E-005  0.9728887E+02  0.7546771E-02  0.1289449E+00
          4   -1    0    0  502    0 -0.00000000000E+00  0.00000000000E+00  0.36936351014E+03  0.36936351014E+03  0.00000000000E+00 0.  1.
         21   -1    0    0  501  502  0.00000000000E+00 -0.00000000000E+00 -0.34533892673E+02  0.34533892673E+02  0.00000000000E+00 0.  1.
         23    2    1    2    0    0 -0.12066267001E+02 -0.53402448861E+01  0.20115402182E+03  0.22377515273E+03  0.97150735804E+02 0.  0.
         23    2    1    2    0    0 -0.59056362424E+01 -0.13262020104E+02  0.11810949773E+03  0.14993389185E+03  0.91211626198E+02 0.  0.
        -11    1    4    4    0    0  0.39126770428E+01  0.35296189019E+02  0.79679021629E+02  0.87234606027E+02  0.00000000000E+00 0. -1.
         11    1    4    4    0    0 -0.98183132851E+01 -0.48558209123E+02  0.38430476102E+02  0.62699285821E+02  0.00000000000E+00 0.  1.
        -13    1    3    3    0    0 -0.33929492388E+02  0.34662326699E+02  0.72020467363E+02  0.86831072002E+02  0.00000000000E+00 0. -1.
         13    1    3    3    0    0  0.21863225388E+02 -0.40002571585E+02  0.12913355446E+03  0.13694408072E+03  0.00000000000E+00 0.  1.
          4    1    1    2  501    0  0.17971903243E+02  0.18602264990E+02  0.15566097911E+02  0.30188358238E+02  0.00000000000E+00 0.  1.
<scales pt_clust_5="13000.00000" pt_clust_6="13000.00000" pt_clust_7="13000.00000" pt_clust_8="13000.00000" pt_clust_9="25.86568"></scales>
<clustering>
<clus scale="   25.866">  2  9  1 -1</clus>
<clus scale="   91.212">  5  6 -1 -1</clus>
<clus scale="   91.359">  2  5  1 -1</clus>
<clus scale="   97.151">  7  8 -1 -1</clus>
<clus scale="   25.866">  2  5  1 -1</clus>
</clustering>
</event>
<event>
 9    1  0.1315259E-005  0.1142223E+03  0.7546771E-02  0.1253114E+00
          1   -1    0    0  502    0 -0.00000000000E+00  0.00000000000E+00  0.47659704391E+03  0.47659704391E+03  0.00000000000E+00 0. -1.
         21   -1    0    0  501  502  0.00000000000E+00 -0.00000000000E+00 -0.63008970195E+02  0.63008970195E+02  0.00000000000E+00 0.  1.
         23    2    1    2    0    0  0.66863586325E+02  0.31280128877E+02  0.35620886348E+03  0.37463299412E+03  0.89531783328E+02 0.  0.
         23    2    1    2    0    0 -0.46075291364E+02 -0.21058421223E+02  0.21840482664E+00  0.10329649130E+03  0.90020707818E+02 0.  0.
        -11    1    3    3    0    0 -0.21838372640E+02  0.95216817392E+01  0.56510279876E+02  0.61326900088E+02  0.00000000000E+00 0.  1.
         11    1    3    3    0    0  0.88701958965E+02  0.21758447138E+02  0.29969858360E+03  0.31330609404E+03  0.00000000000E+00 0. -1.
        -13    1    4    4    0    0 -0.52036744982E+02 -0.50692494987E+02  0.44049895610E+01  0.72780188302E+02  0.00000000000E+00 0.  1.
         13    1    4    4    0    0  0.59614536177E+01  0.29634073764E+02 -0.41865847343E+01  0.30516303000E+02  0.00000000000E+00 0. -1.
          1    1    1    2  501    0 -0.20788294961E+02 -0.10221707654E+02  0.57160805405E+02  0.61676528674E+02  0.00000000000E+00 0. -1.
<scales pt_clust_5="13000.00000" pt_clust_6="13000.00000" pt_clust_7="13000.00000" pt_clust_8="13000.00000" pt_clust_9="23.16543"></scales>
<clustering>
<clus scale="   23.165">  2  9  1 -1</clus>
<clus scale="   89.532">  5  6 -1 -1</clus>
<clus scale="   90.021">  7  8 -1 -1</clus>
<clus scale="  113.837">  1  5  2 -1</clus>
<clus scale="   23.165">  2  5  1 -1</clus>
</clustering>
</event>
<event>
 9    1  0.1315259E-005  0.9376221E+02  0.7546771E-02  0.1297860E+00
         -3   -1    0    0    0  501 -0.00000000000E+00  0.00000000000E+00  0.54401719240E+03  0.54401719240E+03  0.00000000000E+00 0.  1.
         21   -1    0    0  501  502  0.00000000000E+00 -0.00000000000E+00 -0.36233420320E+02  0.36233420320E+02  0.00000000000E+00 0.  1.
         23    2    1    2    0    0 -0.21651355026E+01  0.12228724214E+02  0.31575041220E+03  0.32781039550E+03  0.87218708355E+02 0.  0.
         23    2    1    2    0    0 -0.82408814317E+01  0.36367306662E+02  0.17087695249E+03  0.19842676538E+03  0.93721690161E+02 0.  0.
        -11    1    3    3    0    0  0.78518869785E+01  0.45195073827E+02  0.24327416871E+03  0.24756124088E+03  0.00000000000E+00 0.  1.
         11    1    3    3    0    0 -0.10017022481E+02 -0.32966349614E+02  0.72476243494E+02  0.80249154620E+02  0.00000000000E+00 0. -1.
        -11    1    4    4    0    0 -0.24594742482E+02  0.62289085390E+02  0.91908171103E+02  0.11371870309E+03  0.00000000000E+00 0.  1.
         11    1    4    4    0    0  0.16353861050E+02 -0.25921778728E+02  0.78968781390E+02  0.84708062296E+02  0.00000000000E+00 0. -1.
         -3    1    1    2    0  502  0.10406016934E+02 -0.48596030875E+02  0.21156407383E+02  0.54013451830E+02  0.00000000000E+00 0.  1.
<scales pt_clust_5="13000.00000" pt_clust_6="13000.00000" pt_clust_7="13000.00000" pt_clust_8="13000.00000" pt_clust_9="49.69768"></scales>
<clustering>
<clus scale="   49.698">  2  9  1 -1</clus>
<clus scale="   87.219">  5  6 -1 -1</clus>
<clus scale="   87.262">  1  5  2 -1</clus>
<clus scale="   93.722">  7  8 -1 -1</clus>
<clus scale="   49.698">  2  5  1 -1</clus>
</clustering>
</event>
<event>
 9    1  0.1315259E-005  0.9800824E+02  0.7546771E-02  0.1288827E+00
         21   -1    0    0  501  502  0.00000000000E+00  0.00000000000E+00  0.51465088160E+02  0.51465088160E+02  0.00000000000E+00 0. -1.
         -3   -1    0    0    0  501 -0.00000000000E+00 -0.00000000000E+00 -0.27507362110E+03  0.27507362110E+03  0.00000000000E+00 0.  1.
         23    2    1    2    0    0 -0.63291090639E+01 -0.54881039754E+01 -0.13354863958E+03  0.16059227346E+03  0.88794494506E+02 0.  0.
         23    2    1    2    0    0  0.11978906053E+02  0.29675398983E+02 -0.96605039859E+02  0.14026016733E+03  0.96520761070E+02 0.  0.
        -13    1    4    4    0    0  0.49226754323E+02 -0.47544320235E+01 -0.35673984152E+02  0.60979595852E+02  0.00000000000E+00 0.  1.
         13    1    4    4    0    0 -0.37247848270E+02  0.34429831006E+02 -0.60931055707E+02  0.79280571475E+02  0.00000000000E+00 0. -1.
        -13    1    3    3    0    0 -0.14555535513E+02 -0.33082095357E+02 -0.12563505630E+03  0.13073047088E+03  0.00000000000E+00 0.  1.
         13    1    3    3    0    0  0.82264264490E+01  0.27593991382E+02 -0.79135832793E+01  0.29861802571E+02  0.00000000000E+00 0. -1.
         -3    1    1    2    0  502 -0.56497969889E+01 -0.24187295007E+02  0.65451464917E+01  0.25686268479E+02  0.00000000000E+00 0.  1.
<scales pt_clust_5="13000.00000" pt_clust_6="13000.00000" pt_clust_7="13000.00000" pt_clust_8="13000.00000" pt_clust_9="24.83839"></scales>
<clustering>
<clus scale="   24.838">  1  9  2 -1</clus>
<clus scale="   88.794">  7  8 -1 -1</clus>
<clus scale="   90.409">  2  7  1 -1</clus>
<clus scale="   96.521">  5  6 -1 -1</clus>
<clus scale="   24.838">  1  5  2 -1</clus>
</clustering>
</event>
<event>
 9    1  0.1315259E-005  0.1174091E+03  0.7546771E-02  0.1250748E+00
          2   -1    0    0  502    0 -0.00000000000E+00  0.00000000000E+00  0.18206924908E+03  0.18206924908E+03  0.00000000000E+00 0. -1.
         21   -1    0    0  501  502  0.00000000000E+00 -0.00000000000E+00 -0.25745423748E+03  0.25745423748E+03  0.00000000000E+00 0.  1.
         23    2    1    2    0    0  0.58533897870E+02 -0.18805223212E+02  0.12555695872E+03  0.17315269669E+03  0.10216385304E+03 0.  0.
         23    2    1    2    0    0 -0.48824523074E+02 -0.12523887950E+02 -0.60546269082E+02  0.12219474618E+03  0.93407834097E+02 0.  0.
        -11    1    4    4    0    0 -0.65073099292E+01  0.23114154179E+02  0.15182303435E+02  0.28409708614E+02  0.00000000000E+00 0. -1.
         11    1    4    4    0    0 -0.42317213145E+02 -0.35638042129E+02 -0.75728572518E+02  0.93785037563E+02  0.00000000000E+00 0.  1.
        -11    1    3    3    0    0  0.76821941789E+02 -0.73659114875E+01  0.44095322031E+02  0.88883433874E+02  0.00000000000E+00 0. -1.
         11    1    3    3    0    0 -0.18288043919E+02 -0.11439311724E+02  0.81461636686E+02  0.84269262811E+02  0.00000000000E+00 0.  1.
          2    1    1    2  501    0 -0.97093747959E+01  0.31329111161E+02 -0.14039567804E+03  0.14417604370E+03  0.00000000000E+00 0. -1.
<scales pt_clust_5="13000.00000" pt_clust_6="13000.00000" pt_clust_7="13000.00000" pt_clust_8="13000.00000" pt_clust_9="32.79916"></scales>
<clustering>
<clus scale="   32.799">  2  9  1 -1</clus>
<clus scale="   93.408">  5  6 -1 -1</clus>
<clus scale="  102.164">  7  8 -1 -1</clus>
<clus scale="  109.875">  2  5  1 -1</clus>
<clus scale="   32.799">  2  5  1 -1</clus>
</clustering>
</event>
<event>
 9    1  0.1315259E-005  0.1503136E+03  0.7546771E-02  0.1200960E+00
         21   -1    0    0  501  502  0.00000000000E+00  0.00000000000E+00  0.12800058515E+03  0.12800058515E+03  0.00000000000E+00 0. -1.
         -2   -1    0    0    0  501 -0.00000000000E+00 -0.00000000000E+00 -0.41962061811E+03  0.41962061811E+03  0.00000000000E+00 0.  1.
         23    2    1    2    0    0  0.14764728005E+01 -0.11338130428E+03 -0.19927024507E+03  0.24961587038E+03  0.98701327455E+02 0.  0.
         23    2    1    2    0    0 -0.43056237460E+02  0.10927595621E+03 -0.15919049656E+03  0.21918013991E+03  0.94357010040E+02 0.  0.
        -11    1    4    4    0    0  0.27589957271E+02  0.12594351975E+02 -0.24751589529E+02  0.39146706478E+02  0.00000000000E+00 0.  1.
         11    1    4    4    0    0 -0.70646194731E+02  0.96681604238E+02 -0.13443890703E+03  0.18003343343E+03  0.00000000000E+00 0. -1.
        -13    1    3    3    0    0  0.47291930466E+02 -0.42675062676E+02 -0.10813748489E+03  0.12550459474E+03  0.00000000000E+00 0.  1.
         13    1    3    3    0    0 -0.45815457665E+02 -0.70706241609E+02 -0.91132760178E+02  0.12411127564E+03  0.00000000000E+00 0. -1.
         -2    1    1    2    0  502  0.41579764660E+02  0.41053480722E+01  0.66840708674E+02  0.78825192978E+02  0.00000000000E+00 0.  1.
<scales pt_clust_5="13000.00000" pt_clust_6="13000.00000" pt_clust_7="13000.00000" pt_clust_8="13000.00000" pt_clust_9="41.78194"></scales>
<clustering>
<clus scale="   41.782">  1  9  2 -1</clus>
<clus scale="   94.357">  5  6 -1 -1</clus>
<clus scale="   98.701">  7  8 -1 -1</clus>
<clus scale="  147.497">  1  5  2 -1</clus>
<clus scale="   41.782">  1  5  2 -1</clus>
</clustering>
</event>
<event>
 9    1  0.1315259E-005  0.1526631E+03  0.7546771E-02  0.1197977E+00
          2   -1    0    0  502    0 -0.00000000000E+00  0.00000000000E+00  0.93030825944E+03  0.93030825944E+03  0.00000000000E+00 0. -1.
         21   -1    0    0  501  502  0.00000000000E+00 -0.00000000000E+00 -0.76004815098E+02  0.76004815098E+02  0.00000000000E+00 0.  1.
         23    2    1    2    0    0 -0.70925657614E+01  0.12249741938E+03  0.77698431065E+03  0.79186852854E+03  0.91078127183E+02 0.  0.
         23    2    1    2    0    0  0.31102455822E+02 -0.11954879993E+03  0.10010794718E+03  0.18121053934E+03  0.86927441927E+02 0.  0.
        -11    1    4    4    0    0  0.56174967513E+02 -0.61947853742E+02  0.78721614789E+02  0.11484884063E+03  0.00000000000E+00 0. -1.
         11    1    4    4    0    0 -0.25072511691E+02 -0.57600946183E+02  0.21386332386E+02  0.66361698717E+02  0.00000000000E+00 0.  1.
        -11    1    3    3    0    0 -0.40232565159E+02  0.19917290140E+02  0.24283839542E+03  0.24695312113E+03  0.00000000000E+00 0.  1.
         11    1    3    3    0    0  0.33139999398E+02  0.10258012924E+03  0.53414591523E+03  0.54491540741E+03  0.00000000000E+00 0. -1.
          2    1    1    2  501    0 -0.24009890061E+02 -0.29486194567E+01 -0.22788813491E+02  0.33234006646E+02  0.00000000000E+00 0. -1.
<scales pt_clust_5="13000.00000" pt_clust_6="13000.00000" pt_clust_7="13000.00000" pt_clust_8="13000.00000" pt_clust_9="24.19027"></scales>
<clustering>
<clus scale="   24.190">  2  9  1 -1</clus>
<clus scale="   86.927">  5  6 -1 -1</clus>
<clus scale="   91.078">  7  8 -1 -1</clus>
<clus scale="  150.224">  2  5  1 -1</clus>
<clus scale="   24.190">  2  5  1 -1</clus>
</clustering>
</event>
<event>
 9    1  0.1315259E-005  0.1686222E+03  0.7546771E-02  0.1187676E+00
         21   -1    0    0  501  502  0.00000000000E+00  0.00000000000E+00  0.43045625385E+03  0.43045625385E+03  0.00000000000E+00 0. -1.
          1   -1    0    0  502    0 -0.00000000000E+00 -0.00000000000E+00 -0.21293336372E+03  0.21293336372E+03  0.00000000000E+00 0. -1.
         23    2    1    2    0    0  0.77761139331E+02 -0.72045448931E+02 -0.10531703103E+03  0.17504348887E+03  0.91165807567E+02 0.  0.
         23    2    1    2    0    0 -0.90954330690E+02 -0.74361673568E+02  0.25732546378E+03  0.30740747597E+03  0.12033541958E+03 0.  0.
        -11    1    4    4    0    0 -0.10182233732E+03 -0.98347113460E+02  0.21021358849E+03  0.25343578257E+03  0.00000000000E+00 0. -1.
         11    1    4    4    0    0  0.10868006628E+02  0.23985439892E+02  0.47111875292E+02  0.53971693399E+02  0.00000000000E+00 0.  1.
        -11    1    3    3    0    0  0.42300119034E+02 -0.88048104179E+02 -0.91253890122E+02  0.13367513300E+03  0.00000000000E+00 0.  1.
         11    1    3    3    0    0  0.35461020296E+02  0.16002655248E+02 -0.14063140911E+02  0.41368355874E+02  0.00000000000E+00 0. -1.
          1    1    1    2  501    0  0.13193191360E+02  0.14640712250E+03  0.65514457376E+02  0.16093865273E+03  0.00000000000E+00 0. -1.
<scales pt_clust_5="13000.00000" pt_clust_6="13000.00000" pt_clust_7="13000.00000" pt_clust_8="13000.00000" pt_clust_9="118.12217"></scales>
<clustering>
<clus scale="   91.166">  7  8 -1 -1</clus>
<clus scale="  120.335">  5  6 -1 -1</clus>
<clus scale="  139.816">  2  7  1 -1</clus>
<clus scale="  118.122">  1  9  2 -1</clus>
<clus scale="  118.122">  1  5  2 -1</clus>
</clustering>
</event>
<event>
 9    1  0.1315259E-005  0.1390740E+03  0.7546771E-02  0.1215248E+00
         -3   -1    0    0    0  501 -0.00000000000E+00  0.00000000000E+00  0.21149112835E+03  0.21149112835E+03  0.00000000000E+00 0.  1.
         21   -1    0    0  501  502  0.00000000000E+00 -0.00000000000E+00 -0.39502315697E+03  0.39502315697E+03  0.00000000000E+00 0.  1.
         23    2    1    2    0    0 -0.85796500856E+02  0.69626044901E+02  0.15480166952E+03  0.21130223623E+03  0.92066565392E+02 0.  0.
         23    2    1    2    0    0  0.97464025495E+01 -0.51774297225E+02 -0.27758687117E+03  0.29625509212E+03  0.89090057475E+02 0.  0.
        -11    1    4    4    0    0 -0.34487319640E+02  0.10892231255E+01 -0.87581951946E+02  0.94133734281E+02  0.00000000000E+00 0.  1.
         11    1    4    4    0    0  0.44233722189E+02 -0.52863520350E+02 -0.19000491923E+03  0.20212135784E+03  0.00000000000E+00 0. -1.
        -11    1    3    3    0    0 -0.96182993104E+02  0.26930137106E+02  0.10758954594E+03  0.14680569077E+03  0.00000000000E+00 0.  1.
         11    1    3    3    0    0  0.10386492248E+02  0.42695907795E+02  0.47212123582E+02  0.64496545464E+02  0.00000000000E+00 0. -1.
         -3    1    1    2    0  502  0.76050098307E+02 -0.17851747676E+02 -0.60746826963E+02  0.98956956975E+02  0.00000000000E+00 0.  1.
<scales pt_clust_5="13000.00000" pt_clust_6="13000.00000" pt_clust_7="13000.00000" pt_clust_8="13000.00000" pt_clust_9="78.11723"></scales>
<clustering>
<clus scale="   78.117">  2  9  1 -1</clus>
<clus scale="   89.090">  5  6 -1 -1</clus>
<clus scale="   92.067">  7  8 -1 -1</clus>
<clus scale="  137.122">  2  5  1 -1</clus>
<clus scale="   78.117">  2  5  1 -1</clus>
</clustering>
</event>
<event>
 9    1  0.1315259E-005  0.9026820E+02  0.7546771E-02  0.1307994E+00
         21   -1    0    0  501  502  0.00000000000E+00  0.00000000000E+00  0.33916934270E+02  0.33916934270E+02  0.00000000000E+00 0.  1.
          2   -1    0    0  502    0 -0.00000000000E+00 -0.00000000000E+00 -0.43618407972E+03  0.43618407972E+03  0.00000000000E+00 0. -1.
         23    2    1    2    0    0 -0.10911610106E+02 -0.50945356617E+01 -0.27068905115E+03  0.28511034612E+03  0.88714877672E+02 0.  0.
         23    2    1    2    0    0  0.25375294909E+02 -0.24260088832E+02 -0.12399117037E+03  0.15139820485E+03  0.79467909254E+02 0.  0.
        -13    1    3    3    0    0 -0.47815387019E+01 -0.46110248985E+02 -0.17019578781E+03  0.17639621414E+03  0.00000000000E+00 0.  1.
         13    1    3    3    0    0 -0.61300714043E+01  0.41015713323E+02 -0.10049326334E+03  0.10871413198E+03  0.00000000000E+00 0. -1.
        -13    1    4    4    0    0  0.54332000456E+02 -0.15586882345E+02 -0.76854505178E+02  0.95401950404E+02  0.00000000000E+00 0.  1.
         13    1    4    4    0    0 -0.28956705547E+02 -0.86732064871E+01 -0.47136665192E+02  0.55996254449E+02  0.00000000000E+00 0. -1.
          2    1    1    2  501    0 -0.14463684803E+02  0.29354624494E+02 -0.75869239315E+01  0.33592463024E+02  0.00000000000E+00 0. -1.
<scales pt_clust_5="13000.00000" pt_clust_6="13000.00000" pt_clust_7="13000.00000" pt_clust_8="13000.00000" pt_clust_9="32.72449"></scales>
<clustering>
<clus scale="   32.724">  1  9  2 -1</clus>
<clus scale="   79.468">  7  8 -1 -1</clus>
<clus scale="   81.198">  1  7  2 -1</clus>
<clus scale="   88.715">  5  6 -1 -1</clus>
<clus scale="   32.724">  1  5  2 -1</clus>
</clustering>
</event>
<event>
 9    1  0.1315259E-005  0.1058331E+03  0.7546771E-02  0.1268563E+00
         21   -1    0    0  501  502  0.00000000000E+00  0.00000000000E+00  0.33543511245E+03  0.33543511245E+03  0.00000000000E+00 0.  1.
          3   -1    0    0  502    0 -0.00000000000E+00 -0.00000000000E+00 -0.10461081803E+03  0.10461081803E+03  0.00000000000E+00 0. -1.
         23    2    1    2    0    0 -0.15378186902E+02  0.49811353685E+02 -0.49150297020E+02  0.11694487184E+03  0.92426683180E+02 0.  0.
         23    2    1    2    0    0 -0.13237167808E+02 -0.52147356503E+02  0.27358381093E+03  0.29368783866E+03  0.92248986855E+02 0.  0.
        -11    1    3    3    0    0 -0.35138549978E+02 -0.15054020629E+02 -0.19893791061E+02  0.43094131322E+02  0.00000000000E+00 0.  1.
         11    1    3    3    0    0  0.19760363076E+02  0.64865374314E+02 -0.29256505960E+02  0.73850740516E+02  0.00000000000E+00 0. -1.
        -13    1    4    4    0    0 -0.24168157786E+02 -0.34625543360E+01  0.11664813917E+02  0.27058400119E+02  0.00000000000E+00 0. -1.
         13    1    4    4    0    0  0.10930989978E+02 -0.48684802167E+02  0.26191899701E+03  0.26662943854E+03  0.00000000000E+00 0.  1.
          3    1    1    2  501    0  0.28615354709E+02  0.23360028179E+01  0.63907805111E+01  0.29413219984E+02  0.00000000000E+00 0. -1.
<scales pt_clust_5="13000.00000" pt_clust_6="13000.00000" pt_clust_7="13000.00000" pt_clust_8="13000.00000" pt_clust_9="28.71056"></scales>
<clustering>
<clus scale="   28.711">  1  9  2 -1</clus>
<clus scale="   92.249">  7  8 -1 -1</clus>
<clus scale="   92.427">  5  6 -1 -1</clus>
<clus scale="  105.678">  1  7  2 -1</clus>
<clus scale="   28.711">  1  5  2 -1</clus>
</clustering>
</event>
<event>
 9    1  0.1315259E-005  0.9669279E+02  0.7546771E-02  0.1288888E+00
          1   -1    0    0  502    0 -0.00000000000E+00  0.00000000000E+00  0.10019382021E+03  0.10019382021E+03  0.00000000000E+00 0. -1.
         21   -1    0    0  501  502  0.00000000000E+00 -0.00000000000E+00 -0.15476507584E+03  0.15476507584E+03  0.00000000000E+00 0. -1.
         23    2    1    2    0    0  0.17070851137E+02 -0.34038532437E+02  0.31443288280E+02  0.10458513079E+03  0.92191830198E+02 0.  0.
         23    2    1    2    0    0  0.72054799792E+01  0.11899046629E+02 -0.62515131524E+02  0.10997921776E+03  0.89407943821E+02 0.  0.
        -11    1    4    4    0    0 -0.23937889554E+02  0.39455440793E+02 -0.19349825103E+02  0.50041683585E+02  0.00000000000E+00 0.  1.
         11    1    4    4    0    0  0.31143369534E+02 -0.27556394163E+02 -0.43165306421E+02  0.59937534180E+02  0.00000000000E+00 0. -1.
        -13    1    3    3    0    0  0.36098623143E+02  0.19671949928E+02  0.22625476887E+02  0.46925562449E+02  0.00000000000E+00 0.  1.
         13    1    3    3    0    0 -0.19027772006E+02 -0.53710482365E+02  0.88178113937E+01  0.57659568340E+02  0.00000000000E+00 0. -1.
          1    1    1    2  501    0 -0.24276331116E+02  0.22139485808E+02 -0.23499412390E+02  0.40394547491E+02  0.00000000000E+00 0. -1.
<scales pt_clust_5="13000.00000" pt_clust_6="13000.00000" pt_clust_7="13000.00000" pt_clust_8="13000.00000" pt_clust_9="32.85570"></scales>
<clustering>
<clus scale="   32.856">  2  9  1 -1</clus>
<clus scale="   89.408">  5  6 -1 -1</clus>
<clus scale="   92.192">  7  8 -1 -1</clus>
<clus scale="   94.042">  2  5  1 -1</clus>
<clus scale="   32.856">  2  5  1 -1</clus>
</clustering>
</event>
<event>
 9    1  0.1315259E-005  0.9062388E+02  0.7546771E-02  0.1301829E+00
         21   -1    0    0  501  502  0.00000000000E+00  0.00000000000E+00  0.19719437728E+03  0.19719437728E+03  0.00000000000E+00 0. -1.
         -3   -1    0    0    0  501 -0.00000000000E+00 -0.00000000000E+00 -0.79931677761E+02  0.79931677761E+02  0.00000000000E+00 0.  1.
         23    2    1    2    0    0  0.66462760702E+01  0.32971374579E+01 -0.17102411252E+02  0.91576347941E+02  0.89658747094E+02 0.  0.
         23    2    1    2    0    0  0.39074099674E+01  0.23084861791E+02  0.75298139336E+02  0.12000356085E+03  0.90459195959E+02 0.  0.
        -11    1    3    3    0    0  0.38934853484E+02 -0.24274294474E+02 -0.21498767626E+00  0.45882571939E+02  0.00000000000E+00 0.  1.
         11    1    3    3    0    0 -0.32288577414E+02  0.27571431932E+02 -0.16887423576E+02  0.45693776001E+02  0.00000000000E+00 0. -1.
        -13    1    4    4    0    0 -0.35844651318E+02  0.36192061180E+02  0.48285293524E+02  0.70186707369E+02  0.00000000000E+00 0. -1.
         13    1    4    4    0    0  0.39752061285E+02 -0.13107199390E+02  0.27012845811E+02  0.49816853484E+02  0.00000000000E+00 0.  1.
         -3    1    1    2    0  502 -0.10553686038E+02 -0.26381999249E+02  0.59066971437E+02  0.65546146249E+02  0.00000000000E+00 0.  1.
<scales pt_clust_5="13000.00000" pt_clust_6="13000.00000" pt_clust_7="13000.00000" pt_clust_8="13000.00000" pt_clust_9="28.41461"></scales>
<clustering>
<clus scale="   28.415">  1  9  2 -1</clus>
<clus scale="   89.659">  5  6 -1 -1</clus>
<clus scale="   89.825">  2  5  1 -1</clus>
<clus scale="   90.459">  7  8 -1 -1</clus>
<clus scale="   28.415">  1  5  2 -1</clus>
</clustering>
</event>
<event>
 9    1  0.1315259E-005  0.1137541E+03  0.7546771E-02  0.1254654E+00
          2   -1    0    0  502    0 -0.00000000000E+00  0.00000000000E+00  0.34301482524E+03  0.34301482524E+03  0.00000000000E+00 0. -1.
         21   -1    0    0  501  502  0.00000000000E+00 -0.00000000000E+00 -0.97664411353E+02  0.97664411353E+02  0.00000000000E+00 0.  1.
         23    2    1    2    0    0 -0.56060249213E+02  0.46731643214E+02  0.23495584827E+03  0.26198873736E+03  0.90040267915E+02 0.  0.
         23    2    1    2    0    0  0.60616968341E+02  0.19009971083E+02  0.16138076998E+01  0.11220873295E+03  0.92479184266E+02 0.  0.
        -11    1    4    4    0    0 -0.21702952840E+02  0.32219812644E+01 -0.15235483568E+02  0.26711781760E+02  0.00000000000E+00 0.  1.
         11    1    4    4    0    0  0.82319921181E+02  0.15787989819E+02  0.16849291268E+02  0.85496951185E+02  0.00000000000E+00 0. -1.
        -13    1    3    3    0    0 -0.36003702564E+02 -0.22996988875E+02  0.10055219199E+03  0.10925141377E+03  0.00000000000E+00 0.  1.
         13    1    3    3    0    0 -0.20056546649E+02  0.69728632090E+02  0.13440365628E+03  0.15273732359E+03  0.00000000000E+00 0. -1.
          2    1    1    2  501    0 -0.45567191278E+01 -0.65741614298E+02  0.87807579188E+01  0.66481766292E+02  0.00000000000E+00 0. -1.
<scales pt_clust_5="13000.00000" pt_clust_6="13000.00000" pt_clust_7="13000.00000" pt_clust_8="13000.00000" pt_clust_9="65.89934"></scales>
<clustering>
<clus scale="   65.899">  2  9  1 -1</clus>
<clus scale="   90.040">  7  8 -1 -1</clus>
<clus scale="   92.479">  5  6 -1 -1</clus>
<clus scale="  111.780">  1  7  2 -1</clus>
<clus scale="   65.899">  2  5  1 -1</clus>
</clustering>
</event>
<event>
 9    1  0.1315259E-005  0.1045565E+03  0.7546771E-02  0.1271835E+00
         -1   -1    0    0    0  501 -0.00000000000E+00  0.00000000000E+00  0.41751181972E+03  0.41751181972E+03  0.00000000000E+00 0.  1.
         21   -1    0    0  501  502  0.00000000000E+00 -0.00000000000E+00 -0.74311279400E+02  0.74311279400E+02  0.00000000000E+00 0.  1.
         23    2    1    2    0    0 -0.33118534987E+02  0.35818616211E+02  0.21379529437E+03  0.23712504617E+03  0.90222220088E+02 0.  0.
         23    2    1    2    0    0  0.56029122095E+02 -0.95102827404E+01  0.16977083567E+03  0.20134634966E+03  0.92133098697E+02 0.  0.
        -11    1    4    4    0    0  0.59049730801E+02  0.31347931448E+02  0.96437704119E+02  0.11734476678E+03  0.00000000000E+00 0. -1.
         11    1    4    4    0    0 -0.30206087066E+01 -0.40858214188E+02  0.73333131552E+02  0.84001582883E+02  0.00000000000E+00 0.  1.
        -11    1    3    3    0    0  0.24890201116E+02  0.22118684011E+02  0.13062354166E+03  0.13480084543E+03  0.00000000000E+00 0.  1.
         11    1    3    3    0    0 -0.58008736103E+02  0.13699932199E+02  0.83171752710E+02  0.10232420073E+03  0.00000000000E+00 0. -1.
         -1    1    1    2    0  502 -0.22910587108E+02 -0.26308333470E+02 -0.40365589718E+02  0.53351703299E+02  0.00000000000E+00 0.  1.
<scales pt_clust_5="13000.00000" pt_clust_6="13000.00000" pt_clust_7="13000.00000" pt_clust_8="13000.00000" pt_clust_9="34.88586"></scales>
<clustering>
<clus scale="   34.886">  2  9  1 -1</clus>
<clus scale="   90.222">  7  8 -1 -1</clus>
<clus scale="   92.133">  5  6 -1 -1</clus>
<clus scale="  102.877">  1  7  2 -1</clus>
<clus scale="   34.886">  2  5  1 -1</clus>
</clustering>
</event>
<event>
 9    1  0.1315259E-005  0.1718624E+03  0.7546771E-02  0.1176873E+00
          1   -1    0    0  502    0 -0.00000000000E+00  0.00000000000E+00  0.94234920145E+03  0.94234920145E+03  0.00000000000E+00 0. -1.
         21   -1    0    0  501  502  0.00000000000E+00 -0.00000000000E+00 -0.15047518456E+03  0.15047518456E+03  0.00000000000E+00 0. -1.
         23    2    1    2    0    0 -0.94078047149E+02 -0.10480536054E+03  0.62058396076E+03  0.64296667816E+03  0.91906769646E+02 0.  0.
         23    2    1    2    0    0  0.83982535608E+02  0.13237695407E+03  0.28293976207E+03  0.33441175098E+03  0.84850374059E+02 0.  0.
        -13    1    4    4    0    0  0.44538034050E+02  0.13124384308E+03  0.22669005317E+03  0.26570089015E+03  0.00000000000E+00 0. -1.
         13    1    4    4    0    0  0.39444501558E+02  0.11331109837E+01  0.56249708906E+02  0.68710860828E+02  0.00000000000E+00 0.  1.
        -13    1    3    3    0    0 -0.83373334232E+02 -0.68743757456E+02  0.56873343378E+03  0.57890805465E+03  0.00000000000E+00 0.  1.
         13    1    3    3    0    0 -0.10704712917E+02 -0.36061603086E+02  0.51850526988E+02  0.64058623500E+02  0.00000000000E+00 0. -1.
          1    1    1    2  501    0  0.10095511541E+02 -0.27571593522E+02 -0.11164970594E+03  0.11544595688E+03  0.00000000000E+00 0. -1.
<scales pt_clust_5="13000.00000" pt_clust_6="13000.00000" pt_clust_7="13000.00000" pt_clust_8="13000.00000" pt_clust_9="29.36175"></scales>
<clustering>
<clus scale="   29.362">  2  9  1 -1</clus>
<clus scale="   84.850">  5  6 -1 -1</clus>
<clus scale="   91.907">  7  8 -1 -1</clus>
<clus scale="  168.195">  2  5  1 -1</clus>
<clus scale="   29.362">  2  5  1 -1</clus>
</clustering>
</event>
<event>
 9    1  0.1315259E-005  0.1009713E+03  0.7546771E-02  0.1280302E+00
          1   -1    0    0  502    0 -0.00000000000E+00  0.00000000000E+00  0.45808238198E+03  0.45808238198E+03  0.00000000000E+00 0. -1.
         21   -1    0    0  501  502  0.00000000000E+00 -0.00000000000E+00 -0.64313278825E+02  0.64313278825E+02  0.00000000000E+00 0.  1.
         23    2    1    2    0    0  0.29481569693E+02  0.26076756216E+02  0.38060471118E+03  0.39420963636E+03  0.94826847813E+02 0.  0.
         23    2    1    2    0    0  0.22443355240E+01 -0.95707328887E+01  0.43949463232E+01  0.91363680067E+02  0.90726900709E+02 0.  0.
        -11    1    3    3    0    0  0.52301185940E+02  0.46251972837E+02  0.30062777281E+03  0.30862876863E+03  0.00000000000E+00 0. -1.
         11    1    3    3    0    0 -0.22819616247E+02 -0.20175216621E+02  0.79976938363E+02  0.85580867729E+02  0.00000000000E+00 0.  1.
        -13    1    4    4    0    0  0.12040709961E+01  0.38823251866E+02  0.15297719360E+02  0.41745836799E+02  0.00000000000E+00 0. -1.
         13    1    4    4    0    0  0.10402645279E+01 -0.48393984755E+02 -0.10902773037E+02  0.49617843268E+02  0.00000000000E+00 0.  1.
          1    1    1    2  501    0 -0.31725905217E+02 -0.16506023327E+02  0.87694456522E+01  0.36822344371E+02  0.00000000000E+00 0. -1.
<scales pt_clust_5="13000.00000" pt_clust_6="13000.00000" pt_clust_7="13000.00000" pt_clust_8="13000.00000" pt_clust_9="35.76286"></scales>
<clustering>
<clus scale="   35.763">  2  9  1 -1</clus>
<clus scale="   90.727">  7  8 -1 -1</clus>
<clus scale="   94.827">  5  6 -1 -1</clus>
<clus scale="   97.131">  2  7  1 -1</clus>
<clus scale="   35.763">  2  5  1 -1</clus>
</clustering>
</event>
<event>
 9    1  0.1315259E-005  0.1218636E+03  0.7546771E-02  0.1241104E+00
         21   -1    0    0  501  502  0.00000000000E+00  0.00000000000E+00  0.33818609473E+03  0.33818609473E+03  0.00000000000E+00 0.  1.
          4   -1    0    0  502    0 -0.00000000000E+00 -0.00000000000E+00 -0.21542237663E+03  0.21542237663E+03  0.00000000000E+00 0. -1.
         23    2    1    2    0    0  0.10890102620E+01  0.76375080832E+02 -0.15591783079E+03  0.19602373887E+03  0.90997787469E+02 0.  0.
         23    2    1    2    0    0  0.24718930124E+02 -0.80716563885E+02  0.65000405780E+02  0.14230693711E+03  0.94339930070E+02 0.  0.
        -11    1    3    3    0    0  0.29194942947E+02  0.21775809236E+02 -0.11882556060E+03  0.12428211623E+03  0.00000000000E+00 0. -1.
         11    1    3    3    0    0 -0.28105932685E+02  0.54599271596E+02 -0.37092270191E+02  0.71741622638E+02  0.00000000000E+00 0.  1.
        -13    1    4    4    0    0 -0.27430786541E+02 -0.63817603860E+02  0.49636800126E+02  0.85375327463E+02  0.00000000000E+00 0. -1.
         13    1    4    4    0    0  0.52149716665E+02 -0.16898960025E+02  0.15363605655E+02  0.56931609646E+02  0.00000000000E+00 0.  1.
          4    1    1    2  501    0 -0.25807940386E+02  0.43414830527E+01  0.21368114311E+03  0.21527779538E+03  0.00000000000E+00 0. -1.
<scales pt_clust_5="13000.00000" pt_clust_6="13000.00000" pt_clust_7="13000.00000" pt_clust_8="13000.00000" pt_clust_9="26.17056"></scales>
<clustering>
<clus scale="   26.171">  1  9  2 -1</clus>
<clus scale="   90.998">  5  6 -1 -1</clus>
<clus scale="   94.340">  7  8 -1 -1</clus>
<clus scale="  119.295">  2  5  1 -1</clus>
<clus scale="   26.171">  1  5  2 -1</clus>
</clustering>
</event>
<event>
 9    1  0.1315259E-005  0.9960058E+02  0.7546771E-02  0.1281215E+00
         21   -1    0    0  501  502  0.00000000000E+00  0.00000000000E+00  0.18035794268E+03  0.18035794268E+03  0.00000000000E+00 0.  1.
          2   -1    0    0  502    0 -0.00000000000E+00 -0.00000000000E+00 -0.27462061661E+03  0.27462061661E+03  0.00000000000E+00 0. -1.
         23    2    1    2    0    0 -0.37926545712E+02  0.18410243165E+02 -0.21299128590E+03  0.23474332079E+03  0.89228800629E+02 0.  0.
         23    2    1    2    0    0  0.39809543178E+02 -0.68939810531E+02  0.12021875252E+03  0.16964864564E+03  0.89390252866E+02 0.  0.
        -11    1    3    3    0    0 -0.11550153904E+02  0.47581763622E+02 -0.16798285703E+03  0.17497334237E+03  0.00000000000E+00 0. -1.
         11    1    3    3    0    0 -0.26376391809E+02 -0.29171520457E+02 -0.45008428876E+02  0.59769978422E+02  0.00000000000E+00 0.  1.
        -13    1    4    4    0    0 -0.87024582337E+01 -0.42597990971E+02  0.10303647981E+03  0.11183397420E+03  0.00000000000E+00 0.  1.
         13    1    4    4    0    0  0.48512001412E+02 -0.26341819560E+02  0.17182272710E+02  0.57814671444E+02  0.00000000000E+00 0. -1.
          2    1    1    2  501    0 -0.18829974657E+01  0.50529567366E+02 -0.14901405354E+01  0.50586592853E+02  0.00000000000E+00 0. -1.
<scales pt_clust_5="13000.00000" pt_clust_6="13000.00000" pt_clust_7="13000.00000" pt_clust_8="13000.00000" pt_clust_9="50.56464"></scales>
<clustering>
<clus scale="   50.565">  1  9  2 -1</clus>
<clus scale="   89.229">  5  6 -1 -1</clus>
<clus scale="   89.390">  7  8 -1 -1</clus>
<clus scale="   99.456">  2  5  1 -1</clus>
<clus scale="   50.565">  1  5  2 -1</clus>
</clustering>
</event>
<event>
 9    1  0.1315259E-005  0.1054374E+03  0.7546771E-02  0.1269302E+00
          1   -1    0    0  502    0 -0.00000000000E+00  0.00000000000E+00  0.64156396707E+03  0.64156396707E+03  0.00000000000E+00 0. -1.
         21   -1    0    0  501  502  0.00000000000E+00 -0.00000000000E+00 -0.34909418802E+02  0.34909418802E+02  0.00000000000E+00 0.  1.
         23    2    1    2    0    0 -0.49920552791E+02  0.32268173261E+02  0.30276253450E+03  0.32181986351E+03  0.91485384947E+02 0.  0.
         23    2    1    2    0    0  0.54691615496E+02  0.25633148859E+02  0.25906258053E+03  0.28127093432E+03  0.91387563359E+02 0.  0.
        -11    1    4    4    0    0  0.46582355092E+02 -0.28616268653E+02  0.12649764612E+03  0.13780588199E+03  0.00000000000E+00 0. -1.
         11    1    4    4    0    0  0.81092604039E+01  0.54249417511E+02  0.13256493442E+03  0.14346505233E+03  0.00000000000E+00 0.  1.
        -11    1    3    3    0    0 -0.37513925976E+02  0.60232093073E+02  0.14887715241E+03  0.16492303111E+03  0.00000000000E+00 0.  1.
         11    1    3    3    0    0 -0.12406626815E+02 -0.27963919813E+02  0.15388538208E+03  0.15689683240E+03  0.00000000000E+00 0. -1.
          1    1    1    2  501    0 -0.47710627050E+01 -0.57901322120E+02  0.44829433237E+02  0.73382588036E+02  0.00000000000E+00 0. -1.
<scales pt_clust_5="13000.00000" pt_clust_6="13000.00000" pt_clust_7="13000.00000" pt_clust_8="13000.00000" pt_clust_9="58.09756"></scales>
<clustering>
<clus scale="   58.098">  2  9  1 -1</clus>
<clus scale="   91.388">  5  6 -1 -1</clus>
<clus scale="   91.485">  7  8 -1 -1</clus>
<clus scale="  105.353">  2  5  1 -1</clus>
<clus scale="   58.098">  2  5  1 -1</clus>
</clustering>
</event>
<event>
 9    1  0.1315259E-005  0.1732928E+03  0.7546771E-02  0.1174460E+00
         21   -1    0    0  501  502  0.00000000000E+00  0.00000000000E+00  0.46381152826E+03  0.46381152826E+03  0.00000000000E+00 0.  1.
          2   -1    0    0  502    0 -0.00000000000E+00 -0.00000000000E+00 -0.42085590526E+03  0.42085590526E+03  0.00000000000E+00 0. -1.
         23    2    1    2    0    0 -0.13784099889E+03 -0.55371581853E+02 -0.38311210914E+03  0.42078330432E+03  0.90650692051E+02 0.  0.
         23    2    1    2    0    0  0.12632609949E+03  0.35484198566E+02  0.35477989635E+03  0.38898381909E+03  0.90676484808E+02 0.  0.
        -11    1    4    4    0    0  0.60066024339E+02 -0.20066119516E+02  0.87126883173E+02  0.10771104959E+03  0.00000000000E+00 0. -1.
         11    1    4    4    0    0  0.66260075155E+02  0.55550318082E+02  0.26765301318E+03  0.28127276950E+03  0.00000000000E+00 0.  1.
        -13    1    3    3    0    0 -0.82277942805E+02  0.15580901576E+02 -0.17545677829E+03  0.19441580546E+03  0.00000000000E+00 0.  1.
         13    1    3    3    0    0 -0.55563056087E+02 -0.70952483429E+02 -0.20765533086E+03  0.22636749886E+03  0.00000000000E+00 0. -1.
          2    1    1    2  501    0  0.11514899398E+02  0.19887383287E+02  0.71287835793E+02  0.74900310108E+02  0.00000000000E+00 0. -1.
<scales pt_clust_5="13000.00000" pt_clust_6="13000.00000" pt_clust_7="13000.00000" pt_clust_8="13000.00000" pt_clust_9="22.98045"></scales>
<clustering>
<clus scale="   22.980">  1  9  2 -1</clus>
<clus scale="   90.651">  7  8 -1 -1</clus>
<clus scale="   90.676">  5  6 -1 -1</clus>
<clus scale="  173.279">  2  7  1 -1</clus>
<clus scale="   22.980">  1  5  2 -1</clus>
</clustering>
</event>
<event>
 9    1  0.1315259E-005  0.1416592E+03  0.7546771E-02  0.1211463E+00
         21   -1    0    0  501  502  0.00000000000E+00  0.00000000000E+00  0.64376192301E+03  0.64376192301E+03  0.00000000000E+00 0. -1.
         -3   -1    0    0    0  501 -0.00000000000E+00 -0.00000000000E+00 -0.54765805395E+02  0.54765805395E+02  0.00000000000E+00 0.  1.
         23    2    1    2    0    0  0.11193551106E+03  0.23187364836E+02  0.84524991332E+02  0.16906702321E+03  0.91498478972E+02 0.  0.
         23    2    1    2    0    0 -0.86006125834E+02 -0.71972334347E+01  0.45127509229E+03  0.46815951962E+03  0.89862522969E+02 0.  0.
        -13    1    4    4    0    0  0.45090058355E+01  0.27296215811E+02  0.94103124501E+02  0.98085740922E+02  0.00000000000E+00 0.  1.
         13    1    4    4    0    0 -0.90515131670E+02 -0.34493449246E+02  0.35717196779E+03  0.37007377870E+03  0.00000000000E+00 0. -1.
        -13    1    3    3    0    0  0.21097129661E+02 -0.31061690536E+02  0.77450301793E+01  0.38339313914E+02  0.00000000000E+00 0. -1.
         13    1    3    3    0    0  0.90838381400E+02  0.54249055372E+02  0.76779961153E+02  0.13072770930E+03  0.00000000000E+00 0.  1.
         -3    1    1    2    0  502 -0.25929385227E+02 -0.15990131402E+02  0.53196033990E+02  0.61301185574E+02  0.00000000000E+00 0.  1.
<scales pt_clust_5="13000.00000" pt_clust_6="13000.00000" pt_clust_7="13000.00000" pt_clust_8="13000.00000" pt_clust_9="30.46338"></scales>
<clustering>
<clus scale="   30.463">  1  9  2 -1</clus>
<clus scale="   89.863">  5  6 -1 -1</clus>
<clus scale="   91.498">  7  8 -1 -1</clus>
<clus scale="  140.608">  1  5  2 -1</clus>
<clus scale="   30.463">  1  5  2 -1</clus>
</clustering>
</event>
<event>
 9    1  0.1315259E-005  0.1203756E+03  0.7546771E-02  0.1242582E+00
         -2   -1    0    0    0  501 -0.00000000000E+00  0.00000000000E+00  0.38811489700E+03  0.38811489700E+03  0.00000000000E+00 0.  1.
         21   -1    0    0  501  502  0.00000000000E+00 -0.00000000000E+00 -0.66404137807E+02  0.66404137807E+02  0.00000000000E+00 0. -1.
         23    2    1    2    0    0 -0.77472188038E+02  0.20200768836E+02  0.24942582537E+03  0.27731070305E+03  0.90983364883E+02 0.  0.
         23    2    1    2    0    0  0.61649643178E+02 -0.53828615563E+02  0.68037678704E+02  0.13980212669E+03  0.90649382484E+02 0.  0.
        -11    1    3    3    0    0 -0.27804152640E+02  0.31392403540E+02  0.20650441106E+03  0.21071930546E+03  0.00000000000E+00 0.  1.
         11    1    3    3    0    0 -0.49668035398E+02 -0.11191634704E+02  0.42921414308E+02  0.66591397597E+02  0.00000000000E+00 0. -1.
        -13    1    4    4    0    0  0.23626250228E+02 -0.15658133272E+01  0.71259877830E+02  0.75090756152E+02  0.00000000000E+00 0.  1.
         13    1    4    4    0    0  0.38023392950E+02 -0.52262802236E+02 -0.32221991260E+01  0.64711370533E+02  0.00000000000E+00 0. -1.
         -2    1    1    2    0  502  0.15822544860E+02  0.33627846728E+02  0.42472551168E+01  0.37406205065E+02  0.00000000000E+00 0.  1.
<scales pt_clust_5="13000.00000" pt_clust_6="13000.00000" pt_clust_7="13000.00000" pt_clust_8="13000.00000" pt_clust_9="37.16430"></scales>
<clustering>
<clus scale="   37.164">  2  9  1 -1</clus>
<clus scale="   90.649">  7  8 -1 -1</clus>
<clus scale="   90.983">  5  6 -1 -1</clus>
<clus scale="  120.123">  2  7  1 -1</clus>
<clus scale="   37.164">  2  5  1 -1</clus>
</clustering>
</event>
<event>
 9    1  0.1315259E-005  0.1040611E+03  0.7546771E-02  0.1278106E+00
         21   -1    0    0  501  502  0.00000000000E+00  0.00000000000E+00  0.31648307923E+03  0.31648307923E+03  0.00000000000E+00 0. -1.
         -1   -1    0    0    0  501 -0.00000000000E+00 -0.00000000000E+00 -0.10489424061E+03  0.10489424061E+03  0.00000000000E+00 0.  1.
         23    2    1    2    0    0 -0.15365032847E+02 -0.27648254163E+02 -0.61309190037E+02  0.11018155617E+03  0.85910699831E+02 0.  0.
         23    2    1    2    0    0  0.19361737237E+02  0.50790870889E+02  0.15739465564E+03  0.19332895945E+03  0.98226368688E+02 0.  0.
        -13    1    3    3    0    0  0.32652607498E+02 -0.28189581608E+02 -0.23951020432E+02  0.49340618839E+02  0.00000000000E+00 0. -1.
         13    1    3    3    0    0 -0.48017640345E+02  0.54132744527E+00 -0.37358169605E+02  0.60840937336E+02  0.00000000000E+00 0.  1.
        -13    1    4    4    0    0  0.50250073717E+02 -0.28733368406E+01  0.71992025113E+02  0.87841776241E+02  0.00000000000E+00 0. -1.
         13    1    4    4    0    0 -0.30888336481E+02  0.53664207729E+02  0.85402630523E+02  0.10548718321E+03  0.00000000000E+00 0.  1.
         -1    1    1    2    0  502 -0.39967043897E+01 -0.23142616726E+02  0.11550337302E+03  0.11786680420E+03  0.00000000000E+00 0.  1.
<scales pt_clust_5="13000.00000" pt_clust_6="13000.00000" pt_clust_7="13000.00000" pt_clust_8="13000.00000" pt_clust_9="23.48519"></scales>
<clustering>
<clus scale="   23.485">  1  9  2 -1</clus>
<clus scale="   85.911">  5  6 -1 -1</clus>
<clus scale="   92.525">  2  5  1 -1</clus>
<clus scale="   98.226">  7  8 -1 -1</clus>
<clus scale="   23.485">  1  5  2 -1</clus>
</clustering>
</event>
<event>
 9    1  0.1315259E-005  0.1063184E+03  0.7546771E-02  0.1267731E+00
         -2   -1    0    0    0  501 -0.00000000000E+00  0.00000000000E+00  0.67400704448E+02  0.67400704448E+02  0.00000000000E+00 0.  1.
         21   -1    0    0  501  502  0.00000000000E+00 -0.00000000000E+00 -0.39766292960E+03  0.39766292960E+03  0.00000000000E+00 0.  1.
         23    2    1    2    0    0  0.46707950829E+02  0.17924287321E+02 -0.15865858845E+02  0.10563912079E+03  0.91678708640E+02 0.  0.
         23    2    1    2    0    0 -0.62161723848E+02 -0.42720627270E+02 -0.30736695917E+03  0.32937305505E+03  0.91230641216E+02 0.  0.
        -13    1    4    4    0    0 -0.75711805720E+02 -0.59668237138E+02 -0.25916511192E+03  0.27651244327E+03  0.00000000000E+00 0.  1.
         13    1    4    4    0    0  0.13550081871E+02  0.16947609868E+02 -0.48201847252E+02  0.52860611777E+02  0.00000000000E+00 0. -1.
        -13    1    3    3    0    0  0.60425714411E+02  0.40728804654E+02  0.31378686204E+01  0.72937978516E+02  0.00000000000E+00 0.  1.
         13    1    3    3    0    0 -0.13717763582E+02 -0.22804517333E+02 -0.19003727466E+02  0.32701142274E+02  0.00000000000E+00 0. -1.
         -2    1    1    2    0  502  0.15453773020E+02  0.24796339949E+02 -0.70294071296E+01  0.30051458201E+02  0.00000000000E+00 0.  1.
<scales pt_clust_5="13000.00000" pt_clust_6="13000.00000" pt_clust_7="13000.00000" pt_clust_8="13000.00000" pt_clust_9="29.21778"></scales>
<clustering>
<clus scale="   29.218">  2  9  1 -1</clus>
<clus scale="   91.231">  5  6 -1 -1</clus>
<clus scale="   91.679">  7  8 -1 -1</clus>
<clus scale="  105.932">  2  5  1 -1</clus>
<clus scale="   29.218">  2  5  1 -1</clus>
</clustering>
</event>
<event>
 9    1  0.1315259E-005  0.1069498E+03  0.7546771E-02  0.1269756E+00
         -1   -1    0    0    0  501 -0.00000000000E+00  0.00000000000E+00  0.19720910941E+03  0.19720910941E+03  0.00000000000E+00 0.  1.
         21   -1    0    0  501  502  0.00000000000E+00 -0.00000000000E+00 -0.95132052853E+02  0.95132052853E+02  0.00000000000E+00 0. -1.
         23    2    1    2    0    0  0.33634306719E+02  0.28031734934E+02  0.60951036819E+02  0.11724475867E+03  0.90079186244E+02 0.  0.
         23    2    1    2    0    0 -0.38038609710E+02 -0.64199088012E+02  0.67907191917E+02  0.12987797265E+03  0.81782897572E+02 0.  0.
        -11    1    4    4    0    0 -0.17458661926E+02 -0.50932595179E+02 -0.39276005119E+01  0.53984814287E+02  0.00000000000E+00 0. -1.
         11    1    4    4    0    0 -0.20579947784E+02 -0.13266492833E+02  0.71834792429E+02  0.75893158362E+02  0.00000000000E+00 0.  1.
        -13    1    3    3    0    0 -0.19619105044E+02  0.29743018641E+02 -0.85749192833E+00  0.35641152241E+02  0.00000000000E+00 0. -1.
         13    1    3    3    0    0  0.53253411764E+02 -0.17112837071E+01  0.61808528747E+02  0.81603606429E+02  0.00000000000E+00 0.  1.
         -1    1    1    2    0  502  0.44043029903E+01  0.36167353078E+02 -0.26781172180E+02  0.45218430942E+02  0.00000000000E+00 0.  1.
<scales pt_clust_5="13000.00000" pt_clust_6="13000.00000" pt_clust_7="13000.00000" pt_clust_8="13000.00000" pt_clust_9="36.43453"></scales>
<clustering>
<clus scale="   36.435">  2  9  1 -1</clus>
<clus scale="   81.783">  5  6 -1 -1</clus>
<clus scale="   90.079">  7  8 -1 -1</clus>
<clus scale="  100.062">  2  5  1 -1</clus>
<clus scale="   36.435">  2  5  1 -1</clus>
</clustering>
</event>
<event>
 9    1  0.1315259E-005  0.9811747E+02  0.7546771E-02  0.1285153E+00
          2   -1    0    0  502    0 -0.00000000000E+00  0.00000000000E+00  0.41900046697E+03  0.41900046697E+03  0.00000000000E+00 0. -1.
         21   -1    0    0  501  502  0.00000000000E+00 -0.00000000000E+00 -0.79366098176E+02  0.79366098176E+02  0.00000000000E+00 0. -1.
         23    2    1    2    0    0 -0.75476364917E+01 -0.52311484651E+02  0.29353695764E+03  0.31152083730E+03  0.89932354178E+02 0.  0.
         23    2    1    2    0    0 -0.20838818986E+02  0.99615633223E+01  0.83468972967E+02  0.12363227735E+03  0.88229141638E+02 0.  0.
        -11    1    4    4    0    0 -0.51240540212E+02 -0.25407731197E+01  0.26216192926E+02  0.57613689873E+02  0.00000000000E+00 0.  1.
         11    1    4    4    0    0  0.30401721226E+02  0.12502336442E+02  0.57252780042E+02  0.66018587478E+02  0.00000000000E+00 0. -1.
        -13    1    3    3    0    0  0.30118694257E+02 -0.58648062872E+02  0.19473201238E+03  0.20559009623E+03  0.00000000000E+00 0. -1.
         13    1    3    3    0    0 -0.37666330748E+02  0.63365782208E+01  0.98804945258E+02  0.10593074107E+03  0.00000000000E+00 0.  1.
          2    1    1    2  501    0  0.28386455477E+02  0.42349921328E+02 -0.37371561814E+02  0.63213450495E+02  0.00000000000E+00 0. -1.
<scales pt_clust_5="13000.00000" pt_clust_6="13000.00000" pt_clust_7="13000.00000" pt_clust_8="13000.00000" pt_clust_9="50.98340"></scales>
<clustering>
<clus scale="   50.983">  2  9  1 -1</clus>
<clus scale="   88.229">  5  6 -1 -1</clus>
<clus scale="   89.932">  7  8 -1 -1</clus>
<clus scale="   96.559">  2  5  1 -1</clus>
<clus scale="   50.983">  2  5  1 -1</clus>
</clustering>
</event>
<event>
 9    1  0.1315259E-005  0.9515785E+02  0.7546771E-02  0.1290829E+00
          2   -1    0    0  502    0 -0.00000000000E+00  0.00000000000E+00  0.33757106396E+02  0.33757106396E+02  0.00000000000E+00 0. -1.
         21   -1    0    0  501  502  0.00000000000E+00 -0.00000000000E+00 -0.42256912285E+03  0.42256912285E+03  0.00000000000E+00 0.  1.
         23    2    1    2    0    0 -0.32661628170E+01  0.21481452579E+02 -0.80774407604E+02  0.12378456742E+03  0.91246882591E+02 0.  0.
         23    2    1    2    0    0  0.10296738540E+02 -0.40647919620E+02 -0.28265191384E+03  0.29996535195E+03  0.91262433577E+02 0.  0.
        -11    1    4    4    0    0 -0.40083756446E+02 -0.19795238153E+02 -0.10463154231E+03  0.11378189061E+03  0.00000000000E+00 0.  1.
         11    1    4    4    0    0  0.50380494985E+02 -0.20852681467E+02 -0.17802037153E+03  0.18618346135E+03  0.00000000000E+00 0. -1.
        -11    1    3    3    0    0 -0.39412743722E+02 -0.11569399490E+02 -0.54369574193E+02  0.68141514293E+02  0.00000000000E+00 0.  1.
         11    1    3    3    0    0  0.36146580905E+02  0.33050852069E+02 -0.26404833411E+02  0.55643053125E+02  0.00000000000E+00 0. -1.
          2    1    1    2  501    0 -0.70305757227E+01  0.19166467041E+02 -0.25385695013E+02  0.32576309876E+02  0.00000000000E+00 0. -1.
<scales pt_clust_5="13000.00000" pt_clust_6="13000.00000" pt_clust_7="13000.00000" pt_clust_8="13000.00000" pt_clust_9="20.41526"></scales>
<clustering>
<clus scale="   20.415">  2  9  1 -1</clus>
<clus scale="   91.247">  7  8 -1 -1</clus>
<clus scale="   91.262">  5  6 -1 -1</clus>
<clus scale="   95.143">  1  7  2 -1</clus>
<clus scale="   20.415">  2  5  1 -1</clus>
</clustering>
</event>
<event>
 9    1  0.1315259E-005  0.1601153E+03  0.7546771E-02  0.1188582E+00
          1   -1    0    0  502    0 -0.00000000000E+00  0.00000000000E+00  0.70382756363E+03  0.70382756363E+03  0.00000000000E+00 0. -1.
         21   -1    0    0  501  502  0.00000000000E+00 -0.00000000000E+00 -0.45455757438E+02  0.45455757438E+02  0.00000000000E+00 0. -1.
         23    2    1    2    0    0  0.12888289743E+03  0.55482914881E+02  0.40532688075E+03  0.43819036622E+03  0.89620096514E+02 0.  0.
         23    2    1    2    0    0 -0.11776721581E+03 -0.35393307144E+02  0.24146132856E+03  0.28537660919E+03  0.89523363294E+02 0.  0.
        -11    1    3    3    0    0  0.10786153856E+03  0.78528507444E+02  0.35162660824E+03  0.37608790144E+03  0.00000000000E+00 0. -1.
         11    1    3    3    0    0  0.21021358874E+02 -0.23045592564E+02  0.53700272503E+02  0.62102464785E+02  0.00000000000E+00 0.  1.
        -11    1    4    4    0    0 -0.41682528108E+02  0.30296243076E+02  0.78137668195E+02  0.93599095535E+02  0.00000000000E+00 0.  1.
         11    1    4    4    0    0 -0.76084687698E+02 -0.65689550220E+02  0.16332366036E+03  0.19177751366E+03  0.00000000000E+00 0. -1.
          1    1    1    2  501    0 -0.11115681628E+02 -0.20089607737E+02  0.11583596891E+02  0.25716345658E+02  0.00000000000E+00 0. -1.
<scales pt_clust_5="13000.00000" pt_clust_6="13000.00000" pt_clust_7="13000.00000" pt_clust_8="13000.00000" pt_clust_9="22.95976"></scales>
<clustering>
<clus scale="   22.960">  2  9  1 -1</clus>
<clus scale="   89.523">  7  8 -1 -1</clus>
<clus scale="   89.620">  5  6 -1 -1</clus>
<clus scale="  160.061">  2  7  1 -1</clus>
<clus scale="   22.960">  2  5  1 -1</clus>
</clustering>
</event>
<event>
 9    1  0.1315259E-005  0.9242477E+02  0.7546771E-02  0.1299904E+00
         21   -1    0    0  501  502  0.00000000000E+00  0.00000000000E+00  0.20032704841E+02  0.20032704841E+02  0.00000000000E+00 0. -1.
         -2   -1    0    0    0  501 -0.00000000000E+00 -0.00000000000E+00 -0.57751070072E+03  0.57751070072E+03  0.00000000000E+00 0.  1.
         23    2    1    2    0    0 -0.17479313534E+02  0.29298045750E+01 -0.29852376712E+03  0.31245643289E+03  0.90545418230E+02 0.  0.
         23    2    1    2    0    0  0.14559579413E+02  0.25452411684E+02 -0.20131624794E+03  0.22077358464E+03  0.85749270414E+02 0.  0.
        -13    1    4    4    0    0 -0.18960607937E+02 -0.23028215055E+02 -0.47947615916E+02  0.56469259018E+02  0.00000000000E+00 0.  1.
         13    1    4    4    0    0  0.33520187351E+02  0.48480626739E+02 -0.15336863203E+03  0.16430432562E+03  0.00000000000E+00 0. -1.
        -13    1    3    3    0    0 -0.54249343417E+02  0.89437823571E+01 -0.18137989159E+03  0.18953007038E+03  0.00000000000E+00 0.  1.
         13    1    3    3    0    0  0.36770029884E+02 -0.60139777821E+01 -0.11714387553E+03  0.12292636251E+03  0.00000000000E+00 0. -1.
         -2    1    1    2    0  502  0.29197341203E+01 -0.28382216259E+02 -0.57637980815E+02  0.64313388027E+02  0.00000000000E+00 0.  1.
<scales pt_clust_5="13000.00000" pt_clust_6="13000.00000" pt_clust_7="13000.00000" pt_clust_8="13000.00000" pt_clust_9="28.53200"></scales>
<clustering>
<clus scale="   28.532">  1  9  2 -1</clus>
<clus scale="   85.749">  5  6 -1 -1</clus>
<clus scale="   87.731">  1  5  2 -1</clus>
<clus scale="   90.545">  7  8 -1 -1</clus>
<clus scale="   28.532">  1  5  2 -1</clus>
</clustering>
</event>
<event>
 9    1  0.1315259E-005  0.1728299E+03  0.7546771E-02  0.1175181E+00
          2   -1    0    0  502    0 -0.00000000000E+00  0.00000000000E+00  0.50557647532E+03  0.50557647532E+03  0.00000000000E+00 0. -1.
         21   -1    0    0  501  502  0.00000000000E+00 -0.00000000000E+00 -0.10048112498E+03  0.10048112498E+03  0.00000000000E+00 0. -1.
         23    2    1    2    0    0 -0.52386654599E+02  0.17782942609E+03  0.27154529068E+03  0.34161374276E+03  0.92711584980E+02 0.  0.
         23    2    1    2    0    0  0.56176361066E+02 -0.88572901259E+02  0.85700938713E+02  0.16309975324E+03  0.90862182624E+02 0.  0.
        -11    1    3    3    0    0 -0.24763191708E+02  0.58576995136E+02  0.28930734045E+02  0.69867498847E+02  0.00000000000E+00 0.  1.
         11    1    3    3    0    0 -0.27623462891E+02  0.11925243095E+03  0.24261455663E+03  0.27174624391E+03  0.00000000000E+00 0. -1.
        -11    1    4    4    0    0  0.21524260332E+02 -0.94343934662E+02  0.83648144693E+02  0.12791045266E+03  0.00000000000E+00 0.  1.
         11    1    4    4    0    0  0.34652100734E+02  0.57710334026E+01  0.20527940201E+01  0.35189300577E+02  0.00000000000E+00 0. -1.
          2    1    1    2  501    0 -0.37897064671E+01 -0.89256524827E+02  0.47849120951E+02  0.10134410429E+03  0.00000000000E+00 0. -1.
<scales pt_clust_5="13000.00000" pt_clust_6="13000.00000" pt_clust_7="13000.00000" pt_clust_8="13000.00000" pt_clust_9="89.33694"></scales>
<clustering>
<clus scale="   89.337">  2  9  1 -1</clus>
<clus scale="   90.862">  7  8 -1 -1</clus>
<clus scale="   92.712">  5  6 -1 -1</clus>
<clus scale="  171.845">  2  7  1 -1</clus>
<clus scale="   89.337">  2  5  1 -1</clus>
</clustering>
</event>
<event>
 9    1  0.1315259E-005  0.1022586E+03  0.7546771E-02  0.1276165E+00
         21   -1    0    0  501  502  0.00000000000E+00  0.00000000000E+00  0.55057044753E+03  0.55057044753E+03  0.00000000000E+00 0.  1.
         -3   -1    0    0    0  501 -0.00000000000E+00 -0.00000000000E+00 -0.24129001722E+02  0.24129001722E+02  0.00000000000E+00 0.  1.
         23    2    1    2    0    0 -0.32737801927E+02  0.44171022735E+02  0.24006924822E+03  0.26306364430E+03  0.92446709438E+02 0.  0.
         23    2    1    2    0    0  0.16390941276E+02 -0.27544854276E+02  0.25355564181E+03  0.27137943075E+03  0.91263081190E+02 0.  0.
        -13    1    3    3    0    0 -0.28966013569E+02  0.72145187654E+02  0.15447177308E+03  0.17293202919E+03  0.00000000000E+00 0.  1.
         13    1    3    3    0    0 -0.37717883579E+01 -0.27974164919E+02  0.85597475143E+02  0.90131615104E+02  0.00000000000E+00 0. -1.
        -13    1    4    4    0    0  0.44726190247E+02 -0.36054751306E+02  0.10294084736E+03  0.11788636580E+03  0.00000000000E+00 0. -1.
         13    1    4    4    0    0 -0.28335248971E+02  0.85098970299E+01  0.15061479445E+03  0.15349306496E+03  0.00000000000E+00 0.  1.
         -3    1    1    2    0  502  0.16346860650E+02 -0.16626168459E+02  0.32816555782E+02  0.40256374205E+02  0.00000000000E+00 0.  1.
<scales pt_clust_5="13000.00000" pt_clust_6="13000.00000" pt_clust_7="13000.00000" pt_clust_8="13000.00000" pt_clust_9="23.31630"></scales>
<clustering>
<clus scale="   23.316">  1  9  2 -1</clus>
<clus scale="   91.263">  7  8 -1 -1</clus>
<clus scale="   92.447">  5  6 -1 -1</clus>
<clus scale="  101.190">  1  7  2 -1</clus>
<clus scale="   23.316">  1  5  2 -1</clus>
</clustering>
</event>
<event>
 9    1  0.1315259E-005  0.9311872E+02  0.7546771E-02  0.1314389E+00
          1   -1    0    0  502    0 -0.00000000000E+00  0.00000000000E+00  0.23752798958E+03  0.23752798958E+03  0.00000000000E+00 0. -1.
         21   -1    0    0  501  502  0.00000000000E+00 -0.00000000000E+00 -0.58489434870E+02  0.58489434870E+02  0.00000000000E+00 0.  1.
         23    2    1    2    0    0 -0.43584008194E+01  0.24062934398E+02  0.14445268533E+03  0.15933443413E+03  0.62632764051E+02 0.  0.
         23    2    1    2    0    0 -0.13456295972E+02 -0.72984574907E+01  0.52793947445E+02  0.10618798721E+03  0.90853444396E+02 0.  0.
        -11    1    4    4    0    0 -0.37694716994E+02 -0.35406755046E+02  0.16520252037E+02  0.54290410935E+02  0.00000000000E+00 0.  1.
         11    1    4    4    0    0  0.24238421022E+02  0.28108297555E+02  0.36273695408E+02  0.51897576278E+02  0.00000000000E+00 0. -1.
        -13    1    3    3    0    0 -0.27796169710E+02  0.24462490302E+02  0.51234107674E+02  0.63213719013E+02  0.00000000000E+00 0.  1.
         13    1    3    3    0    0  0.23437768890E+02 -0.39955590366E+00  0.93218577655E+02  0.96120715122E+02  0.00000000000E+00 0. -1.
          1    1    1    2  501    0  0.17814696791E+02 -0.16764476907E+02 -0.18208078060E+02  0.30495003105E+02  0.00000000000E+00 0. -1.
<scales pt_clust_5="13000.00000" pt_clust_6="13000.00000" pt_clust_7="13000.00000" pt_clust_8="13000.00000" pt_clust_9="24.46244"></scales>
<clustering>
<clus scale="   24.462">  2  9  1 -1</clus>
<clus scale="   62.633">  7  8 -1 -1</clus>
<clus scale="   65.876">  1  7  2 -1</clus>
<clus scale="   90.853">  5  6 -1 -1</clus>
<clus scale="   24.462">  2  5  1 -1</clus>
</clustering>
</event>
<event>
 9    1  0.1315259E-005  0.9579165E+02  0.7546771E-02  0.1290152E+00
          2   -1    0    0  502    0 -0.00000000000E+00  0.00000000000E+00  0.25557362504E+03  0.25557362504E+03  0.00000000000E+00 0. -1.
         21   -1    0    0  501  502  0.00000000000E+00 -0.00000000000E+00 -0.17853007893E+03  0.17853007893E+03  0.00000000000E+00 0. -1.
         23    2    1    2    0    0  0.10705048586E+02  0.37307209363E+02  0.14640580599E+03  0.17609370110E+03  0.89821520828E+02 0.  0.
         23    2    1    2    0    0 -0.13636512266E+02 -0.10193241596E+02  0.69850909096E+02  0.11615068120E+03  0.91224857359E+02 0.  0.
        -11    1    4    4    0    0  0.79263788621E+01 -0.29776487264E+02 -0.89923877329E+01  0.32098749396E+02  0.00000000000E+00 0.  1.
         11    1    4    4    0    0 -0.21562891128E+02  0.19583245669E+02  0.78843296829E+02  0.84051931802E+02  0.00000000000E+00 0. -1.
        -13    1    3    3    0    0  0.40569534988E+02  0.50524703854E+02  0.89703986033E+02  0.11065910708E+03  0.00000000000E+00 0.  1.
         13    1    3    3    0    0 -0.29864486402E+02 -0.13217494491E+02  0.56701819956E+02  0.65434594023E+02  0.00000000000E+00 0. -1.
          2    1    1    2  501    0  0.29314636801E+01 -0.27113967767E+02 -0.13921316897E+03  0.14185932167E+03  0.00000000000E+00 0. -1.
<scales pt_clust_5="13000.00000" pt_clust_6="13000.00000" pt_clust_7="13000.00000" pt_clust_8="13000.00000" pt_clust_9="27.27198"></scales>
<clustering>
<clus scale="   27.272">  2  9  1 -1</clus>
<clus scale="   89.822">  7  8 -1 -1</clus>
<clus scale="   91.225">  5  6 -1 -1</clus>
<clus scale="   94.456">  1  7  2 -1</clus>
<clus scale="   27.272">  2  5  1 -1</clus>
</clustering>
</event>
<event>
 9    1  0.1315259E-005  0.2314952E+03  0.7546771E-02  0.1126229E+00
         21   -1    0    0  501  502  0.00000000000E+00  0.00000000000E+00  0.13190358912E+03  0.13190358912E+03  0.00000000000E+00 0. -1.
          2   -1    0    0  502    0 -0.00000000000E+00 -0.00000000000E+00 -0.14704305793E+04  0.14704305793E+04  0.00000000000E+00 0. -1.
         23    2    1    2    0    0 -0.16983092774E+03 -0.10673390533E+02 -0.49727990666E+03  0.53192132269E+03  0.81832283810E+02 0.  0.
         23    2    1    2    0    0  0.26213514684E+03  0.36418241595E+02 -0.91023990642E+03  0.95233289046E+03  0.91433710837E+02 0.  0.
        -11    1    3    3    0    0 -0.98230136711E+02 -0.28650556228E+02 -0.37834885792E+03  0.39194115939E+03  0.00000000000E+00 0.  1.
         11    1    3    3    0    0 -0.71600791027E+02  0.17977165695E+02 -0.11893104874E+03  0.13998016330E+03  0.00000000000E+00 0. -1.
        -11    1    4    4    0    0  0.14317786621E+03 -0.20106693880E+02 -0.55300864260E+03  0.57159665788E+03  0.00000000000E+00 0.  1.
         11    1    4    4    0    0  0.11895728064E+03  0.56524935475E+02 -0.35723126383E+03  0.38073623259E+03  0.00000000000E+00 0. -1.
          2    1    1    2  501    0 -0.92304219106E+02 -0.25744851061E+02  0.68992822919E+02  0.11807995526E+03  0.00000000000E+00 0. -1.
<scales pt_clust_5="13000.00000" pt_clust_6="13000.00000" pt_clust_7="13000.00000" pt_clust_8="13000.00000" pt_clust_9="95.82727"></scales>
<clustering>
<clus scale="   81.832">  5  6 -1 -1</clus>
<clus scale="   91.434">  7  8 -1 -1</clus>
<clus scale="   95.827">  1  9  2 -1</clus>
<clus scale="  227.874">  2  5  1 -1</clus>
<clus scale="   95.827">  1  5  2 -1</clus>
</clustering>
</event>
<event>
 9    1  0.1315259E-005  0.1450157E+03  0.7546771E-02  0.1207358E+00
          1   -1    0    0  502    0 -0.00000000000E+00  0.00000000000E+00  0.38637828854E+03  0.38637828854E+03  0.00000000000E+00 0. -1.
         21   -1    0    0  501  502  0.00000000000E+00 -0.00000000000E+00 -0.17133044049E+03  0.17133044049E+03  0.00000000000E+00 0. -1.
         23    2    1    2    0    0  0.80653152613E+02  0.91107619055E+02  0.22308480970E+03  0.26789544777E+03  0.84826937600E+02 0.  0.
         23    2    1    2    0    0 -0.10097156881E+03 -0.45798039582E+02  0.98366430837E+02  0.17239318944E+03  0.88038280944E+02 0.  0.
        -11    1    4    4    0    0 -0.67544115055E+02 -0.14578831970E+02  0.10548633415E+03  0.12610359437E+03  0.00000000000E+00 0.  1.
         11    1    4    4    0    0 -0.33427453752E+02 -0.31219207612E+02 -0.71199033147E+01  0.46289595067E+02  0.00000000000E+00 0. -1.
        -13    1    3    3    0    0  0.60394736864E+02  0.17645017566E+02  0.14843383369E+03  0.16121871439E+03  0.00000000000E+00 0.  1.
         13    1    3    3    0    0  0.20258415749E+02  0.73462601489E+02  0.74650976013E+02  0.10667673339E+03  0.00000000000E+00 0. -1.
          1    1    1    2  501    0  0.20318416194E+02 -0.45309579473E+02 -0.10640339249E+03  0.11742009181E+03  0.00000000000E+00 0. -1.
<scales pt_clust_5="13000.00000" pt_clust_6="13000.00000" pt_clust_7="13000.00000" pt_clust_8="13000.00000" pt_clust_9="49.65678"></scales>
<clustering>
<clus scale="   49.657">  2  9  1 -1</clus>
<clus scale="   84.827">  7  8 -1 -1</clus>
<clus scale="   88.038">  5  6 -1 -1</clus>
<clus scale="  143.089">  1  7  2 -1</clus>
<clus scale="   49.657">  2  5  1 -1</clus>
</clustering>
</event>
<event>
 9    1  0.1315259E-005  0.9952864E+02  0.7546771E-02  0.1283132E+00
         21   -1    0    0  501  502  0.00000000000E+00  0.00000000000E+00  0.54052224844E+03  0.54052224844E+03  0.00000000000E+00 0.  1.
          1   -1    0    0  502    0 -0.00000000000E+00 -0.00000000000E+00 -0.32700074086E+02  0.32700074086E+02  0.00000000000E+00 0. -1.
         23    2    1    2    0    0  0.26510983781E+02  0.32464117750E+00  0.10547203116E+03  0.14010211491E+03  0.88325056423E+02 0.  0.
         23    2    1    2    0    0 -0.56584494113E+02  0.15560523858E+02  0.19920535894E+03  0.22714798167E+03  0.92029862919E+02 0.  0.
        -11    1    4    4    0    0 -0.15877555059E+02  0.37194049505E+02  0.26390284244E+02  0.48290176804E+02  0.00000000000E+00 0.  1.
         11    1    4    4    0    0 -0.40706939054E+02 -0.21633525647E+02  0.17281507469E+03  0.17885780486E+03  0.00000000000E+00 0. -1.
        -13    1    3    3    0    0 -0.10274572250E+02 -0.23330413569E+02  0.90269864908E+02  0.93800445323E+02  0.00000000000E+00 0.  1.
         13    1    3    3    0    0  0.36785556031E+02  0.23655054746E+02  0.15202166248E+02  0.46301669584E+02  0.00000000000E+00 0. -1.
          1    1    1    2  501    0  0.30073510332E+02 -0.15885165036E+02  0.20314478426E+03  0.20597222596E+03  0.00000000000E+00 0. -1.
<scales pt_clust_5="13000.00000" pt_clust_6="13000.00000" pt_clust_7="13000.00000" pt_clust_8="13000.00000" pt_clust_9="34.01109"></scales>
<clustering>
<clus scale="   34.011">  1  9  2 -1</clus>
<clus scale="   88.325">  7  8 -1 -1</clus>
<clus scale="   92.030">  5  6 -1 -1</clus>
<clus scale="   96.113">  2  7  1 -1</clus>
<clus scale="   34.011">  1  5  2 -1</clus>
</clustering>
</event>
<event>
 9    1  0.1315259E-005  0.9868338E+02  0.7546771E-02  0.1285916E+00
          1   -1    0    0  502    0 -0.00000000000E+00  0.00000000000E+00  0.18887565793E+03  0.18887565793E+03  0.00000000000E+00 0. -1.
         21   -1    0    0  501  502  0.00000000000E+00 -0.00000000000E+00 -0.32451269997E+03  0.32451269997E+03  0.00000000000E+00 0.  1.
         23    2    1    2    0    0  0.26194949989E+02 -0.10157364568E+02  0.13693526930E+03  0.16676813539E+03  0.90945013847E+02 0.  0.
         23    2    1    2    0    0  0.62454736328E+02  0.33643559876E+02 -0.12569460816E+03  0.17346298775E+03  0.96217412084E+02 0.  0.
        -11    1    4    4    0    0  0.94257509143E+00 -0.22610184211E+02  0.13040080068E-01  0.22629826511E+02  0.00000000000E+00 0. -1.
         11    1    4    4    0    0  0.61512161237E+02  0.56253744087E+02 -0.12570764824E+03  0.15083316124E+03  0.00000000000E+00 0.  1.
        -13    1    3    3    0    0  0.55316478859E+02 -0.22613573867E+02  0.65726011925E+02  0.88832399494E+02  0.00000000000E+00 0.  1.
         13    1    3    3    0    0 -0.29121528870E+02  0.12456209299E+02  0.71209257379E+02  0.77935735900E+02  0.00000000000E+00 0. -1.
          1    1    1    2  501    0 -0.88649686318E+02 -0.23486195308E+02 -0.14687770318E+03  0.17315723475E+03  0.00000000000E+00 0. -1.
<scales pt_clust_5="13000.00000" pt_clust_6="13000.00000" pt_clust_7="13000.00000" pt_clust_8="13000.00000" pt_clust_9="91.70806"></scales>
<clustering>
<clus scale="   90.945">  7  8 -1 -1</clus>
<clus scale="   91.708">  2  9  1 -1</clus>
<clus scale="   93.550">  1  7  2 -1</clus>
<clus scale="   96.217">  5  6 -1 -1</clus>
<clus scale="   91.708">  2  5  1 -1</clus>
</clustering>
</event>
<event>
 9    1  0.1315259E-005  0.9516608E+02  0.7546771E-02  0.1297263E+00
          1   -1    0    0  502    0 -0.00000000000E+00  0.00000000000E+00  0.36077642436E+03  0.36077642436E+03  0.00000000000E+00 0. -1.
         21   -1    0    0  501  502  0.00000000000E+00 -0.00000000000E+00 -0.75640365833E+02  0.75640365833E+02  0.00000000000E+00 0. -1.
         23    2    1    2    0    0  0.43308698921E+02  0.72836503003E+01  0.20595712761E+03  0.22527073605E+03  0.79999194637E+02 0.  0.
         23    2    1    2    0    0 -0.36128983265E-01  0.10549678558E+02  0.11853757426E+03  0.14999341125E+03  0.91299342187E+02 0.  0.
        -13    1    4    4    0    0 -0.23256137284E+02  0.41824824692E+02  0.89207883867E+02  0.10123344519E+03  0.00000000000E+00 0. -1.
         13    1    4    4    0    0  0.23220008301E+02 -0.31275146134E+02  0.29329690394E+02  0.48759966056E+02  0.00000000000E+00 0.  1.
        -13    1    3    3    0    0  0.97681452688E+01 -0.31904583712E+02  0.43510995113E+02  0.54831795699E+02  0.00000000000E+00 0.  1.
         13    1    3    3    0    0  0.33540553652E+02  0.39188234012E+02  0.16244613250E+03  0.17043894035E+03  0.00000000000E+00 0. -1.
          1    1    1    2  501    0 -0.43272569938E+02 -0.17833328858E+02 -0.39358643343E+02  0.61152642895E+02  0.00000000000E+00 0. -1.
<scales pt_clust_5="13000.00000" pt_clust_6="13000.00000" pt_clust_7="13000.00000" pt_clust_8="13000.00000" pt_clust_9="46.80324"></scales>
<clustering>
<clus scale="   46.803">  2  9  1 -1</clus>
<clus scale="   79.999">  7  8 -1 -1</clus>
<clus scale="   84.385">  1  7  2 -1</clus>
<clus scale="   91.299">  5  6 -1 -1</clus>
<clus scale="   46.803">  2  5  1 -1</clus>
</clustering>
</event>
<event>
 9    1  0.1315259E-005  0.1058627E+03  0.7546771E-02  0.1268542E+00
         -1   -1    0    0    0  501 -0.00000000000E+00  0.00000000000E+00  0.40828357383E+03  0.40828357383E+03  0.00000000000E+00 0.  1.
         21   -1    0    0  501  502  0.00000000000E+00 -0.00000000000E+00 -0.64398718201E+02  0.64398718201E+02  0.00000000000E+00 0. -1.
         23    2    1    2    0    0  0.44278201425E+02 -0.23493614867E+02  0.26634278865E+03  0.28592840061E+03  0.91126615999E+02 0.  0.
         23    2    1    2    0    0 -0.77508813783E+02 -0.55697559334E+01  0.33869730020E+02  0.12465537184E+03  0.91395649354E+02 0.  0.
        -11    1    3    3    0    0  0.48909430533E+02 -0.53610001972E+02  0.20433443430E+03  0.21683801730E+03  0.00000000000E+00 0.  1.
         11    1    3    3    0    0 -0.46312291080E+01  0.30116387105E+02  0.62008354354E+02  0.69090383303E+02  0.00000000000E+00 0. -1.
        -11    1    4    4    0    0 -0.70520955279E+02 -0.24380419054E+02  0.57100477630E+02  0.93957833693E+02  0.00000000000E+00 0.  1.
         11    1    4    4    0    0 -0.69878585033E+01  0.18810663121E+02 -0.23230747610E+02  0.30697538143E+02  0.00000000000E+00 0. -1.
         -1    1    1    2    0  502  0.33230612358E+02  0.29063370801E+02  0.43672336951E+02  0.62098519586E+02  0.00000000000E+00 0.  1.
<scales pt_clust_5="13000.00000" pt_clust_6="13000.00000" pt_clust_7="13000.00000" pt_clust_8="13000.00000" pt_clust_9="44.14695"></scales>
<clustering>
<clus scale="   44.147">  2  9  1 -1</clus>
<clus scale="   91.127">  5  6 -1 -1</clus>
<clus scale="   91.396">  7  8 -1 -1</clus>
<clus scale="  105.631">  1  5  2 -1</clus>
<clus scale="   44.147">  2  5  1 -1</clus>
</clustering>
</event>
<event>
 9    1  0.1315259E-005  0.9454140E+02  0.7546771E-02  0.1293200E+00
         -2   -1    0    0    0  501 -0.00000000000E+00  0.00000000000E+00  0.26418499075E+03  0.26418499075E+03  0.00000000000E+00 0.  1.
         21   -1    0    0  501  502  0.00000000000E+00 -0.00000000000E+00 -0.57879748997E+02  0.57879748997E+02  0.00000000000E+00 0. -1.
         23    2    1    2    0    0  0.11734049033E+02 -0.22610258711E+02  0.16857056382E+03  0.19268930034E+03  0.89801000966E+02 0.  0.
         23    2    1    2    0    0  0.10253951013E+02  0.23391158748E+02  0.46315941282E+02  0.10575934254E+03  0.91583744730E+02 0.  0.
        -11    1    4    4    0    0  0.37528402824E+02  0.44596489946E+02  0.17742794772E+02  0.60926469620E+02  0.00000000000E+00 0. -1.
         11    1    4    4    0    0 -0.27274451811E+02 -0.21205331198E+02  0.28573146510E+02  0.44832872920E+02  0.00000000000E+00 0.  1.
        -13    1    3    3    0    0  0.45248524153E+02 -0.12878512805E+01  0.49073053897E+02  0.66762655113E+02  0.00000000000E+00 0. -1.
         13    1    3    3    0    0 -0.33514475120E+02 -0.21322407430E+02  0.11949750992E+03  0.12592664523E+03  0.00000000000E+00 0.  1.
         -2    1    1    2    0  502 -0.21988000046E+02 -0.78090003688E+00 -0.85812633417E+01  0.23616096871E+02  0.00000000000E+00 0.  1.
<scales pt_clust_5="13000.00000" pt_clust_6="13000.00000" pt_clust_7="13000.00000" pt_clust_8="13000.00000" pt_clust_9="22.00186"></scales>
<clustering>
<clus scale="   22.002">  2  9  1 -1</clus>
<clus scale="   89.801">  7  8 -1 -1</clus>
<clus scale="   91.584">  5  6 -1 -1</clus>
<clus scale="   92.815">  1  7  2 -1</clus>
<clus scale="   22.002">  2  5  1 -1</clus>
</clustering>
</event>
<event>
 9    1  0.1574888E-005  0.1380365E+03  0.7546771E-02  0.1216370E+00
          1   -1    0    0  502    0 -0.00000000000E+00  0.00000000000E+00  0.42274018824E+03  0.42274018824E+03  0.00000000000E+00 0. -1.
         21   -1    0    0  501  502  0.00000000000E+00 -0.00000000000E+00 -0.18817638944E+03  0.18817638944E+03  0.00000000000E+00 0.  1.
         23    2    1    2    0    0  0.94901814626E+02 -0.38302743880E+02  0.37324530645E+03  0.39794266113E+03  0.92589676260E+02 0.  0.
         23    2    1    2    0    0 -0.86913931219E+02  0.59005151589E+02 -0.12497771728E+03  0.18689346723E+03  0.90962074102E+02 0.  0.
        -13    1    4    4    0    0 -0.59560231581E+02 -0.27892478242E+01 -0.96770347208E+02  0.11366486347E+03  0.00000000000E+00 0.  1.
         13    1    4    4    0    0 -0.27353699637E+02  0.61794399413E+02 -0.28207370071E+02  0.73228603762E+02  0.00000000000E+00 0. -1.
        -13    1    3    3    0    0  0.32015923463E+02  0.30714925588E+02  0.13213307436E+03  0.13938283735E+03  0.00000000000E+00 0.  1.
         13    1    3    3    0    0  0.62885891162E+02 -0.69017669468E+02  0.24111223209E+03  0.25855982377E+03  0.00000000000E+00 0. -1.
          1    1    1    2  501    0 -0.79878834067E+01 -0.20702407709E+02 -0.13703790369E+02  0.26080449320E+02  0.00000000000E+00 0. -1.
<scales pt_clust_5="13000.00000" pt_clust_6="13000.00000" pt_clust_7="13000.00000" pt_clust_8="13000.00000" pt_clust_9="22.19000"></scales>
<clustering>
<clus scale="   22.190">  2  9  1 -1</clus>
<clus scale="   90.962">  5  6 -1 -1</clus>
<clus scale="   92.590">  7  8 -1 -1</clus>
<clus scale="  136.950">  2  5  1 -1</clus>
<clus scale="   22.190">  2  5  1 -1</clus>
</clustering>
</event>
<event>
 9    1  0.1315259E-005  0.1107507E+03  0.7546771E-02  0.1259718E+00
         -3   -1    0    0    0  501 -0.00000000000E+00  0.00000000000E+00  0.12740274524E+03  0.12740274524E+03  0.00000000000E+00 0.  1.
         21   -1    0    0  501  502  0.00000000000E+00 -0.00000000000E+00 -0.26054777766E+03  0.26054777766E+03  0.00000000000E+00 0. -1.
         23    2    1    2    0    0 -0.68135477378E+01  0.48300814382E+02  0.36533979237E+02  0.11111041577E+03  0.92905326821E+02 0.  0.
         23    2    1    2    0    0  0.35521997932E+02 -0.10912418776E+03 -0.14160311026E+03  0.20395722779E+03  0.91527095675E+02 0.  0.
        -11    1    4    4    0    0 -0.22140826343E+02 -0.77764871512E+02 -0.71693750890E+02  0.10806287683E+03  0.00000000000E+00 0. -1.
         11    1    4    4    0    0  0.57662824275E+02 -0.31359316247E+02 -0.69909359371E+02  0.95894350962E+02  0.00000000000E+00 0.  1.
        -13    1    3    3    0    0  0.18672522901E+02 -0.22705644591E+02  0.12361441306E+02  0.31890666957E+02  0.00000000000E+00 0. -1.
         13    1    3    3    0    0 -0.25486070639E+02  0.71006458973E+02  0.24172537931E+02  0.79219748817E+02  0.00000000000E+00 0.  1.
         -3    1    1    2    0  502 -0.28708450194E+02  0.60823373376E+02 -0.28075901391E+02  0.72882879336E+02  0.00000000000E+00 0.  1.
<scales pt_clust_5="13000.00000" pt_clust_6="13000.00000" pt_clust_7="13000.00000" pt_clust_8="13000.00000" pt_clust_9="67.25814"></scales>
<clustering>
<clus scale="   67.258">  2  9  1 -1</clus>
<clus scale="   91.527">  5  6 -1 -1</clus>
<clus scale="   92.905">  7  8 -1 -1</clus>
<clus scale="  109.597">  2  5  1 -1</clus>
<clus scale="   67.258">  2  5  1 -1</clus>
</clustering>
</event>
<event>
 9    1  0.1315259E-005  0.1187040E+03  0.7546771E-02  0.1246085E+00
          4   -1    0    0  502    0 -0.00000000000E+00  0.00000000000E+00  0.10481474264E+03  0.10481474264E+03  0.00000000000E+00 0. -1.
         21   -1    0    0  501  502  0.00000000000E+00 -0.00000000000E+00 -0.24614908391E+03  0.24614908391E+03  0.00000000000E+00 0. -1.
         23    2    1    2    0    0 -0.51742392942E+02 -0.43253801203E+02  0.17925561976E+02  0.11578296670E+03  0.92391574613E+02 0.  0.
         23    2    1    2    0    0  0.72733723185E+02  0.68613519513E+02 -0.14905581983E+03  0.20071530348E+03  0.89838666938E+02 0.  0.
        -11    1    4    4    0    0  0.92439927093E+02  0.49087410736E+02 -0.13073263650E+03  0.16746861276E+03  0.00000000000E+00 0. -1.
         11    1    4    4    0    0 -0.19706203907E+02  0.19526108776E+02 -0.18323183328E+02  0.33246690717E+02  0.00000000000E+00 0.  1.
        -13    1    3    3    0    0 -0.11757814475E+02 -0.46983412591E+02 -0.27061200843E+02  0.55479688635E+02  0.00000000000E+00 0.  1.
         13    1    3    3    0    0 -0.39984578467E+02  0.37296113877E+01  0.44986762819E+02  0.60303278064E+02  0.00000000000E+00 0. -1.
          4    1    1    2  501    0 -0.20991330243E+02 -0.25359718309E+02 -0.10204083415E+02  0.34465556378E+02  0.00000000000E+00 0. -1.
<scales pt_clust_5="13000.00000" pt_clust_6="13000.00000" pt_clust_7="13000.00000" pt_clust_8="13000.00000" pt_clust_9="32.92039"></scales>
<clustering>
<clus scale="   32.920">  2  9  1 -1</clus>
<clus scale="   89.839">  5  6 -1 -1</clus>
<clus scale="   92.392">  7  8 -1 -1</clus>
<clus scale="  116.728">  2  5  1 -1</clus>
<clus scale="   32.920">  2  5  1 -1</clus>
</clustering>
</event>
<event>
 9    1  0.1315259E-005  0.9480652E+02  0.7546771E-02  0.1292321E+00
         -1   -1    0    0    0  501 -0.00000000000E+00  0.00000000000E+00  0.20239609055E+03  0.20239609055E+03  0.00000000000E+00 0.  1.
         21   -1    0    0  501  502  0.00000000000E+00 -0.00000000000E+00 -0.74560980792E+02  0.74560980792E+02  0.00000000000E+00 0. -1.
         23    2    1    2    0    0 -0.18712169715E+02 -0.39681250069E+01  0.83445045542E+02  0.12547236225E+03  0.91729748451E+02 0.  0.
         23    2    1    2    0    0  0.89530432911E+01  0.45577389084E+02  0.25900062937E+02  0.10491807348E+03  0.90440773448E+02 0.  0.
        -11    1    4    4    0    0  0.20765895133E+02 -0.10907368273E+02  0.39215345640E+02  0.45695037115E+02  0.00000000000E+00 0. -1.
         11    1    4    4    0    0 -0.11812851842E+02  0.56484757357E+02 -0.13315282703E+02  0.59223036361E+02  0.00000000000E+00 0.  1.
        -11    1    3    3    0    0 -0.33131679072E+02 -0.38243289798E+02  0.25600052378E+02  0.56706437505E+02  0.00000000000E+00 0. -1.
         11    1    3    3    0    0  0.14419509356E+02  0.34275164792E+02  0.57844993164E+02  0.68765924742E+02  0.00000000000E+00 0.  1.
         -1    1    1    2    0  502  0.97591264243E+01 -0.41609264077E+02  0.18490001281E+02  0.46566635620E+02  0.00000000000E+00 0.  1.
<scales pt_clust_5="13000.00000" pt_clust_6="13000.00000" pt_clust_7="13000.00000" pt_clust_8="13000.00000" pt_clust_9="42.73841"></scales>
<clustering>
<clus scale="   42.738">  2  9  1 -1</clus>
<clus scale="   90.441">  5  6 -1 -1</clus>
<clus scale="   91.730">  7  8 -1 -1</clus>
<clus scale="   93.560">  2  5  1 -1</clus>
<clus scale="   42.738">  2  5  1 -1</clus>
</clustering>
</event>
<event>
 9    1  0.1315259E-005  0.9363595E+02  0.7546771E-02  0.1294639E+00
          2   -1    0    0  502    0 -0.00000000000E+00  0.00000000000E+00  0.69491705131E+03  0.69491705131E+03  0.00000000000E+00 0. -1.
         21   -1    0    0  501  502  0.00000000000E+00 -0.00000000000E+00 -0.22913199529E+02  0.22913199529E+02  0.00000000000E+00 0.  1.
         23    2    1    2    0    0  0.17739648776E+02  0.54585683930E+00  0.34011191171E+03  0.35272095849E+03  0.91765837710E+02 0.  0.
         23    2    1    2    0    0  0.14313221640E+02  0.38917759354E+02  0.22494766085E+03  0.24669543184E+03  0.92399814169E+02 0.  0.
        -11    1    4    4    0    0 -0.29191106070E+02 -0.97674264211E+01  0.11281899996E+03  0.11694293499E+03  0.00000000000E+00 0. -1.
         11    1    4    4    0    0  0.43504327711E+02  0.48685185775E+02  0.11212866089E+03  0.12975249684E+03  0.00000000000E+00 0.  1.
        -13    1    3    3    0    0  0.32343944481E+02 -0.38198002203E+02  0.22166593429E+03  0.22724657212E+03  0.00000000000E+00 0. -1.
         13    1    3    3    0    0 -0.14604295705E+02  0.38743859043E+02  0.11844597743E+03  0.12547438637E+03  0.00000000000E+00 0.  1.
          2    1    1    2  501    0 -0.32052870416E+02 -0.39463616193E+02  0.10694427921E+03  0.11841386051E+03  0.00000000000E+00 0. -1.
<scales pt_clust_5="13000.00000" pt_clust_6="13000.00000" pt_clust_7="13000.00000" pt_clust_8="13000.00000" pt_clust_9="50.84057"></scales>
<clustering>
<clus scale="   50.841">  2  9  1 -1</clus>
<clus scale="   91.766">  7  8 -1 -1</clus>
<clus scale="   92.400">  5  6 -1 -1</clus>
<clus scale="   93.010">  1  7  2 -1</clus>
<clus scale="   50.841">  2  5  1 -1</clus>
</clustering>
</event>
<event>
 9    1  0.1315259E-005  0.1093363E+03  0.7546771E-02  0.1262149E+00
          2   -1    0    0  502    0 -0.00000000000E+00  0.00000000000E+00  0.37892574867E+03  0.37892574867E+03  0.00000000000E+00 0. -1.
         21   -1    0    0  501  502  0.00000000000E+00 -0.00000000000E+00 -0.21897931349E+03  0.21897931349E+03  0.00000000000E+00 0. -1.
         23    2    1    2    0    0  0.20400761535E+02 -0.76333662187E+02  0.22860260190E+03  0.25805533849E+03  0.89946590105E+02 0.  0.
         23    2    1    2    0    0 -0.28326466300E+02  0.33537912847E+02  0.11452528040E+03  0.15156872218E+03  0.89049746781E+02 0.  0.
        -11    1    4    4    0    0  0.30737348992E+02  0.42755672403E+01  0.22322320349E+02  0.38227622004E+02  0.00000000000E+00 0. -1.
         11    1    4    4    0    0 -0.59063815292E+02  0.29262345607E+02  0.92202960050E+02  0.11334110018E+03  0.00000000000E+00 0.  1.
        -11    1    3    3    0    0 -0.64463375548E+01 -0.81338060038E+02  0.11366854031E+03  0.13992130765E+03  0.00000000000E+00 0. -1.
         11    1    3    3    0    0  0.26847099090E+02  0.50043978517E+01  0.11493406160E+03  0.11813403084E+03  0.00000000000E+00 0.  1.
          2    1    1    2  501    0  0.79257047648E+01  0.42795749340E+02 -0.18318144712E+03  0.18828100150E+03  0.00000000000E+00 0. -1.
<scales pt_clust_5="13000.00000" pt_clust_6="13000.00000" pt_clust_7="13000.00000" pt_clust_8="13000.00000" pt_clust_9="43.52348"></scales>
<clustering>
<clus scale="   43.523">  2  9  1 -1</clus>
<clus scale="   89.050">  5  6 -1 -1</clus>
<clus scale="   89.947">  7  8 -1 -1</clus>
<clus scale="  108.600">  2  5  1 -1</clus>
<clus scale="   43.523">  2  5  1 -1</clus>
</clustering>
</event>
<event>
 9    1  0.1315259E-005  0.2296476E+03  0.7546771E-02  0.1127658E+00
          2   -1    0    0  502    0 -0.00000000000E+00  0.00000000000E+00  0.10294492889E+04  0.10294492889E+04  0.00000000000E+00 0. -1.
         21   -1    0    0  501  502  0.00000000000E+00 -0.00000000000E+00 -0.78204509496E+02  0.78204509496E+02  0.00000000000E+00 0.  1.
         23    2    1    2    0    0  0.20025907431E+03  0.29389229850E+02  0.63870489227E+03  0.67683985097E+03  0.95920908989E+02 0.  0.
         23    2    1    2    0    0 -0.22097129984E+03 -0.17341700007E+02  0.32603626182E+03  0.40331319486E+03  0.85046100542E+02 0.  0.
        -11    1    3    3    0    0  0.13405671448E+02  0.33797460691E+02  0.85342199294E+02  0.92764601851E+02  0.00000000000E+00 0.  1.
         11    1    3    3    0    0  0.18685340286E+03 -0.44082308412E+01  0.55336269297E+03  0.58407524912E+03  0.00000000000E+00 0. -1.
        -11    1    4    4    0    0 -0.53236987513E+02 -0.38875802530E+02  0.67244596175E+02  0.94166557634E+02  0.00000000000E+00 0. -1.
         11    1    4    4    0    0 -0.16773431233E+03  0.21534102524E+02  0.25879166564E+03  0.30914663723E+03  0.00000000000E+00 0.  1.
          2    1    1    2  501    0  0.20712225529E+02 -0.12047529843E+02 -0.13496374686E+02  0.27500752560E+02  0.00000000000E+00 0. -1.
<scales pt_clust_5="13000.00000" pt_clust_6="13000.00000" pt_clust_7="13000.00000" pt_clust_8="13000.00000" pt_clust_9="23.96120"></scales>
<clustering>
<clus scale="   23.961">  2  9  1 -1</clus>
<clus scale="   85.046">  7  8 -1 -1</clus>
<clus scale="   95.921">  5  6 -1 -1</clus>
<clus scale="  225.322">  2  7  1 -1</clus>
<clus scale="   23.961">  2  5  1 -1</clus>
</clustering>
</event>
<event>
 9    1  0.1315259E-005  0.2033920E+03  0.7546771E-02  0.1147826E+00
         21   -1    0    0  501  502  0.00000000000E+00  0.00000000000E+00  0.89618031051E+02  0.89618031051E+02  0.00000000000E+00 0.  1.
          2   -1    0    0  502    0 -0.00000000000E+00 -0.00000000000E+00 -0.77105133444E+03  0.77105133444E+03  0.00000000000E+00 0. -1.
         23    2    1    2    0    0 -0.15506723037E+03 -0.99841991369E+02 -0.57032166623E+03  0.60796054354E+03  0.10166095784E+03 0.  0.
         23    2    1    2    0    0  0.12094305568E+03  0.84388606625E+02 -0.50211888852E+02  0.18121025035E+03  0.92559501959E+02 0.  0.
        -11    1    4    4    0    0  0.10313906350E+03  0.10229733384E+03 -0.28783034048E+02  0.14809076264E+03  0.00000000000E+00 0.  1.
         11    1    4    4    0    0  0.17803992185E+02 -0.17908727211E+02 -0.21428854804E+02  0.33119487711E+02  0.00000000000E+00 0. -1.
        -13    1    3    3    0    0 -0.14117853276E+03 -0.64555348040E+02 -0.53143674677E+03  0.55364590389E+03  0.00000000000E+00 0.  1.
         13    1    3    3    0    0 -0.13888697611E+02 -0.35286643329E+02 -0.38884919458E+02  0.54314639648E+02  0.00000000000E+00 0. -1.
          2    1    1    2  501    0  0.34124174688E+02  0.15453384744E+02 -0.60899748306E+02  0.71498571608E+02  0.00000000000E+00 0. -1.
<scales pt_clust_5="13000.00000" pt_clust_6="13000.00000" pt_clust_7="13000.00000" pt_clust_8="13000.00000" pt_clust_9="37.46022"></scales>
<clustering>
<clus scale="   37.460">  1  9  2 -1</clus>
<clus scale="   92.560">  5  6 -1 -1</clus>
<clus scale="  101.661">  7  8 -1 -1</clus>
<clus scale="  198.999">  1  5  2 -1</clus>
<clus scale="   37.460">  1  5  2 -1</clus>
</clustering>
</event>
<event>
 9    1  0.1315259E-005  0.1301902E+03  0.7546771E-02  0.1228637E+00
         -2   -1    0    0    0  501 -0.00000000000E+00  0.00000000000E+00  0.80143119929E+03  0.80143119929E+03  0.00000000000E+00 0.  1.
         21   -1    0    0  501  502  0.00000000000E+00 -0.00000000000E+00 -0.27063333172E+02  0.27063333172E+02  0.00000000000E+00 0. -1.
         23    2    1    2    0    0  0.71541856783E+02  0.38994024213E+02  0.35457740851E+03  0.37550216247E+03  0.92940648771E+02 0.  0.
         23    2    1    2    0    0 -0.82079969151E+02 -0.59996692624E+02  0.40125580571E+03  0.42306416902E+03  0.87409067225E+02 0.  0.
        -11    1    3    3    0    0  0.37731305923E+02 -0.28643689080E+02  0.15510310538E+03  0.16217609463E+03  0.00000000000E+00 0. -1.
         11    1    3    3    0    0  0.33810550860E+02  0.67637713293E+02  0.19947430313E+03  0.21332606784E+03  0.00000000000E+00 0.  1.
        -11    1    4    4    0    0 -0.35730657331E+02 -0.11663266971E+02  0.37134914785E+02  0.52836668761E+02  0.00000000000E+00 0. -1.
         11    1    4    4    0    0 -0.46349311820E+02 -0.48333425653E+02  0.36412089093E+03  0.37022750026E+03  0.00000000000E+00 0.  1.
         -2    1    1    2    0  502  0.10538112368E+02  0.21002668410E+02  0.18534651897E+02  0.29928200974E+02  0.00000000000E+00 0.  1.
<scales pt_clust_5="13000.00000" pt_clust_6="13000.00000" pt_clust_7="13000.00000" pt_clust_8="13000.00000" pt_clust_9="23.49817"></scales>
<clustering>
<clus scale="   23.498">  2  9  1 -1</clus>
<clus scale="   87.409">  7  8 -1 -1</clus>
<clus scale="   92.941">  5  6 -1 -1</clus>
<clus scale="  126.301">  2  7  1 -1</clus>
<clus scale="   23.498">  2  5  1 -1</clus>
</clustering>
</event>
<event>
 9    1  0.1315259E-005  0.1028323E+03  0.7546771E-02  0.1275307E+00
          1   -1    0    0  502    0 -0.00000000000E+00  0.00000000000E+00  0.29533848090E+03  0.29533848090E+03  0.00000000000E+00 0. -1.
         21   -1    0    0  501  502  0.00000000000E+00 -0.00000000000E+00 -0.80962127383E+02  0.80962127383E+02  0.00000000000E+00 0. -1.
         23    2    1    2    0    0 -0.53047073234E-01 -0.58211178154E+02  0.15211972565E+03  0.18642447292E+03  0.90692497468E+02 0.  0.
         23    2    1    2    0    0 -0.30595031815E+02  0.22819442444E+02  0.90701798540E+02  0.13509468385E+03  0.92557951683E+02 0.  0.
        -11    1    4    4    0    0  0.29957271880E+02  0.25428780325E+02  0.40046819494E+02  0.56105336278E+02  0.00000000000E+00 0.  1.
         11    1    4    4    0    0 -0.60552303695E+02 -0.26093378803E+01  0.50654979047E+02  0.78989347568E+02  0.00000000000E+00 0. -1.
        -13    1    3    3    0    0  0.37831684330E+02 -0.90778698752E-01  0.62964823744E+02  0.73456201979E+02  0.00000000000E+00 0. -1.
         13    1    3    3    0    0 -0.37884731403E+02 -0.58120399455E+02  0.89154901903E+02  0.11296827094E+03  0.00000000000E+00 0.  1.
          1    1    1    2  501    0  0.30648078888E+02  0.35391735710E+02 -0.28445170668E+02  0.54781451518E+02  0.00000000000E+00 0. -1.
<scales pt_clust_5="13000.00000" pt_clust_6="13000.00000" pt_clust_7="13000.00000" pt_clust_8="13000.00000" pt_clust_9="46.81751"></scales>
<clustering>
<clus scale="   46.818">  2  9  1 -1</clus>
<clus scale="   90.692">  7  8 -1 -1</clus>
<clus scale="   92.558">  5  6 -1 -1</clus>
<clus scale="  101.157">  1  7  2 -1</clus>
<clus scale="   46.818">  2  5  1 -1</clus>
</clustering>
</event>
<event>
 9    1  0.1315259E-005  0.9781818E+02  0.7546771E-02  0.1284963E+00
         -2   -1    0    0    0  501 -0.00000000000E+00  0.00000000000E+00  0.18039853471E+03  0.18039853471E+03  0.00000000000E+00 0.  1.
         21   -1    0    0  501  502  0.00000000000E+00 -0.00000000000E+00 -0.89427432830E+02  0.89427432830E+02  0.00000000000E+00 0. -1.
         23    2    1    2    0    0 -0.58464518570E+01 -0.33171102510E+02  0.44999911990E+02  0.10706180887E+03  0.91119349198E+02 0.  0.
         23    2    1    2    0    0 -0.39035680771E+02  0.29711439202E+02  0.54456367972E+02  0.11695615340E+03  0.91141054486E+02 0.  0.
        -11    1    4    4    0    0 -0.62505002823E+02  0.21256655176E+02  0.11116747939E+02  0.66950002628E+02  0.00000000000E+00 0. -1.
         11    1    4    4    0    0  0.23469322051E+02  0.84547840263E+01  0.43339620034E+02  0.50006150773E+02  0.00000000000E+00 0.  1.
        -13    1    3    3    0    0  0.36106835086E+02  0.62323120928E+01  0.50211103213E+01  0.36983196222E+02  0.00000000000E+00 0.  1.
         13    1    3    3    0    0 -0.41953286943E+02 -0.39403414603E+02  0.39978801669E+02  0.70078612647E+02  0.00000000000E+00 0. -1.
         -2    1    1    2    0  502  0.44882132628E+02  0.34596633081E+01 -0.84851780847E+01  0.45808005268E+02  0.00000000000E+00 0.  1.
<scales pt_clust_5="13000.00000" pt_clust_6="13000.00000" pt_clust_7="13000.00000" pt_clust_8="13000.00000" pt_clust_9="45.01528"></scales>
<clustering>
<clus scale="   45.015">  2  9  1 -1</clus>
<clus scale="   91.119">  7  8 -1 -1</clus>
<clus scale="   91.141">  5  6 -1 -1</clus>
<clus scale="   97.798">  1  7  2 -1</clus>
<clus scale="   45.015">  2  5  1 -1</clus>
</clustering>
</event>
<event>
 9    1  0.1315259E-005  0.2223806E+03  0.7546771E-02  0.1132153E+00
          1   -1    0    0  502    0 -0.00000000000E+00  0.00000000000E+00  0.65843573180E+03  0.65843573180E+03  0.00000000000E+00 0. -1.
         21   -1    0    0  501  502  0.00000000000E+00 -0.00000000000E+00 -0.85269371636E+02  0.85269371636E+02  0.00000000000E+00 0.  1.
         23    2    1    2    0    0 -0.14420844498E+03  0.15096452920E+03  0.31705105535E+03  0.39016160827E+03  0.90101854523E+02 0.  0.
         23    2    1    2    0    0  0.12222701941E+03 -0.15487312187E+03  0.24848846715E+03  0.32995051275E+03  0.90530074591E+02 0.  0.
        -11    1    3    3    0    0 -0.32007705318E+02 -0.78279969676E+01  0.46649444578E+02  0.57113408371E+02  0.00000000000E+00 0.  1.
         11    1    3    3    0    0 -0.11220073966E+03  0.15879252617E+03  0.27040161077E+03  0.33304819990E+03  0.00000000000E+00 0. -1.
        -11    1    4    4    0    0  0.82380620745E+02 -0.93939595204E+02  0.85379507273E+02  0.15133034885E+03  0.00000000000E+00 0.  1.
         11    1    4    4    0    0  0.39846398668E+02 -0.60933526662E+02  0.16310895988E+03  0.17862016390E+03  0.00000000000E+00 0. -1.
          1    1    1    2  501    0  0.21981425568E+02  0.39085926622E+01  0.76268376666E+01  0.23592982419E+02  0.00000000000E+00 0. -1.
<scales pt_clust_5="13000.00000" pt_clust_6="13000.00000" pt_clust_7="13000.00000" pt_clust_8="13000.00000" pt_clust_9="22.32622"></scales>
<clustering>
<clus scale="   22.326">  2  9  1 -1</clus>
<clus scale="   90.102">  5  6 -1 -1</clus>
<clus scale="   90.530">  7  8 -1 -1</clus>
<clus scale="  222.207">  1  5  2 -1</clus>
<clus scale="   22.326">  2  5  1 -1</clus>
</clustering>
</event>
<event>
 9    1  0.1315259E-005  0.9674380E+02  0.7546771E-02  0.1288778E+00
         21   -1    0    0  501  502  0.00000000000E+00  0.00000000000E+00  0.15815371400E+03  0.15815371400E+03  0.00000000000E+00 0.  1.
          1   -1    0    0  502    0 -0.00000000000E+00 -0.00000000000E+00 -0.91617010724E+02  0.91617010724E+02  0.00000000000E+00 0. -1.
         23    2    1    2    0    0 -0.34506401201E+02  0.50368521033E+01 -0.18553764854E+02  0.10123176175E+03  0.93207112359E+02 0.  0.
         23    2    1    2    0    0  0.86321946787E+01 -0.66912671368E+01  0.47139239768E+02  0.10257694184E+03  0.90446853073E+02 0.  0.
        -13    1    4    4    0    0  0.92284567441E+01  0.39025213379E+02  0.39377371079E+02  0.56202393599E+02  0.00000000000E+00 0.  1.
         13    1    4    4    0    0 -0.59626206541E+00 -0.45716480515E+02  0.77618686892E+01  0.46374548243E+02  0.00000000000E+00 0. -1.
        -13    1    3    3    0    0 -0.41298530345E+02  0.26221613639E+02  0.23031070890E+02  0.54070064332E+02  0.00000000000E+00 0.  1.
         13    1    3    3    0    0  0.67921291447E+01 -0.21184761536E+02 -0.41584835744E+02  0.47161697420E+02  0.00000000000E+00 0. -1.
          1    1    1    2  501    0  0.25874206522E+02  0.16544150336E+01  0.37951228357E+02  0.45962021126E+02  0.00000000000E+00 0. -1.
<scales pt_clust_5="13000.00000" pt_clust_6="13000.00000" pt_clust_7="13000.00000" pt_clust_8="13000.00000" pt_clust_9="25.92704"></scales>
<clustering>
<clus scale="   25.927">  1  9  2 -1</clus>
<clus scale="   90.447">  5  6 -1 -1</clus>
<clus scale="   93.207">  7  8 -1 -1</clus>
<clus scale="   94.087">  1  5  2 -1</clus>
<clus scale="   25.927">  1  5  2 -1</clus>
</clustering>
</event>
<event>
 9    1  0.1315259E-005  0.1291411E+03  0.7546771E-02  0.1231158E+00
         -1   -1    0    0    0  501 -0.00000000000E+00  0.00000000000E+00  0.12624960622E+03  0.12624960622E+03  0.00000000000E+00 0.  1.
         21   -1    0    0  501  502  0.00000000000E+00 -0.00000000000E+00 -0.30950537443E+03  0.30950537443E+03  0.00000000000E+00 0.  1.
         23    2    1    2    0    0  0.31929210057E+02  0.79046351299E+02  0.33769932782E+02  0.13487341214E+03  0.98907172809E+02 0.  0.
         23    2    1    2    0    0 -0.84044657020E+01 -0.80726766526E+02 -0.48800028902E+02  0.13101069361E+03  0.90525759551E+02 0.  0.
        -13    1    3    3    0    0  0.53185308107E+02  0.46311701704E+02 -0.15310596172E+02  0.72165539340E+02  0.00000000000E+00 0.  1.
         13    1    3    3    0    0 -0.21256098049E+02  0.32734649595E+02  0.49080528954E+02  0.62707872798E+02  0.00000000000E+00 0. -1.
        -13    1    4    4    0    0 -0.17376790407E+02  0.15611102316E+02 -0.17560401297E+01  0.23425264936E+02  0.00000000000E+00 0.  1.
         13    1    4    4    0    0  0.89723247050E+01 -0.96337868842E+02 -0.47043988772E+02  0.10758542868E+03  0.00000000000E+00 0. -1.
         -1    1    1    2    0  502 -0.23524744355E+02  0.16804152274E+01 -0.16822567208E+03  0.16987087490E+03  0.00000000000E+00 0.  1.
<scales pt_clust_5="13000.00000" pt_clust_6="13000.00000" pt_clust_7="13000.00000" pt_clust_8="13000.00000" pt_clust_9="23.58469"></scales>
<clustering>
<clus scale="   23.585">  2  9  1 -1</clus>
<clus scale="   90.526">  7  8 -1 -1</clus>
<clus scale="   98.907">  5  6 -1 -1</clus>
<clus scale="  122.840">  2  7  1 -1</clus>
<clus scale="   23.585">  2  5  1 -1</clus>
</clustering>
</event>
<event>
 9    1  0.1315259E-005  0.2113830E+03  0.7546771E-02  0.1140500E+00
          2   -1    0    0  502    0 -0.00000000000E+00  0.00000000000E+00  0.70800436734E+03  0.70800436734E+03  0.00000000000E+00 0. -1.
         21   -1    0    0  501  502  0.00000000000E+00 -0.00000000000E+00 -0.14256329541E+03  0.14256329541E+03  0.00000000000E+00 0. -1.
         23    2    1    2    0    0 -0.22090677123E+03 -0.14243442002E+03  0.44745551226E+03  0.52696089371E+03  0.91564089385E+02 0.  0.
         23    2    1    2    0    0  0.97084491953E+02  0.64403826295E+02  0.93903244270E+02  0.17528047900E+03  0.91280751615E+02 0.  0.
        -13    1    3    3    0    0 -0.92563600002E+02 -0.26258090862E+02  0.22780808100E+03  0.24729340701E+03  0.00000000000E+00 0. -1.
         13    1    3    3    0    0 -0.12834317123E+03 -0.11617632916E+03  0.21964743125E+03  0.27966748670E+03  0.00000000000E+00 0.  1.
        -13    1    4    4    0    0  0.72857410619E+02  0.89777437182E+01  0.13460425655E+02  0.74632333631E+02  0.00000000000E+00 0.  1.
         13    1    4    4    0    0  0.24227081334E+02  0.55426082577E+02  0.80442818616E+02  0.10064814537E+03  0.00000000000E+00 0. -1.
          2    1    1    2  501    0  0.12382227928E+03  0.78030593725E+02  0.24082315396E+02  0.14832629004E+03  0.00000000000E+00 0. -1.
<scales pt_clust_5="13000.00000" pt_clust_6="13000.00000" pt_clust_7="13000.00000" pt_clust_8="13000.00000" pt_clust_9="146.35823"></scales>
<clustering>
<clus scale="   91.281">  7  8 -1 -1</clus>
<clus scale="   91.564">  5  6 -1 -1</clus>
<clus scale="  146.358">  2  9  1 -1</clus>
<clus scale="  211.260">  2  7  1 -1</clus>
<clus scale="  146.358">  2  5  1 -1</clus>
</clustering>
</event>
<event>
 9    1  0.1315259E-005  0.9160481E+02  0.7546771E-02  0.1300306E+00
          1   -1    0    0  502    0 -0.00000000000E+00  0.00000000000E+00  0.21104444158E+03  0.21104444158E+03  0.00000000000E+00 0. -1.
         21   -1    0    0  501  502  0.00000000000E+00 -0.00000000000E+00 -0.13224304034E+03  0.13224304034E+03  0.00000000000E+00 0. -1.
         23    2    1    2    0    0  0.15339154656E+02 -0.55752313621E+01  0.10454155862E+03  0.13820539057E+03  0.88912426777E+02 0.  0.
         23    2    1    2    0    0  0.27061238096E+02  0.16475699706E+02  0.56603838496E+02  0.11182359483E+03  0.91086566187E+02 0.  0.
        -13    1    3    3    0    0 -0.35446770123E+02 -0.29861878840E+01  0.63795600407E+02  0.73042928895E+02  0.00000000000E+00 0. -1.
         13    1    3    3    0    0  0.50785924778E+02 -0.25890434781E+01  0.40745958209E+02  0.65162461679E+02  0.00000000000E+00 0.  1.
        -13    1    4    4    0    0  0.31240411436E+02 -0.22820006904E+02 -0.46113572240E+01  0.38961270991E+02  0.00000000000E+00 0.  1.
         13    1    4    4    0    0 -0.41791733407E+01  0.39295706610E+02  0.61215195720E+02  0.72862323837E+02  0.00000000000E+00 0. -1.
          1    1    1    2  501    0 -0.42400392751E+02 -0.10900468344E+02 -0.82343995874E+02  0.93258496514E+02  0.00000000000E+00 0. -1.
<scales pt_clust_5="13000.00000" pt_clust_6="13000.00000" pt_clust_7="13000.00000" pt_clust_8="13000.00000" pt_clust_9="43.77914"></scales>
<clustering>
<clus scale="   43.779">  2  9  1 -1</clus>
<clus scale="   88.912">  5  6 -1 -1</clus>
<clus scale="   89.443">  1  5  2 -1</clus>
<clus scale="   91.087">  7  8 -1 -1</clus>
<clus scale="   43.779">  2  5  1 -1</clus>
</clustering>
</event>
<event>
 9    1  0.1315259E-005  0.1127365E+03  0.7546771E-02  0.1256143E+00
         -3   -1    0    0    0  501 -0.00000000000E+00  0.00000000000E+00  0.89608674091E+02  0.89608674091E+02  0.00000000000E+00 0.  1.
         21   -1    0    0  501  502  0.00000000000E+00 -0.00000000000E+00 -0.24132613142E+03  0.24132613142E+03  0.00000000000E+00 0. -1.
         23    2    1    2    0    0 -0.37960193728E+02 -0.51106344022E+02 -0.29686016673E+02  0.11464697160E+03  0.90608133208E+02 0.  0.
         23    2    1    2    0    0  0.94191271635E+01  0.70144149569E+02 -0.32841013695E+02  0.12072653012E+03  0.92127309847E+02 0.  0.
        -11    1    4    4    0    0  0.24974522637E+02 -0.13659355576E+02 -0.19376166226E+02  0.34434584262E+02  0.00000000000E+00 0. -1.
         11    1    4    4    0    0 -0.15555395473E+02  0.83803505145E+02 -0.13464847469E+02  0.86291945860E+02  0.00000000000E+00 0.  1.
        -11    1    3    3    0    0  0.19699688944E+02 -0.46051444561E+02 -0.11198925272E+01  0.50100573349E+02  0.00000000000E+00 0. -1.
         11    1    3    3    0    0 -0.57659882672E+02 -0.50548994620E+01 -0.28566124146E+02  0.64546398250E+02  0.00000000000E+00 0.  1.
         -3    1    1    2    0  502  0.28541066565E+02 -0.19037805546E+02 -0.89190426957E+02  0.95561303787E+02  0.00000000000E+00 0.  1.
<scales pt_clust_5="13000.00000" pt_clust_6="13000.00000" pt_clust_7="13000.00000" pt_clust_8="13000.00000" pt_clust_9="34.30788"></scales>
<clustering>
<clus scale="   34.308">  2  9  1 -1</clus>
<clus scale="   90.608">  7  8 -1 -1</clus>
<clus scale="   92.127">  5  6 -1 -1</clus>
<clus scale="  111.499">  1  7  2 -1</clus>
<clus scale="   34.308">  2  5  1 -1</clus>
</clustering>
</event>
<event>
 9    1  0.1315259E-005  0.1329461E+03  0.7546771E-02  0.1228983E+00
         21   -1    0    0  501  502  0.00000000000E+00  0.00000000000E+00  0.13381469782E+03  0.13381469782E+03  0.00000000000E+00 0. -1.
         -3   -1    0    0    0  501 -0.00000000000E+00 -0.00000000000E+00 -0.26580584043E+03  0.26580584043E+03  0.00000000000E+00 0.  1.
         23    2    1    2    0    0  0.68730000805E+02  0.97056736774E+01 -0.24051383790E+02  0.12188337136E+03  0.97257771101E+02 0.  0.
         23    2    1    2    0    0 -0.10423500381E+03 -0.76073115085E+02 -0.39929491747E+01  0.14940096096E+03  0.75184098283E+02 0.  0.
        -11    1    3    3    0    0  0.29190780133E+02 -0.33214885346E+02  0.20230893625E+02  0.48627351462E+02  0.00000000000E+00 0. -1.
         11    1    3    3    0    0  0.39539220672E+02  0.42920559024E+02 -0.44282277414E+02  0.73256019898E+02  0.00000000000E+00 0.  1.
        -11    1    4    4    0    0 -0.13173181803E+02 -0.44561949652E+02  0.19217323042E+02  0.50285242174E+02  0.00000000000E+00 0.  1.
         11    1    4    4    0    0 -0.91061822005E+02 -0.31511165434E+02 -0.23210272217E+02  0.99115718785E+02  0.00000000000E+00 0. -1.
         -3    1    1    2    0  502  0.35505003003E+02  0.66367441408E+02 -0.10394680964E+03  0.12833620593E+03  0.00000000000E+00 0.  1.
<scales pt_clust_5="13000.00000" pt_clust_6="13000.00000" pt_clust_7="13000.00000" pt_clust_8="13000.00000" pt_clust_9="75.26784"></scales>
<clustering>
<clus scale="   75.184">  7  8 -1 -1</clus>
<clus scale="   75.268">  1  9  2 -1</clus>
<clus scale="   97.258">  5  6 -1 -1</clus>
<clus scale="  117.763">  1  7  2 -1</clus>
<clus scale="   75.268">  1  5  2 -1</clus>
</clustering>
</event>
<event>
 9    1  0.1315259E-005  0.1638116E+03  0.7546771E-02  0.1184469E+00
         -1   -1    0    0    0  501 -0.00000000000E+00  0.00000000000E+00  0.52782217845E+03  0.52782217845E+03  0.00000000000E+00 0.  1.
         21   -1    0    0  501  502  0.00000000000E+00 -0.00000000000E+00 -0.68005611240E+02  0.68005611240E+02  0.00000000000E+00 0. -1.
         23    2    1    2    0    0  0.98296107112E+02  0.11166579715E+03  0.32509661601E+03  0.36859101203E+03  0.89666880654E+02 0.  0.
         23    2    1    2    0    0 -0.78289997724E+02 -0.89209398607E+02  0.12833361729E+03  0.19649072898E+03  0.89729865178E+02 0.  0.
        -11    1    3    3    0    0  0.10052415975E+03  0.77394371502E+02  0.18482927204E+03  0.22418040779E+03  0.00000000000E+00 0. -1.
         11    1    3    3    0    0 -0.22280526402E+01  0.34271425644E+02  0.14026734396E+03  0.14441060424E+03  0.00000000000E+00 0.  1.
        -11    1    4    4    0    0  0.29284568165E+01 -0.34920844717E+02 -0.20183153001E+00  0.35044000785E+02  0.00000000000E+00 0. -1.
         11    1    4    4    0    0 -0.81218454541E+02 -0.54288553890E+02  0.12853544882E+03  0.16144672820E+03  0.00000000000E+00 0.  1.
         -1    1    1    2    0  502 -0.20006109388E+02 -0.22456398539E+02  0.63863339070E+01  0.30746048672E+02  0.00000000000E+00 0.  1.
<scales pt_clust_5="13000.00000" pt_clust_6="13000.00000" pt_clust_7="13000.00000" pt_clust_8="13000.00000" pt_clust_9="30.07548"></scales>
<clustering>
<clus scale="   30.075">  2  9  1 -1</clus>
<clus scale="   89.667">  5  6 -1 -1</clus>
<clus scale="   89.730">  7  8 -1 -1</clus>
<clus scale="  163.777">  1  5  2 -1</clus>
<clus scale="   30.075">  2  5  1 -1</clus>
</clustering>
</event>
<event>
 9    1  0.1315259E-005  0.1059231E+03  0.7546771E-02  0.1268482E+00
         21   -1    0    0  501  502  0.00000000000E+00  0.00000000000E+00  0.44902300635E+02  0.44902300635E+02  0.00000000000E+00 0.  1.
          1   -1    0    0  502    0 -0.00000000000E+00 -0.00000000000E+00 -0.67297081597E+03  0.67297081597E+03  0.00000000000E+00 0. -1.
         23    2    1    2    0    0 -0.29994258638E+02 -0.49921177235E+02 -0.36923708172E+03  0.38468165598E+03  0.90841479730E+02 0.  0.
         23    2    1    2    0    0  0.40551505750E+02  0.32295243221E+02 -0.28293110013E+03  0.30152250197E+03  0.90434531118E+02 0.  0.
        -11    1    3    3    0    0 -0.30270999977E+01  0.25907233500E+02 -0.66584101935E+02  0.71510773402E+02  0.00000000000E+00 0. -1.
         11    1    3    3    0    0 -0.26967158640E+02 -0.75828410735E+02 -0.30265297979E+03  0.31317088258E+03  0.00000000000E+00 0.  1.
        -11    1    4    4    0    0  0.40472098123E+02  0.62162000487E+02 -0.20985362666E+03  0.22257728917E+03  0.00000000000E+00 0. -1.
         11    1    4    4    0    0  0.79407627105E-01 -0.29866757266E+02 -0.73077473472E+02  0.78945212801E+02  0.00000000000E+00 0.  1.
          1    1    1    2  501    0 -0.10557247113E+02  0.17625934014E+02  0.24099666516E+02  0.31668958661E+02  0.00000000000E+00 0. -1.
<scales pt_clust_5="13000.00000" pt_clust_6="13000.00000" pt_clust_7="13000.00000" pt_clust_8="13000.00000" pt_clust_9="20.54578"></scales>
<clustering>
<clus scale="   20.546">  1  9  2 -1</clus>
<clus scale="   90.435">  7  8 -1 -1</clus>
<clus scale="   90.841">  5  6 -1 -1</clus>
<clus scale="  105.574">  1  7  2 -1</clus>
<clus scale="   20.546">  1  5  2 -1</clus>
</clustering>
</event>
<event>
 9    1  0.1315259E-005  0.1211103E+03  0.7546771E-02  0.1242456E+00
         21   -1    0    0  501  502  0.00000000000E+00  0.00000000000E+00  0.31431787481E+03  0.31431787481E+03  0.00000000000E+00 0. -1.
          2   -1    0    0  502    0 -0.00000000000E+00 -0.00000000000E+00 -0.90268360353E+02  0.90268360353E+02  0.00000000000E+00 0. -1.
         23    2    1    2    0    0 -0.76784982040E+02  0.14440078606E+01 -0.59196339132E+01  0.12277127778E+03  0.95601913984E+02 0.  0.
         23    2    1    2    0    0  0.67222890098E+02  0.27595849068E+02  0.12025692329E+03  0.16792237982E+03  0.91955153225E+02 0.  0.
        -13    1    4    4    0    0  0.25293648435E+02 -0.17629051486E+02  0.97380953508E+02  0.10214500582E+03  0.00000000000E+00 0.  1.
         13    1    4    4    0    0  0.41929241663E+02  0.45224900554E+02  0.22875969785E+02  0.65777373999E+02  0.00000000000E+00 0. -1.
        -13    1    3    3    0    0 -0.69262357264E+02  0.39386703606E+02  0.11217619557E+02  0.80463790261E+02  0.00000000000E+00 0. -1.
         13    1    3    3    0    0 -0.75226247756E+01 -0.37942695745E+02 -0.17137253471E+02  0.42307487522E+02  0.00000000000E+00 0.  1.
          2    1    1    2  501    0  0.95620919422E+01 -0.29039856929E+02  0.10971222508E+03  0.11389257757E+03  0.00000000000E+00 0. -1.
<scales pt_clust_5="13000.00000" pt_clust_6="13000.00000" pt_clust_7="13000.00000" pt_clust_8="13000.00000" pt_clust_9="30.57363"></scales>
<clustering>
<clus scale="   30.574">  1  9  2 -1</clus>
<clus scale="   91.955">  5  6 -1 -1</clus>
<clus scale="   95.602">  7  8 -1 -1</clus>
<clus scale="  118.253">  1  5  2 -1</clus>
<clus scale="   30.574">  1  5  2 -1</clus>
</clustering>
</event>
<event>
 9    1  0.1315259E-005  0.3190017E+03  0.7546771E-02  0.1076135E+00
          4   -1    0    0  502    0 -0.00000000000E+00  0.00000000000E+00  0.89850270125E+03  0.89850270125E+03  0.00000000000E+00 0. -1.
         21   -1    0    0  501  502  0.00000000000E+00 -0.00000000000E+00 -0.19979832747E+03  0.19979832747E+03  0.00000000000E+00 0. -1.
         23    2    1    2    0    0 -0.22050990883E+03 -0.22506191572E+03  0.69010194922E+03  0.76435845446E+03  0.93411245494E+02 0.  0.
         23    2    1    2    0    0  0.19096675396E+03  0.19007377660E+03  0.23223663301E+02  0.28587232877E+03  0.92667729819E+02 0.  0.
        -11    1    4    4    0    0  0.27524300426E+02  0.65346734848E+02  0.36685207976E+02  0.79834750288E+02  0.00000000000E+00 0.  1.
         11    1    4    4    0    0  0.16344245353E+03  0.12472704175E+03 -0.13461544676E+02  0.20603757848E+03  0.00000000000E+00 0. -1.
        -13    1    3    3    0    0 -0.39799483801E+02 -0.33635927556E+02  0.49912003009E+02  0.72156653039E+02  0.00000000000E+00 0.  1.
         13    1    3    3    0    0 -0.18071042503E+03 -0.19142598816E+03  0.64018994621E+03  0.69220180142E+03  0.00000000000E+00 0. -1.
          4    1    1    2  501    0  0.29543154869E+02  0.34988139120E+02 -0.14621238742E+02  0.48070245486E+02  0.00000000000E+00 0. -1.
<scales pt_clust_5="13000.00000" pt_clust_6="13000.00000" pt_clust_7="13000.00000" pt_clust_8="13000.00000" pt_clust_9="45.79266"></scales>
<clustering>
<clus scale="   45.793">  2  9  1 -1</clus>
<clus scale="   92.668">  5  6 -1 -1</clus>
<clus scale="   93.411">  7  8 -1 -1</clus>
<clus scale="  318.785">  2  5  1 -1</clus>
<clus scale="   45.793">  2  5  1 -1</clus>
</clustering>
</event>
<event>
 9    1  0.1315259E-005  0.1113970E+03  0.7546771E-02  0.1258387E+00
         21   -1    0    0  501  502  0.00000000000E+00  0.00000000000E+00  0.24799146866E+03  0.24799146866E+03  0.00000000000E+00 0.  1.
         -1   -1    0    0    0  501 -0.00000000000E+00 -0.00000000000E+00 -0.16085394481E+03  0.16085394481E+03  0.00000000000E+00 0.  1.
         23    2    1    2    0    0  0.20442872496E+02  0.73225755127E+02 -0.67913894583E+02  0.13577995187E+03  0.89688215523E+02 0.  0.
         23    2    1    2    0    0 -0.61738851668E+02 -0.20275894806E+02  0.85619765592E+01  0.11191893763E+03  0.90717933410E+02 0.  0.
        -11    1    3    3    0    0  0.11202123978E+02  0.29296633201E+02 -0.82755159343E+02  0.88499698850E+02  0.00000000000E+00 0.  1.
         11    1    3    3    0    0  0.92407485175E+01  0.43929121926E+02  0.14841264760E+02  0.47280253024E+02  0.00000000000E+00 0. -1.
        -13    1    4    4    0    0 -0.79226847745E+02  0.55054299439E+01  0.12922197599E+02  0.80462328783E+02  0.00000000000E+00 0.  1.
         13    1    4    4    0    0  0.17487996076E+02 -0.25781324750E+02 -0.43602210396E+01  0.31456608847E+02  0.00000000000E+00 0. -1.
         -1    1    1    2    0  502  0.41295979173E+02 -0.52949860321E+02  0.14648944188E+03  0.16114652396E+03  0.00000000000E+00 0.  1.
<scales pt_clust_5="13000.00000" pt_clust_6="13000.00000" pt_clust_7="13000.00000" pt_clust_8="13000.00000" pt_clust_9="67.14943"></scales>
<clustering>
<clus scale="   67.149">  1  9  2 -1</clus>
<clus scale="   89.688">  5  6 -1 -1</clus>
<clus scale="   90.718">  7  8 -1 -1</clus>
<clus scale="  110.560">  2  5  1 -1</clus>
<clus scale="   67.149">  1  5  2 -1</clus>
</clustering>
</event>
<event>
 9    1  0.1315259E-005  0.1099342E+03  0.7546771E-02  0.1267619E+00
         21   -1    0    0  501  502  0.00000000000E+00  0.00000000000E+00  0.28131733392E+03  0.28131733392E+03  0.00000000000E+00 0. -1.
         -2   -1    0    0    0  501 -0.00000000000E+00 -0.00000000000E+00 -0.70255779400E+02  0.70255779400E+02  0.00000000000E+00 0.  1.
         23    2    1    2    0    0 -0.83738551887E+01 -0.30296394029E+02  0.28842581399E+02  0.96622749500E+02  0.86695260985E+02 0.  0.
         23    2    1    2    0    0 -0.97561835780E+01  0.59368738492E+02  0.69687141265E+02  0.13731825639E+03  0.10188314704E+03 0.  0.
        -13    1    4    4    0    0  0.35253700057E+02  0.84790387908E+01 -0.47151609460E+01  0.36564329740E+02  0.00000000000E+00 0.  1.
         13    1    4    4    0    0 -0.45009883635E+02  0.50889699701E+02  0.74402302211E+02  0.10075392665E+03  0.00000000000E+00 0. -1.
        -13    1    3    3    0    0  0.39196919087E+02 -0.15223638724E+02  0.95404707907E+01  0.43118189025E+02  0.00000000000E+00 0.  1.
         13    1    3    3    0    0 -0.47570774276E+02 -0.15072755306E+02  0.19302110608E+02  0.53504560475E+02  0.00000000000E+00 0. -1.
         -2    1    1    2    0  502  0.18130038767E+02 -0.29072344463E+02  0.11253183185E+03  0.11763210743E+03  0.00000000000E+00 0.  1.
<scales pt_clust_5="13000.00000" pt_clust_6="13000.00000" pt_clust_7="13000.00000" pt_clust_8="13000.00000" pt_clust_9="34.26222"></scales>
<clustering>
<clus scale="   34.262">  1  9  2 -1</clus>
<clus scale="   86.695">  7  8 -1 -1</clus>
<clus scale="   96.028">  2  7  1 -1</clus>
<clus scale="  101.883">  5  6 -1 -1</clus>
<clus scale="   34.262">  1  5  2 -1</clus>
</clustering>
</event>
<event>
 9    1  0.1315259E-005  0.9849048E+02  0.7546771E-02  0.1283708E+00
         21   -1    0    0  501  502  0.00000000000E+00  0.00000000000E+00  0.96436083777E+02  0.96436083777E+02  0.00000000000E+00 0.  1.
          3   -1    0    0  502    0 -0.00000000000E+00 -0.00000000000E+00 -0.14716557054E+03  0.14716557054E+03  0.00000000000E+00 0. -1.
         23    2    1    2    0    0  0.51123684904E+02 -0.12573864022E+02 -0.34280030461E+02  0.11088803560E+03  0.91374519080E+02 0.  0.
         23    2    1    2    0    0 -0.20895528580E+02 -0.10088551570E+02 -0.10342827448E+02  0.94443298212E+02  0.90962412623E+02 0.  0.
        -13    1    4    4    0    0 -0.16992950106E+02 -0.30586783170E+02  0.31886580945E+02  0.47339895462E+02  0.00000000000E+00 0.  1.
         13    1    4    4    0    0 -0.39025784747E+01  0.20498231600E+02 -0.42229408393E+02  0.47103402750E+02  0.00000000000E+00 0. -1.
        -13    1    3    3    0    0  0.50271239391E+02 -0.47584893671E+02 -0.14698915032E+02  0.70764240395E+02  0.00000000000E+00 0.  1.
         13    1    3    3    0    0  0.85244551316E+00  0.35011029650E+02 -0.19581115429E+02  0.40123795208E+02  0.00000000000E+00 0. -1.
          3    1    1    2  501    0 -0.30228156323E+02  0.22662415592E+02 -0.61066288508E+01  0.38270320499E+02  0.00000000000E+00 0. -1.
<scales pt_clust_5="13000.00000" pt_clust_6="13000.00000" pt_clust_7="13000.00000" pt_clust_8="13000.00000" pt_clust_9="37.77998"></scales>
<clustering>
<clus scale="   37.780">  1  9  2 -1</clus>
<clus scale="   90.962">  5  6 -1 -1</clus>
<clus scale="   91.375">  7  8 -1 -1</clus>
<clus scale="   98.108">  1  5  2 -1</clus>
<clus scale="   37.780">  1  5  2 -1</clus>
</clustering>
</event>
<event>
 9    1  0.1315259E-005  0.9772616E+02  0.7546771E-02  0.1287433E+00
         21   -1    0    0  501  502  0.00000000000E+00  0.00000000000E+00  0.75521669517E+02  0.75521669517E+02  0.00000000000E+00 0.  1.
          1   -1    0    0  502    0 -0.00000000000E+00 -0.00000000000E+00 -0.33325567542E+03  0.33325567542E+03  0.00000000000E+00 0. -1.
         23    2    1    2    0    0  0.27895570188E+02  0.37055256570E+02 -0.17103332016E+03  0.19802139205E+03  0.88367529273E+02 0.  0.
         23    2    1    2    0    0  0.48323507303E+02 -0.61498817171E+01 -0.24291792717E+02  0.10751177679E+03  0.92713044133E+02 0.  0.
        -11    1    4    4    0    0  0.66563303604E+02  0.14548731094E+02 -0.36553995649E+02  0.77320977496E+02  0.00000000000E+00 0.  1.
         11    1    4    4    0    0 -0.18239796301E+02 -0.20698612811E+02  0.12262202932E+02  0.30190799296E+02  0.00000000000E+00 0. -1.
        -11    1    3    3    0    0 -0.14593732177E+02  0.49777889400E+02 -0.11791397977E+03  0.12881972643E+03  0.00000000000E+00 0. -1.
         11    1    3    3    0    0  0.42489302364E+02 -0.12722632830E+02 -0.53119340389E+02  0.69201665622E+02  0.00000000000E+00 0.  1.
          1    1    1    2  501    0 -0.76219077490E+02 -0.30905374853E+02 -0.62408893028E+02  0.10324417609E+03  0.00000000000E+00 0. -1.
<scales pt_clust_5="13000.00000" pt_clust_6="13000.00000" pt_clust_7="13000.00000" pt_clust_8="13000.00000" pt_clust_9="82.24652"></scales>
<clustering>
<clus scale="   82.247">  1  9  2 -1</clus>
<clus scale="   88.368">  7  8 -1 -1</clus>
<clus scale="   92.713">  5  6 -1 -1</clus>
<clus scale="   93.614">  2  7  1 -1</clus>
<clus scale="   82.247">  1  5  2 -1</clus>
</clustering>
</event>
<event>
 9    1  0.1315259E-005  0.1908320E+03  0.7546771E-02  0.1158769E+00
          1   -1    0    0  502    0 -0.00000000000E+00  0.00000000000E+00  0.87029342029E+03  0.87029342029E+03  0.00000000000E+00 0. -1.
         21   -1    0    0  501  502  0.00000000000E+00 -0.00000000000E+00 -0.13231615128E+03  0.13231615128E+03  0.00000000000E+00 0. -1.
         23    2    1    2    0    0  0.58018533255E+01  0.17855777169E+03  0.72936580195E+03  0.75645881293E+03  0.91317705170E+02 0.  0.
         23    2    1    2    0    0  0.41540187833E+01 -0.89045974262E+02 -0.58339503172E+02  0.13392815093E+03  0.81159168158E+02 0.  0.
        -13    1    3    3    0    0  0.18876796459E+02  0.66030185084E+02  0.13577918238E+03  0.15215881557E+03  0.00000000000E+00 0.  1.
         13    1    3    3    0    0 -0.13074943133E+02  0.11252758660E+03  0.59358661956E+03  0.60429999736E+03  0.00000000000E+00 0. -1.
        -13    1    4    4    0    0  0.29194542772E+02 -0.69394718305E+01 -0.32608276555E+02  0.44314526927E+02  0.00000000000E+00 0.  1.
         13    1    4    4    0    0 -0.25040523989E+02 -0.82106502432E+02 -0.25731226618E+02  0.89613624000E+02  0.00000000000E+00 0. -1.
          1    1    1    2  501    0 -0.99558721089E+01 -0.89511797424E+02  0.66950970231E+02  0.11222260772E+03  0.00000000000E+00 0. -1.
<scales pt_clust_5="13000.00000" pt_clust_6="13000.00000" pt_clust_7="13000.00000" pt_clust_8="13000.00000" pt_clust_9="90.06376"></scales>
<clustering>
<clus scale="   81.159">  7  8 -1 -1</clus>
<clus scale="   90.064">  2  9  1 -1</clus>
<clus scale="   91.318">  5  6 -1 -1</clus>
<clus scale="  186.185">  2  7  1 -1</clus>
<clus scale="   90.064">  2  5  1 -1</clus>
</clustering>
</event>
<event>
 9    1  0.1315259E-005  0.1334544E+03  0.7546771E-02  0.1222452E+00
         21   -1    0    0  501  502  0.00000000000E+00  0.00000000000E+00  0.10241435070E+03  0.10241435070E+03  0.00000000000E+00 0. -1.
          2   -1    0    0  502    0 -0.00000000000E+00 -0.00000000000E+00 -0.49287435561E+03  0.49287435561E+03  0.00000000000E+00 0. -1.
         23    2    1    2    0    0  0.85719719609E+02  0.81017955104E+02 -0.35446533653E+03  0.38471346747E+03  0.91907550676E+02 0.  0.
         23    2    1    2    0    0 -0.27733353175E+02 -0.52220557591E+02 -0.77143310033E+02  0.13386200983E+03  0.92042500395E+02 0.  0.
        -11    1    4    4    0    0 -0.59046767071E+02 -0.22977977190E+02 -0.29825188600E+02  0.70028922684E+02  0.00000000000E+00 0. -1.
         11    1    4    4    0    0  0.31313413896E+02 -0.29242580401E+02 -0.47318121433E+02  0.63833087144E+02  0.00000000000E+00 0.  1.
        -11    1    3    3    0    0  0.41761370962E+02  0.94301266187E+02 -0.23071533621E+03  0.25271784122E+03  0.00000000000E+00 0. -1.
         11    1    3    3    0    0  0.43958348647E+02 -0.13283311084E+02 -0.12375000032E+03  0.13199562625E+03  0.00000000000E+00 0.  1.
          2    1    1    2  501    0 -0.57986366434E+02 -0.28797397513E+02  0.41148641655E+02  0.76713229014E+02  0.00000000000E+00 0. -1.
<scales pt_clust_5="13000.00000" pt_clust_6="13000.00000" pt_clust_7="13000.00000" pt_clust_8="13000.00000" pt_clust_9="64.74341"></scales>
<clustering>
<clus scale="   64.743">  1  9  2 -1</clus>
<clus scale="   91.908">  7  8 -1 -1</clus>
<clus scale="   92.043">  5  6 -1 -1</clus>
<clus scale="  133.361">  2  7  1 -1</clus>
<clus scale="   64.743">  1  5  2 -1</clus>
</clustering>
</event>
<event>
 9    1  0.1315259E-005  0.9464526E+02  0.7546771E-02  0.1292901E+00
         21   -1    0    0  501  502  0.00000000000E+00  0.00000000000E+00  0.73114696074E+02  0.73114696074E+02  0.00000000000E+00 0. -1.
         -1   -1    0    0    0  501 -0.00000000000E+00 -0.00000000000E+00 -0.23283441054E+03  0.23283441054E+03  0.00000000000E+00 0.  1.
         23    2    1    2    0    0  0.98671752422E+01  0.27662760790E+02 -0.15538923129E+03  0.18249531181E+03  0.91083127694E+02 0.  0.
         23    2    1    2    0    0  0.85330277503E+01 -0.19053206834E+02 -0.24298752564E+02  0.94968295488E+02  0.89401960373E+02 0.  0.
        -11    1    4    4    0    0 -0.30672163157E+02  0.15645168395E+02 -0.25096608045E+02  0.42607424496E+02  0.00000000000E+00 0.  1.
         11    1    4    4    0    0  0.39205190907E+02 -0.34698375230E+02  0.79785548052E+00  0.52360870992E+02  0.00000000000E+00 0. -1.
        -13    1    3    3    0    0 -0.29653616875E+01 -0.31434825346E+02 -0.78928559221E+02  0.85009758705E+02  0.00000000000E+00 0. -1.
         13    1    3    3    0    0  0.12832536930E+02  0.59097586136E+02 -0.76460672066E+02  0.97485553103E+02  0.00000000000E+00 0.  1.
         -1    1    1    2    0  502 -0.18400202993E+02 -0.86095539555E+01  0.19968269381E+02  0.28485499321E+02  0.00000000000E+00 0.  1.
<scales pt_clust_5="13000.00000" pt_clust_6="13000.00000" pt_clust_7="13000.00000" pt_clust_8="13000.00000" pt_clust_9="20.31482"></scales>
<clustering>
<clus scale="   20.315">  1  9  2 -1</clus>
<clus scale="   89.402">  5  6 -1 -1</clus>
<clus scale="   91.083">  7  8 -1 -1</clus>
<clus scale="   93.028">  1  5  2 -1</clus>
<clus scale="   20.315">  1  5  2 -1</clus>
</clustering>
</event>
<event>
 9    1  0.1315259E-005  0.1303398E+03  0.7546771E-02  0.1232620E+00
         21   -1    0    0  501  502  0.00000000000E+00  0.00000000000E+00  0.48026744069E+02  0.48026744069E+02  0.00000000000E+00 0.  1.
         -4   -1    0    0    0  501 -0.00000000000E+00 -0.00000000000E+00 -0.62845609176E+03  0.62845609176E+03  0.00000000000E+00 0.  1.
         23    2    1    2    0    0 -0.78826479753E+02  0.71995339411E+02 -0.41403234530E+03  0.43776885491E+03  0.93924674961E+02 0.  0.
         23    2    1    2    0    0  0.40666011888E+02 -0.27914344301E+02 -0.34189323667E+02  0.94220985411E+02  0.72634352055E+02 0.  0.
        -11    1    3    3    0    0  0.10337006166E+02  0.49040847716E+02 -0.14446869017E+03  0.15291520814E+03  0.00000000000E+00 0. -1.
         11    1    3    3    0    0 -0.89163485919E+02  0.22954491695E+02 -0.26956365513E+03  0.28485364676E+03  0.00000000000E+00 0.  1.
        -13    1    4    4    0    0 -0.11902071934E+02 -0.16919674025E+02  0.11536813537E+02  0.23686129950E+02  0.00000000000E+00 0.  1.
         13    1    4    4    0    0  0.52568083823E+02 -0.10994670277E+02 -0.45726137204E+02  0.70534855461E+02  0.00000000000E+00 0. -1.
         -4    1    1    2    0  502  0.38160467865E+02 -0.44080995110E+02 -0.13220767872E+03  0.14449299551E+03  0.00000000000E+00 0.  1.
<scales pt_clust_5="13000.00000" pt_clust_6="13000.00000" pt_clust_7="13000.00000" pt_clust_8="13000.00000" pt_clust_9="58.30402"></scales>
<clustering>
<clus scale="   58.304">  1  9  2 -1</clus>
<clus scale="   72.634">  7  8 -1 -1</clus>
<clus scale="   93.925">  5  6 -1 -1</clus>
<clus scale="  115.941">  1  7  2 -1</clus>
<clus scale="   58.304">  1  5  2 -1</clus>
</clustering>
</event>
<event>
 9    1  0.1315259E-005  0.9567841E+02  0.7546771E-02  0.1290637E+00
         21   -1    0    0  501  502  0.00000000000E+00  0.00000000000E+00  0.13928598609E+03  0.13928598609E+03  0.00000000000E+00 0.  1.
         -2   -1    0    0    0  501 -0.00000000000E+00 -0.00000000000E+00 -0.12671643739E+03  0.12671643739E+03  0.00000000000E+00 0.  1.
         23    2    1    2    0    0 -0.16162358778E+02  0.18231258432E+01 -0.71280035806E+02  0.11729665409E+03  0.91723039241E+02 0.  0.
         23    2    1    2    0    0  0.37479352516E+02  0.34361441539E+01  0.70589941509E+02  0.12305635856E+03  0.93506248930E+02 0.  0.
        -11    1    3    3    0    0 -0.53930937589E+02 -0.61030320362E+01 -0.46160430486E+02  0.71250111382E+02  0.00000000000E+00 0.  1.
         11    1    3    3    0    0  0.37768578811E+02  0.79261578794E+01 -0.25119605320E+02  0.46046542710E+02  0.00000000000E+00 0. -1.
        -13    1    4    4    0    0 -0.13710092504E+02  0.32147660022E+02  0.49699857507E+02  0.60757835030E+02  0.00000000000E+00 0. -1.
         13    1    4    4    0    0  0.51189445019E+02 -0.28711515868E+02  0.20890084002E+02  0.62298523533E+02  0.00000000000E+00 0.  1.
         -2    1    1    2    0  502 -0.21316993738E+02 -0.52592699971E+01  0.13259643003E+02  0.25649410822E+02  0.00000000000E+00 0.  1.
<scales pt_clust_5="13000.00000" pt_clust_6="13000.00000" pt_clust_7="13000.00000" pt_clust_8="13000.00000" pt_clust_9="21.95619"></scales>
<clustering>
<clus scale="   21.956">  1  9  2 -1</clus>
<clus scale="   91.723">  5  6 -1 -1</clus>
<clus scale="   93.506">  7  8 -1 -1</clus>
<clus scale="   93.936">  2  5  1 -1</clus>
<clus scale="   21.956">  1  5  2 -1</clus>
</clustering>
</event>
<event>
 9    1  0.1315259E-005  0.1150207E+03  0.7546771E-02  0.1251790E+00
          1   -1    0    0  502    0 -0.00000000000E+00  0.00000000000E+00  0.27403018607E+03  0.27403018607E+03  0.00000000000E+00 0. -1.
         21   -1    0    0  501  502  0.00000000000E+00 -0.00000000000E+00 -0.18245568367E+03  0.18245568367E+03  0.00000000000E+00 0. -1.
         23    2    1    2    0    0 -0.55257416913E+02  0.49928503945E+02  0.21326409863E+03  0.24332390650E+03  0.90436221069E+02 0.  0.
         23    2    1    2    0    0  0.40138251590E+02 -0.33677295936E+02 -0.17431256091E+02  0.10656697080E+03  0.91145109984E+02 0.  0.
        -11    1    3    3    0    0  0.22413031497E+02  0.22260674400E+02  0.36470792697E+02  0.48249355701E+02  0.00000000000E+00 0.  1.
         11    1    3    3    0    0 -0.77670448409E+02  0.27667829545E+02  0.17679330593E+03  0.19507455080E+03  0.00000000000E+00 0. -1.
        -13    1    4    4    0    0  0.56695304769E+02  0.81821526516E+01 -0.21909671430E+02  0.61329755478E+02  0.00000000000E+00 0. -1.
         13    1    4    4    0    0 -0.16557053178E+02 -0.41859448587E+02  0.44784153392E+01  0.45237215320E+02  0.00000000000E+00 0.  1.
          1    1    1    2  501    0  0.15119165323E+02 -0.16251208010E+02 -0.10425834015E+03  0.10659499243E+03  0.00000000000E+00 0. -1.
<scales pt_clust_5="13000.00000" pt_clust_6="13000.00000" pt_clust_7="13000.00000" pt_clust_8="13000.00000" pt_clust_9="22.19664"></scales>
<clustering>
<clus scale="   22.197">  2  9  1 -1</clus>
<clus scale="   90.436">  5  6 -1 -1</clus>
<clus scale="   91.145">  7  8 -1 -1</clus>
<clus scale="  114.460">  1  5  2 -1</clus>
<clus scale="   22.197">  2  5  1 -1</clus>
</clustering>
</event>
<event>
 9    1  0.1315259E-005  0.9385362E+02  0.7546771E-02  0.1294149E+00
          2   -1    0    0  502    0 -0.00000000000E+00  0.00000000000E+00  0.26386178371E+03  0.26386178371E+03  0.00000000000E+00 0. -1.
         21   -1    0    0  501  502  0.00000000000E+00 -0.00000000000E+00 -0.44957838666E+02  0.44957838666E+02  0.00000000000E+00 0.  1.
         23    2    1    2    0    0 -0.23917102937E+01  0.38149844668E+01  0.11734206787E+03  0.14922932404E+03  0.92086675894E+02 0.  0.
         23    2    1    2    0    0 -0.74875352087E+00 -0.29405069361E+02  0.81665700887E+02  0.12702386180E+03  0.92739182810E+02 0.  0.
        -11    1    4    4    0    0 -0.25454358768E+02 -0.54094750338E+02  0.36940904161E+02  0.70276573584E+02  0.00000000000E+00 0.  1.
         11    1    4    4    0    0  0.24705605247E+02  0.24689680976E+02  0.44724796725E+02  0.56747288212E+02  0.00000000000E+00 0. -1.
        -11    1    3    3    0    0  0.28961926551E+02  0.12484376268E+02  0.45801707624E+01  0.31868963029E+02  0.00000000000E+00 0.  1.
         11    1    3    3    0    0 -0.31353636845E+02 -0.86693918009E+01  0.11276189711E+03  0.11736036101E+03  0.00000000000E+00 0. -1.
          2    1    1    2  501    0  0.31404638146E+01  0.25590084894E+02  0.19896176282E+02  0.32566436534E+02  0.00000000000E+00 0. -1.
<scales pt_clust_5="13000.00000" pt_clust_6="13000.00000" pt_clust_7="13000.00000" pt_clust_8="13000.00000" pt_clust_9="25.78207"></scales>
<clustering>
<clus scale="   25.782">  2  9  1 -1</clus>
<clus scale="   92.087">  7  8 -1 -1</clus>
<clus scale="   92.739">  5  6 -1 -1</clus>
<clus scale="   93.209">  1  7  2 -1</clus>
<clus scale="   25.782">  2  5  1 -1</clus>
</clustering>
</event>
<event>
 9    1  0.1315259E-005  0.1051816E+03  0.7546771E-02  0.1271973E+00
         21   -1    0    0  501  502  0.00000000000E+00  0.00000000000E+00  0.12292213863E+03  0.12292213863E+03  0.00000000000E+00 0. -1.
          3   -1    0    0  502    0 -0.00000000000E+00 -0.00000000000E+00 -0.32974453473E+03  0.32974453473E+03  0.00000000000E+00 0. -1.
         23    2    1    2    0    0 -0.60849317183E+02 -0.16687191808E+02 -0.25591872311E+03  0.27855174105E+03  0.90086501957E+02 0.  0.
         23    2    1    2    0    0  0.29342717754E+02 -0.14584396801E+02 -0.18855790748E+02  0.92948015591E+02  0.84912266737E+02 0.  0.
        -11    1    4    4    0    0  0.18098297207E+02  0.35046444518E+02 -0.26135017993E+01  0.39530140739E+02  0.00000000000E+00 0.  1.
         11    1    4    4    0    0  0.11244420547E+02 -0.49630841319E+02 -0.16242288948E+02  0.53417874853E+02  0.00000000000E+00 0. -1.
        -13    1    3    3    0    0 -0.20488126373E+02 -0.32653059898E+02 -0.30954289916E+02  0.49438382934E+02  0.00000000000E+00 0.  1.
         13    1    3    3    0    0 -0.40361190810E+02  0.15965868089E+02 -0.22496443319E+03  0.22911335812E+03  0.00000000000E+00 0. -1.
          3    1    1    2  501    0  0.31506599429E+02  0.31271588609E+02  0.67952117755E+02  0.81166916716E+02  0.00000000000E+00 0. -1.
<scales pt_clust_5="13000.00000" pt_clust_6="13000.00000" pt_clust_7="13000.00000" pt_clust_8="13000.00000" pt_clust_9="44.39119"></scales>
<clustering>
<clus scale="   44.391">  1  9  2 -1</clus>
<clus scale="   84.912">  5  6 -1 -1</clus>
<clus scale="   90.087">  7  8 -1 -1</clus>
<clus scale="  100.785">  1  5  2 -1</clus>
<clus scale="   44.391">  1  5  2 -1</clus>
</clustering>
</event>
<event>
 9    1  0.1315259E-005  0.9859260E+02  0.7546771E-02  0.1286055E+00
         21   -1    0    0  501  502  0.00000000000E+00  0.00000000000E+00  0.83654214269E+02  0.83654214269E+02  0.00000000000E+00 0. -1.
          1   -1    0    0  502    0 -0.00000000000E+00 -0.00000000000E+00 -0.22544146112E+03  0.22544146112E+03  0.00000000000E+00 0. -1.
         23    2    1    2    0    0  0.51557727785E+00 -0.52747149984E+01 -0.61557829354E+02  0.10820658669E+03  0.88832486234E+02 0.  0.
         23    2    1    2    0    0 -0.56728797750E+02  0.22229840974E+02 -0.86827374220E+02  0.14180494966E+03  0.94113381149E+02 0.  0.
        -11    1    3    3    0    0 -0.31848324581E+02 -0.30325256604E+02 -0.15585785226E+02  0.46656764438E+02  0.00000000000E+00 0.  1.
         11    1    3    3    0    0  0.32363901859E+02  0.25050541606E+02 -0.45972044128E+02  0.61549822254E+02  0.00000000000E+00 0. -1.
        -11    1    4    4    0    0  0.15701606423E+02 -0.21364947162E+02 -0.29490045742E+02  0.39656830551E+02  0.00000000000E+00 0.  1.
         11    1    4    4    0    0 -0.72430404173E+02  0.43594788136E+02 -0.57337328478E+02  0.10214811911E+03  0.00000000000E+00 0. -1.
          1    1    1    2  501    0  0.56213220472E+02 -0.16955125976E+02  0.65979567198E+01  0.59084139036E+02  0.00000000000E+00 0. -1.
<scales pt_clust_5="13000.00000" pt_clust_6="13000.00000" pt_clust_7="13000.00000" pt_clust_8="13000.00000" pt_clust_9="58.71458"></scales>
<clustering>
<clus scale="   58.715">  1  9  2 -1</clus>
<clus scale="   88.832">  5  6 -1 -1</clus>
<clus scale="   93.565">  2  5  1 -1</clus>
<clus scale="   94.113">  7  8 -1 -1</clus>
<clus scale="   58.715">  1  5  2 -1</clus>
</clustering>
</event>
<event>
 9    1  0.1846526E-005  0.1234409E+03  0.7546771E-02  0.1239175E+00
         21   -1    0    0  501  502  0.00000000000E+00  0.00000000000E+00  0.10980268305E+03  0.10980268305E+03  0.00000000000E+00 0. -1.
          2   -1    0    0  502    0 -0.00000000000E+00 -0.00000000000E+00 -0.80157317452E+03  0.80157317452E+03  0.00000000000E+00 0. -1.
         23    2    1    2    0    0 -0.17133806129E+02  0.62798421189E+02 -0.48779901741E+03  0.50017453051E+03  0.89383838456E+02 0.  0.
         23    2    1    2    0    0  0.30426612570E+01 -0.13409395261E+03 -0.26801976900E+03  0.31433132526E+03  0.94758321818E+02 0.  0.
        -13    1    3    3    0    0 -0.21378685250E+02  0.84539338119E+02 -0.35580977144E+03  0.36633937998E+03  0.00000000000E+00 0.  1.
         13    1    3    3    0    0  0.42448791215E+01 -0.21740916930E+02 -0.13198924597E+03  0.13383515053E+03  0.00000000000E+00 0. -1.
        -13    1    4    4    0    0 -0.31809454096E+02 -0.22233264092E+02 -0.30053533354E+02  0.49085377345E+02  0.00000000000E+00 0.  1.
         13    1    4    4    0    0  0.34852115353E+02 -0.11186068851E+03 -0.23796623565E+03  0.26524594792E+03  0.00000000000E+00 0. -1.
          2    1    1    2  501    0  0.14091144872E+02  0.71295531416E+02  0.64048294936E+02  0.96870001796E+02  0.00000000000E+00 0. -1.
<scales pt_clust_5="13000.00000" pt_clust_6="13000.00000" pt_clust_7="13000.00000" pt_clust_8="13000.00000" pt_clust_9="72.67471"></scales>
<clustering>
<clus scale="   72.675">  1  9  2 -1</clus>
<clus scale="   89.384">  5  6 -1 -1</clus>
<clus scale="   94.758">  7  8 -1 -1</clus>
<clus scale="  119.365">  2  5  1 -1</clus>
<clus scale="   72.675">  1  5  2 -1</clus>
</clustering>
</event>
<event>
 9    1  0.1315259E-005  0.1117148E+03  0.7546771E-02  0.1259181E+00
         21   -1    0    0  501  502  0.00000000000E+00  0.00000000000E+00  0.30648821307E+03  0.30648821307E+03  0.00000000000E+00 0.  1.
          1   -1    0    0  502    0 -0.00000000000E+00 -0.00000000000E+00 -0.81188657723E+02  0.81188657723E+02  0.00000000000E+00 0. -1.
         23    2    1    2    0    0 -0.59327113932E+02  0.25945937861E+02 -0.13897939364E+02  0.10861673123E+03  0.86090321434E+02 0.  0.
         23    2    1    2    0    0  0.51398262199E+02 -0.45980701955E+02  0.15669262694E+03  0.19378815315E+03  0.90803428646E+02 0.  0.
        -11    1    4    4    0    0  0.15715103789E+02  0.19629233686E+02  0.90709393102E+02  0.94130044615E+02  0.00000000000E+00 0.  1.
         11    1    4    4    0    0  0.35683158410E+02 -0.65609935641E+02  0.65983233843E+02  0.99658108538E+02  0.00000000000E+00 0. -1.
        -13    1    3    3    0    0 -0.68233920788E+02 -0.11449211678E+02 -0.67465905537E+01  0.69515961320E+02  0.00000000000E+00 0.  1.
         13    1    3    3    0    0  0.89068068556E+01  0.37395149540E+02 -0.71513488101E+01  0.39100769906E+02  0.00000000000E+00 0. -1.
          1    1    1    2  501    0  0.79288517329E+01  0.20034764094E+02  0.82504867764E+02  0.85271986413E+02  0.00000000000E+00 0. -1.
<scales pt_clust_5="13000.00000" pt_clust_6="13000.00000" pt_clust_7="13000.00000" pt_clust_8="13000.00000" pt_clust_9="21.54666"></scales>
<clustering>
<clus scale="   21.547">  1  9  2 -1</clus>
<clus scale="   86.090">  7  8 -1 -1</clus>
<clus scale="   90.803">  5  6 -1 -1</clus>
<clus scale="  107.919">  2  7  1 -1</clus>
<clus scale="   21.547">  1  5  2 -1</clus>
</clustering>
</event>
<event>
 9    1  0.1315259E-005  0.9577192E+02  0.7546771E-02  0.1289631E+00
         21   -1    0    0  501  502  0.00000000000E+00  0.00000000000E+00  0.37834736130E+02  0.37834736130E+02  0.00000000000E+00 0.  1.
         -2   -1    0    0    0  501 -0.00000000000E+00 -0.00000000000E+00 -0.56380078661E+03  0.56380078661E+03  0.00000000000E+00 0.  1.
         23    2    1    2    0    0 -0.27002567536E+02  0.27555943782E+01 -0.27065332500E+03  0.28719645996E+03  0.92151247004E+02 0.  0.
         23    2    1    2    0    0  0.12536751434E+02 -0.27452739815E+02 -0.26650346432E+03  0.28370729642E+03  0.92492759107E+02 0.  0.
        -11    1    4    4    0    0 -0.15662739650E+02 -0.52027310434E+02 -0.10859517383E+03  0.12142929722E+03  0.00000000000E+00 0.  1.
         11    1    4    4    0    0  0.28199491084E+02  0.24574570619E+02 -0.15790829049E+03  0.16227799920E+03  0.00000000000E+00 0. -1.
        -11    1    3    3    0    0  0.13673634065E+02 -0.31794090788E+02 -0.16768322995E+03  0.17121769209E+03  0.00000000000E+00 0.  1.
         11    1    3    3    0    0 -0.40676201600E+02  0.34549685167E+02 -0.10297009505E+03  0.11597876787E+03  0.00000000000E+00 0. -1.
         -2    1    1    2    0  502  0.14465816101E+02  0.24697145437E+02  0.11190738838E+02  0.30731766365E+02  0.00000000000E+00 0.  1.
<scales pt_clust_5="13000.00000" pt_clust_6="13000.00000" pt_clust_7="13000.00000" pt_clust_8="13000.00000" pt_clust_9="28.62182"></scales>
<clustering>
<clus scale="   28.622">  1  9  2 -1</clus>
<clus scale="   92.151">  7  8 -1 -1</clus>
<clus scale="   92.493">  5  6 -1 -1</clus>
<clus scale="   95.442">  2  7  1 -1</clus>
<clus scale="   28.622">  1  5  2 -1</clus>
</clustering>
</event>
<event>
 9    1  0.1315259E-005  0.1313088E+03  0.7546771E-02  0.1238397E+00
          1   -1    0    0  502    0 -0.00000000000E+00  0.00000000000E+00  0.46811931505E+03  0.46811931505E+03  0.00000000000E+00 0. -1.
         21   -1    0    0  501  502  0.00000000000E+00 -0.00000000000E+00 -0.52348523384E+02  0.52348523384E+02  0.00000000000E+00 0.  1.
         23    2    1    2    0    0 -0.35647566443E+02  0.28514135295E+02  0.35112623098E+03  0.37567310120E+03  0.12552626807E+03 0.  0.
         23    2    1    2    0    0  0.26709469635E+02 -0.35106990046E+01  0.67484619948E+02  0.11809029308E+03  0.93088251755E+02 0.  0.
        -11    1    3    3    0    0  0.30277894885E+02 -0.24818803409E+02  0.54100462167E+02  0.66780116262E+02  0.00000000000E+00 0.  1.
         11    1    3    3    0    0 -0.65925461328E+02  0.53332938704E+02  0.29702576881E+03  0.30889298493E+03  0.00000000000E+00 0. -1.
        -13    1    4    4    0    0 -0.19907589340E+02 -0.27007815675E+02  0.54980573901E+02  0.64409608968E+02  0.00000000000E+00 0.  1.
         13    1    4    4    0    0  0.46617058976E+02  0.23497116670E+02  0.12504046047E+02  0.53680684114E+02  0.00000000000E+00 0. -1.
          1    1    1    2  501    0  0.89380968077E+01 -0.25003436290E+02 -0.28400592661E+01  0.26704444153E+02  0.00000000000E+00 0. -1.
<scales pt_clust_5="13000.00000" pt_clust_6="13000.00000" pt_clust_7="13000.00000" pt_clust_8="13000.00000" pt_clust_9="26.55299"></scales>
<clustering>
<clus scale="   26.553">  2  9  1 -1</clus>
<clus scale="   93.088">  7  8 -1 -1</clus>
<clus scale="  100.750">  2  7  1 -1</clus>
<clus scale="  125.526">  5  6 -1 -1</clus>
<clus scale="   26.553">  2  5  1 -1</clus>
</clustering>
</event>
<event>
 9    1  0.1315259E-005  0.1642218E+03  0.7546771E-02  0.1184404E+00
         -4   -1    0    0    0  501 -0.00000000000E+00  0.00000000000E+00  0.63323711903E+03  0.63323711903E+03  0.00000000000E+00 0.  1.
         21   -1    0    0  501  502  0.00000000000E+00 -0.00000000000E+00 -0.17346794287E+03  0.17346794287E+03  0.00000000000E+00 0.  1.
         23    2    1    2    0    0 -0.92288305563E+02  0.12432628336E+03  0.51889870397E+03  0.54871592143E+03  0.88651798450E+02 0.  0.
         23    2    1    2    0    0  0.64843637993E+02 -0.53616671352E+02  0.42478500818E+02  0.13119304239E+03  0.91256487465E+02 0.  0.
        -11    1    4    4    0    0  0.50212043598E+02 -0.79129716682E+02  0.39256302240E+02  0.10160619395E+03  0.00000000000E+00 0. -1.
         11    1    4    4    0    0  0.14631594395E+02  0.25513045330E+02  0.32221985781E+01  0.29586848434E+02  0.00000000000E+00 0.  1.
        -13    1    3    3    0    0 -0.88418494856E+02  0.67940844019E+02  0.42253642871E+03  0.43700208479E+03  0.00000000000E+00 0.  1.
         13    1    3    3    0    0 -0.38698107072E+01  0.56385439337E+02  0.96362275261E+02  0.11171383664E+03  0.00000000000E+00 0. -1.
         -4    1    1    2    0  502  0.27444667570E+02 -0.70709612004E+02 -0.10160802863E+03  0.12679609808E+03  0.00000000000E+00 0.  1.
<scales pt_clust_5="13000.00000" pt_clust_6="13000.00000" pt_clust_7="13000.00000" pt_clust_8="13000.00000" pt_clust_9="75.84892"></scales>
<clustering>
<clus scale="   75.849">  2  9  1 -1</clus>
<clus scale="   88.652">  7  8 -1 -1</clus>
<clus scale="   91.256">  5  6 -1 -1</clus>
<clus scale="  162.789">  1  7  2 -1</clus>
<clus scale="   75.849">  2  5  1 -1</clus>
</clustering>
</event>
<event>
 9    1  0.1315259E-005  0.1049119E+03  0.7546771E-02  0.1271436E+00
         21   -1    0    0  501  502  0.00000000000E+00  0.00000000000E+00  0.33416577575E+02  0.33416577575E+02  0.00000000000E+00 0.  1.
          3   -1    0    0  502    0 -0.00000000000E+00 -0.00000000000E+00 -0.42240405938E+03  0.42240405938E+03  0.00000000000E+00 0. -1.
         23    2    1    2    0    0 -0.41853802885E+02 -0.31655245867E+02 -0.19433801280E+03  0.22068780714E+03  0.90454682535E+02 0.  0.
         23    2    1    2    0    0  0.17617340489E+02  0.44271795714E+02 -0.15678405520E+03  0.18843836546E+03  0.93045231094E+02 0.  0.
        -11    1    4    4    0    0  0.11611036994E+02  0.71476858313E+02 -0.13453017853E+03  0.15278130249E+03  0.00000000000E+00 0. -1.
         11    1    4    4    0    0  0.60063034954E+01 -0.27205062599E+02 -0.22253876667E+02  0.35657062967E+02  0.00000000000E+00 0.  1.
        -13    1    3    3    0    0 -0.34980022717E+02 -0.61599627306E+02 -0.10908606762E+03  0.13006877497E+03  0.00000000000E+00 0.  1.
         13    1    3    3    0    0 -0.68737801681E+01  0.29944381439E+02 -0.85251945184E+02  0.90619032169E+02  0.00000000000E+00 0. -1.
          3    1    1    2  501    0  0.24236462396E+02 -0.12616549847E+02 -0.37865413803E+02  0.46694464361E+02  0.00000000000E+00 0. -1.
<scales pt_clust_5="13000.00000" pt_clust_6="13000.00000" pt_clust_7="13000.00000" pt_clust_8="13000.00000" pt_clust_9="27.32368"></scales>
<clustering>
<clus scale="   27.324">  1  9  2 -1</clus>
<clus scale="   90.455">  7  8 -1 -1</clus>
<clus scale="   93.045">  5  6 -1 -1</clus>
<clus scale="  102.621">  2  7  1 -1</clus>
<clus scale="   27.324">  1  5  2 -1</clus>
</clustering>
</event>
<event>
 9    1  0.1315259E-005  0.1270277E+03  0.7546771E-02  0.1246802E+00
         21   -1    0    0  501  502  0.00000000000E+00  0.00000000000E+00  0.12655075743E+03  0.12655075743E+03  0.00000000000E+00 0.  1.
          1   -1    0    0  502    0 -0.00000000000E+00 -0.00000000000E+00 -0.26352078430E+03  0.26352078430E+03  0.00000000000E+00 0. -1.
         23    2    1    2    0    0  0.29469104695E+02 -0.13541265533E+01  0.41015212323E+02  0.10245669637E+03  0.89133973312E+02 0.  0.
         23    2    1    2    0    0  0.49176192988E+01 -0.87537261050E+02 -0.69936347612E+02  0.14353608722E+03  0.89579911622E+02 0.  0.
        -13    1    4    4    0    0  0.30123348407E+02 -0.57141969665E+02 -0.16046837917E+01  0.64615755250E+02  0.00000000000E+00 0.  1.
         13    1    4    4    0    0 -0.25205729108E+02 -0.30395291385E+02 -0.68331663821E+02  0.78920331973E+02  0.00000000000E+00 0. -1.
        -13    1    3    3    0    0  0.40642352522E+02 -0.36004696046E+02  0.11295594486E+02  0.55459259017E+02  0.00000000000E+00 0.  1.
         13    1    3    3    0    0 -0.11173247827E+02  0.34650569493E+02  0.29719617836E+02  0.46997437351E+02  0.00000000000E+00 0. -1.
          1    1    1    2  501    0 -0.34386723994E+02  0.88891387603E+02 -0.10804889158E+03  0.14407875814E+03  0.00000000000E+00 0. -1.
<scales pt_clust_5="13000.00000" pt_clust_6="13000.00000" pt_clust_7="13000.00000" pt_clust_8="13000.00000" pt_clust_9="90.06378"></scales>
<clustering>
<clus scale="   89.134">  7  8 -1 -1</clus>
<clus scale="   89.580">  5  6 -1 -1</clus>
<clus scale="   93.889">  2  7  1 -1</clus>
<clus scale="   90.064">  1  9  2 -1</clus>
<clus scale="   90.064">  1  5  2 -1</clus>
</clustering>
</event>
<event>
 9    1  0.1315259E-005  0.9338730E+02  0.7546771E-02  0.1296082E+00
         21   -1    0    0  501  502  0.00000000000E+00  0.00000000000E+00  0.13624480283E+03  0.13624480283E+03  0.00000000000E+00 0.  1.
          2   -1    0    0  502    0 -0.00000000000E+00 -0.00000000000E+00 -0.11327598703E+03  0.11327598703E+03  0.00000000000E+00 0. -1.
         23    2    1    2    0    0 -0.22065196592E+02 -0.26201884872E+01 -0.55396897310E+02  0.10785661041E+03  0.89835927614E+02 0.  0.
         23    2    1    2    0    0 -0.27770337321E+01  0.29146131877E+01  0.53353346304E+02  0.10641022099E+03  0.91980153740E+02 0.  0.
        -11    1    3    3    0    0  0.34237016146E+02  0.46039348715E+01 -0.29658275483E+02  0.45530020816E+02  0.00000000000E+00 0. -1.
         11    1    3    3    0    0 -0.56302212738E+02 -0.72241233587E+01 -0.25738621827E+02  0.62326589599E+02  0.00000000000E+00 0.  1.
        -13    1    4    4    0    0 -0.44710089268E+02 -0.10632752440E+02  0.16065446720E+02  0.48684146137E+02  0.00000000000E+00 0.  1.
         13    1    4    4    0    0  0.41933055536E+02  0.13547365628E+02  0.37287899585E+02  0.57726074849E+02  0.00000000000E+00 0. -1.
          2    1    1    2  501    0  0.24842230324E+02 -0.29442470055E+00  0.25012366810E+02  0.35253958456E+02  0.00000000000E+00 0. -1.
<scales pt_clust_5="13000.00000" pt_clust_6="13000.00000" pt_clust_7="13000.00000" pt_clust_8="13000.00000" pt_clust_9="24.84397"></scales>
<clustering>
<clus scale="   24.844">  1  9  2 -1</clus>
<clus scale="   89.836">  5  6 -1 -1</clus>
<clus scale="   91.276">  2  5  1 -1</clus>
<clus scale="   91.980">  7  8 -1 -1</clus>
<clus scale="   24.844">  1  5  2 -1</clus>
</clustering>
</event>
<event>
 9    1  0.1315259E-005  0.9991012E+02  0.7546771E-02  0.1280680E+00
         -2   -1    0    0    0  501 -0.00000000000E+00  0.00000000000E+00  0.29250776973E+03  0.29250776973E+03  0.00000000000E+00 0.  1.
         21   -1    0    0  501  502  0.00000000000E+00 -0.00000000000E+00 -0.88029638722E+02  0.88029638722E+02  0.00000000000E+00 0.  1.
         23    2    1    2    0    0  0.66548411416E+01 -0.42240330366E+02  0.19448351804E+03  0.21885147369E+03  0.90794252735E+02 0.  0.
         23    2    1    2    0    0 -0.23933956755E+02  0.31443353279E+02  0.54056538985E+02  0.11314115261E+03  0.91199189988E+02 0.  0.
        -13    1    4    4    0    0 -0.17400658764E+02  0.57783714338E+02  0.96716382491E+01  0.61116946541E+02  0.00000000000E+00 0. -1.
         13    1    4    4    0    0 -0.65332979908E+01 -0.26340361059E+02  0.44384900736E+02  0.52024206065E+02  0.00000000000E+00 0.  1.
        -13    1    3    3    0    0  0.16479365709E+00 -0.64202573744E+02  0.18151153922E+03  0.19253165065E+03  0.00000000000E+00 0.  1.
         13    1    3    3    0    0  0.64900474845E+01  0.21962243377E+02  0.12971978815E+02  0.26319823040E+02  0.00000000000E+00 0. -1.
         -2    1    1    2    0  502  0.17279115613E+02  0.10796977087E+02 -0.44061926012E+02  0.48544782155E+02  0.00000000000E+00 0.  1.
<scales pt_clust_5="13000.00000" pt_clust_6="13000.00000" pt_clust_7="13000.00000" pt_clust_8="13000.00000" pt_clust_9="20.37505"></scales>
<clustering>
<clus scale="   20.375">  2  9  1 -1</clus>
<clus scale="   90.794">  7  8 -1 -1</clus>
<clus scale="   91.199">  5  6 -1 -1</clus>
<clus scale="   99.541">  1  7  2 -1</clus>
<clus scale="   20.375">  2  5  1 -1</clus>
</clustering>
</event>
<event>
 9    1  0.1315259E-005  0.1098900E+03  0.7546771E-02  0.1262336E+00
          1   -1    0    0  502    0 -0.00000000000E+00  0.00000000000E+00  0.43887503318E+03  0.43887503318E+03  0.00000000000E+00 0. -1.
         21   -1    0    0  501  502  0.00000000000E+00 -0.00000000000E+00 -0.67364818200E+02  0.67364818200E+02  0.00000000000E+00 0. -1.
         23    2    1    2    0    0  0.51334901808E+02  0.80559185714E+02  0.20700499840E+03  0.24542974306E+03  0.90882533354E+02 0.  0.
         23    2    1    2    0    0  0.29695453585E+02 -0.20203324006E+02  0.84249956178E+02  0.13177656478E+03  0.94747103616E+02 0.  0.
        -11    1    3    3    0    0  0.23722238310E+02 -0.17794119005E+02  0.44055988660E+02  0.53106547604E+02  0.00000000000E+00 0.  1.
         11    1    3    3    0    0  0.27612663497E+02  0.98353304720E+02  0.16294900974E+03  0.19232319545E+03  0.00000000000E+00 0. -1.
        -13    1    4    4    0    0 -0.13272633166E+02  0.25186754706E+02  0.56752458726E+02  0.63493125417E+02  0.00000000000E+00 0.  1.
         13    1    4    4    0    0  0.42968086751E+02 -0.45390078712E+02  0.27497497451E+02  0.68283439358E+02  0.00000000000E+00 0. -1.
          1    1    1    2  501    0 -0.81030355392E+02 -0.60355861709E+02  0.80255260405E+02  0.12903354355E+03  0.00000000000E+00 0. -1.
<scales pt_clust_5="13000.00000" pt_clust_6="13000.00000" pt_clust_7="13000.00000" pt_clust_8="13000.00000" pt_clust_9="101.03835"></scales>
<clustering>
<clus scale="   90.883">  5  6 -1 -1</clus>
<clus scale="   94.747">  7  8 -1 -1</clus>
<clus scale="  101.038">  2  9  1 -1</clus>
<clus scale="  106.576">  1  5  2 -1</clus>
<clus scale="  101.038">  2  5  1 -1</clus>
</clustering>
</event>
<event>
 9    1  0.1315259E-005  0.9424948E+02  0.7546771E-02  0.1295605E+00
         -2   -1    0    0    0  501 -0.00000000000E+00  0.00000000000E+00  0.53159022052E+02  0.53159022052E+02  0.00000000000E+00 0.  1.
         21   -1    0    0  501  502  0.00000000000E+00 -0.00000000000E+00 -0.23155599750E+03  0.23155599750E+03  0.00000000000E+00 0. -1.
         23    2    1    2    0    0  0.13890801577E+02  0.24054223546E+02 -0.31223299606E+02  0.96857309136E+02  0.87377822449E+02 0.  0.
         23    2    1    2    0    0 -0.38887500583E+01 -0.22380377256E+01 -0.10950122891E+03  0.14319004587E+03  0.92156057386E+02 0.  0.
        -13    1    3    3    0    0  0.47652535301E+02  0.12011401818E+02 -0.35688865648E+02  0.60734940730E+02  0.00000000000E+00 0. -1.
         13    1    3    3    0    0 -0.33761733724E+02  0.12042821728E+02  0.44655660412E+01  0.36122368406E+02  0.00000000000E+00 0.  1.
        -13    1    4    4    0    0  0.14879864016E+02 -0.33253812926E+02 -0.98934621710E+02  0.10542905577E+03  0.00000000000E+00 0. -1.
         13    1    4    4    0    0 -0.18768614074E+02  0.31015775201E+02 -0.10566607200E+02  0.37760990099E+02  0.00000000000E+00 0.  1.
         -2    1    1    2    0  502 -0.10002051519E+02 -0.21816185820E+02 -0.37672446932E+02  0.44667664548E+02  0.00000000000E+00 0.  1.
<scales pt_clust_5="13000.00000" pt_clust_6="13000.00000" pt_clust_7="13000.00000" pt_clust_8="13000.00000" pt_clust_9="23.99973"></scales>
<clustering>
<clus scale="   24.000">  2  9  1 -1</clus>
<clus scale="   87.378">  5  6 -1 -1</clus>
<clus scale="   89.583">  1  5  2 -1</clus>
<clus scale="   92.156">  7  8 -1 -1</clus>
<clus scale="   24.000">  2  5  1 -1</clus>
</clustering>
</event>
<event>
 9    1  0.1315259E-005  0.1103126E+03  0.7546771E-02  0.1260061E+00
         -3   -1    0    0    0  501 -0.00000000000E+00  0.00000000000E+00  0.60849938837E+03  0.60849938837E+03  0.00000000000E+00 0.  1.
         21   -1    0    0  501  502  0.00000000000E+00 -0.00000000000E+00 -0.41168008862E+02  0.41168008862E+02  0.00000000000E+00 0.  1.
         23    2    1    2    0    0 -0.16384448140E+02  0.66513699027E+02  0.43373241063E+03  0.44835416611E+03  0.90582183342E+02 0.  0.
         23    2    1    2    0    0  0.23303210273E+02 -0.33492407064E+02  0.50430290829E+02  0.11156188572E+03  0.90763754731E+02 0.  0.
        -11    1    3    3    0    0  0.22204129342E+02 -0.11930599532E+02  0.74969746863E+02  0.79093776682E+02  0.00000000000E+00 0. -1.
         11    1    3    3    0    0 -0.38588577482E+02  0.78444298559E+02  0.35876266377E+03  0.36926038943E+03  0.00000000000E+00 0.  1.
        -13    1    4    4    0    0  0.24031044790E+02  0.27184313299E+02  0.31352007131E+02  0.47952334192E+02  0.00000000000E+00 0.  1.
         13    1    4    4    0    0 -0.72783451700E+00 -0.60676720363E+02  0.19078283698E+02  0.63609551531E+02  0.00000000000E+00 0. -1.
         -3    1    1    2    0  502 -0.69187621333E+01 -0.33021291964E+02  0.83168678048E+02  0.89751345398E+02  0.00000000000E+00 0.  1.
<scales pt_clust_5="13000.00000" pt_clust_6="13000.00000" pt_clust_7="13000.00000" pt_clust_8="13000.00000" pt_clust_9="33.73835"></scales>
<clustering>
<clus scale="   33.738">  2  9  1 -1</clus>
<clus scale="   90.582">  5  6 -1 -1</clus>
<clus scale="   90.764">  7  8 -1 -1</clus>
<clus scale="  110.163">  1  5  2 -1</clus>
<clus scale="   33.738">  2  5  1 -1</clus>
</clustering>
</event>
<event>
 9    1  0.1315259E-005  0.9168161E+02  0.7546771E-02  0.1298925E+00
         21   -1    0    0  501  502  0.00000000000E+00  0.00000000000E+00  0.18302999643E+03  0.18302999643E+03  0.00000000000E+00 0.  1.
         -1   -1    0    0    0  501 -0.00000000000E+00 -0.00000000000E+00 -0.16805735962E+03  0.16805735962E+03  0.00000000000E+00 0.  1.
         23    2    1    2    0    0 -0.35915027030E+02 -0.67557214105E+00 -0.62635941593E+02  0.11613953554E+03  0.90965845087E+02 0.  0.
         23    2    1    2    0    0 -0.14897334759E+02  0.89252796303E-01 -0.44849140194E+02  0.10236526990E+03  0.90803439126E+02 0.  0.
        -11    1    3    3    0    0 -0.51827888409E+02  0.31736824042E+02 -0.46833634038E+02  0.76725128181E+02  0.00000000000E+00 0.  1.
         11    1    3    3    0    0  0.15912861378E+02 -0.32412396183E+02 -0.15802307555E+02  0.39414407361E+02  0.00000000000E+00 0. -1.
        -13    1    4    4    0    0 -0.24855858912E+02  0.21362143341E+02 -0.64101971734E+02  0.71994566952E+02  0.00000000000E+00 0.  1.
         13    1    4    4    0    0  0.99585241533E+01 -0.21272890545E+02  0.19252831540E+02  0.30370702951E+02  0.00000000000E+00 0. -1.
         -1    1    1    2    0  502  0.50812361789E+02  0.58631934475E+00  0.12245771859E+03  0.13258255060E+03  0.00000000000E+00 0.  1.
<scales pt_clust_5="13000.00000" pt_clust_6="13000.00000" pt_clust_7="13000.00000" pt_clust_8="13000.00000" pt_clust_9="50.81574"></scales>
<clustering>
<clus scale="   50.816">  1  9  2 -1</clus>
<clus scale="   90.803">  7  8 -1 -1</clus>
<clus scale="   90.966">  5  6 -1 -1</clus>
<clus scale="   91.520">  1  7  2 -1</clus>
<clus scale="   50.816">  1  5  2 -1</clus>
</clustering>
</event>
<event>
 9    1  0.1315259E-005  0.1272564E+03  0.7546771E-02  0.1233155E+00
         21   -1    0    0  501  502  0.00000000000E+00  0.00000000000E+00  0.44461470480E+03  0.44461470480E+03  0.00000000000E+00 0.  1.
         -1   -1    0    0    0  501 -0.00000000000E+00 -0.00000000000E+00 -0.21358063603E+03  0.21358063603E+03  0.00000000000E+00 0.  1.
         23    2    1    2    0    0 -0.63784483113E+02  0.67809452547E+02 -0.16863853364E+03  0.21076970382E+03  0.85547243548E+02 0.  0.
         23    2    1    2    0    0  0.63405081455E+02 -0.18853141119E+02  0.12457650102E+03  0.16800708112E+03  0.91276664148E+02 0.  0.
        -13    1    4    4    0    0  0.13996844854E+02 -0.34592675102E+02  0.49737318949E+01  0.37647082829E+02  0.00000000000E+00 0. -1.
         13    1    4    4    0    0  0.49408236601E+02  0.15739533983E+02  0.11960276912E+03  0.13035999829E+03  0.00000000000E+00 0.  1.
        -13    1    3    3    0    0  0.14107135837E+01  0.52504596842E+02 -0.10942570342E+03  0.12137836451E+03  0.00000000000E+00 0.  1.
         13    1    3    3    0    0 -0.65195196697E+02  0.15304855705E+02 -0.59212830220E+02  0.89391339307E+02  0.00000000000E+00 0. -1.
         -1    1    1    2    0  502  0.37940165841E+00 -0.48956311428E+02  0.27509610139E+03  0.27941855589E+03  0.00000000000E+00 0.  1.
<scales pt_clust_5="13000.00000" pt_clust_6="13000.00000" pt_clust_7="13000.00000" pt_clust_8="13000.00000" pt_clust_9="48.95778"></scales>
<clustering>
<clus scale="   48.958">  1  9  2 -1</clus>
<clus scale="   85.547">  7  8 -1 -1</clus>
<clus scale="   91.277">  5  6 -1 -1</clus>
<clus scale="  123.212">  2  7  1 -1</clus>
<clus scale="   48.958">  1  5  2 -1</clus>
</clustering>
</event>
<event>
 9    1  0.1315259E-005  0.1283920E+03  0.7546771E-02  0.1233022E+00
         21   -1    0    0  501  502  0.00000000000E+00  0.00000000000E+00  0.26906607930E+03  0.26906607930E+03  0.00000000000E+00 0. -1.
          2   -1    0    0  502    0 -0.00000000000E+00 -0.00000000000E+00 -0.30337580982E+03  0.30337580982E+03  0.00000000000E+00 0. -1.
         23    2    1    2    0    0  0.53172160420E+02  0.16715257982E+02 -0.12583300385E+03  0.17055748036E+03  0.10074339063E+03 0.  0.
         23    2    1    2    0    0 -0.96216599570E+02 -0.12226563209E+03 -0.79276521379E+02  0.19654012448E+03  0.90203851719E+02 0.  0.
        -11    1    3    3    0    0  0.19252891157E+02 -0.39065493018E+02 -0.24371772925E+02  0.49907613429E+02  0.00000000000E+00 0. -1.
         11    1    3    3    0    0  0.33919269264E+02  0.55780751001E+02 -0.10146123093E+03  0.12064986693E+03  0.00000000000E+00 0.  1.
        -13    1    4    4    0    0 -0.69747528451E+02 -0.38216780060E+02 -0.73400782659E+02  0.10822622094E+03  0.00000000000E+00 0. -1.
         13    1    4    4    0    0 -0.26469071119E+02 -0.84048852028E+02 -0.58757387196E+01  0.88313903541E+02  0.00000000000E+00 0.  1.
          2    1    1    2  501    0  0.43044439150E+02  0.10555037411E+03  0.17079979471E+03  0.20534428429E+03  0.00000000000E+00 0. -1.
<scales pt_clust_5="13000.00000" pt_clust_6="13000.00000" pt_clust_7="13000.00000" pt_clust_8="13000.00000" pt_clust_9="113.98993"></scales>
<clustering>
<clus scale="   90.204">  7  8 -1 -1</clus>
<clus scale="  100.743">  5  6 -1 -1</clus>
<clus scale="  113.990">  1  9  2 -1</clus>
<clus scale="  120.300">  1  7  2 -1</clus>
<clus scale="  113.990">  1  5  2 -1</clus>
</clustering>
</event>
<event>
 9    1  0.1315259E-005  0.9578501E+02  0.7546771E-02  0.1292331E+00
          1   -1    0    0  502    0 -0.00000000000E+00  0.00000000000E+00  0.31199994657E+03  0.31199994657E+03  0.00000000000E+00 0. -1.
         21   -1    0    0  501  502  0.00000000000E+00 -0.00000000000E+00 -0.98390703649E+02  0.98390703649E+02  0.00000000000E+00 0. -1.
         23    2    1    2    0    0  0.32315828107E+02 -0.85124407491E+01  0.17228588279E+03  0.19968563856E+03  0.95263605023E+02 0.  0.
         23    2    1    2    0    0  0.27516355154E+02  0.26944602909E+01  0.92250532995E+02  0.13191849007E+03  0.90154962517E+02 0.  0.
        -13    1    4    4    0    0  0.32559738090E+02  0.22536275646E+02  0.22971677189E+01  0.39664811156E+02  0.00000000000E+00 0. -1.
         13    1    4    4    0    0 -0.50433829364E+01 -0.19841815356E+02  0.89953365276E+02  0.92253678911E+02  0.00000000000E+00 0.  1.
        -13    1    3    3    0    0 -0.22756888858E+02  0.17656567234E+02  0.18447709540E+02  0.34204507660E+02  0.00000000000E+00 0.  1.
         13    1    3    3    0    0  0.55072716966E+02 -0.26169007983E+02  0.15383817325E+03  0.16548113090E+03  0.00000000000E+00 0. -1.
          1    1    1    2  501    0 -0.59832183261E+02  0.58179804582E+01 -0.50927172861E+02  0.78786521602E+02  0.00000000000E+00 0. -1.
<scales pt_clust_5="13000.00000" pt_clust_6="13000.00000" pt_clust_7="13000.00000" pt_clust_8="13000.00000" pt_clust_9="60.11438"></scales>
<clustering>
<clus scale="   60.114">  2  9  1 -1</clus>
<clus scale="   90.155">  5  6 -1 -1</clus>
<clus scale="   90.706">  2  5  1 -1</clus>
<clus scale="   95.264">  7  8 -1 -1</clus>
<clus scale="   60.114">  2  5  1 -1</clus>
</clustering>
</event>
<event>
 9    1  0.1315259E-005  0.1834869E+03  0.7546771E-02  0.1164575E+00
         21   -1    0    0  501  502  0.00000000000E+00  0.00000000000E+00  0.25581773949E+03  0.25581773949E+03  0.00000000000E+00 0. -1.
         -3   -1    0    0    0  501 -0.00000000000E+00 -0.00000000000E+00 -0.25174364861E+03  0.25174364861E+03  0.00000000000E+00 0.  1.
         23    2    1    2    0    0  0.92325565530E+02 -0.13139621901E+03 -0.14265777402E+03  0.23385471935E+03  0.92454382554E+02 0.  0.
         23    2    1    2    0    0 -0.60735876453E+02  0.14241059280E+03  0.75634292431E+02  0.19513129285E+03  0.91575387670E+02 0.  0.
        -11    1    4    4    0    0 -0.52584541073E+02  0.18929417750E+02  0.18912481128E+02  0.59001175909E+02  0.00000000000E+00 0.  1.
         11    1    4    4    0    0 -0.81513353801E+01  0.12348117505E+03  0.56721811303E+02  0.13613011694E+03  0.00000000000E+00 0. -1.
        -13    1    3    3    0    0  0.60506108341E+02 -0.62795178872E+02 -0.13095647554E+03  0.15733347426E+03  0.00000000000E+00 0.  1.
         13    1    3    3    0    0  0.31819457189E+02 -0.68601040139E+02 -0.11701298474E+02  0.76521245088E+02  0.00000000000E+00 0. -1.
         -3    1    1    2    0  502 -0.31589689077E+02 -0.11014373794E+02  0.71097572467E+02  0.78575375893E+02  0.00000000000E+00 0.  1.
<scales pt_clust_5="13000.00000" pt_clust_6="13000.00000" pt_clust_7="13000.00000" pt_clust_8="13000.00000" pt_clust_9="33.45482"></scales>
<clustering>
<clus scale="   33.455">  1  9  2 -1</clus>
<clus scale="   91.575">  5  6 -1 -1</clus>
<clus scale="   92.454">  7  8 -1 -1</clus>
<clus scale="  183.046">  1  5  2 -1</clus>
<clus scale="   33.455">  1  5  2 -1</clus>
</clustering>
</event>
<event>
 9    1  0.1315259E-005  0.1047216E+03  0.7546771E-02  0.1274752E+00
         21   -1    0    0  501  502  0.00000000000E+00  0.00000000000E+00  0.56314354809E+02  0.56314354809E+02  0.00000000000E+00 0. -1.
         -1   -1    0    0    0  501 -0.00000000000E+00 -0.00000000000E+00 -0.30693952345E+03  0.30693952345E+03  0.00000000000E+00 0.  1.
         23    2    1    2    0    0 -0.22935340230E+02 -0.24070840143E+01 -0.17224651013E+03  0.19667526265E+03  0.92089493428E+02 0.  0.
         23    2    1    2    0    0  0.45599005044E+02 -0.17893129105E+02 -0.77852027930E+02  0.13614807675E+03  0.10037891820E+03 0.  0.
        -13    1    4    4    0    0 -0.27927996748E+02 -0.25430320774E+02 -0.25491373992E+02  0.45568458006E+02  0.00000000000E+00 0. -1.
         13    1    4    4    0    0  0.73527001792E+02  0.75371916693E+01 -0.52360653939E+02  0.90579618743E+02  0.00000000000E+00 0.  1.
        -13    1    3    3    0    0  0.30713091932E+02 -0.19052077752E+02 -0.90879130644E+02  0.97802311166E+02  0.00000000000E+00 0.  1.
         13    1    3    3    0    0 -0.53648432162E+02  0.16644993737E+02 -0.81367379487E+02  0.98872951481E+02  0.00000000000E+00 0. -1.
         -1    1    1    2    0  502 -0.22663664814E+02  0.20300213119E+02 -0.52663057595E+00  0.30430538859E+02  0.00000000000E+00 0.  1.
<scales pt_clust_5="13000.00000" pt_clust_6="13000.00000" pt_clust_7="13000.00000" pt_clust_8="13000.00000" pt_clust_9="30.42598"></scales>
<clustering>
<clus scale="   30.426">  1  9  2 -1</clus>
<clus scale="   92.089">  7  8 -1 -1</clus>
<clus scale="   96.805">  2  7  1 -1</clus>
<clus scale="  100.379">  5  6 -1 -1</clus>
<clus scale="   30.426">  1  5  2 -1</clus>
</clustering>
</event>
<event>
 9    1  0.1315259E-005  0.9906979E+02  0.7546771E-02  0.1282586E+00
         21   -1    0    0  501  502  0.00000000000E+00  0.00000000000E+00  0.55890701107E+03  0.55890701107E+03  0.00000000000E+00 0.  1.
         -1   -1    0    0    0  501 -0.00000000000E+00 -0.00000000000E+00 -0.73127913642E+02  0.73127913642E+02  0.00000000000E+00 0.  1.
         23    2    1    2    0    0  0.14395312736E+02 -0.45249668263E+02 -0.97455320478E+01  0.10300252630E+03  0.90883373194E+02 0.  0.
         23    2    1    2    0    0  0.40027255276E+02 -0.16899074931E+02  0.30434794031E+03  0.32077100335E+03  0.91534736166E+02 0.  0.
        -13    1    3    3    0    0  0.28798432995E+02 -0.61540493443E+02 -0.29078270210E+02  0.73906209987E+02  0.00000000000E+00 0. -1.
         13    1    3    3    0    0 -0.14403120260E+02  0.16290825180E+02  0.19332738162E+02  0.29096316315E+02  0.00000000000E+00 0.  1.
        -13    1    4    4    0    0  0.69047712167E+02 -0.18539024821E+02  0.23325480888E+03  0.24396534152E+03  0.00000000000E+00 0.  1.
         13    1    4    4    0    0 -0.29020456891E+02  0.16399498901E+01  0.71093131425E+02  0.76805661833E+02  0.00000000000E+00 0. -1.
         -1    1    1    2    0  502 -0.54422568012E+02  0.62148743194E+02  0.19117668917E+03  0.20826139506E+03  0.00000000000E+00 0.  1.
<scales pt_clust_5="13000.00000" pt_clust_6="13000.00000" pt_clust_7="13000.00000" pt_clust_8="13000.00000" pt_clust_9="82.60921"></scales>
<clustering>
<clus scale="   82.609">  1  9  2 -1</clus>
<clus scale="   90.883">  5  6 -1 -1</clus>
<clus scale="   91.535">  7  8 -1 -1</clus>
<clus scale="   98.468">  2  5  1 -1</clus>
<clus scale="   82.609">  1  5  2 -1</clus>
</clustering>
</event>
<event>
 9    1  0.1315259E-005  0.1264320E+03  0.7546771E-02  0.1233096E+00
         21   -1    0    0  501  502  0.00000000000E+00  0.00000000000E+00  0.12449711987E+03  0.12449711987E+03  0.00000000000E+00 0. -1.
          3   -1    0    0  502    0 -0.00000000000E+00 -0.00000000000E+00 -0.24129150848E+03  0.24129150848E+03  0.00000000000E+00 0. -1.
         23    2    1    2    0    0 -0.29877316619E+02  0.81032549772E+02 -0.14961638238E+03  0.19580617754E+03  0.92174123898E+02 0.  0.
         23    2    1    2    0    0  0.62825355153E+02 -0.68088497196E+02  0.34436424779E+02  0.13454619638E+03  0.91289336231E+02 0.  0.
        -11    1    4    4    0    0 -0.19332163800E+02 -0.19842271200E+02 -0.99533780072E+01  0.29436678096E+02  0.00000000000E+00 0.  1.
         11    1    4    4    0    0  0.82157518953E+02 -0.48246225996E+02  0.44389802786E+02  0.10510951829E+03  0.00000000000E+00 0. -1.
        -13    1    3    3    0    0 -0.56897539409E+01 -0.20260142143E+02 -0.16199564293E+02  0.26556967878E+02  0.00000000000E+00 0.  1.
         13    1    3    3    0    0 -0.24187562678E+02  0.10129269192E+03 -0.13341681808E+03  0.16924920966E+03  0.00000000000E+00 0. -1.
          3    1    1    2  501    0 -0.32948038534E+02 -0.12944052576E+02 -0.16144310155E+01  0.35436254427E+02  0.00000000000E+00 0. -1.
<scales pt_clust_5="13000.00000" pt_clust_6="13000.00000" pt_clust_7="13000.00000" pt_clust_8="13000.00000" pt_clust_9="35.39946"></scales>
<clustering>
<clus scale="   35.399">  1  9  2 -1</clus>
<clus scale="   91.289">  5  6 -1 -1</clus>
<clus scale="   92.174">  7  8 -1 -1</clus>
<clus scale="  125.788">  1  5  2 -1</clus>
<clus scale="   35.399">  1  5  2 -1</clus>
</clustering>
</event>
<event>
 9    1  0.1315259E-005  0.1194074E+03  0.7546771E-02  0.1246243E+00
         21   -1    0    0  501  502  0.00000000000E+00  0.00000000000E+00  0.52748829376E+02  0.52748829376E+02  0.00000000000E+00 0.  1.
          1   -1    0    0  502    0 -0.00000000000E+00 -0.00000000000E+00 -0.33739493840E+03  0.33739493840E+03  0.00000000000E+00 0. -1.
         23    2    1    2    0    0  0.64029951378E+00  0.57247977721E+02 -0.13861524290E+03  0.17957750084E+03  0.98773236801E+02 0.  0.
         23    2    1    2    0    0  0.16912222893E+02 -0.77521269199E+02 -0.13406043673E+03  0.18119981379E+03  0.92550534093E+02 0.  0.
        -13    1    3    3    0    0  0.26758171294E+02 -0.19490817584E+02 -0.40348013274E+02  0.52190553516E+02  0.00000000000E+00 0.  1.
         13    1    3    3    0    0 -0.26117871780E+02  0.76738795304E+02 -0.98267229627E+02  0.12738694733E+03  0.00000000000E+00 0. -1.
        -13    1    4    4    0    0  0.39089045659E+02 -0.87070006092E+02 -0.11975404147E+03  0.15313448305E+03  0.00000000000E+00 0.  1.
         13    1    4    4    0    0 -0.22176822766E+02  0.95487368936E+01 -0.14306395263E+02  0.28065330742E+02  0.00000000000E+00 0. -1.
          1    1    1    2  501    0 -0.17552522407E+02  0.20273291478E+02 -0.11970429396E+02  0.29366453142E+02  0.00000000000E+00 0. -1.
<scales pt_clust_5="13000.00000" pt_clust_6="13000.00000" pt_clust_7="13000.00000" pt_clust_8="13000.00000" pt_clust_9="26.81599"></scales>
<clustering>
<clus scale="   26.816">  1  9  2 -1</clus>
<clus scale="   92.551">  7  8 -1 -1</clus>
<clus scale="   98.773">  5  6 -1 -1</clus>
<clus scale="  114.313">  1  7  2 -1</clus>
<clus scale="   26.816">  1  5  2 -1</clus>
</clustering>
</event>
<event>
 9    1  0.1315259E-005  0.1327365E+03  0.7546771E-02  0.1223749E+00
         21   -1    0    0  501  502  0.00000000000E+00  0.00000000000E+00  0.78239938721E+02  0.78239938721E+02  0.00000000000E+00 0.  1.
          2   -1    0    0  502    0 -0.00000000000E+00 -0.00000000000E+00 -0.28227751209E+03  0.28227751209E+03  0.00000000000E+00 0. -1.
         23    2    1    2    0    0  0.33329764704E+02 -0.98771107058E+02 -0.13492445373E+03  0.19368892990E+03  0.91892265979E+02 0.  0.
         23    2    1    2    0    0 -0.35280882024E+02  0.78248624189E+02 -0.74643827286E+02  0.14548448453E+03  0.90699760002E+02 0.  0.
        -11    1    4    4    0    0  0.23408170584E+02 -0.37501370898E+01 -0.18499195969E+02  0.30070354667E+02  0.00000000000E+00 0. -1.
         11    1    4    4    0    0 -0.58689052608E+02  0.81998761279E+02 -0.56144631317E+02  0.11541412987E+03  0.00000000000E+00 0.  1.
        -13    1    3    3    0    0 -0.13806123338E+02 -0.69044880665E+02 -0.33524943258E+02  0.77985424331E+02  0.00000000000E+00 0.  1.
         13    1    3    3    0    0  0.47135888042E+02 -0.29726226393E+02 -0.10139951047E+03  0.11570350557E+03  0.00000000000E+00 0. -1.
          2    1    1    2  501    0  0.19511173202E+01  0.20522482869E+02  0.55307076429E+01  0.21344036379E+02  0.00000000000E+00 0. -1.
<scales pt_clust_5="13000.00000" pt_clust_6="13000.00000" pt_clust_7="13000.00000" pt_clust_8="13000.00000" pt_clust_9="20.61502"></scales>
<clustering>
<clus scale="   20.615">  1  9  2 -1</clus>
<clus scale="   90.700">  5  6 -1 -1</clus>
<clus scale="   91.892">  7  8 -1 -1</clus>
<clus scale="  131.914">  1  5  2 -1</clus>
<clus scale="   20.615">  1  5  2 -1</clus>
</clustering>
</event>
<event>
 9    1  0.1315259E-005  0.1134587E+03  0.7546771E-02  0.1254876E+00
          1   -1    0    0  502    0 -0.00000000000E+00  0.00000000000E+00  0.79662622085E+03  0.79662622085E+03  0.00000000000E+00 0. -1.
         21   -1    0    0  501  502  0.00000000000E+00 -0.00000000000E+00 -0.58139635190E+02  0.58139635190E+02  0.00000000000E+00 0.  1.
         23    2    1    2    0    0  0.20480381182E+02  0.55412889905E+02  0.50588618423E+03  0.51760518671E+03  0.92218563923E+02 0.  0.
         23    2    1    2    0    0 -0.55400373997E+02 -0.66080270834E+02  0.26196959250E+03  0.29030185693E+03  0.90616207754E+02 0.  0.
        -11    1    4    4    0    0 -0.77773516270E+02 -0.48126697634E+02  0.15917696526E+03  0.18358160345E+03  0.00000000000E+00 0.  1.
         11    1    4    4    0    0  0.22373142272E+02 -0.17953573200E+02  0.10279262725E+03  0.10672025348E+03  0.00000000000E+00 0. -1.
        -13    1    3    3    0    0  0.10417961669E+02  0.77556914708E+02  0.44852426406E+03  0.45529948868E+03  0.00000000000E+00 0.  1.
         13    1    3    3    0    0  0.10062419513E+02 -0.22144024804E+02  0.57361920180E+02  0.62305698035E+02  0.00000000000E+00 0. -1.
          1    1    1    2  501    0  0.34919992815E+02  0.10667380929E+02 -0.29369191083E+02  0.46858812394E+02  0.00000000000E+00 0. -1.
<scales pt_clust_5="13000.00000" pt_clust_6="13000.00000" pt_clust_7="13000.00000" pt_clust_8="13000.00000" pt_clust_9="36.51300"></scales>
<clustering>
<clus scale="   36.513">  2  9  1 -1</clus>
<clus scale="   90.616">  5  6 -1 -1</clus>
<clus scale="   92.219">  7  8 -1 -1</clus>
<clus scale="  112.160">  2  5  1 -1</clus>
<clus scale="   36.513">  2  5  1 -1</clus>
</clustering>
</event>
<event>
 9    1  0.1315259E-005  0.9818442E+02  0.7546771E-02  0.1284302E+00
         21   -1    0    0  501  502  0.00000000000E+00  0.00000000000E+00  0.16029487110E+03  0.16029487110E+03  0.00000000000E+00 0. -1.
          4   -1    0    0  502    0 -0.00000000000E+00 -0.00000000000E+00 -0.11025772889E+03  0.11025772889E+03  0.00000000000E+00 0.  1.
         23    2    1    2    0    0  0.35426756744E+02 -0.23417363658E+01 -0.33392458930E+02  0.10361240001E+03  0.91432676326E+02 0.  0.
         23    2    1    2    0    0 -0.26728756431E+02  0.34566596599E+02  0.33671679244E+02  0.10702402839E+03  0.91711965675E+02 0.  0.
        -11    1    3    3    0    0  0.39858589926E+02  0.36611060163E+02 -0.34867997042E+02  0.64380541586E+02  0.00000000000E+00 0. -1.
         11    1    3    3    0    0 -0.44318331821E+01 -0.38952796529E+02  0.14755381121E+01  0.39231858425E+02  0.00000000000E+00 0.  1.
        -11    1    4    4    0    0 -0.30099771842E+02  0.57007766437E+02 -0.22833731242E+01  0.64506553867E+02  0.00000000000E+00 0. -1.
         11    1    4    4    0    0  0.33710154110E+01 -0.22441169838E+02  0.35955052368E+02  0.42517474518E+02  0.00000000000E+00 0.  1.
          4    1    1    2  501    0 -0.86980003129E+01 -0.32224860233E+02  0.49757921895E+02  0.59916171588E+02  0.00000000000E+00 0.  1.
<scales pt_clust_5="13000.00000" pt_clust_6="13000.00000" pt_clust_7="13000.00000" pt_clust_8="13000.00000" pt_clust_9="33.37809"></scales>
<clustering>
<clus scale="   33.378">  1  9  2 -1</clus>
<clus scale="   91.433">  5  6 -1 -1</clus>
<clus scale="   91.712">  7  8 -1 -1</clus>
<clus scale="   97.924">  2  5  1 -1</clus>
<clus scale="   33.378">  1  5  2 -1</clus>
</clustering>
</event>
<event>
 9    1  0.1315259E-005  0.1211273E+03  0.7546771E-02  0.1241406E+00
          2   -1    0    0  502    0 -0.00000000000E+00  0.00000000000E+00  0.79650725490E+03  0.79650725490E+03  0.00000000000E+00 0. -1.
         21   -1    0    0  501  502  0.00000000000E+00 -0.00000000000E+00 -0.40526724483E+02  0.40526724483E+02  0.00000000000E+00 0.  1.
         23    2    1    2    0    0  0.85132532441E+02  0.76239229225E+01  0.52313088003E+03  0.53780873788E+03  0.90921112092E+02 0.  0.
         23    2    1    2    0    0 -0.53829251522E+02  0.25680119254E+01  0.57295385189E+02  0.12061093367E+03  0.91433326264E+02 0.  0.
        -11    1    4    4    0    0 -0.12956698007E+01  0.38091631515E+02  0.39173896650E+02  0.54655698060E+02  0.00000000000E+00 0. -1.
         11    1    4    4    0    0 -0.52533581721E+02 -0.35523619590E+02  0.18121488539E+02  0.65955235608E+02  0.00000000000E+00 0.  1.
        -13    1    3    3    0    0  0.42453707153E+02  0.46354875189E+02  0.20223225752E+03  0.21177577219E+03  0.00000000000E+00 0.  1.
         13    1    3    3    0    0  0.42678825288E+02 -0.38730952266E+02  0.32089862251E+03  0.32603296570E+03  0.00000000000E+00 0. -1.
          2    1    1    2  501    0 -0.31303280919E+02 -0.10191934848E+02  0.17555426520E+03  0.17861430783E+03  0.00000000000E+00 0. -1.
<scales pt_clust_5="13000.00000" pt_clust_6="13000.00000" pt_clust_7="13000.00000" pt_clust_8="13000.00000" pt_clust_9="32.92069"></scales>
<clustering>
<clus scale="   32.921">  2  9  1 -1</clus>
<clus scale="   90.921">  7  8 -1 -1</clus>
<clus scale="   91.433">  5  6 -1 -1</clus>
<clus scale="  120.741">  1  7  2 -1</clus>
<clus scale="   32.921">  2  5  1 -1</clus>
</clustering>
</event>
<event>
 9    1  0.1315259E-005  0.1049603E+03  0.7546771E-02  0.1270769E+00
          2   -1    0    0  502    0 -0.00000000000E+00  0.00000000000E+00  0.26325137300E+03  0.26325137300E+03  0.00000000000E+00 0. -1.
         21   -1    0    0  501  502  0.00000000000E+00 -0.00000000000E+00 -0.56376280519E+02  0.56376280519E+02  0.00000000000E+00 0.  1.
         23    2    1    2    0    0 -0.45682588102E+02 -0.18477969903E+02  0.11209013313E+03  0.15159911342E+03  0.89385451936E+02 0.  0.
         23    2    1    2    0    0  0.44019849823E+02  0.42580162655E+02  0.57610095683E+02  0.12369287857E+03  0.90720381696E+02 0.  0.
        -13    1    4    4    0    0  0.15312557518E+02 -0.17128495324E+02  0.52425656562E+02  0.57239053415E+02  0.00000000000E+00 0. -1.
         13    1    4    4    0    0  0.28707292305E+02  0.59708657980E+02  0.51844391202E+01  0.66453825158E+02  0.00000000000E+00 0.  1.
        -13    1    3    3    0    0 -0.23947853320E+02  0.25179448760E+02  0.65846147274E+01  0.35367519981E+02  0.00000000000E+00 0.  1.
         13    1    3    3    0    0 -0.21734734781E+02 -0.43657418663E+02  0.10550551840E+03  0.11623159344E+03  0.00000000000E+00 0. -1.
          2    1    1    2  501    0  0.16627382791E+01 -0.24102192752E+02  0.37174863669E+02  0.44335661525E+02  0.00000000000E+00 0. -1.
<scales pt_clust_5="13000.00000" pt_clust_6="13000.00000" pt_clust_7="13000.00000" pt_clust_8="13000.00000" pt_clust_9="24.15949"></scales>
<clustering>
<clus scale="   24.159">  2  9  1 -1</clus>
<clus scale="   89.385">  7  8 -1 -1</clus>
<clus scale="   90.720">  5  6 -1 -1</clus>
<clus scale="  103.809">  1  7  2 -1</clus>
<clus scale="   24.159">  2  5  1 -1</clus>
</clustering>
</event>
<event>
 9    1  0.1315259E-005  0.9577221E+02  0.7546771E-02  0.1291394E+00
         -3   -1    0    0    0  501 -0.00000000000E+00  0.00000000000E+00  0.93280757583E+02  0.93280757583E+02  0.00000000000E+00 0.  1.
         21   -1    0    0  501  502  0.00000000000E+00 -0.00000000000E+00 -0.17053539810E+03  0.17053539810E+03  0.00000000000E+00 0.  1.
         23    2    1    2    0    0 -0.29924761898E+01 -0.22051660488E+02  0.38576015654E+02  0.10089005123E+03  0.90528795473E+02 0.  0.
         23    2    1    2    0    0  0.53155251119E+01  0.20624628013E+01 -0.99441209793E+02  0.13697271290E+03  0.94023727399E+02 0.  0.
        -13    1    4    4    0    0  0.29383636420E+01 -0.43726873988E+02 -0.27747407828E+02  0.51870917968E+02  0.00000000000E+00 0.  1.
         13    1    4    4    0    0  0.23771614699E+01  0.45789336790E+02 -0.71693801966E+02  0.85101794932E+02  0.00000000000E+00 0. -1.
        -13    1    3    3    0    0  0.28628976585E+02 -0.25465571986E+02 -0.12858697920E+02  0.40416083050E+02  0.00000000000E+00 0. -1.
         13    1    3    3    0    0 -0.31621452775E+02  0.34139114984E+01  0.51434713573E+02  0.60473968182E+02  0.00000000000E+00 0.  1.
         -3    1    1    2    0  502 -0.23230489220E+01  0.19989197687E+02 -0.16389446378E+02  0.25953391552E+02  0.00000000000E+00 0.  1.
<scales pt_clust_5="13000.00000" pt_clust_6="13000.00000" pt_clust_7="13000.00000" pt_clust_8="13000.00000" pt_clust_9="20.12373"></scales>
<clustering>
<clus scale="   20.124">  2  9  1 -1</clus>
<clus scale="   90.529">  7  8 -1 -1</clus>
<clus scale="   92.343">  1  7  2 -1</clus>
<clus scale="   94.024">  5  6 -1 -1</clus>
<clus scale="   20.124">  2  5  1 -1</clus>
</clustering>
</event>
<event>
 9    1  0.1315259E-005  0.1057289E+03  0.7546771E-02  0.1269972E+00
         -1   -1    0    0    0  501 -0.00000000000E+00  0.00000000000E+00  0.56926397541E+03  0.56926397541E+03  0.00000000000E+00 0.  1.
         21   -1    0    0  501  502  0.00000000000E+00 -0.00000000000E+00 -0.30915849565E+02  0.30915849565E+02  0.00000000000E+00 0. -1.
         23    2    1    2    0    0  0.23325902568E+02 -0.82339820137E+01  0.18722846007E+03  0.21170487073E+03  0.95669011907E+02 0.  0.
         23    2    1    2    0    0 -0.40712004689E+02  0.55431436211E+02  0.25685370093E+03  0.28162951280E+03  0.92796806807E+02 0.  0.
        -11    1    4    4    0    0 -0.86374514860E+01  0.60546568924E+02  0.74418171204E+02  0.96325265543E+02  0.00000000000E+00 0. -1.
         11    1    4    4    0    0 -0.32074553203E+02 -0.51151327128E+01  0.18243552973E+03  0.18530424726E+03  0.00000000000E+00 0.  1.
        -13    1    3    3    0    0 -0.24736349807E+02  0.44783679155E+01  0.90455078847E+01  0.26716361913E+02  0.00000000000E+00 0. -1.
         13    1    3    3    0    0  0.48062252375E+02 -0.12712349929E+02  0.17818295218E+03  0.18498850881E+03  0.00000000000E+00 0.  1.
         -1    1    1    2    0  502  0.17386102121E+02 -0.47197454197E+02  0.94265964852E+02  0.10684544145E+03  0.00000000000E+00 0.  1.
<scales pt_clust_5="13000.00000" pt_clust_6="13000.00000" pt_clust_7="13000.00000" pt_clust_8="13000.00000" pt_clust_9="50.29788"></scales>
<clustering>
<clus scale="   50.298">  2  9  1 -1</clus>
<clus scale="   92.797">  5  6 -1 -1</clus>
<clus scale="   95.669">  7  8 -1 -1</clus>
<clus scale="  103.137">  2  5  1 -1</clus>
<clus scale="   50.298">  2  5  1 -1</clus>
</clustering>
</event>
<event>
 9    1  0.1315259E-005  0.1082887E+03  0.7546771E-02  0.1264298E+00
          4   -1    0    0  502    0 -0.00000000000E+00  0.00000000000E+00  0.97325039688E+02  0.97325039688E+02  0.00000000000E+00 0. -1.
         21   -1    0    0  501  502  0.00000000000E+00 -0.00000000000E+00 -0.21628365347E+03  0.21628365347E+03  0.00000000000E+00 0.  1.
         23    2    1    2    0    0 -0.20674646272E+02 -0.51564114583E+02  0.25771446749E+02  0.11057863968E+03  0.92071543782E+02 0.  0.
         23    2    1    2    0    0 -0.10215051494E+02  0.58566939312E+02 -0.11440929787E+03  0.15918302815E+03  0.93355853344E+02 0.  0.
        -13    1    4    4    0    0 -0.11265488466E+02  0.27147039434E+02 -0.12310503945E+03  0.12656509676E+03  0.00000000000E+00 0.  1.
         13    1    4    4    0    0  0.10504369717E+01  0.31419899878E+02  0.86957415806E+01  0.32617931385E+02  0.00000000000E+00 0. -1.
        -13    1    3    3    0    0  0.76257847757E+01 -0.40816141625E+02  0.54721299651E+02  0.68691561680E+02  0.00000000000E+00 0.  1.
         13    1    3    3    0    0 -0.28300431048E+02 -0.10747972958E+02 -0.28949852902E+02  0.41887077998E+02  0.00000000000E+00 0. -1.
          4    1    1    2  501    0  0.30889697766E+02 -0.70028247290E+01 -0.30320762665E+02  0.43847025336E+02  0.00000000000E+00 0. -1.
<scales pt_clust_5="13000.00000" pt_clust_6="13000.00000" pt_clust_7="13000.00000" pt_clust_8="13000.00000" pt_clust_9="31.67354"></scales>
<clustering>
<clus scale="   31.674">  2  9  1 -1</clus>
<clus scale="   92.072">  7  8 -1 -1</clus>
<clus scale="   93.356">  5  6 -1 -1</clus>
<clus scale="  107.183">  1  7  2 -1</clus>
<clus scale="   31.674">  2  5  1 -1</clus>
</clustering>
</event>
<event>
 9    1  0.1315259E-005  0.1110369E+03  0.7546771E-02  0.1259008E+00
          4   -1    0    0  502    0 -0.00000000000E+00  0.00000000000E+00  0.10186431694E+04  0.10186431694E+04  0.00000000000E+00 0. -1.
         21   -1    0    0  501  502  0.00000000000E+00 -0.00000000000E+00 -0.23995155803E+02  0.23995155803E+02  0.00000000000E+00 0. -1.
         23    2    1    2    0    0  0.79848183581E+01  0.65010557006E+02  0.52084261239E+03  0.53312744215E+03  0.93046831454E+02 0.  0.
         23    2    1    2    0    0  0.40039759084E+02 -0.48588058948E+02  0.42238027743E+03  0.43725715072E+03  0.93940062352E+02 0.  0.
        -11    1    3    3    0    0 -0.38791066801E+02  0.11582759335E+02  0.24327300644E+03  0.24661845600E+03  0.00000000000E+00 0.  1.
         11    1    3    3    0    0  0.46775885159E+02  0.53427797671E+02  0.27756960595E+03  0.28650898615E+03  0.00000000000E+00 0. -1.
        -11    1    4    4    0    0  0.63922886325E+02 -0.25054633005E+02  0.35948540626E+03  0.36598309707E+03  0.00000000000E+00 0. -1.
         11    1    4    4    0    0 -0.23883127241E+02 -0.23533425944E+02  0.62894871166E+02  0.71274053642E+02  0.00000000000E+00 0.  1.
          4    1    1    2  501    0 -0.48024577442E+02 -0.16422498057E+02  0.51425123783E+02  0.72253732339E+02  0.00000000000E+00 0. -1.
<scales pt_clust_5="13000.00000" pt_clust_6="13000.00000" pt_clust_7="13000.00000" pt_clust_8="13000.00000" pt_clust_9="50.75489"></scales>
<clustering>
<clus scale="   50.755">  2  9  1 -1</clus>
<clus scale="   93.047">  5  6 -1 -1</clus>
<clus scale="   93.940">  7  8 -1 -1</clus>
<clus scale="  110.282">  1  5  2 -1</clus>
<clus scale="   50.755">  2  5  1 -1</clus>
</clustering>
</event>
<event>
 9    1  0.1315259E-005  0.9843839E+02  0.7546771E-02  0.1286536E+00
          1   -1    0    0  502    0 -0.00000000000E+00  0.00000000000E+00  0.33911258803E+03  0.33911258803E+03  0.00000000000E+00 0. -1.
         21   -1    0    0  501  502  0.00000000000E+00 -0.00000000000E+00 -0.46391784248E+02  0.46391784248E+02  0.00000000000E+00 0. -1.
         23    2    1    2    0    0  0.25047396315E+02  0.48605143833E+01  0.16256175641E+03  0.18888410674E+03  0.92735562050E+02 0.  0.
         23    2    1    2    0    0  0.21745713001E+02 -0.17899949590E+01  0.86622565850E+02  0.13263238862E+03  0.98039795398E+02 0.  0.
        -11    1    3    3    0    0  0.42926936664E+01 -0.30894287753E+02  0.13648806317E+03  0.14000669849E+03  0.00000000000E+00 0.  1.
         11    1    3    3    0    0  0.20754702649E+02  0.35754802136E+02  0.26073693245E+02  0.48877408250E+02  0.00000000000E+00 0. -1.
        -13    1    4    4    0    0  0.53692073681E+02  0.24228929515E+02  0.56218806832E+02  0.81427477200E+02  0.00000000000E+00 0. -1.
         13    1    4    4    0    0 -0.31946360680E+02 -0.26018924474E+02  0.30403759018E+02  0.51204911423E+02  0.00000000000E+00 0.  1.
          1    1    1    2  501    0 -0.46793109317E+02 -0.30705194243E+01  0.43536481521E+02  0.63987876916E+02  0.00000000000E+00 0. -1.
<scales pt_clust_5="13000.00000" pt_clust_6="13000.00000" pt_clust_7="13000.00000" pt_clust_8="13000.00000" pt_clust_9="46.89374"></scales>
<clustering>
<clus scale="   46.894">  2  9  1 -1</clus>
<clus scale="   92.736">  5  6 -1 -1</clus>
<clus scale="   93.157">  1  5  2 -1</clus>
<clus scale="   98.040">  7  8 -1 -1</clus>
<clus scale="   46.894">  2  5  1 -1</clus>
</clustering>
</event>
<event>
 9    1  0.1315259E-005  0.9369142E+02  0.7546771E-02  0.1294249E+00
          1   -1    0    0  502    0 -0.00000000000E+00  0.00000000000E+00  0.13969411271E+03  0.13969411271E+03  0.00000000000E+00 0. -1.
         21   -1    0    0  501  502  0.00000000000E+00 -0.00000000000E+00 -0.12725194506E+03  0.12725194506E+03  0.00000000000E+00 0.  1.
         23    2    1    2    0    0  0.43461429562E+00  0.19133503069E+02  0.72711758109E+02  0.11819309845E+03  0.91193908378E+02 0.  0.
         23    2    1    2    0    0 -0.31908688760E+02 -0.17845428225E+02 -0.25148348530E+02  0.10157480617E+03  0.91369459276E+02 0.  0.
        -11    1    4    4    0    0  0.14427235394E+02 -0.19974613197E+02 -0.44855154301E+02  0.51177291457E+02  0.00000000000E+00 0.  1.
         11    1    4    4    0    0 -0.46335924154E+02  0.21291849717E+01  0.19706805771E+02  0.50397514716E+02  0.00000000000E+00 0. -1.
        -13    1    3    3    0    0 -0.27020186786E+02 -0.26505089734E+02  0.42694982759E+02  0.57056742183E+02  0.00000000000E+00 0.  1.
         13    1    3    3    0    0  0.27454801082E+02  0.45638592803E+02  0.30016775350E+02  0.61136356270E+02  0.00000000000E+00 0. -1.
          1    1    1    2  501    0  0.31474074465E+02 -0.12880748439E+01 -0.35121241926E+02  0.47178153150E+02  0.00000000000E+00 0. -1.
<scales pt_clust_5="13000.00000" pt_clust_6="13000.00000" pt_clust_7="13000.00000" pt_clust_8="13000.00000" pt_clust_9="31.50042"></scales>
<clustering>
<clus scale="   31.500">  2  9  1 -1</clus>
<clus scale="   91.194">  7  8 -1 -1</clus>
<clus scale="   91.369">  5  6 -1 -1</clus>
<clus scale="   93.520">  1  7  2 -1</clus>
<clus scale="   31.500">  2  5  1 -1</clus>
</clustering>
</event>
<event>
 9    1  0.1315259E-005  0.2331624E+03  0.7546771E-02  0.1124831E+00
          2   -1    0    0  502    0 -0.00000000000E+00  0.00000000000E+00  0.26840268577E+03  0.26840268577E+03  0.00000000000E+00 0. -1.
         21   -1    0    0  501  502  0.00000000000E+00 -0.00000000000E+00 -0.31011619117E+03  0.31011619117E+03  0.00000000000E+00 0.  1.
         23    2    1    2    0    0 -0.79713657858E+02 -0.17648029106E+03 -0.39209891372E+02  0.21879071463E+03  0.93980853607E+02 0.  0.
         23    2    1    2    0    0  0.15458418787E+02  0.24314814353E+03 -0.35318606584E+02  0.26149292404E+03  0.88154199790E+02 0.  0.
        -11    1    3    3    0    0  0.50150096917E+01 -0.78389082519E+02 -0.42140971225E+02  0.89139553713E+02  0.00000000000E+00 0.  1.
         11    1    3    3    0    0 -0.84728667550E+02 -0.98091208542E+02  0.29310798529E+01  0.12965116092E+03  0.00000000000E+00 0. -1.
        -13    1    4    4    0    0 -0.16742234506E+02  0.20645608971E+03 -0.12241289274E+02  0.20749522539E+03  0.00000000000E+00 0.  1.
         13    1    4    4    0    0  0.32200653293E+02  0.36692053815E+02 -0.23077317310E+02  0.53997698654E+02  0.00000000000E+00 0. -1.
          2    1    1    2  501    0  0.64255239071E+02 -0.66667852467E+02  0.32814992551E+02  0.98235238264E+02  0.00000000000E+00 0. -1.
<scales pt_clust_5="13000.00000" pt_clust_6="13000.00000" pt_clust_7="13000.00000" pt_clust_8="13000.00000" pt_clust_9="92.59237"></scales>
<clustering>
<clus scale="   88.154">  7  8 -1 -1</clus>
<clus scale="   92.592">  2  9  1 -1</clus>
<clus scale="   93.981">  5  6 -1 -1</clus>
<clus scale="  230.875">  2  7  1 -1</clus>
<clus scale="   92.592">  2  5  1 -1</clus>
</clustering>
</event>
<event>
 9    1  0.1315259E-005  0.1019155E+03  0.7546771E-02  0.1278062E+00
         21   -1    0    0  501  502  0.00000000000E+00  0.00000000000E+00  0.12894905622E+03  0.12894905622E+03  0.00000000000E+00 0.  1.
         -1   -1    0    0    0  501 -0.00000000000E+00 -0.00000000000E+00 -0.24361398426E+03  0.24361398426E+03  0.00000000000E+00 0.  1.
         23    2    1    2    0    0 -0.35896599997E+02  0.57143802198E+01 -0.17685977036E+03  0.20257487114E+03  0.91847591218E+02 0.  0.
         23    2    1    2    0    0  0.20293278318E+02 -0.50798762631E+02  0.49522925501E+02  0.12062580858E+03  0.95423970338E+02 0.  0.
        -13    1    3    3    0    0 -0.60376394976E+02 -0.10969955822E+02 -0.77272436651E+02  0.98674609029E+02  0.00000000000E+00 0.  1.
         13    1    3    3    0    0  0.24479794979E+02  0.16684336041E+02 -0.99587333707E+02  0.10390026211E+03  0.00000000000E+00 0. -1.
        -13    1    4    4    0    0  0.21236468283E+02 -0.19956706667E+02  0.75094291477E+02  0.80550669386E+02  0.00000000000E+00 0. -1.
         13    1    4    4    0    0 -0.94318996487E+00 -0.30842055964E+02 -0.25571365976E+02  0.40075139192E+02  0.00000000000E+00 0.  1.
         -1    1    1    2    0  502  0.15603321679E+02  0.45084382411E+02  0.12671916818E+02  0.49362360768E+02  0.00000000000E+00 0.  1.
<scales pt_clust_5="13000.00000" pt_clust_6="13000.00000" pt_clust_7="13000.00000" pt_clust_8="13000.00000" pt_clust_9="47.70812"></scales>
<clustering>
<clus scale="   47.708">  1  9  2 -1</clus>
<clus scale="   91.848">  5  6 -1 -1</clus>
<clus scale="   95.424">  7  8 -1 -1</clus>
<clus scale="   98.575">  2  5  1 -1</clus>
<clus scale="   47.708">  1  5  2 -1</clus>
</clustering>
</event>
<event>
 9    1  0.1315259E-005  0.1274468E+03  0.7546771E-02  0.1231376E+00
         -4   -1    0    0    0  501 -0.00000000000E+00  0.00000000000E+00  0.39905420678E+03  0.39905420678E+03  0.00000000000E+00 0.  1.
         21   -1    0    0  501  502  0.00000000000E+00 -0.00000000000E+00 -0.14345256617E+03  0.14345256617E+03  0.00000000000E+00 0.  1.
         23    2    1    2    0    0  0.86279017460E+02  0.49204189725E+02  0.26421595184E+03  0.29655300021E+03  0.90931246459E+02 0.  0.
         23    2    1    2    0    0 -0.54501487452E+02 -0.46100189430E+02  0.87179160906E+02  0.14497934263E+03  0.91231376701E+02 0.  0.
        -11    1    3    3    0    0  0.77533470124E+02  0.13715747033E+02  0.24030699366E+03  0.25287746421E+03  0.00000000000E+00 0.  1.
         11    1    3    3    0    0  0.87455473365E+01  0.35488442692E+02  0.23908958190E+02  0.43675535997E+02  0.00000000000E+00 0. -1.
        -11    1    4    4    0    0 -0.29404975906E+02  0.18162614818E+02  0.98554074067E+00  0.34576067961E+02  0.00000000000E+00 0.  1.
         11    1    4    4    0    0 -0.25096511546E+02 -0.64262804249E+02  0.86193620165E+02  0.11040327467E+03  0.00000000000E+00 0. -1.
         -4    1    1    2    0  502 -0.31777530009E+02 -0.31040002951E+01 -0.95793472143E+02  0.10097443011E+03  0.00000000000E+00 0.  1.
<scales pt_clust_5="13000.00000" pt_clust_6="13000.00000" pt_clust_7="13000.00000" pt_clust_8="13000.00000" pt_clust_9="31.92877"></scales>
<clustering>
<clus scale="   31.929">  2  9  1 -1</clus>
<clus scale="   90.931">  5  6 -1 -1</clus>
<clus scale="   91.231">  7  8 -1 -1</clus>
<clus scale="  127.232">  1  5  2 -1</clus>
<clus scale="   31.929">  2  5  1 -1</clus>
</clustering>
</event>
<event>
 9    1  0.1315259E-005  0.9939490E+02  0.7546771E-02  0.1284881E+00
         21   -1    0    0  501  502  0.00000000000E+00  0.00000000000E+00  0.55078076995E+03  0.55078076995E+03  0.00000000000E+00 0.  1.
          1   -1    0    0  502    0 -0.00000000000E+00 -0.00000000000E+00 -0.30037898416E+02  0.30037898416E+02  0.00000000000E+00 0. -1.
         23    2    1    2    0    0  0.50153898646E+02 -0.84044250616E+01  0.14242201628E+03  0.17718172455E+03  0.92321638222E+02 0.  0.
         23    2    1    2    0    0 -0.21411816154E+02 -0.14964462271E+02  0.17158575391E+03  0.19360929247E+03  0.85793275866E+02 0.  0.
        -11    1    4    4    0    0 -0.26971558898E+02  0.20227209760E+02  0.14575328607E+03  0.14960155549E+03  0.00000000000E+00 0.  1.
         11    1    4    4    0    0  0.55597427435E+01 -0.35191672031E+02  0.25832467843E+02  0.44007736985E+02  0.00000000000E+00 0. -1.
        -13    1    3    3    0    0  0.60899056091E+02  0.13951373721E+02  0.45904038834E+02  0.77527521841E+02  0.00000000000E+00 0. -1.
         13    1    3    3    0    0 -0.10745157445E+02 -0.22355798782E+02  0.96517977449E+02  0.99654202714E+02  0.00000000000E+00 0.  1.
          1    1    1    2  501    0 -0.28742082492E+02  0.23368887333E+02  0.20673510134E+03  0.21002765134E+03  0.00000000000E+00 0. -1.
<scales pt_clust_5="13000.00000" pt_clust_6="13000.00000" pt_clust_7="13000.00000" pt_clust_8="13000.00000" pt_clust_9="37.04338"></scales>
<clustering>
<clus scale="   37.043">  1  9  2 -1</clus>
<clus scale="   85.793">  5  6 -1 -1</clus>
<clus scale="   92.322">  7  8 -1 -1</clus>
<clus scale="   93.362">  1  5  2 -1</clus>
<clus scale="   37.043">  1  5  2 -1</clus>
</clustering>
</event>
<event>
 9    1  0.1315259E-005  0.9268676E+02  0.7546771E-02  0.1297263E+00
          1   -1    0    0  502    0 -0.00000000000E+00  0.00000000000E+00  0.29839427480E+03  0.29839427480E+03  0.00000000000E+00 0. -1.
         21   -1    0    0  501  502  0.00000000000E+00 -0.00000000000E+00 -0.20343332174E+03  0.20343332174E+03  0.00000000000E+00 0. -1.
         23    2    1    2    0    0 -0.21292510478E+02 -0.50386758293E+01  0.23267240989E+03  0.25050566221E+03  0.90210183572E+02 0.  0.
         23    2    1    2    0    0  0.21172943120E+02 -0.17936012773E+02  0.17269402049E+02  0.94647375997E+02  0.88825106031E+02 0.  0.
        -13    1    3    3    0    0 -0.39982618570E+02 -0.25789461956E+02  0.20757655395E+03  0.21295946067E+03  0.00000000000E+00 0. -1.
         13    1    3    3    0    0  0.18690108092E+02  0.20750786127E+02  0.25095855933E+02  0.37546201544E+02  0.00000000000E+00 0.  1.
        -13    1    4    4    0    0  0.54296053978E+02 -0.63110667052E+01 -0.18140065628E+01  0.54691696448E+02  0.00000000000E+00 0.  1.
         13    1    4    4    0    0 -0.33123110858E+02 -0.11624946068E+02  0.19083408612E+02  0.39955679549E+02  0.00000000000E+00 0. -1.
          1    1    1    2  501    0  0.11956735809E+00  0.22974688602E+02 -0.15498085888E+03  0.15667455834E+03  0.00000000000E+00 0. -1.
<scales pt_clust_5="13000.00000" pt_clust_6="13000.00000" pt_clust_7="13000.00000" pt_clust_8="13000.00000" pt_clust_9="22.97500"></scales>
<clustering>
<clus scale="   22.975">  2  9  1 -1</clus>
<clus scale="   88.825">  7  8 -1 -1</clus>
<clus scale="   90.210">  5  6 -1 -1</clus>
<clus scale="   91.339">  2  7  1 -1</clus>
<clus scale="   22.975">  2  5  1 -1</clus>
</clustering>
</event>
<event>
 9    1  0.1315259E-005  0.1740360E+03  0.7546771E-02  0.1205434E+00
         21   -1    0    0  501  502  0.00000000000E+00  0.00000000000E+00  0.38775679890E+03  0.38775679890E+03  0.00000000000E+00 0.  1.
         -1   -1    0    0    0  501 -0.00000000000E+00 -0.00000000000E+00 -0.19391630399E+03  0.19391630399E+03  0.00000000000E+00 0.  1.
         23    2    1    2    0    0  0.25958911587E+00 -0.10354289128E+01  0.42994520557E+02  0.96395167630E+02  0.86269114085E+02 0.  0.
         23    2    1    2    0    0 -0.12556675527E+03 -0.73940880160E+02 -0.95936036852E+02  0.19852944989E+03  0.94741519500E+02 0.  0.
        -13    1    4    4    0    0 -0.48731670181E+02  0.18479993512E+02 -0.41336047383E+02  0.66520332622E+02  0.00000000000E+00 0. -1.
         13    1    4    4    0    0 -0.76835085092E+02 -0.92420873672E+02 -0.54599989469E+02  0.13200911727E+03  0.00000000000E+00 0.  1.
        -13    1    3    3    0    0  0.32049364264E+02  0.13815321603E+02 -0.67242982619E+01  0.35542102468E+02  0.00000000000E+00 0. -1.
         13    1    3    3    0    0 -0.31789775148E+02 -0.14850750516E+02  0.49718818819E+02  0.60853065162E+02  0.00000000000E+00 0.  1.
         -1    1    1    2    0  502  0.12530716616E+03  0.74976309073E+02  0.24678201120E+03  0.28674848538E+03  0.00000000000E+00 0.  1.
<scales pt_clust_5="13000.00000" pt_clust_6="13000.00000" pt_clust_7="13000.00000" pt_clust_8="13000.00000" pt_clust_9="145.98825"></scales>
<clustering>
<clus scale="   86.269">  7  8 -1 -1</clus>
<clus scale="   86.276">  2  7  1 -1</clus>
<clus scale="   94.742">  5  6 -1 -1</clus>
<clus scale="  145.988">  1  9  2 -1</clus>
<clus scale="  145.988">  1  5  2 -1</clus>
</clustering>
</event>
<event>
 9    1  0.1315259E-005  0.2022435E+03  0.7546771E-02  0.1147931E+00
         21   -1    0    0  501  502  0.00000000000E+00  0.00000000000E+00  0.30349815731E+03  0.30349815731E+03  0.00000000000E+00 0.  1.
          1   -1    0    0  502    0 -0.00000000000E+00 -0.00000000000E+00 -0.18970317387E+03  0.18970317387E+03  0.00000000000E+00 0. -1.
         23    2    1    2    0    0  0.13934483046E+03  0.12486280661E+03 -0.43952005078E+02  0.21224484627E+03  0.90046619966E+02 0.  0.
         23    2    1    2    0    0 -0.11703489042E+03 -0.12232191172E+03  0.95006329613E+02  0.21431880900E+03  0.90810426518E+02 0.  0.
        -13    1    4    4    0    0 -0.11402089257E+03 -0.58395430605E+02  0.64284910741E+02  0.14332948059E+03  0.00000000000E+00 0.  1.
         13    1    4    4    0    0 -0.30139978485E+01 -0.63926481114E+02  0.30721418872E+02  0.70989328411E+02  0.00000000000E+00 0. -1.
        -13    1    3    3    0    0 -0.96392678093E+01  0.26202348028E+02  0.11774617834E+01  0.27943960749E+02  0.00000000000E+00 0.  1.
         13    1    3    3    0    0  0.14898409827E+03  0.98660458579E+02 -0.45129466862E+02  0.18430088552E+03  0.00000000000E+00 0. -1.
          1    1    1    2  501    0 -0.22309940039E+02 -0.25408948874E+01  0.62740658899E+02  0.66637675909E+02  0.00000000000E+00 0. -1.
<scales pt_clust_5="13000.00000" pt_clust_6="13000.00000" pt_clust_7="13000.00000" pt_clust_8="13000.00000" pt_clust_9="22.45417"></scales>
<clustering>
<clus scale="   22.454">  1  9  2 -1</clus>
<clus scale="   90.047">  7  8 -1 -1</clus>
<clus scale="   90.810">  5  6 -1 -1</clus>
<clus scale="  201.902">  2  7  1 -1</clus>
<clus scale="   22.454">  1  5  2 -1</clus>
</clustering>
</event>
<event>
 9    1  0.1315259E-005  0.1144563E+03  0.7546771E-02  0.1252814E+00
         21   -1    0    0  501  502  0.00000000000E+00  0.00000000000E+00  0.56974024677E+03  0.56974024677E+03  0.00000000000E+00 0.  1.
          1   -1    0    0  502    0 -0.00000000000E+00 -0.00000000000E+00 -0.43909584331E+02  0.43909584331E+02  0.00000000000E+00 0. -1.
         23    2    1    2    0    0  0.47510520158E+02  0.45758671867E+02  0.87574162917E+02  0.14118956255E+03  0.88961525311E+02 0.  0.
         23    2    1    2    0    0 -0.36360618147E+02 -0.76952831454E+02  0.22607097558E+03  0.25770437812E+03  0.89775429147E+02 0.  0.
        -11    1    4    4    0    0 -0.42249572596E+02 -0.22876113966E+02  0.36092632592E+02  0.60091772333E+02  0.00000000000E+00 0. -1.
         11    1    4    4    0    0  0.58889544489E+01 -0.54076717488E+02  0.18997834299E+03  0.19761260578E+03  0.00000000000E+00 0.  1.
        -13    1    3    3    0    0  0.32843890489E+02 -0.22315098172E+02  0.42897704387E+02  0.58454236721E+02  0.00000000000E+00 0.  1.
         13    1    3    3    0    0  0.14666629668E+02  0.68073770039E+02  0.44676458530E+02  0.82735325829E+02  0.00000000000E+00 0. -1.
          1    1    1    2  501    0 -0.11149902010E+02  0.31194159587E+02  0.21218552394E+03  0.21475589044E+03  0.00000000000E+00 0. -1.
<scales pt_clust_5="13000.00000" pt_clust_6="13000.00000" pt_clust_7="13000.00000" pt_clust_8="13000.00000" pt_clust_9="33.12697"></scales>
<clustering>
<clus scale="   33.127">  1  9  2 -1</clus>
<clus scale="   88.962">  7  8 -1 -1</clus>
<clus scale="   89.775">  5  6 -1 -1</clus>
<clus scale="  113.819">  2  7  1 -1</clus>
<clus scale="   33.127">  1  5  2 -1</clus>
</clustering>
</event>
<event>
 9    1  0.1315259E-005  0.1445857E+03  0.7546771E-02  0.1209862E+00
          3   -1    0    0  502    0 -0.00000000000E+00  0.00000000000E+00  0.34862533975E+03  0.34862533975E+03  0.00000000000E+00 0. -1.
         21   -1    0    0  501  502  0.00000000000E+00 -0.00000000000E+00 -0.10776354122E+03  0.10776354122E+03  0.00000000000E+00 0.  1.
         23    2    1    2    0    0  0.66921447162E+02  0.82775633091E+02  0.20146085152E+03  0.24017307141E+03  0.75936447189E+02 0.  0.
         23    2    1    2    0    0 -0.70728660583E+02 -0.11580264872E+03  0.64354779030E+02  0.17464692254E+03  0.89147142923E+02 0.  0.
        -11    1    3    3    0    0  0.74854386709E+02  0.45803990610E+02  0.10673847031E+03  0.13818207485E+03  0.00000000000E+00 0. -1.
         11    1    3    3    0    0 -0.79329395476E+01  0.36971642482E+02  0.94722381209E+02  0.10199099656E+03  0.00000000000E+00 0.  1.
        -11    1    4    4    0    0 -0.36114428346E+02 -0.12195734881E+03  0.49687458398E+02  0.13655288494E+03  0.00000000000E+00 0. -1.
         11    1    4    4    0    0 -0.34614232236E+02  0.61547000874E+01  0.14667320631E+02  0.38094037604E+02  0.00000000000E+00 0.  1.
          3    1    1    2  501    0  0.38072134212E+01  0.33027015629E+02 -0.24953832017E+02  0.41568887016E+02  0.00000000000E+00 0. -1.
<scales pt_clust_5="13000.00000" pt_clust_6="13000.00000" pt_clust_7="13000.00000" pt_clust_8="13000.00000" pt_clust_9="33.24573"></scales>
<clustering>
<clus scale="   33.246">  2  9  1 -1</clus>
<clus scale="   75.936">  5  6 -1 -1</clus>
<clus scale="   89.147">  7  8 -1 -1</clus>
<clus scale="  136.836">  1  5  2 -1</clus>
<clus scale="   33.246">  2  5  1 -1</clus>
</clustering>
</event>
<event>
 9    1  0.1315259E-005  0.1074711E+03  0.7546771E-02  0.1267980E+00
         -1   -1    0    0    0  501 -0.00000000000E+00  0.00000000000E+00  0.43327753303E+03  0.43327753303E+03  0.00000000000E+00 0.  1.
         21   -1    0    0  501  502  0.00000000000E+00 -0.00000000000E+00 -0.67216627813E+02  0.67216627813E+02  0.00000000000E+00 0. -1.
         23    2    1    2    0    0  0.44090267633E+02 -0.41831573390E+02  0.27791398187E+03  0.30098724746E+03  0.98302134185E+02 0.  0.
         23    2    1    2    0    0 -0.24833062922E+02 -0.57010882002E+01  0.10812535208E+03  0.14446755051E+03  0.92361236270E+02 0.  0.
        -11    1    4    4    0    0  0.17828589904E+02  0.32636829064E+02  0.54271319880E+02  0.65790557004E+02  0.00000000000E+00 0.  1.
         11    1    4    4    0    0 -0.42661652826E+02 -0.38337917264E+02  0.53854032203E+02  0.78676993502E+02  0.00000000000E+00 0. -1.
        -13    1    3    3    0    0 -0.23650733029E+02  0.13771550539E+02  0.79542524509E+02  0.84119117817E+02  0.00000000000E+00 0.  1.
         13    1    3    3    0    0  0.67741000662E+02 -0.55603123929E+02  0.19837145736E+03  0.21686812964E+03  0.00000000000E+00 0. -1.
         -1    1    1    2    0  502 -0.19257204711E+02  0.47532661590E+02 -0.19978428732E+02  0.55039362876E+02  0.00000000000E+00 0.  1.
<scales pt_clust_5="13000.00000" pt_clust_6="13000.00000" pt_clust_7="13000.00000" pt_clust_8="13000.00000" pt_clust_9="51.28542"></scales>
<clustering>
<clus scale="   51.285">  2  9  1 -1</clus>
<clus scale="   92.361">  5  6 -1 -1</clus>
<clus scale="   98.302">  7  8 -1 -1</clus>
<clus scale="  102.065">  2  5  1 -1</clus>
<clus scale="   51.285">  2  5  1 -1</clus>
</clustering>
</event>
<event>
 9    1  0.1324188E-005  0.9393551E+02  0.7546771E-02  0.1293969E+00
         21   -1    0    0  501  502  0.00000000000E+00  0.00000000000E+00  0.14513663225E+03  0.14513663225E+03  0.00000000000E+00 0. -1.
          2   -1    0    0  502    0 -0.00000000000E+00 -0.00000000000E+00 -0.39993428527E+03  0.39993428527E+03  0.00000000000E+00 0. -1.
         23    2    1    2    0    0  0.15238190027E+02 -0.33541925818E+01 -0.30670303739E+03  0.32042114305E+03  0.91430316244E+02 0.  0.
         23    2    1    2    0    0 -0.22754071895E+02  0.26990872477E+02 -0.56345390079E+02  0.11359388184E+03  0.92100553872E+02 0.  0.
        -11    1    3    3    0    0  0.47022372584E+02  0.89945157399E+01 -0.24760916074E+03  0.25219496687E+03  0.00000000000E+00 0. -1.
         11    1    3    3    0    0 -0.31784182556E+02 -0.12348708322E+02 -0.59093876654E+02  0.68226176179E+02  0.00000000000E+00 0.  1.
        -13    1    4    4    0    0  0.73363613669E+01 -0.31436722318E+02 -0.24723493568E+02  0.40661294156E+02  0.00000000000E+00 0.  1.
         13    1    4    4    0    0 -0.30090433262E+02  0.58427594795E+02 -0.31621896511E+02  0.72932587684E+02  0.00000000000E+00 0. -1.
          2    1    1    2  501    0  0.75158818679E+01 -0.23636679895E+02  0.10825077445E+03  0.11105589262E+03  0.00000000000E+00 0. -1.
<scales pt_clust_5="13000.00000" pt_clust_6="13000.00000" pt_clust_7="13000.00000" pt_clust_8="13000.00000" pt_clust_9="24.80284"></scales>
<clustering>
<clus scale="   24.803">  1  9  2 -1</clus>
<clus scale="   91.430">  5  6 -1 -1</clus>
<clus scale="   92.101">  7  8 -1 -1</clus>
<clus scale="   93.278">  2  5  1 -1</clus>
<clus scale="   24.803">  1  5  2 -1</clus>
</clustering>
</event>
<event>
 9    1  0.1315259E-005  0.1444715E+03  0.7546771E-02  0.1207763E+00
         21   -1    0    0  501  502  0.00000000000E+00  0.00000000000E+00  0.59567398549E+03  0.59567398549E+03  0.00000000000E+00 0. -1.
         -4   -1    0    0    0  501 -0.00000000000E+00 -0.00000000000E+00 -0.20248183823E+03  0.20248183823E+03  0.00000000000E+00 0. -1.
         23    2    1    2    0    0  0.89406382530E+02 -0.50368261553E+02 -0.78533094343E+02  0.15834914124E+03  0.91523442984E+02 0.  0.
         23    2    1    2    0    0 -0.15119125120E+03 -0.15302493521E+02  0.18319236049E+02  0.17752211217E+03  0.89919659438E+02 0.  0.
        -11    1    4    4    0    0 -0.67606538786E+02 -0.31584092968E+02 -0.29052924333E+02  0.80076659693E+02  0.00000000000E+00 0.  1.
         11    1    4    4    0    0 -0.83584712412E+02  0.16281599447E+02  0.47372160382E+02  0.97445452479E+02  0.00000000000E+00 0. -1.
        -13    1    3    3    0    0  0.48616654932E+01 -0.25446493807E+02  0.14913159565E+02  0.29892510210E+02  0.00000000000E+00 0. -1.
         13    1    3    3    0    0  0.84544717037E+02 -0.24921767745E+02 -0.93446253908E+02  0.12845663103E+03  0.00000000000E+00 0.  1.
         -4    1    1    2    0  502  0.61784868669E+02  0.65670755074E+02  0.45340600555E+03  0.46228457030E+03  0.00000000000E+00 0. -1.
<scales pt_clust_5="13000.00000" pt_clust_6="13000.00000" pt_clust_7="13000.00000" pt_clust_8="13000.00000" pt_clust_9="90.16661"></scales>
<clustering>
<clus scale="   89.920">  5  6 -1 -1</clus>
<clus scale="   90.167">  1  9  2 -1</clus>
<clus scale="   91.523">  7  8 -1 -1</clus>
<clus scale="  143.461">  1  5  2 -1</clus>
<clus scale="   90.167">  1  5  2 -1</clus>
</clustering>
</event>
<event>
 9    1  0.1315259E-005  0.1757089E+03  0.7546771E-02  0.1173159E+00
          2   -1    0    0  502    0 -0.00000000000E+00  0.00000000000E+00  0.20283254868E+03  0.20283254868E+03  0.00000000000E+00 0. -1.
         21   -1    0    0  501  502  0.00000000000E+00 -0.00000000000E+00 -0.24115177109E+03  0.24115177109E+03  0.00000000000E+00 0. -1.
         23    2    1    2    0    0 -0.82816388449E+02  0.10772262529E+03  0.40233903134E+02  0.16820316752E+03  0.90613577399E+02 0.  0.
         23    2    1    2    0    0  0.93104869779E+02 -0.14627711455E+03 -0.45132590468E+01  0.19167286894E+03  0.81563522237E+02 0.  0.
        -13    1    4    4    0    0  0.10127088930E+03 -0.11321883692E+03 -0.21843230986E+02  0.15346473469E+03  0.00000000000E+00 0.  1.
         13    1    4    4    0    0 -0.81660195243E+01 -0.33058277633E+02  0.17329971939E+02  0.38208134244E+02  0.00000000000E+00 0. -1.
        -13    1    3    3    0    0 -0.67795980353E+02  0.12371754440E+03  0.31262606413E+02  0.14449801488E+03  0.00000000000E+00 0. -1.
         13    1    3    3    0    0 -0.15020408096E+02 -0.15994919115E+02  0.89712967211E+01  0.23705152641E+02  0.00000000000E+00 0.  1.
          2    1    1    2  501    0 -0.10288481330E+02  0.38554489265E+02 -0.74039866499E+02  0.84108283312E+02  0.00000000000E+00 0. -1.
<scales pt_clust_5="13000.00000" pt_clust_6="13000.00000" pt_clust_7="13000.00000" pt_clust_8="13000.00000" pt_clust_9="39.90365"></scales>
<clustering>
<clus scale="   39.904">  2  9  1 -1</clus>
<clus scale="   81.564">  5  6 -1 -1</clus>
<clus scale="   90.614">  7  8 -1 -1</clus>
<clus scale="  171.217">  2  5  1 -1</clus>
<clus scale="   39.904">  2  5  1 -1</clus>
</clustering>
</event>
<event>
 9    1  0.1315259E-005  0.1437861E+03  0.7546771E-02  0.1208514E+00
          1   -1    0    0  502    0 -0.00000000000E+00  0.00000000000E+00  0.39267064281E+03  0.39267064281E+03  0.00000000000E+00 0. -1.
         21   -1    0    0  501  502  0.00000000000E+00 -0.00000000000E+00 -0.12417785707E+03  0.12417785707E+03  0.00000000000E+00 0.  1.
         23    2    1    2    0    0 -0.48293495882E+02  0.87747467261E+02  0.23528782940E+03  0.27112245397E+03  0.90084086428E+02 0.  0.
         23    2    1    2    0    0  0.91020189236E+02 -0.12400039985E+03  0.52799274890E+02  0.18636458732E+03  0.91012207792E+02 0.  0.
        -11    1    4    4    0    0  0.10608752799E+03 -0.10154826177E+03  0.27647078969E+02  0.14943551800E+03  0.00000000000E+00 0.  1.
         11    1    4    4    0    0 -0.15067338754E+02 -0.22452138078E+02  0.25152195922E+02  0.36929069323E+02  0.00000000000E+00 0. -1.
        -13    1    3    3    0    0 -0.19153296392E+02 -0.16928946858E+02  0.36234333809E+02  0.44343713771E+02  0.00000000000E+00 0.  1.
         13    1    3    3    0    0 -0.29140199490E+02  0.10467641412E+03  0.19905349559E+03  0.22677874020E+03  0.00000000000E+00 0. -1.
          1    1    1    2  501    0 -0.42726693354E+02  0.36252932586E+02 -0.19594318557E+02  0.59361458589E+02  0.00000000000E+00 0. -1.
<scales pt_clust_5="13000.00000" pt_clust_6="13000.00000" pt_clust_7="13000.00000" pt_clust_8="13000.00000" pt_clust_9="56.03432"></scales>
<clustering>
<clus scale="   56.034">  2  9  1 -1</clus>
<clus scale="   90.084">  7  8 -1 -1</clus>
<clus scale="   91.012">  5  6 -1 -1</clus>
<clus scale="  143.200">  1  7  2 -1</clus>
<clus scale="   56.034">  2  5  1 -1</clus>
</clustering>
</event>
<event>
 9    1  0.1315259E-005  0.9403212E+02  0.7546771E-02  0.1293691E+00
         21   -1    0    0  501  502  0.00000000000E+00  0.00000000000E+00  0.14710409137E+03  0.14710409137E+03  0.00000000000E+00 0. -1.
          1   -1    0    0  502    0 -0.00000000000E+00 -0.00000000000E+00 -0.12117355149E+03  0.12117355149E+03  0.00000000000E+00 0. -1.
         23    2    1    2    0    0 -0.39457795846E+01 -0.15723287745E+02 -0.13889388522E+02  0.93081069303E+02  0.90600107037E+02 0.  0.
         23    2    1    2    0    0  0.47068891648E+02 -0.42605842842E+01 -0.14854102771E+02  0.10275205949E+03  0.90020598868E+02 0.  0.
        -11    1    4    4    0    0  0.46467078194E+02 -0.37368154333E+02  0.11133361188E+02  0.60659047515E+02  0.00000000000E+00 0.  1.
         11    1    4    4    0    0  0.60181345460E+00  0.33107570049E+02 -0.25987463959E+02  0.42093011973E+02  0.00000000000E+00 0. -1.
        -13    1    3    3    0    0  0.35801642131E+02 -0.11584191796E+02 -0.31820930575E+02  0.49280043644E+02  0.00000000000E+00 0. -1.
         13    1    3    3    0    0 -0.39747421716E+02 -0.41390959490E+01  0.17931542054E+02  0.43801025659E+02  0.00000000000E+00 0.  1.
          1    1    1    2  501    0 -0.43123112063E+02  0.19983872029E+02  0.54674031173E+02  0.72444514078E+02  0.00000000000E+00 0. -1.
<scales pt_clust_5="13000.00000" pt_clust_6="13000.00000" pt_clust_7="13000.00000" pt_clust_8="13000.00000" pt_clust_9="47.52850"></scales>
<clustering>
<clus scale="   47.528">  1  9  2 -1</clus>
<clus scale="   90.021">  5  6 -1 -1</clus>
<clus scale="   90.600">  7  8 -1 -1</clus>
<clus scale="   93.474">  1  5  2 -1</clus>
<clus scale="   47.528">  1  5  2 -1</clus>
</clustering>
</event>
<event>
 9    1  0.1315259E-005  0.1086429E+03  0.7546771E-02  0.1264585E+00
          2   -1    0    0  502    0 -0.00000000000E+00  0.00000000000E+00  0.87660150617E+02  0.87660150617E+02  0.00000000000E+00 0. -1.
         21   -1    0    0  501  502  0.00000000000E+00 -0.00000000000E+00 -0.38683719449E+03  0.38683719449E+03  0.00000000000E+00 0.  1.
         23    2    1    2    0    0 -0.29020838047E+02 -0.41195097441E+02  0.56771296850E+01  0.10458563057E+03  0.91469553549E+02 0.  0.
         23    2    1    2    0    0  0.82964951551E+02  0.68410299882E+02 -0.25975867550E+03  0.29451782506E+03  0.87766892749E+02 0.  0.
        -13    1    3    3    0    0  0.17997395081E+02 -0.51702044818E+02 -0.58243253369E+01  0.55053886636E+02  0.00000000000E+00 0. -1.
         13    1    3    3    0    0 -0.47018233128E+02  0.10506947377E+02  0.11501455022E+02  0.49531743935E+02  0.00000000000E+00 0.  1.
        -13    1    4    4    0    0 -0.15057264377E+02  0.18945496379E+02 -0.82802707141E+02  0.86266687391E+02  0.00000000000E+00 0.  1.
         13    1    4    4    0    0  0.98022215928E+02  0.49464803503E+02 -0.17695596836E+03  0.20825113767E+03  0.00000000000E+00 0. -1.
          2    1    1    2  501    0 -0.53944113504E+02 -0.27215202441E+02 -0.45095498054E+02  0.75393889476E+02  0.00000000000E+00 0. -1.
<scales pt_clust_5="13000.00000" pt_clust_6="13000.00000" pt_clust_7="13000.00000" pt_clust_8="13000.00000" pt_clust_9="60.42051"></scales>
<clustering>
<clus scale="   60.421">  2  9  1 -1</clus>
<clus scale="   87.767">  7  8 -1 -1</clus>
<clus scale="   91.470">  5  6 -1 -1</clus>
<clus scale="  105.544">  2  7  1 -1</clus>
<clus scale="   60.421">  2  5  1 -1</clus>
</clustering>
</event>
<event>
 9    1  0.1315259E-005  0.9170814E+02  0.7546771E-02  0.1299928E+00
          1   -1    0    0  502    0 -0.00000000000E+00  0.00000000000E+00  0.36480523217E+03  0.36480523217E+03  0.00000000000E+00 0. -1.
         21   -1    0    0  501  502  0.00000000000E+00 -0.00000000000E+00 -0.47905045597E+02  0.47905045597E+02  0.00000000000E+00 0.  1.
         23    2    1    2    0    0  0.12555273351E+02  0.25257273683E+01  0.21751568093E+03  0.23608961085E+03  0.90891246643E+02 0.  0.
         23    2    1    2    0    0  0.16548327270E+02 -0.31519055505E+02  0.95652831436E+02  0.13537072100E+03  0.88929578580E+02 0.  0.
        -11    1    4    4    0    0 -0.30432771538E+01  0.30405224246E+02  0.25848991846E+02  0.40023862591E+02  0.00000000000E+00 0. -1.
         11    1    4    4    0    0  0.19591604424E+02 -0.61924279751E+02  0.69803839590E+02  0.95346858407E+02  0.00000000000E+00 0.  1.
        -13    1    3    3    0    0  0.21903425834E+02  0.40552995471E+02  0.16001819592E+03  0.16652365757E+03  0.00000000000E+00 0. -1.
         13    1    3    3    0    0 -0.93481524828E+01 -0.38027268102E+02  0.57497485005E+02  0.69565953282E+02  0.00000000000E+00 0.  1.
          1    1    1    2  501    0 -0.29103600622E+02  0.28993328137E+02  0.37316742096E+01  0.41249945915E+02  0.00000000000E+00 0. -1.
<scales pt_clust_5="13000.00000" pt_clust_6="13000.00000" pt_clust_7="13000.00000" pt_clust_8="13000.00000" pt_clust_9="41.08081"></scales>
<clustering>
<clus scale="   41.081">  2  9  1 -1</clus>
<clus scale="   88.930">  5  6 -1 -1</clus>
<clus scale="   89.764">  2  5  1 -1</clus>
<clus scale="   90.891">  7  8 -1 -1</clus>
<clus scale="   41.081">  2  5  1 -1</clus>
</clustering>
</event>
<event>
 9    1  0.1315259E-005  0.1255088E+03  0.7546771E-02  0.1234655E+00
          1   -1    0    0  502    0 -0.00000000000E+00  0.00000000000E+00  0.74066098839E+03  0.74066098839E+03  0.00000000000E+00 0. -1.
         21   -1    0    0  501  502  0.00000000000E+00 -0.00000000000E+00 -0.50141134188E+02  0.50141134188E+02  0.00000000000E+00 0.  1.
         23    2    1    2    0    0  0.78507159678E+02 -0.35726587765E+02  0.59565262949E+03  0.60883212467E+03  0.91840828704E+02 0.  0.
         23    2    1    2    0    0 -0.54361526786E+02  0.51715192908E+02  0.52442283209E+02  0.13060344514E+03  0.93152724283E+02 0.  0.
        -11    1    3    3    0    0  0.10002367661E+02 -0.51261863753E+02  0.18569932786E+03  0.19290429338E+03  0.00000000000E+00 0.  1.
         11    1    3    3    0    0  0.68504792017E+02  0.15535275988E+02  0.40995330163E+03  0.41592783129E+03  0.00000000000E+00 0. -1.
        -13    1    4    4    0    0 -0.16404696760E+02 -0.27334799066E+02  0.12458097254E+02  0.34227321002E+02  0.00000000000E+00 0.  1.
         13    1    4    4    0    0 -0.37956830026E+02  0.79049991974E+02  0.39984185955E+02  0.96376124135E+02  0.00000000000E+00 0. -1.
          1    1    1    2  501    0 -0.24145632892E+02 -0.15988605143E+02  0.42424941504E+02  0.51366552773E+02  0.00000000000E+00 0. -1.
<scales pt_clust_5="13000.00000" pt_clust_6="13000.00000" pt_clust_7="13000.00000" pt_clust_8="13000.00000" pt_clust_9="28.95940"></scales>
<clustering>
<clus scale="   28.959">  2  9  1 -1</clus>
<clus scale="   91.841">  5  6 -1 -1</clus>
<clus scale="   93.153">  7  8 -1 -1</clus>
<clus scale="  124.538">  1  5  2 -1</clus>
<clus scale="   28.959">  2  5  1 -1</clus>
</clustering>
</event>
<event>
 9    1  0.1315259E-005  0.9999192E+02  0.7546771E-02  0.1285021E+00
          1   -1    0    0  502    0 -0.00000000000E+00  0.00000000000E+00  0.72265716199E+02  0.72265716199E+02  0.00000000000E+00 0. -1.
         21   -1    0    0  501  502  0.00000000000E+00 -0.00000000000E+00 -0.19065581856E+03  0.19065581856E+03  0.00000000000E+00 0.  1.
         23    2    1    2    0    0  0.42335675314E+01  0.50557888243E+01 -0.14377664815E+02  0.10054706450E+03  0.99295069567E+02 0.  0.
         23    2    1    2    0    0 -0.25490495806E+02 -0.23987958894E+01 -0.10479686453E+03  0.14093777422E+03  0.90694838817E+02 0.  0.
        -11    1    3    3    0    0 -0.15650921968E+02  0.48364835673E+02 -0.14605793143E+02  0.52890810936E+02  0.00000000000E+00 0. -1.
         11    1    3    3    0    0  0.19884489499E+02 -0.43309046849E+02  0.22812832889E+00  0.47656253568E+02  0.00000000000E+00 0.  1.
        -13    1    4    4    0    0  0.17058990845E+02 -0.31733950956E+02 -0.69713130912E+02  0.78472755995E+02  0.00000000000E+00 0.  1.
         13    1    4    4    0    0 -0.42549486651E+02  0.29335155067E+02 -0.35083733621E+02  0.62465018225E+02  0.00000000000E+00 0. -1.
          1    1    1    2  501    0  0.21256928274E+02 -0.26569929348E+01  0.78442698663E+00  0.21436696033E+02  0.00000000000E+00 0. -1.
<scales pt_clust_5="13000.00000" pt_clust_6="13000.00000" pt_clust_7="13000.00000" pt_clust_8="13000.00000" pt_clust_9="21.42235"></scales>
<clustering>
<clus scale="   21.422">  2  9  1 -1</clus>
<clus scale="   90.695">  7  8 -1 -1</clus>
<clus scale="   91.457">  2  7  1 -1</clus>
<clus scale="   99.295">  5  6 -1 -1</clus>
<clus scale="   21.422">  2  5  1 -1</clus>
</clustering>
</event>
<event>
 9    1  0.1315259E-005  0.1240285E+03  0.7546771E-02  0.1236891E+00
         -1   -1    0    0    0  501 -0.00000000000E+00  0.00000000000E+00  0.38098078359E+03  0.38098078359E+03  0.00000000000E+00 0.  1.
         21   -1    0    0  501  502  0.00000000000E+00 -0.00000000000E+00 -0.16421685859E+03  0.16421685859E+03  0.00000000000E+00 0.  1.
         23    2    1    2    0    0 -0.68233290187E+02  0.73613531418E+02  0.27468150664E+03  0.30655744439E+03  0.91939125093E+02 0.  0.
         23    2    1    2    0    0  0.92955166182E+01 -0.52796290734E+02  0.47761495720E+02  0.11585955578E+03  0.90930859713E+02 0.  0.
        -11    1    3    3    0    0 -0.49474644105E+02  0.94854417633E+02  0.20271979055E+03  0.22921695931E+03  0.00000000000E+00 0.  1.
         11    1    3    3    0    0 -0.18758646082E+02 -0.21240886215E+02  0.71961716087E+02  0.77340485079E+02  0.00000000000E+00 0. -1.
        -13    1    4    4    0    0  0.15202623682E+02  0.21409466079E+02 -0.19753294947E+01  0.26332241288E+02  0.00000000000E+00 0.  1.
         13    1    4    4    0    0 -0.59071070641E+01 -0.74205756814E+02  0.49736825214E+02  0.89527314495E+02  0.00000000000E+00 0. -1.
         -1    1    1    2    0  502  0.58937773568E+02 -0.20817240684E+02 -0.10567907735E+03  0.12278064201E+03  0.00000000000E+00 0.  1.
<scales pt_clust_5="13000.00000" pt_clust_6="13000.00000" pt_clust_7="13000.00000" pt_clust_8="13000.00000" pt_clust_9="62.50615"></scales>
<clustering>
<clus scale="   62.506">  2  9  1 -1</clus>
<clus scale="   90.931">  7  8 -1 -1</clus>
<clus scale="   91.939">  5  6 -1 -1</clus>
<clus scale="  123.283">  2  7  1 -1</clus>
<clus scale="   62.506">  2  5  1 -1</clus>
</clustering>
</event>
<event>
 9    1  0.1315259E-005  0.9780277E+02  0.7546771E-02  0.1286560E+00
          2   -1    0    0  502    0 -0.00000000000E+00  0.00000000000E+00  0.36970602897E+03  0.36970602897E+03  0.00000000000E+00 0. -1.
         21   -1    0    0  501  502  0.00000000000E+00 -0.00000000000E+00 -0.92242072990E+02  0.92242072990E+02  0.00000000000E+00 0.  1.
         23    2    1    2    0    0 -0.27898862108E+02  0.67480531673E+01  0.31175266905E+03  0.32604827157E+03  0.91070664875E+02 0.  0.
         23    2    1    2    0    0  0.10357719738E+02  0.14797566325E+02 -0.45390842728E+02  0.10598056105E+03  0.94049457151E+02 0.  0.
        -11    1    4    4    0    0  0.48248973147E+02  0.24461752997E+02 -0.38192209812E+02  0.66219224246E+02  0.00000000000E+00 0.  1.
         11    1    4    4    0    0 -0.37891253409E+02 -0.96641866721E+01 -0.71986329163E+01  0.39761336808E+02  0.00000000000E+00 0. -1.
        -11    1    3    3    0    0  0.22356046126E+02  0.27824255942E+02  0.74383630715E+02  0.82503978907E+02  0.00000000000E+00 0.  1.
         11    1    3    3    0    0 -0.50254908234E+02 -0.21076202775E+02  0.23736903834E+03  0.24354429266E+03  0.00000000000E+00 0. -1.
          2    1    1    2  501    0  0.17541142369E+02 -0.21545619492E+02  0.11102129653E+02  0.29919269338E+02  0.00000000000E+00 0. -1.
<scales pt_clust_5="13000.00000" pt_clust_6="13000.00000" pt_clust_7="13000.00000" pt_clust_8="13000.00000" pt_clust_9="27.78319"></scales>
<clustering>
<clus scale="   27.783">  2  9  1 -1</clus>
<clus scale="   91.071">  7  8 -1 -1</clus>
<clus scale="   94.049">  5  6 -1 -1</clus>
<clus scale="   94.942">  1  7  2 -1</clus>
<clus scale="   27.783">  2  5  1 -1</clus>
</clustering>
</event>
<event>
 9    1  0.1315259E-005  0.9527605E+02  0.7546771E-02  0.1291523E+00
          3   -1    0    0  502    0 -0.00000000000E+00  0.00000000000E+00  0.22769375996E+02  0.22769375996E+02  0.00000000000E+00 0. -1.
         21   -1    0    0  501  502  0.00000000000E+00 -0.00000000000E+00 -0.71406695525E+03  0.71406695525E+03  0.00000000000E+00 0. -1.
         23    2    1    2    0    0 -0.26628823686E+02 -0.22210418350E+02 -0.13744831256E+03  0.16839907989E+03  0.90905525403E+02 0.  0.
         23    2    1    2    0    0  0.22496383821E+02 -0.67807235510E+01 -0.32813199063E+03  0.34082826190E+03  0.89113609155E+02 0.  0.
        -11    1    3    3    0    0 -0.45531597207E+02 -0.46614190263E+02 -0.79969077460E+02  0.10315552544E+03  0.00000000000E+00 0.  1.
         11    1    3    3    0    0  0.18902773522E+02  0.24403771913E+02 -0.57479235103E+02  0.65243554459E+02  0.00000000000E+00 0. -1.
        -13    1    4    4    0    0  0.47899444218E+02  0.22719791738E+02 -0.20054752801E+03  0.20743639190E+03  0.00000000000E+00 0.  1.
         13    1    4    4    0    0 -0.25403060397E+02 -0.29500515289E+02 -0.12758446262E+03  0.13339187000E+03  0.00000000000E+00 0. -1.
          3    1    1    2  501    0  0.41324398649E+01  0.28991141901E+02 -0.22571727606E+03  0.22760898945E+03  0.00000000000E+00 0. -1.
<scales pt_clust_5="13000.00000" pt_clust_6="13000.00000" pt_clust_7="13000.00000" pt_clust_8="13000.00000" pt_clust_9="29.28418"></scales>
<clustering>
<clus scale="   29.284">  2  9  1 -1</clus>
<clus scale="   89.114">  7  8 -1 -1</clus>
<clus scale="   90.906">  5  6 -1 -1</clus>
<clus scale="   93.568">  2  7  1 -1</clus>
<clus scale="   29.284">  2  5  1 -1</clus>
</clustering>
</event>
<event>
 9    1  0.1315259E-005  0.1169698E+03  0.7546771E-02  0.1252708E+00
         21   -1    0    0  501  502  0.00000000000E+00  0.00000000000E+00  0.83475427084E+02  0.83475427084E+02  0.00000000000E+00 0. -1.
         -3   -1    0    0    0  501 -0.00000000000E+00 -0.00000000000E+00 -0.23403208537E+03  0.23403208537E+03  0.00000000000E+00 0.  1.
         23    2    1    2    0    0  0.30427366256E+02 -0.37402479168E+02 -0.73979368975E+02  0.12590467231E+03  0.89745581571E+02 0.  0.
         23    2    1    2    0    0 -0.37048133211E+02  0.58444385504E+02 -0.10071952971E+03  0.15890048320E+03  0.10157081040E+03 0.  0.
        -11    1    4    4    0    0  0.34047032005E+02  0.60369202373E+01 -0.28524424458E+02  0.44825077634E+02  0.00000000000E+00 0.  1.
         11    1    4    4    0    0 -0.71095165215E+02  0.52407465267E+02 -0.72195105255E+02  0.11407540557E+03  0.00000000000E+00 0. -1.
        -11    1    3    3    0    0  0.31014882174E+02 -0.59845422665E+02 -0.24762897746E+02  0.71809460623E+02  0.00000000000E+00 0.  1.
         11    1    3    3    0    0 -0.58751591737E+00  0.22442943497E+02 -0.49216471229E+02  0.54095211692E+02  0.00000000000E+00 0. -1.
         -3    1    1    2    0  502  0.66207669545E+01 -0.21041906336E+02  0.24142240404E+02  0.32702356935E+02  0.00000000000E+00 0.  1.
<scales pt_clust_5="13000.00000" pt_clust_6="13000.00000" pt_clust_7="13000.00000" pt_clust_8="13000.00000" pt_clust_9="22.05893"></scales>
<clustering>
<clus scale="   22.059">  1  9  2 -1</clus>
<clus scale="   89.746">  7  8 -1 -1</clus>
<clus scale="  101.571">  5  6 -1 -1</clus>
<clus scale="  106.862">  2  7  1 -1</clus>
<clus scale="   22.059">  1  5  2 -1</clus>
</clustering>
</event>
<event>
 9    1  0.1315259E-005  0.1796721E+03  0.7546771E-02  0.1170011E+00
         21   -1    0    0  501  502  0.00000000000E+00  0.00000000000E+00  0.17490451531E+03  0.17490451531E+03  0.00000000000E+00 0.  1.
          1   -1    0    0  502    0 -0.00000000000E+00 -0.00000000000E+00 -0.28217429145E+03  0.28217429145E+03  0.00000000000E+00 0. -1.
         23    2    1    2    0    0 -0.26915548742E+02 -0.16310486300E+03 -0.13007974679E+03  0.22985376694E+03  0.92651878294E+02 0.  0.
         23    2    1    2    0    0  0.12110393824E+02  0.11670977855E+03 -0.23591277246E+02  0.15995861224E+03  0.10612433848E+03 0.  0.
        -11    1    3    3    0    0 -0.35577598996E+02 -0.62493355068E+02 -0.94411567862E+01  0.72528066426E+02  0.00000000000E+00 0.  1.
         11    1    3    3    0    0  0.86620502536E+01 -0.10061150793E+03 -0.12063859000E+03  0.15732570051E+03  0.00000000000E+00 0. -1.
        -11    1    4    4    0    0 -0.20104575644E+02  0.52644009796E+02  0.35872981573E+02  0.66801620759E+02  0.00000000000E+00 0.  1.
         11    1    4    4    0    0  0.32214969468E+02  0.64065768756E+02 -0.59464258819E+02  0.93156991476E+02  0.00000000000E+00 0. -1.
          1    1    1    2  501    0  0.14805154918E+02  0.46395084452E+02  0.46401247902E+02  0.67266427586E+02  0.00000000000E+00 0. -1.
<scales pt_clust_5="13000.00000" pt_clust_6="13000.00000" pt_clust_7="13000.00000" pt_clust_8="13000.00000" pt_clust_9="48.70007"></scales>
<clustering>
<clus scale="   48.700">  1  9  2 -1</clus>
<clus scale="   92.652">  5  6 -1 -1</clus>
<clus scale="  106.124">  7  8 -1 -1</clus>
<clus scale="  172.058">  2  5  1 -1</clus>
<clus scale="   48.700">  1  5  2 -1</clus>
</clustering>
</event>
<event>
 9    1  0.1315259E-005  0.9566094E+02  0.7546771E-02  0.1290030E+00
          1   -1    0    0  502    0 -0.00000000000E+00  0.00000000000E+00  0.44538109943E+03  0.44538109943E+03  0.00000000000E+00 0. -1.
         21   -1    0    0  501  502  0.00000000000E+00 -0.00000000000E+00 -0.11401506994E+03  0.11401506994E+03  0.00000000000E+00 0. -1.
         23    2    1    2    0    0  0.20155176666E+02 -0.29209361832E+02  0.34497194677E+03  0.35880373812E+03  0.92060091598E+02 0.  0.
         23    2    1    2    0    0 -0.67141206270E+01 -0.15615957403E+02  0.61928848322E+02  0.11173596246E+03  0.91437440426E+02 0.  0.
        -13    1    4    4    0    0 -0.28388069561E+02 -0.40043687181E+02  0.95426980112E+01  0.50004424422E+02  0.00000000000E+00 0.  1.
         13    1    4    4    0    0  0.21673948934E+02  0.24427729778E+02  0.52386150311E+02  0.61731538041E+02  0.00000000000E+00 0. -1.
        -13    1    3    3    0    0 -0.16021016382E+02 -0.46143916428E+02  0.10858354374E+03  0.11906435218E+03  0.00000000000E+00 0.  1.
         13    1    3    3    0    0  0.36176193048E+02  0.16934554596E+02  0.23638840303E+03  0.23973938594E+03  0.00000000000E+00 0. -1.
          1    1    1    2  501    0 -0.13441056039E+02  0.44825319235E+02 -0.75534765594E+02  0.88856468787E+02  0.00000000000E+00 0. -1.
<scales pt_clust_5="13000.00000" pt_clust_6="13000.00000" pt_clust_7="13000.00000" pt_clust_8="13000.00000" pt_clust_9="46.79713"></scales>
<clustering>
<clus scale="   46.797">  2  9  1 -1</clus>
<clus scale="   91.437">  5  6 -1 -1</clus>
<clus scale="   92.060">  7  8 -1 -1</clus>
<clus scale="   95.062">  2  5  1 -1</clus>
<clus scale="   46.797">  2  5  1 -1</clus>
</clustering>
</event>
<event>
 9    1  0.1315259E-005  0.1065062E+03  0.7546771E-02  0.1268193E+00
         -1   -1    0    0    0  501 -0.00000000000E+00  0.00000000000E+00  0.25097034799E+03  0.25097034799E+03  0.00000000000E+00 0.  1.
         21   -1    0    0  501  502  0.00000000000E+00 -0.00000000000E+00 -0.10217713964E+03  0.10217713964E+03  0.00000000000E+00 0. -1.
         23    2    1    2    0    0  0.15326245616E+02 -0.54711955783E+02  0.18825119086E+03  0.21507570023E+03  0.87124933617E+02 0.  0.
         23    2    1    2    0    0 -0.36584033515E+02  0.53497751459E+02 -0.37140806577E+02  0.11665363755E+03  0.89600394652E+02 0.  0.
        -11    1    3    3    0    0  0.40017580145E+02 -0.14560696920E+02  0.14492783686E+03  0.15105462096E+03  0.00000000000E+00 0.  1.
         11    1    3    3    0    0 -0.24691334529E+02 -0.40151258863E+02  0.43323353998E+02  0.64021079269E+02  0.00000000000E+00 0. -1.
        -13    1    4    4    0    0  0.28131382058E+02  0.51949310770E+01 -0.22850901459E+01  0.28698146323E+02  0.00000000000E+00 0.  1.
         13    1    4    4    0    0 -0.64715415573E+02  0.48302820382E+02 -0.34855716431E+02  0.87955491231E+02  0.00000000000E+00 0. -1.
         -1    1    1    2    0  502  0.21257787899E+02  0.12142043235E+01 -0.23171759386E+01  0.21418149846E+02  0.00000000000E+00 0.  1.
<scales pt_clust_5="13000.00000" pt_clust_6="13000.00000" pt_clust_7="13000.00000" pt_clust_8="13000.00000" pt_clust_9="21.29244"></scales>
<clustering>
<clus scale="   21.292">  2  9  1 -1</clus>
<clus scale="   87.125">  5  6 -1 -1</clus>
<clus scale="   89.600">  7  8 -1 -1</clus>
<clus scale="  104.432">  1  5  2 -1</clus>
<clus scale="   21.292">  2  5  1 -1</clus>
</clustering>
</event>
<event>
 9    1  0.1315259E-005  0.1248588E+03  0.7546771E-02  0.1235680E+00
         21   -1    0    0  501  502  0.00000000000E+00  0.00000000000E+00  0.26011236910E+03  0.26011236910E+03  0.00000000000E+00 0. -1.
          3   -1    0    0  502    0 -0.00000000000E+00 -0.00000000000E+00 -0.14514877116E+03  0.14514877116E+03  0.00000000000E+00 0. -1.
         23    2    1    2    0    0 -0.78237937015E+02 -0.45444797871E+01 -0.21107485119E+02  0.12272755072E+03  0.92058126703E+02 0.  0.
         23    2    1    2    0    0  0.80993240987E+02  0.46681434631E+02 -0.80219636494E+01  0.13238059832E+03  0.93387416102E+02 0.  0.
        -11    1    4    4    0    0  0.20226740355E+02  0.11346132074E+02 -0.46705229776E+02  0.52146277210E+02  0.00000000000E+00 0.  1.
         11    1    4    4    0    0  0.60766500632E+02  0.35335302556E+02  0.38683266127E+02  0.80234321111E+02  0.00000000000E+00 0. -1.
        -11    1    3    3    0    0 -0.25275376965E+02  0.38617092681E+02  0.10679308949E+02  0.47372694324E+02  0.00000000000E+00 0. -1.
         11    1    3    3    0    0 -0.52962560050E+02 -0.43161572468E+02 -0.31786794068E+02  0.75354856393E+02  0.00000000000E+00 0.  1.
          3    1    1    2  501    0 -0.27553039725E+01 -0.42136954844E+02  0.14409304671E+03  0.15015299122E+03  0.00000000000E+00 0. -1.
<scales pt_clust_5="13000.00000" pt_clust_6="13000.00000" pt_clust_7="13000.00000" pt_clust_8="13000.00000" pt_clust_9="42.22694"></scales>
<clustering>
<clus scale="   42.227">  1  9  2 -1</clus>
<clus scale="   92.058">  7  8 -1 -1</clus>
<clus scale="   93.387">  5  6 -1 -1</clus>
<clus scale="  123.868">  2  7  1 -1</clus>
<clus scale="   42.227">  1  5  2 -1</clus>
</clustering>
</event>
<event>
 9    1  0.1315259E-005  0.9960972E+02  0.7546771E-02  0.1283245E+00
          1   -1    0    0  502    0 -0.00000000000E+00  0.00000000000E+00  0.44701472432E+03  0.44701472432E+03  0.00000000000E+00 0. -1.
         21   -1    0    0  501  502  0.00000000000E+00 -0.00000000000E+00 -0.17620574738E+03  0.17620574738E+03  0.00000000000E+00 0. -1.
         23    2    1    2    0    0  0.13124729397E+02  0.42425215707E+02  0.27713128963E+03  0.29617527863E+03  0.94582696754E+02 0.  0.
         23    2    1    2    0    0  0.15417443418E+02 -0.15089271150E+02  0.14411766869E+03  0.17150067375E+03  0.90427844163E+02 0.  0.
        -13    1    3    3    0    0 -0.22858317528E+02 -0.89855936383E+01  0.20526987532E+02  0.32009385973E+02  0.00000000000E+00 0.  1.
         13    1    3    3    0    0  0.35983046925E+02  0.51410809345E+02  0.25660430210E+03  0.26416589265E+03  0.00000000000E+00 0. -1.
        -13    1    4    4    0    0  0.31255173562E+02  0.11874364719E+02  0.11672175599E+02  0.35413642782E+02  0.00000000000E+00 0. -1.
         13    1    4    4    0    0 -0.15837730144E+02 -0.26963635870E+02  0.13244549309E+03  0.13608703096E+03  0.00000000000E+00 0.  1.
          1    1    1    2  501    0 -0.28542172815E+02 -0.27335944556E+02 -0.15043998139E+03  0.15554451933E+03  0.00000000000E+00 0. -1.
<scales pt_clust_5="13000.00000" pt_clust_6="13000.00000" pt_clust_7="13000.00000" pt_clust_8="13000.00000" pt_clust_9="39.52100"></scales>
<clustering>
<clus scale="   39.521">  2  9  1 -1</clus>
<clus scale="   90.428">  7  8 -1 -1</clus>
<clus scale="   94.583">  5  6 -1 -1</clus>
<clus scale="   95.673">  2  7  1 -1</clus>
<clus scale="   39.521">  2  5  1 -1</clus>
</clustering>
</event>
<event>
 9    1  0.1315259E-005  0.1204038E+03  0.7546771E-02  0.1242993E+00
         21   -1    0    0  501  502  0.00000000000E+00  0.00000000000E+00  0.37614995338E+03  0.37614995338E+03  0.00000000000E+00 0. -1.
          1   -1    0    0  502    0 -0.00000000000E+00 -0.00000000000E+00 -0.18353869479E+03  0.18353869479E+03  0.00000000000E+00 0. -1.
         23    2    1    2    0    0  0.72132735732E+02  0.38679185626E+02 -0.14135246813E+03  0.18673467240E+03  0.90499208103E+02 0.  0.
         23    2    1    2    0    0 -0.40634641128E+02 -0.25057861898E+02  0.13143850723E+03  0.16754186573E+03  0.92277435415E+02 0.  0.
        -13    1    3    3    0    0  0.53567719946E+02  0.68460820687E+02 -0.10079854088E+03  0.13310420892E+03  0.00000000000E+00 0.  1.
         13    1    3    3    0    0  0.18565015786E+02 -0.29781635061E+02 -0.40553927247E+02  0.53630463481E+02  0.00000000000E+00 0. -1.
        -13    1    4    4    0    0 -0.49531350863E+02  0.23143626636E+02  0.64001078855E+02  0.84173156450E+02  0.00000000000E+00 0.  1.
         13    1    4    4    0    0  0.88967097350E+01 -0.48201488535E+02  0.67437428372E+02  0.83368709277E+02  0.00000000000E+00 0. -1.
          1    1    1    2  501    0 -0.31498094604E+02 -0.13621323728E+02  0.20252521949E+03  0.20541211004E+03  0.00000000000E+00 0. -1.
<scales pt_clust_5="13000.00000" pt_clust_6="13000.00000" pt_clust_7="13000.00000" pt_clust_8="13000.00000" pt_clust_9="34.31720"></scales>
<clustering>
<clus scale="   34.317">  1  9  2 -1</clus>
<clus scale="   90.499">  5  6 -1 -1</clus>
<clus scale="   92.277">  7  8 -1 -1</clus>
<clus scale="  119.046">  2  5  1 -1</clus>
<clus scale="   34.317">  1  5  2 -1</clus>
</clustering>
</event>
<event>
 9    1  0.1315259E-005  0.1169363E+03  0.7546771E-02  0.1248885E+00
         21   -1    0    0  501  502  0.00000000000E+00  0.00000000000E+00  0.93144783380E+02  0.93144783380E+02  0.00000000000E+00 0. -1.
          1   -1    0    0  502    0 -0.00000000000E+00 -0.00000000000E+00 -0.18607986717E+03  0.18607986717E+03  0.00000000000E+00 0. -1.
         23    2    1    2    0    0 -0.60956241076E+02 -0.17013688278E+02 -0.54884645199E+02  0.12489471369E+03  0.92634962695E+02 0.  0.
         23    2    1    2    0    0  0.73827947728E+02  0.34725779692E+02 -0.46891525651E+02  0.13071714722E+03  0.90728781313E+02 0.  0.
        -11    1    4    4    0    0  0.83131251763E+02  0.53960080068E+02 -0.30210780775E+02  0.10361074527E+03  0.00000000000E+00 0.  1.
         11    1    4    4    0    0 -0.93033040353E+01 -0.19234300377E+02 -0.16680744876E+02  0.27106401948E+02  0.00000000000E+00 0. -1.
        -13    1    3    3    0    0 -0.24623454114E+02 -0.20356649874E+02 -0.76208342377E+02  0.82634249161E+02  0.00000000000E+00 0. -1.
         13    1    3    3    0    0 -0.36332786962E+02  0.33429615956E+01  0.21323697178E+02  0.42260464526E+02  0.00000000000E+00 0.  1.
          1    1    1    2  501    0 -0.12871706652E+02 -0.17712091413E+02  0.88410870599E+01  0.23612789644E+02  0.00000000000E+00 0. -1.
<scales pt_clust_5="13000.00000" pt_clust_6="13000.00000" pt_clust_7="13000.00000" pt_clust_8="13000.00000" pt_clust_9="21.89518"></scales>
<clustering>
<clus scale="   21.895">  1  9  2 -1</clus>
<clus scale="   90.729">  5  6 -1 -1</clus>
<clus scale="   92.635">  7  8 -1 -1</clus>
<clus scale="  115.432">  1  5  2 -1</clus>
<clus scale="   21.895">  1  5  2 -1</clus>
</clustering>
</event>
<event>
 9    1  0.1315259E-005  0.1051201E+03  0.7546771E-02  0.1281526E+00
         21   -1    0    0  501  502  0.00000000000E+00  0.00000000000E+00  0.32773510175E+03  0.32773510175E+03  0.00000000000E+00 0.  1.
         -1   -1    0    0    0  501 -0.00000000000E+00 -0.00000000000E+00 -0.12412285430E+03  0.12412285430E+03  0.00000000000E+00 0.  1.
         23    2    1    2    0    0 -0.17400662631E+02 -0.50350763860E+02 -0.88745317976E+02  0.12269817249E+03  0.65887233888E+02 0.  0.
         23    2    1    2    0    0 -0.14736037632E+02  0.49190653414E+02  0.14805114036E+03  0.18131372281E+03  0.91206659456E+02 0.  0.
        -13    1    3    3    0    0 -0.27568456690E+02 -0.19655441980E+02 -0.83285987431E+02  0.89905016023E+02  0.00000000000E+00 0.  1.
         13    1    3    3    0    0  0.10167794059E+02 -0.30695321880E+02 -0.54593305449E+01  0.32793156471E+02  0.00000000000E+00 0. -1.
        -13    1    4    4    0    0 -0.47439685816E+02  0.71796529265E+01  0.47376361496E+02  0.67428412669E+02  0.00000000000E+00 0.  1.
         13    1    4    4    0    0  0.32703648185E+02  0.42011000488E+02  0.10067477887E+03  0.11388531014E+03  0.00000000000E+00 0. -1.
         -1    1    1    2    0  502  0.32136700263E+02  0.11601104454E+01  0.14430642506E+03  0.14784606073E+03  0.00000000000E+00 0.  1.
<scales pt_clust_5="13000.00000" pt_clust_6="13000.00000" pt_clust_7="13000.00000" pt_clust_8="13000.00000" pt_clust_9="32.15763"></scales>
<clustering>
<clus scale="   32.158">  1  9  2 -1</clus>
<clus scale="   65.887">  5  6 -1 -1</clus>
<clus scale="   84.099">  2  5  1 -1</clus>
<clus scale="   91.207">  7  8 -1 -1</clus>
<clus scale="   32.158">  1  5  2 -1</clus>
</clustering>
</event>
<event>
 9    1  0.1315259E-005  0.1444092E+03  0.7546771E-02  0.1208119E+00
         21   -1    0    0  501  502  0.00000000000E+00  0.00000000000E+00  0.87299065902E+02  0.87299065902E+02  0.00000000000E+00 0.  1.
          2   -1    0    0  502    0 -0.00000000000E+00 -0.00000000000E+00 -0.76508393344E+03  0.76508393344E+03  0.00000000000E+00 0. -1.
         23    2    1    2    0    0  0.13128239692E+03 -0.26840407951E+02 -0.47019320246E+03  0.49742036522E+03  0.91596380156E+02 0.  0.
         23    2    1    2    0    0 -0.83908123363E+02 -0.15638608149E+02 -0.24857316786E+03  0.27927728432E+03  0.94456564225E+02 0.  0.
        -11    1    4    4    0    0 -0.70022497763E+02 -0.44945296887E+02 -0.11575215254E+03  0.14255451842E+03  0.00000000000E+00 0. -1.
         11    1    4    4    0    0 -0.13885625599E+02  0.29306688738E+02 -0.13282101533E+03  0.13672276590E+03  0.00000000000E+00 0.  1.
        -13    1    3    3    0    0  0.42915018144E+02  0.32306549802E+02 -0.19908163578E+03  0.20620113881E+03  0.00000000000E+00 0. -1.
         13    1    3    3    0    0  0.88367378771E+02 -0.59146957753E+02 -0.27111156668E+03  0.29121922641E+03  0.00000000000E+00 0.  1.
          2    1    1    2  501    0 -0.47374273553E+02  0.42479016100E+02  0.40981502787E+02  0.75685349798E+02  0.00000000000E+00 0. -1.
<scales pt_clust_5="13000.00000" pt_clust_6="13000.00000" pt_clust_7="13000.00000" pt_clust_8="13000.00000" pt_clust_9="63.63009"></scales>
<clustering>
<clus scale="   63.630">  1  9  2 -1</clus>
<clus scale="   91.596">  7  8 -1 -1</clus>
<clus scale="   94.457">  5  6 -1 -1</clus>
<clus scale="  142.555">  2  7  1 -1</clus>
<clus scale="   63.630">  1  5  2 -1</clus>
</clustering>
</event>
<event>
 9    1  0.1315259E-005  0.9794976E+02  0.7546771E-02  0.1284790E+00
         -2   -1    0    0    0  501 -0.00000000000E+00  0.00000000000E+00  0.41683946455E+03  0.41683946455E+03  0.00000000000E+00 0.  1.
         21   -1    0    0  501  502  0.00000000000E+00 -0.00000000000E+00 -0.98359441180E+02  0.98359441180E+02  0.00000000000E+00 0.  1.
         23    2    1    2    0    0 -0.35098954253E+02  0.22508853451E+02  0.33916402701E+03  0.35376049813E+03  0.91518674291E+02 0.  0.
         23    2    1    2    0    0 -0.36853111062E+01 -0.52201473768E+01  0.28655536986E+02  0.96342256667E+02  0.91759790557E+02 0.  0.
        -13    1    3    3    0    0  0.15589902142E+02  0.38781791728E+02  0.20884909573E+03  0.21299065051E+03  0.00000000000E+00 0.  1.
         13    1    3    3    0    0 -0.50688856396E+02 -0.16272938277E+02  0.13031493128E+03  0.14076984762E+03  0.00000000000E+00 0. -1.
        -13    1    4    4    0    0 -0.30919246401E+02  0.26102811186E+02  0.36035974304E+02  0.54184388839E+02  0.00000000000E+00 0.  1.
         13    1    4    4    0    0  0.27233935295E+02 -0.31322958563E+02 -0.73804373172E+01  0.42157867828E+02  0.00000000000E+00 0. -1.
         -2    1    1    2    0  502  0.38784265360E+02 -0.17288706074E+02 -0.49339540628E+02  0.65096150935E+02  0.00000000000E+00 0.  1.
<scales pt_clust_5="13000.00000" pt_clust_6="13000.00000" pt_clust_7="13000.00000" pt_clust_8="13000.00000" pt_clust_9="42.46314"></scales>
<clustering>
<clus scale="   42.463">  2  9  1 -1</clus>
<clus scale="   91.519">  5  6 -1 -1</clus>
<clus scale="   91.760">  7  8 -1 -1</clus>
<clus scale="   97.724">  1  5  2 -1</clus>
<clus scale="   42.463">  2  5  1 -1</clus>
</clustering>
</event>
<event>
 9    1  0.1315259E-005  0.2128719E+03  0.7546771E-02  0.1168164E+00
         21   -1    0    0  501  502  0.00000000000E+00  0.00000000000E+00  0.13207948897E+03  0.13207948897E+03  0.00000000000E+00 0.  1.
         -1   -1    0    0    0  501 -0.00000000000E+00 -0.00000000000E+00 -0.63118550207E+03  0.63118550207E+03  0.00000000000E+00 0.  1.
         23    2    1    2    0    0  0.35002321431E+02  0.20042272521E+02 -0.28003474382E+03  0.30011312682E+03  0.10010782162E+03 0.  0.
         23    2    1    2    0    0 -0.70600715485E+02 -0.19670715981E+03 -0.11945656437E+03  0.25723727636E+03  0.90680636458E+02 0.  0.
        -11    1    3    3    0    0  0.69679758869E+02  0.11695329732E+02 -0.16033653433E+03  0.17521373741E+03  0.00000000000E+00 0.  1.
         11    1    3    3    0    0 -0.34677437438E+02  0.83469427892E+01 -0.11969820949E+03  0.12489938942E+03  0.00000000000E+00 0. -1.
        -13    1    4    4    0    0  0.21934319108E+02 -0.38573280307E+02 -0.18821015061E+02  0.48200030252E+02  0.00000000000E+00 0.  1.
         13    1    4    4    0    0 -0.92535034594E+02 -0.15813387950E+03 -0.10063554931E+03  0.20903724610E+03  0.00000000000E+00 0. -1.
         -1    1    1    2    0  502  0.35598394054E+02  0.17666488729E+03 -0.99614704906E+02  0.20591458786E+03  0.00000000000E+00 0.  1.
<scales pt_clust_5="13000.00000" pt_clust_6="13000.00000" pt_clust_7="13000.00000" pt_clust_8="13000.00000" pt_clust_9="192.59150"></scales>
<clustering>
<clus scale="   90.681">  7  8 -1 -1</clus>
<clus scale="  100.108">  5  6 -1 -1</clus>
<clus scale="  107.928">  2  5  1 -1</clus>
<clus scale="  192.591">  1  9  2 -1</clus>
<clus scale="  192.591">  1  5  2 -1</clus>
</clustering>
</event>
<event>
 9    1  0.1315259E-005  0.1488041E+03  0.7546771E-02  0.1202145E+00
         21   -1    0    0  501  502  0.00000000000E+00  0.00000000000E+00  0.43476681725E+03  0.43476681725E+03  0.00000000000E+00 0. -1.
          1   -1    0    0  502    0 -0.00000000000E+00 -0.00000000000E+00 -0.29052818937E+03  0.29052818937E+03  0.00000000000E+00 0. -1.
         23    2    1    2    0    0  0.16968604279E+01  0.11674362914E+03 -0.24947667766E+03  0.29038539421E+03  0.91940797245E+02 0.  0.
         23    2    1    2    0    0 -0.27290419777E+02 -0.12106805899E+03  0.36556034609E+03  0.39661558265E+03  0.90924759307E+02 0.  0.
        -11    1    4    4    0    0 -0.30368622798E+02  0.22046663274E+01  0.67128840225E+02  0.73711566217E+02  0.00000000000E+00 0.  1.
         11    1    4    4    0    0  0.30782030212E+01 -0.12327272532E+03  0.29843150586E+03  0.32290401644E+03  0.00000000000E+00 0. -1.
        -13    1    3    3    0    0  0.23566524068E+02  0.11932033938E+03 -0.17793217004E+03  0.21552860966E+03  0.00000000000E+00 0.  1.
         13    1    3    3    0    0 -0.21869663640E+02 -0.25767102445E+01 -0.71544507619E+02  0.74856784555E+02  0.00000000000E+00 0. -1.
          1    1    1    2  501    0  0.25593559349E+02  0.43244298542E+01  0.28154959448E+02  0.38294029759E+02  0.00000000000E+00 0. -1.
<scales pt_clust_5="13000.00000" pt_clust_6="13000.00000" pt_clust_7="13000.00000" pt_clust_8="13000.00000" pt_clust_9="25.95633"></scales>
<clustering>
<clus scale="   25.956">  1  9  2 -1</clus>
<clus scale="   90.925">  5  6 -1 -1</clus>
<clus scale="   91.941">  7  8 -1 -1</clus>
<clus scale="  148.179">  1  5  2 -1</clus>
<clus scale="   25.956">  1  5  2 -1</clus>
</clustering>
</event>
<event>
 9    1  0.1315259E-005  0.9345501E+02  0.7546771E-02  0.1295233E+00
         21   -1    0    0  501  502  0.00000000000E+00  0.00000000000E+00  0.61948694714E+02  0.61948694714E+02  0.00000000000E+00 0. -1.
          3   -1    0    0  502    0 -0.00000000000E+00 -0.00000000000E+00 -0.46030311153E+03  0.46030311153E+03  0.00000000000E+00 0. -1.
         23    2    1    2    0    0 -0.20766374188E+02 -0.24111943112E+02 -0.24343384138E+03  0.26183791878E+03  0.91029843907E+02 0.  0.
         23    2    1    2    0    0  0.71297648493E+01 -0.58397354794E+02 -0.13647578496E+03  0.17477539349E+03  0.91976701918E+02 0.  0.
        -11    1    3    3    0    0 -0.51827882970E+02  0.22333224264E+01 -0.17149547021E+03  0.17916978955E+03  0.00000000000E+00 0. -1.
         11    1    3    3    0    0  0.31061508782E+02 -0.26345265539E+02 -0.71938371167E+02  0.82668129229E+02  0.00000000000E+00 0.  1.
        -11    1    4    4    0    0  0.52814784635E+01 -0.82597698262E+02 -0.89523695971E+02  0.12192114629E+03  0.00000000000E+00 0. -1.
         11    1    4    4    0    0  0.18482863858E+01  0.24200343467E+02 -0.46952088990E+02  0.52854247200E+02  0.00000000000E+00 0.  1.
          3    1    1    2  501    0  0.13636609339E+02  0.82509297907E+02 -0.18444790478E+02  0.85638493980E+02  0.00000000000E+00 0. -1.
<scales pt_clust_5="13000.00000" pt_clust_6="13000.00000" pt_clust_7="13000.00000" pt_clust_8="13000.00000" pt_clust_9="83.62859"></scales>
<clustering>
<clus scale="   83.629">  1  9  2 -1</clus>
<clus scale="   91.030">  5  6 -1 -1</clus>
<clus scale="   91.977">  7  8 -1 -1</clus>
<clus scale="   92.523">  2  5  1 -1</clus>
<clus scale="   83.629">  1  5  2 -1</clus>
</clustering>
</event>
<event>
 9    1  0.1622057E-005  0.9136872E+02  0.7546771E-02  0.1300287E+00
         21   -1    0    0  501  502  0.00000000000E+00  0.00000000000E+00  0.91950819797E+03  0.91950819797E+03  0.00000000000E+00 0. -1.
         -3   -1    0    0    0  501 -0.00000000000E+00 -0.00000000000E+00 -0.41344204489E+02  0.41344204489E+02  0.00000000000E+00 0.  1.
         23    2    1    2    0    0  0.85557836938E+01  0.88686239322E+01  0.38354096507E+02  0.98376373258E+02  0.89749764187E+02 0.  0.
         23    2    1    2    0    0 -0.73784689784E+01  0.67983874869E+02  0.39459793691E+03  0.41067808539E+03  0.90954433449E+02 0.  0.
        -11    1    3    3    0    0 -0.12378622804E+02 -0.33236236905E+02 -0.32182715417E+01  0.35612287456E+02  0.00000000000E+00 0.  1.
         11    1    3    3    0    0  0.20934406498E+02  0.42104860837E+02  0.41572368048E+02  0.62764085803E+02  0.00000000000E+00 0. -1.
        -13    1    4    4    0    0  0.63649024516E+01 -0.20752201051E+02  0.11448767219E+03  0.11652721963E+03  0.00000000000E+00 0.  1.
         13    1    4    4    0    0 -0.13743371430E+02  0.88736075920E+02  0.28011026471E+03  0.29415086576E+03  0.00000000000E+00 0. -1.
         -3    1    1    2    0  502 -0.11773147154E+01 -0.76852498801E+02  0.44521196007E+03  0.45179794381E+03  0.00000000000E+00 0.  1.
<scales pt_clust_5="13000.00000" pt_clust_6="13000.00000" pt_clust_7="13000.00000" pt_clust_8="13000.00000" pt_clust_9="76.86152"></scales>
<clustering>
<clus scale="   76.862">  1  9  2 -1</clus>
<clus scale="   89.750">  5  6 -1 -1</clus>
<clus scale="   90.170">  2  5  1 -1</clus>
<clus scale="   90.954">  7  8 -1 -1</clus>
<clus scale="   76.862">  1  5  2 -1</clus>
</clustering>
</event>
<event>
 9    1  0.1315259E-005  0.1187467E+03  0.7546771E-02  0.1246564E+00
          2   -1    0    0  502    0 -0.00000000000E+00  0.00000000000E+00  0.45487664745E+03  0.45487664745E+03  0.00000000000E+00 0. -1.
         21   -1    0    0  501  502  0.00000000000E+00 -0.00000000000E+00 -0.73535216427E+02  0.73535216427E+02  0.00000000000E+00 0. -1.
         23    2    1    2    0    0 -0.55779164789E+02  0.27090902267E+02  0.17441341135E+03  0.20520491576E+03  0.88565157829E+02 0.  0.
         23    2    1    2    0    0  0.91690278446E+02  0.18337613800E+01  0.23531644827E+03  0.26905764406E+03  0.92777772983E+02 0.  0.
        -13    1    3    3    0    0 -0.58948071644E+01 -0.19296329824E+02  0.25539186010E+01  0.20337639893E+02  0.00000000000E+00 0.  1.
         13    1    3    3    0    0 -0.49884357624E+02  0.46387232091E+02  0.17185949275E+03  0.18486727587E+03  0.00000000000E+00 0. -1.
        -13    1    4    4    0    0  0.95677377814E+02  0.30319344391E+02  0.19756383155E+03  0.22159623374E+03  0.00000000000E+00 0. -1.
         13    1    4    4    0    0 -0.39870993686E+01 -0.28485583011E+02  0.37752616718E+02  0.47461410323E+02  0.00000000000E+00 0.  1.
          2    1    1    2  501    0 -0.35911113657E+02 -0.28924663646E+02 -0.28388428602E+02  0.54149304055E+02  0.00000000000E+00 0. -1.
<scales pt_clust_5="13000.00000" pt_clust_6="13000.00000" pt_clust_7="13000.00000" pt_clust_8="13000.00000" pt_clust_9="46.11122"></scales>
<clustering>
<clus scale="   46.111">  2  9  1 -1</clus>
<clus scale="   88.565">  5  6 -1 -1</clus>
<clus scale="   92.778">  7  8 -1 -1</clus>
<clus scale="  115.485">  1  5  2 -1</clus>
<clus scale="   46.111">  2  5  1 -1</clus>
</clustering>
</event>
<event>
 9    1  0.1315259E-005  0.9473745E+02  0.7546771E-02  0.1297446E+00
         21   -1    0    0  501  502  0.00000000000E+00  0.00000000000E+00  0.20527384775E+03  0.20527384775E+03  0.00000000000E+00 0. -1.
         -1   -1    0    0    0  501 -0.00000000000E+00 -0.00000000000E+00 -0.92167232090E+02  0.92167232090E+02  0.00000000000E+00 0.  1.
         23    2    1    2    0    0 -0.41094200815E+02  0.15508379451E+02  0.38951926451E+01  0.94584734891E+02  0.83677095880E+02 0.  0.
         23    2    1    2    0    0 -0.26151891535E+02  0.97429977662E+01  0.48560783241E+02  0.10884480793E+03  0.93328426045E+02 0.  0.
        -11    1    4    4    0    0 -0.34910231172E+02  0.47178310542E+02  0.25311160339E+02  0.63915350768E+02  0.00000000000E+00 0.  1.
         11    1    4    4    0    0  0.87583396372E+01 -0.37435312776E+02  0.23249622902E+02  0.44929457162E+02  0.00000000000E+00 0. -1.
        -13    1    3    3    0    0  0.23965293932E+02 -0.61829534696E+01  0.76397726536E+01  0.25902323314E+02  0.00000000000E+00 0. -1.
         13    1    3    3    0    0 -0.65059494747E+02  0.21691332921E+02 -0.37445800084E+01  0.68682411577E+02  0.00000000000E+00 0.  1.
         -1    1    1    2    0  502  0.67246092349E+02 -0.25251377217E+02  0.60650639775E+02  0.94011537019E+02  0.00000000000E+00 0.  1.
<scales pt_clust_5="13000.00000" pt_clust_6="13000.00000" pt_clust_7="13000.00000" pt_clust_8="13000.00000" pt_clust_9="71.83084"></scales>
<clustering>
<clus scale="   71.831">  1  9  2 -1</clus>
<clus scale="   83.677">  7  8 -1 -1</clus>
<clus scale="   85.246">  2  7  1 -1</clus>
<clus scale="   93.328">  5  6 -1 -1</clus>
<clus scale="   71.831">  1  5  2 -1</clus>
</clustering>
</event>
<event>
 9    1  0.1315259E-005  0.1367939E+03  0.7546771E-02  0.1220424E+00
         21   -1    0    0  501  502  0.00000000000E+00  0.00000000000E+00  0.80571857678E+02  0.80571857678E+02  0.00000000000E+00 0.  1.
          1   -1    0    0  502    0 -0.00000000000E+00 -0.00000000000E+00 -0.59094496589E+03  0.59094496589E+03  0.00000000000E+00 0. -1.
         23    2    1    2    0    0 -0.89216568496E+02 -0.57169380471E+02 -0.38440801166E+03  0.40777111580E+03  0.85321915710E+02 0.  0.
         23    2    1    2    0    0  0.89404132426E+01  0.99315052825E+02 -0.94183844296E+02  0.16766986899E+03  0.96432244270E+02 0.  0.
        -11    1    4    4    0    0 -0.36063730271E+01  0.81450065235E+02 -0.11723171527E+02  0.82368390806E+02  0.00000000000E+00 0.  1.
         11    1    4    4    0    0  0.12546786270E+02  0.17864987589E+02 -0.82460672769E+02  0.85301478186E+02  0.00000000000E+00 0. -1.
        -13    1    3    3    0    0 -0.97437755593E+02 -0.32816789587E+02 -0.35021263945E+03  0.36499308312E+03  0.00000000000E+00 0.  1.
         13    1    3    3    0    0  0.82211870966E+01 -0.24352590885E+02 -0.34195372205E+02  0.42778032684E+02  0.00000000000E+00 0. -1.
          1    1    1    2  501    0  0.80276155254E+02 -0.42145672353E+02 -0.31781252257E+02  0.96075838771E+02  0.00000000000E+00 0. -1.
<scales pt_clust_5="13000.00000" pt_clust_6="13000.00000" pt_clust_7="13000.00000" pt_clust_8="13000.00000" pt_clust_9="90.66708"></scales>
<clustering>
<clus scale="   85.322">  7  8 -1 -1</clus>
<clus scale="   90.667">  1  9  2 -1</clus>
<clus scale="   96.432">  5  6 -1 -1</clus>
<clus scale="  129.202">  2  7  1 -1</clus>
<clus scale="   90.667">  1  5  2 -1</clus>
</clustering>
</event>
<event>
 9    1  0.1315259E-005  0.1127136E+03  0.7546771E-02  0.1255825E+00
          2   -1    0    0  502    0 -0.00000000000E+00  0.00000000000E+00  0.75567854468E+03  0.75567854468E+03  0.00000000000E+00 0. -1.
         21   -1    0    0  501  502  0.00000000000E+00 -0.00000000000E+00 -0.23298576559E+02  0.23298576559E+02  0.00000000000E+00 0. -1.
         23    2    1    2    0    0  0.60348429526E+02  0.29724898354E+02  0.45009495125E+03  0.46417437581E+03  0.91361280022E+02 0.  0.
         23    2    1    2    0    0 -0.66147483174E+02 -0.68825559737E+01  0.25507070206E+03  0.27880245989E+03  0.90812386178E+02 0.  0.
        -11    1    3    3    0    0  0.29080362306E+02 -0.32558447944E+02  0.18341794310E+03  0.18854140621E+03  0.00000000000E+00 0.  1.
         11    1    3    3    0    0  0.31268067219E+02  0.62283346298E+02  0.26667700815E+03  0.27563296960E+03  0.00000000000E+00 0. -1.
        -13    1    4    4    0    0 -0.52929205792E+02  0.37980388072E+02  0.13354451407E+03  0.14858717287E+03  0.00000000000E+00 0. -1.
         13    1    4    4    0    0 -0.13218277382E+02 -0.44862944045E+02  0.12152618799E+03  0.13021528701E+03  0.00000000000E+00 0.  1.
          2    1    1    2  501    0  0.57990536484E+01 -0.22842342381E+02  0.27214314812E+02  0.36000285545E+02  0.00000000000E+00 0. -1.
<scales pt_clust_5="13000.00000" pt_clust_6="13000.00000" pt_clust_7="13000.00000" pt_clust_8="13000.00000" pt_clust_9="23.56696"></scales>
<clustering>
<clus scale="   23.567">  2  9  1 -1</clus>
<clus scale="   90.812">  7  8 -1 -1</clus>
<clus scale="   91.361">  5  6 -1 -1</clus>
<clus scale="  112.269">  2  7  1 -1</clus>
<clus scale="   23.567">  2  5  1 -1</clus>
</clustering>
</event>
<event>
 9    1  0.1315259E-005  0.9876113E+02  0.7546771E-02  0.1283708E+00
         21   -1    0    0  501  502  0.00000000000E+00  0.00000000000E+00  0.63678608456E+02  0.63678608456E+02  0.00000000000E+00 0. -1.
         -4   -1    0    0    0  501 -0.00000000000E+00 -0.00000000000E+00 -0.19810318041E+03  0.19810318041E+03  0.00000000000E+00 0.  1.
         23    2    1    2    0    0  0.28447905361E+02  0.11251890901E+02 -0.69644644771E+02  0.11832961266E+03  0.90640125322E+02 0.  0.
         23    2    1    2    0    0 -0.48423402093E+02 -0.86117661458E+01 -0.68925226684E+02  0.12288097701E+03  0.89050880128E+02 0.  0.
        -11    1    3    3    0    0  0.32369372713E+02  0.43443048943E+02 -0.66460950119E+02  0.85744578150E+02  0.00000000000E+00 0.  1.
         11    1    3    3    0    0 -0.39214673518E+01 -0.32191158042E+02 -0.31836946514E+01  0.32585034509E+02  0.00000000000E+00 0. -1.
        -11    1    4    4    0    0  0.13302533227E+01 -0.41598204191E+02 -0.22905211080E+02  0.47506092877E+02  0.00000000000E+00 0. -1.
         11    1    4    4    0    0 -0.49753655416E+02  0.32986438045E+02 -0.46020015604E+02  0.75374884135E+02  0.00000000000E+00 0.  1.
         -4    1    1    2    0  502  0.19975496732E+02 -0.26401247552E+01  0.41452995002E+01  0.20571199196E+02  0.00000000000E+00 0.  1.
<scales pt_clust_5="13000.00000" pt_clust_6="13000.00000" pt_clust_7="13000.00000" pt_clust_8="13000.00000" pt_clust_9="20.14921"></scales>
<clustering>
<clus scale="   20.149">  1  9  2 -1</clus>
<clus scale="   89.051">  7  8 -1 -1</clus>
<clus scale="   90.640">  5  6 -1 -1</clus>
<clus scale="   97.305">  1  7  2 -1</clus>
<clus scale="   20.149">  1  5  2 -1</clus>
</clustering>
</event>
<event>
 9    1  0.1315259E-005  0.9475708E+02  0.7546771E-02  0.1292004E+00
          1   -1    0    0  502    0 -0.00000000000E+00  0.00000000000E+00  0.26262594988E+03  0.26262594988E+03  0.00000000000E+00 0. -1.
         21   -1    0    0  501  502  0.00000000000E+00 -0.00000000000E+00 -0.46271187823E+02  0.46271187823E+02  0.00000000000E+00 0.  1.
         23    2    1    2    0    0  0.11183812529E+02 -0.28015337007E+02  0.12234889734E+03  0.15629450934E+03  0.92459635513E+02 0.  0.
         23    2    1    2    0    0  0.39000052025E+01  0.11502571036E+02  0.91171390216E+02  0.13005873245E+03  0.91953968433E+02 0.  0.
        -13    1    3    3    0    0  0.18379328011E+02  0.21756099129E+02  0.94733911628E+02  0.98922401708E+02  0.00000000000E+00 0. -1.
         13    1    3    3    0    0 -0.71955154816E+01 -0.49771436136E+02  0.27614985709E+02  0.57372107629E+02  0.00000000000E+00 0.  1.
        -13    1    4    4    0    0 -0.10077809169E+02  0.49545009991E+02  0.38236408637E+02  0.63390008661E+02  0.00000000000E+00 0. -1.
         13    1    4    4    0    0  0.13977814371E+02 -0.38042438955E+02  0.52934981579E+02  0.66668723784E+02  0.00000000000E+00 0.  1.
          1    1    1    2  501    0 -0.15083817732E+02  0.16512765971E+02  0.28344745008E+01  0.22543895916E+02  0.00000000000E+00 0. -1.
<scales pt_clust_5="13000.00000" pt_clust_6="13000.00000" pt_clust_7="13000.00000" pt_clust_8="13000.00000" pt_clust_9="22.36499"></scales>
<clustering>
<clus scale="   22.365">  2  9  1 -1</clus>
<clus scale="   91.954">  7  8 -1 -1</clus>
<clus scale="   92.460">  5  6 -1 -1</clus>
<clus scale="   94.264">  2  7  1 -1</clus>
<clus scale="   22.365">  2  5  1 -1</clus>
</clustering>
</event>
<event>
 9    1  0.1315259E-005  0.1154199E+03  0.7546771E-02  0.1251163E+00
         21   -1    0    0  501  502  0.00000000000E+00  0.00000000000E+00  0.31663948610E+02  0.31663948610E+02  0.00000000000E+00 0.  1.
          1   -1    0    0  502    0 -0.00000000000E+00 -0.00000000000E+00 -0.64104102097E+03  0.64104102097E+03  0.00000000000E+00 0. -1.
         23    2    1    2    0    0  0.73332106557E+02 -0.96064584505E+01 -0.46069539654E+03  0.47565758727E+03  0.92412174713E+02 0.  0.
         23    2    1    2    0    0 -0.53764175563E+02  0.18429242486E+02 -0.12071335691E+03  0.16179156997E+03  0.91512698702E+02 0.  0.
        -13    1    3    3    0    0  0.46372089200E+02  0.39826894033E+02 -0.26936665691E+03  0.27621540145E+03  0.00000000000E+00 0.  1.
         13    1    3    3    0    0  0.26960017357E+02 -0.49433352483E+02 -0.19132873963E+03  0.19944218581E+03  0.00000000000E+00 0. -1.
        -13    1    4    4    0    0 -0.61264019521E+02  0.45049001850E+02 -0.10602761341E+03  0.13047814936E+03  0.00000000000E+00 0.  1.
         13    1    4    4    0    0  0.74998439581E+01 -0.26619759364E+02 -0.14685743505E+02  0.31313420609E+02  0.00000000000E+00 0. -1.
          1    1    1    2  501    0 -0.19567930994E+02 -0.88227840355E+01 -0.27968318906E+02  0.35255812342E+02  0.00000000000E+00 0. -1.
<scales pt_clust_5="13000.00000" pt_clust_6="13000.00000" pt_clust_7="13000.00000" pt_clust_8="13000.00000" pt_clust_9="21.46498"></scales>
<clustering>
<clus scale="   21.465">  1  9  2 -1</clus>
<clus scale="   91.513">  7  8 -1 -1</clus>
<clus scale="   92.412">  5  6 -1 -1</clus>
<clus scale="  114.701">  1  7  2 -1</clus>
<clus scale="   21.465">  1  5  2 -1</clus>
</clustering>
</event>
<event>
 9    1  0.1315259E-005  0.1031232E+03  0.7546771E-02  0.1275104E+00
         21   -1    0    0  501  502  0.00000000000E+00  0.00000000000E+00  0.31612934801E+03  0.31612934801E+03  0.00000000000E+00 0. -1.
          2   -1    0    0  502    0 -0.00000000000E+00 -0.00000000000E+00 -0.78757236045E+03  0.78757236045E+03  0.00000000000E+00 0. -1.
         23    2    1    2    0    0 -0.32468867855E+02 -0.23445498378E+01 -0.41239473846E+03  0.42353024003E+03  0.90822462069E+02 0.  0.
         23    2    1    2    0    0  0.40616667673E+02  0.67431471535E+02 -0.35582395912E+03  0.37623315016E+03  0.93509231354E+02 0.  0.
        -11    1    4    4    0    0 -0.21418321841E+02  0.54059261955E+02 -0.18919466632E+03  0.19792869948E+03  0.00000000000E+00 0.  1.
         11    1    4    4    0    0  0.62034989514E+02  0.13372209580E+02 -0.16662929280E+03  0.17830445068E+03  0.00000000000E+00 0. -1.
        -11    1    3    3    0    0 -0.61731387983E+02  0.13423662926E+02 -0.27755738658E+03  0.28465604127E+03  0.00000000000E+00 0.  1.
         11    1    3    3    0    0  0.29262520128E+02 -0.15768212764E+02 -0.13483735189E+03  0.13887419876E+03  0.00000000000E+00 0. -1.
          2    1    1    2  501    0 -0.81477998179E+01 -0.65086921697E+02  0.29677568514E+03  0.30393831826E+03  0.00000000000E+00 0. -1.
<scales pt_clust_5="13000.00000" pt_clust_6="13000.00000" pt_clust_7="13000.00000" pt_clust_8="13000.00000" pt_clust_9="65.59492"></scales>
<clustering>
<clus scale="   65.595">  1  9  2 -1</clus>
<clus scale="   90.822">  7  8 -1 -1</clus>
<clus scale="   93.509">  5  6 -1 -1</clus>
<clus scale="  100.693">  2  7  1 -1</clus>
<clus scale="   65.595">  1  5  2 -1</clus>
</clustering>
</event>
<event>
 9    1  0.1315259E-005  0.1421636E+03  0.7546771E-02  0.1213083E+00
         -4   -1    0    0    0  501 -0.00000000000E+00  0.00000000000E+00  0.39139145118E+02  0.39139145118E+02  0.00000000000E+00 0.  1.
         21   -1    0    0  501  502  0.00000000000E+00 -0.00000000000E+00 -0.62646130690E+03  0.62646130690E+03  0.00000000000E+00 0. -1.
         23    2    1    2    0    0  0.81469245164E+02 -0.32313485890E+02 -0.21463060657E+03  0.24868494051E+03  0.89980570582E+02 0.  0.
         23    2    1    2    0    0 -0.10802265064E+03  0.47374099058E+02 -0.32564904654E+03  0.36083607648E+03  0.10120362772E+03 0.  0.
        -11    1    3    3    0    0  0.57023288144E+02 -0.32898438649E+02 -0.21434852758E+03  0.22423035908E+03  0.00000000000E+00 0. -1.
         11    1    3    3    0    0  0.24445957020E+02  0.58495275972E+00 -0.28207898709E+00  0.24454581430E+02  0.00000000000E+00 0.  1.
        -11    1    4    4    0    0 -0.97506775103E+02  0.73728593561E+02 -0.22266119627E+03  0.25401079706E+03  0.00000000000E+00 0.  1.
         11    1    4    4    0    0 -0.10515875533E+02 -0.26354494503E+02 -0.10298785028E+03  0.10682527942E+03  0.00000000000E+00 0. -1.
         -4    1    1    2    0  502  0.26553405472E+02 -0.15060613168E+02 -0.47042508667E+02  0.56079435026E+02  0.00000000000E+00 0.  1.
<scales pt_clust_5="13000.00000" pt_clust_6="13000.00000" pt_clust_7="13000.00000" pt_clust_8="13000.00000" pt_clust_9="30.52714"></scales>
<clustering>
<clus scale="   30.527">  2  9  1 -1</clus>
<clus scale="   89.981">  5  6 -1 -1</clus>
<clus scale="  101.204">  7  8 -1 -1</clus>
<clus scale="  134.405">  1  5  2 -1</clus>
<clus scale="   30.527">  2  5  1 -1</clus>
</clustering>
</event>
<event>
 9    1  0.1315259E-005  0.1671296E+03  0.7546771E-02  0.1181719E+00
          3   -1    0    0  502    0 -0.00000000000E+00  0.00000000000E+00  0.31811488056E+03  0.31811488056E+03  0.00000000000E+00 0. -1.
         21   -1    0    0  501  502  0.00000000000E+00 -0.00000000000E+00 -0.25816317024E+03  0.25816317024E+03  0.00000000000E+00 0. -1.
         23    2    1    2    0    0  0.63780230776E+02  0.11831971740E+03  0.19302970489E+03  0.25237964025E+03  0.91474272242E+02 0.  0.
         23    2    1    2    0    0 -0.94076885961E+02 -0.12540482385E+03  0.86148013986E+01  0.17882968725E+03  0.85609648529E+02 0.  0.
        -13    1    3    3    0    0  0.34950577758E+02  0.11943914799E+03  0.18402797099E+03  0.22215658231E+03  0.00000000000E+00 0. -1.
         13    1    3    3    0    0  0.28829653018E+02 -0.11194305959E+01  0.90017338990E+01  0.30223057939E+02  0.00000000000E+00 0.  1.
        -13    1    4    4    0    0 -0.39118937540E+02 -0.91507767235E+02 -0.29562983545E+02  0.10381682298E+03  0.00000000000E+00 0.  1.
         13    1    4    4    0    0 -0.54957948421E+02 -0.33897056614E+02  0.38177784944E+02  0.75012864263E+02  0.00000000000E+00 0. -1.
          3    1    1    2  501    0  0.30296655185E+02  0.70851064520E+01 -0.14169279597E+03  0.14506872329E+03  0.00000000000E+00 0. -1.
<scales pt_clust_5="13000.00000" pt_clust_6="13000.00000" pt_clust_7="13000.00000" pt_clust_8="13000.00000" pt_clust_9="31.11408"></scales>
<clustering>
<clus scale="   31.114">  2  9  1 -1</clus>
<clus scale="   85.610">  7  8 -1 -1</clus>
<clus scale="   91.474">  5  6 -1 -1</clus>
<clus scale="  163.993">  2  7  1 -1</clus>
<clus scale="   31.114">  2  5  1 -1</clus>
</clustering>
</event>
<event>
 9    1  0.1315259E-005  0.4676625E+03  0.7546771E-02  0.1022585E+00
         21   -1    0    0  501  502  0.00000000000E+00  0.00000000000E+00  0.35572185530E+03  0.35572185530E+03  0.00000000000E+00 0.  1.
         -1   -1    0    0    0  501 -0.00000000000E+00 -0.00000000000E+00 -0.74451050031E+03  0.74451050031E+03  0.00000000000E+00 0.  1.
         23    2    1    2    0    0 -0.39531533132E+03  0.22459197335E+03 -0.18498903911E+03  0.49917529713E+03  0.90770408216E+02 0.  0.
         23    2    1    2    0    0  0.36769128188E+03 -0.28681559382E+03 -0.11428465636E+03  0.48859465035E+03  0.90574201841E+02 0.  0.
        -11    1    4    4    0    0  0.72784970964E+02 -0.45624815229E+02 -0.57595719736E+02  0.10342409146E+03  0.00000000000E+00 0. -1.
         11    1    4    4    0    0  0.29490631092E+03 -0.24119077859E+03 -0.56688936621E+02  0.38517055888E+03  0.00000000000E+00 0.  1.
        -13    1    3    3    0    0 -0.42852751643E+02 -0.46082708939E+01 -0.14204294260E+02  0.45380132872E+02  0.00000000000E+00 0. -1.
         13    1    3    3    0    0 -0.35246257968E+03  0.22920024425E+03 -0.17078474485E+03  0.45379516426E+03  0.00000000000E+00 0.  1.
         -1    1    1    2    0  502  0.27624049439E+02  0.62223620470E+02 -0.89514949539E+02  0.11246240813E+03  0.00000000000E+00 0.  1.
<scales pt_clust_5="13000.00000" pt_clust_6="13000.00000" pt_clust_7="13000.00000" pt_clust_8="13000.00000" pt_clust_9="68.07989"></scales>
<clustering>
<clus scale="   68.080">  1  9  2 -1</clus>
<clus scale="   90.574">  5  6 -1 -1</clus>
<clus scale="   90.770">  7  8 -1 -1</clus>
<clus scale="  467.624">  1  5  2 -1</clus>
<clus scale="   68.080">  1  5  2 -1</clus>
</clustering>
</event>
<event>
 9    1  0.1315259E-005  0.8796200E+02  0.7546771E-02  0.1309016E+00
         21   -1    0    0  501  502  0.00000000000E+00  0.00000000000E+00  0.26746956645E+03  0.26746956645E+03  0.00000000000E+00 0. -1.
          1   -1    0    0  502    0 -0.00000000000E+00 -0.00000000000E+00 -0.14060744854E+03  0.14060744854E+03  0.00000000000E+00 0. -1.
         23    2    1    2    0    0 -0.15828621976E+02 -0.57433360046E+01 -0.95626232170E+02  0.13006765465E+03  0.86542979646E+02 0.  0.
         23    2    1    2    0    0  0.14680474672E+02 -0.57020968627E+02  0.12503843651E+03  0.16209058778E+03  0.84686721757E+02 0.  0.
        -11    1    3    3    0    0 -0.31571764085E+02 -0.32901817272E+02 -0.85816409857E+02  0.97179020719E+02  0.00000000000E+00 0.  1.
         11    1    3    3    0    0  0.15743142109E+02  0.27158481268E+02 -0.98098223132E+01  0.32888633934E+02  0.00000000000E+00 0. -1.
        -13    1    4    4    0    0  0.38779001920E+02 -0.37681878527E+01  0.25203025960E+02  0.46402615736E+02  0.00000000000E+00 0. -1.
         13    1    4    4    0    0 -0.24098527248E+02 -0.53252780774E+02  0.99835410549E+02  0.11568797204E+03  0.00000000000E+00 0.  1.
          1    1    1    2  501    0  0.11481473042E+01  0.62764304631E+02  0.97449913562E+02  0.11591877256E+03  0.00000000000E+00 0. -1.
<scales pt_clust_5="13000.00000" pt_clust_6="13000.00000" pt_clust_7="13000.00000" pt_clust_8="13000.00000" pt_clust_9="62.77481"></scales>
<clustering>
<clus scale="   62.775">  1  9  2 -1</clus>
<clus scale="   84.687">  7  8 -1 -1</clus>
<clus scale="   86.136">  1  7  2 -1</clus>
<clus scale="   86.543">  5  6 -1 -1</clus>
<clus scale="   62.775">  1  5  2 -1</clus>
</clustering>
</event>
<event>
 9    1  0.1315259E-005  0.1263415E+03  0.7546771E-02  0.1233017E+00
         21   -1    0    0  501  502  0.00000000000E+00  0.00000000000E+00  0.23922937883E+03  0.23922937883E+03  0.00000000000E+00 0.  1.
         -3   -1    0    0    0  501 -0.00000000000E+00 -0.00000000000E+00 -0.15327460997E+03  0.15327460997E+03  0.00000000000E+00 0.  1.
         23    2    1    2    0    0 -0.80560028834E+02  0.49522405314E+02 -0.73064725193E+02  0.15055984037E+03  0.91582883726E+02 0.  0.
         23    2    1    2    0    0  0.76469586173E+02  0.10400724201E+01  0.66744923263E+02  0.13664508723E+03  0.91478498684E+02 0.  0.
        -13    1    4    4    0    0  0.72394067717E+02  0.35072250412E+02  0.28629410247E+02  0.85385050920E+02  0.00000000000E+00 0.  1.
         13    1    4    4    0    0  0.40755184564E+01 -0.34032177992E+02  0.38115513016E+02  0.51260036306E+02  0.00000000000E+00 0. -1.
        -13    1    3    3    0    0 -0.52271739042E+01  0.27871621515E+02  0.15478720638E+02  0.32306987255E+02  0.00000000000E+00 0. -1.
         13    1    3    3    0    0 -0.75332854930E+02  0.21650783800E+02 -0.88543445830E+02  0.11825285312E+03  0.00000000000E+00 0.  1.
         -3    1    1    2    0  502  0.40904426608E+01 -0.50562477735E+02  0.92274570784E+02  0.10529906120E+03  0.00000000000E+00 0.  1.
<scales pt_clust_5="13000.00000" pt_clust_6="13000.00000" pt_clust_7="13000.00000" pt_clust_8="13000.00000" pt_clust_9="50.72766"></scales>
<clustering>
<clus scale="   50.728">  1  9  2 -1</clus>
<clus scale="   91.478">  5  6 -1 -1</clus>
<clus scale="   91.583">  7  8 -1 -1</clus>
<clus scale="  126.266">  1  5  2 -1</clus>
<clus scale="   50.728">  1  5  2 -1</clus>
</clustering>
</event>
<event>
 9    1  0.1315259E-005  0.1084907E+03  0.7546771E-02  0.1264085E+00
         21   -1    0    0  501  502  0.00000000000E+00  0.00000000000E+00  0.10950078414E+03  0.10950078414E+03  0.00000000000E+00 0.  1.
          2   -1    0    0  502    0 -0.00000000000E+00 -0.00000000000E+00 -0.24297739691E+03  0.24297739691E+03  0.00000000000E+00 0. -1.
         23    2    1    2    0    0 -0.58518175758E+02  0.17179915989E+02 -0.87308691313E+02  0.14038355612E+03  0.91461515643E+02 0.  0.
         23    2    1    2    0    0  0.10123694164E+02 -0.72082132127E+02 -0.67138438040E+02  0.13596288547E+03  0.93166589550E+02 0.  0.
        -11    1    3    3    0    0  0.18419389105E+01 -0.31810459318E+02 -0.30411468427E+02  0.44047195970E+02  0.00000000000E+00 0.  1.
         11    1    3    3    0    0 -0.60360114668E+02  0.48990375307E+02 -0.56897222886E+02  0.96336360154E+02  0.00000000000E+00 0. -1.
        -11    1    4    4    0    0  0.51768306979E+02 -0.44270130375E+02 -0.37027534198E+02  0.77529609439E+02  0.00000000000E+00 0.  1.
         11    1    4    4    0    0 -0.41644612816E+02 -0.27812001752E+02 -0.30110903842E+02  0.58433276035E+02  0.00000000000E+00 0. -1.
          2    1    1    2  501    0  0.48394481594E+02  0.54902216139E+02  0.20970516588E+02  0.76131739450E+02  0.00000000000E+00 0. -1.
<scales pt_clust_5="13000.00000" pt_clust_6="13000.00000" pt_clust_7="13000.00000" pt_clust_8="13000.00000" pt_clust_9="73.18661"></scales>
<clustering>
<clus scale="   73.187">  1  9  2 -1</clus>
<clus scale="   91.462">  5  6 -1 -1</clus>
<clus scale="   93.167">  7  8 -1 -1</clus>
<clus scale="  107.030">  2  5  1 -1</clus>
<clus scale="   73.187">  1  5  2 -1</clus>
</clustering>
</event>
<event>
 9    1  0.1315259E-005  0.9916671E+02  0.7546771E-02  0.1284511E+00
          3   -1    0    0  502    0 -0.00000000000E+00  0.00000000000E+00  0.95227961876E+02  0.95227961876E+02  0.00000000000E+00 0. -1.
         21   -1    0    0  501  502  0.00000000000E+00 -0.00000000000E+00 -0.29550799589E+03  0.29550799589E+03  0.00000000000E+00 0.  1.
         23    2    1    2    0    0  0.43217668385E+01  0.16909092133E+02  0.80267007425E+01  0.92382648549E+02  0.90363326426E+02 0.  0.
         23    2    1    2    0    0  0.57856479322E+02 -0.37639170306E+02 -0.51258673854E+02  0.12817703628E+03  0.95067458386E+02 0.  0.
        -13    1    4    4    0    0  0.51356892793E+02 -0.68055346075E+02 -0.45165059935E+02  0.96482864830E+02  0.00000000000E+00 0.  1.
         13    1    4    4    0    0  0.64995865287E+01  0.30416175769E+02 -0.60936139183E+01  0.31694171452E+02  0.00000000000E+00 0. -1.
        -13    1    3    3    0    0  0.28890213799E+02  0.28606203375E+02  0.35310034111E+02  0.53849399567E+02  0.00000000000E+00 0. -1.
         13    1    3    3    0    0 -0.24568446960E+02 -0.11697111242E+02 -0.27283333368E+02  0.38533248982E+02  0.00000000000E+00 0.  1.
          3    1    1    2  501    0 -0.62178246160E+02  0.20730078173E+02 -0.15704806090E+03  0.17017627293E+03  0.00000000000E+00 0. -1.
<scales pt_clust_5="13000.00000" pt_clust_6="13000.00000" pt_clust_7="13000.00000" pt_clust_8="13000.00000" pt_clust_9="65.54289"></scales>
<clustering>
<clus scale="   65.543">  2  9  1 -1</clus>
<clus scale="   90.363">  7  8 -1 -1</clus>
<clus scale="   94.666">  1  7  2 -1</clus>
<clus scale="   95.067">  5  6 -1 -1</clus>
<clus scale="   65.543">  2  5  1 -1</clus>
</clustering>
</event>
<event>
 9    1  0.1315259E-005  0.1250691E+03  0.7546771E-02  0.1236220E+00
         21   -1    0    0  501  502  0.00000000000E+00  0.00000000000E+00  0.10518074866E+03  0.10518074866E+03  0.00000000000E+00 0.  1.
          1   -1    0    0  502    0 -0.00000000000E+00 -0.00000000000E+00 -0.27877257207E+03  0.27877257207E+03  0.00000000000E+00 0. -1.
         23    2    1    2    0    0  0.11388433641E+02  0.86881263843E+02 -0.13399521953E+03  0.18235956976E+03  0.87305460311E+02 0.  0.
         23    2    1    2    0    0  0.49008264518E+02 -0.79673300457E+02 -0.38492430582E+01  0.13104171563E+03  0.91692255765E+02 0.  0.
        -11    1    3    3    0    0 -0.33534526239E+02  0.37910567022E+02 -0.29677963525E+02  0.58673307909E+02  0.00000000000E+00 0. -1.
         11    1    3    3    0    0  0.44922959880E+02  0.48970696821E+02 -0.10431725601E+03  0.12368626186E+03  0.00000000000E+00 0.  1.
        -13    1    4    4    0    0  0.55918995402E+02 -0.82089474649E+01  0.11365129366E+02  0.57649692373E+02  0.00000000000E+00 0.  1.
         13    1    4    4    0    0 -0.69107308833E+01 -0.71464352992E+02 -0.15214372425E+02  0.73392023260E+02  0.00000000000E+00 0. -1.
          1    1    1    2  501    0 -0.60396698159E+02 -0.72079633854E+01 -0.35747360816E+02  0.70552035336E+02  0.00000000000E+00 0. -1.
<scales pt_clust_5="13000.00000" pt_clust_6="13000.00000" pt_clust_7="13000.00000" pt_clust_8="13000.00000" pt_clust_9="60.82532"></scales>
<clustering>
<clus scale="   60.825">  1  9  2 -1</clus>
<clus scale="   87.305">  5  6 -1 -1</clus>
<clus scale="   91.692">  7  8 -1 -1</clus>
<clus scale="  121.890">  2  5  1 -1</clus>
<clus scale="   60.825">  1  5  2 -1</clus>
</clustering>
</event>
<event>
 9    1  0.1315259E-005  0.1324431E+03  0.7546771E-02  0.1224190E+00
          1   -1    0    0  502    0 -0.00000000000E+00  0.00000000000E+00  0.77370958567E+03  0.77370958567E+03  0.00000000000E+00 0. -1.
         21   -1    0    0  501  502  0.00000000000E+00 -0.00000000000E+00 -0.20429865111E+03  0.20429865111E+03  0.00000000000E+00 0. -1.
         23    2    1    2    0    0 -0.65027143325E+02  0.16225883053E+02  0.33320042353E+03  0.35210859310E+03  0.92011577767E+02 0.  0.
         23    2    1    2    0    0  0.14512296688E+03 -0.35603189257E+02  0.40331677994E+03  0.43957915083E+03  0.90758703495E+02 0.  0.
        -11    1    4    4    0    0  0.83994770576E+02 -0.17597651780E+02  0.33640017690E+03  0.34717413188E+03  0.00000000000E+00 0. -1.
         11    1    4    4    0    0  0.61128196306E+02 -0.18005537477E+02  0.66916603040E+02  0.92405018943E+02  0.00000000000E+00 0.  1.
        -11    1    3    3    0    0  0.20518828472E+01  0.31954932441E+02  0.41696474064E+02  0.52573033772E+02  0.00000000000E+00 0.  1.
         11    1    3    3    0    0 -0.67079026172E+02 -0.15729049388E+02  0.29150394947E+03  0.29953555933E+03  0.00000000000E+00 0. -1.
          1    1    1    2  501    0 -0.80095823556E+02  0.19377306204E+02 -0.16710626891E+03  0.18632049285E+03  0.00000000000E+00 0. -1.
<scales pt_clust_5="13000.00000" pt_clust_6="13000.00000" pt_clust_7="13000.00000" pt_clust_8="13000.00000" pt_clust_9="82.40644"></scales>
<clustering>
<clus scale="   82.406">  2  9  1 -1</clus>
<clus scale="   90.759">  5  6 -1 -1</clus>
<clus scale="   92.012">  7  8 -1 -1</clus>
<clus scale="  131.576">  2  5  1 -1</clus>
<clus scale="   82.406">  2  5  1 -1</clus>
</clustering>
</event>
<event>
 9    1  0.1315259E-005  0.4122674E+03  0.7546771E-02  0.1039648E+00
          2   -1    0    0  502    0 -0.00000000000E+00  0.00000000000E+00  0.50009452985E+03  0.50009452985E+03  0.00000000000E+00 0. -1.
         21   -1    0    0  501  502  0.00000000000E+00 -0.00000000000E+00 -0.42866351738E+03  0.42866351738E+03  0.00000000000E+00 0.  1.
         23    2    1    2    0    0 -0.39302899251E+03 -0.49254237460E+02  0.20586305847E+03  0.45591328750E+03  0.92625903614E+02 0.  0.
         23    2    1    2    0    0  0.41264531336E+03  0.35964316680E+02 -0.10843505146E+03  0.43766997098E+03  0.90704224793E+02 0.  0.
        -11    1    4    4    0    0  0.34403111702E+03 -0.27330165949E+01 -0.10091834018E+03  0.35853785050E+03  0.00000000000E+00 0.  1.
         11    1    4    4    0    0  0.68614196341E+02  0.38697333275E+02 -0.75167112783E+01  0.79132120473E+02  0.00000000000E+00 0. -1.
        -11    1    3    3    0    0 -0.21056472055E+03 -0.11218824720E+02  0.15796789809E+03  0.26347147928E+03  0.00000000000E+00 0.  1.
         11    1    3    3    0    0 -0.18246427196E+03 -0.38035412740E+02  0.47895160379E+02  0.19244180822E+03  0.00000000000E+00 0. -1.
          2    1    1    2  501    0 -0.19616320856E+02  0.13289920780E+02 -0.25996994542E+02  0.35174788749E+02  0.00000000000E+00 0. -1.
<scales pt_clust_5="13000.00000" pt_clust_6="13000.00000" pt_clust_7="13000.00000" pt_clust_8="13000.00000" pt_clust_9="23.69435"></scales>
<clustering>
<clus scale="   23.694">  2  9  1 -1</clus>
<clus scale="   90.704">  5  6 -1 -1</clus>
<clus scale="   92.626">  7  8 -1 -1</clus>
<clus scale="  411.840">  2  5  1 -1</clus>
<clus scale="   23.694">  2  5  1 -1</clus>
</clustering>
</event>
<event>
 9    1  0.1315259E-005  0.9888954E+02  0.7546771E-02  0.1282654E+00
         21   -1    0    0  501  502  0.00000000000E+00  0.00000000000E+00  0.13927295104E+03  0.13927295104E+03  0.00000000000E+00 0. -1.
          2   -1    0    0  502    0 -0.00000000000E+00 -0.00000000000E+00 -0.36043155373E+03  0.36043155373E+03  0.00000000000E+00 0. -1.
         23    2    1    2    0    0  0.30209827902E+00 -0.20648025836E+02 -0.26423612860E+03  0.28141289387E+03  0.94583576482E+02 0.  0.
         23    2    1    2    0    0  0.96561244355E+01  0.94255919234E+02  0.30317573861E+01  0.13390587901E+03  0.94573642374E+02 0.  0.
        -11    1    4    4    0    0 -0.37738715244E+02  0.14847429148E+02  0.78351082918E+01  0.41304306101E+02  0.00000000000E+00 0.  1.
         11    1    4    4    0    0  0.47394839679E+02  0.79408490086E+02 -0.48033509057E+01  0.92601572913E+02  0.00000000000E+00 0. -1.
        -11    1    3    3    0    0 -0.31276677735E+02  0.21718306481E+02 -0.16097520290E+03  0.16541744574E+03  0.00000000000E+00 0.  1.
         11    1    3    3    0    0  0.31578776014E+02 -0.42366332317E+02 -0.10326092570E+03  0.11599544812E+03  0.00000000000E+00 0. -1.
          2    1    1    2  501    0 -0.99582227145E+01 -0.73607893398E+02  0.40045768527E+02  0.84385731892E+02  0.00000000000E+00 0. -1.
<scales pt_clust_5="13000.00000" pt_clust_6="13000.00000" pt_clust_7="13000.00000" pt_clust_8="13000.00000" pt_clust_9="74.27845"></scales>
<clustering>
<clus scale="   74.278">  1  9  2 -1</clus>
<clus scale="   94.574">  5  6 -1 -1</clus>
<clus scale="   94.584">  7  8 -1 -1</clus>
<clus scale="   98.880">  1  5  2 -1</clus>
<clus scale="   74.278">  1  5  2 -1</clus>
</clustering>
</event>
<event>
 9    1  0.1315259E-005  0.1803895E+03  0.7546771E-02  0.1178429E+00
         21   -1    0    0  501  502  0.00000000000E+00  0.00000000000E+00  0.12259871223E+04  0.12259871223E+04  0.00000000000E+00 0. -1.
          3   -1    0    0  502    0 -0.00000000000E+00 -0.00000000000E+00 -0.12278244975E+03  0.12278244975E+03  0.00000000000E+00 0. -1.
         23    2    1    2    0    0  0.98432231240E+02  0.41638000602E+02  0.13619430601E+02  0.14109140250E+03  0.91097023704E+02 0.  0.
         23    2    1    2    0    0 -0.20807706997E+03 -0.13666848789E+03  0.28063891866E+03  0.38582238042E+03  0.90146347295E+02 0.  0.
        -11    1    4    4    0    0 -0.26565344039E+02 -0.20284319029E+02  0.97008964925E+02  0.10260560598E+03  0.00000000000E+00 0.  1.
         11    1    4    4    0    0 -0.18151172593E+03 -0.11638416886E+03  0.18362995374E+03  0.28321677444E+03  0.00000000000E+00 0. -1.
        -11    1    3    3    0    0  0.71800929986E+02  0.69464387556E+02  0.20446975384E+02  0.10197427856E+03  0.00000000000E+00 0. -1.
         11    1    3    3    0    0  0.26631301254E+02 -0.27826386954E+02 -0.68275447829E+01  0.39117123938E+02  0.00000000000E+00 0.  1.
          3    1    1    2  501    0  0.10964483873E+03  0.95030487288E+02  0.80894632329E+03  0.82185578914E+03  0.00000000000E+00 0. -1.
<scales pt_clust_5="13000.00000" pt_clust_6="13000.00000" pt_clust_7="13000.00000" pt_clust_8="13000.00000" pt_clust_9="156.24978"></scales>
<clustering>
<clus scale="   90.146">  5  6 -1 -1</clus>
<clus scale="   91.097">  7  8 -1 -1</clus>
<clus scale="  140.433">  2  7  1 -1</clus>
<clus scale="  156.250">  1  9  2 -1</clus>
<clus scale="  156.250">  1  5  2 -1</clus>
</clustering>
</event>
<event>
 9    1  0.1315259E-005  0.9729843E+02  0.7546771E-02  0.1286382E+00
         21   -1    0    0  501  502  0.00000000000E+00  0.00000000000E+00  0.54165207099E+03  0.54165207099E+03  0.00000000000E+00 0.  1.
          1   -1    0    0  502    0 -0.00000000000E+00 -0.00000000000E+00 -0.34250478031E+02  0.34250478031E+02  0.00000000000E+00 0. -1.
         23    2    1    2    0    0 -0.29263573820E+02  0.23319039411E+02  0.66527742251E+02  0.11891248812E+03  0.91181714116E+02 0.  0.
         23    2    1    2    0    0  0.13057297195E+02 -0.94706135877E+01  0.28952068988E+03  0.30414307339E+03  0.91763792917E+02 0.  0.
        -13    1    3    3    0    0  0.25759816872E+01  0.31404597875E+02 -0.12056956201E+02  0.33738029613E+02  0.00000000000E+00 0. -1.
         13    1    3    3    0    0 -0.31839555507E+02 -0.80855584632E+01  0.78584698451E+02  0.85174458503E+02  0.00000000000E+00 0.  1.
        -13    1    4    4    0    0  0.43354316320E+02 -0.22557428454E+02  0.23794583499E+03  0.24291285415E+03  0.00000000000E+00 0.  1.
         13    1    4    4    0    0 -0.30297019125E+02  0.13086814866E+02  0.51574854888E+02  0.61230219238E+02  0.00000000000E+00 0. -1.
          1    1    1    2  501    0  0.16206276625E+02 -0.13848425824E+02  0.15135316083E+03  0.15284698752E+03  0.00000000000E+00 0. -1.
<scales pt_clust_5="13000.00000" pt_clust_6="13000.00000" pt_clust_7="13000.00000" pt_clust_8="13000.00000" pt_clust_9="21.31718"></scales>
<clustering>
<clus scale="   21.317">  1  9  2 -1</clus>
<clus scale="   91.182">  5  6 -1 -1</clus>
<clus scale="   91.764">  7  8 -1 -1</clus>
<clus scale="   96.750">  2  5  1 -1</clus>
<clus scale="   21.317">  1  5  2 -1</clus>
</clustering>
</event>
<event>
 9    1  0.1315259E-005  0.1104539E+03  0.7546771E-02  0.1259750E+00
         -3   -1    0    0    0  501 -0.00000000000E+00  0.00000000000E+00  0.15130580266E+03  0.15130580266E+03  0.00000000000E+00 0.  1.
         21   -1    0    0  501  502  0.00000000000E+00 -0.00000000000E+00 -0.43524821038E+03  0.43524821038E+03  0.00000000000E+00 0.  1.
         23    2    1    2    0    0 -0.62244374669E+02 -0.36637606983E+02  0.66185687975E+02  0.13379064261E+03  0.91119231413E+02 0.  0.
         23    2    1    2    0    0  0.55588629409E+02 -0.14727512450E+02 -0.93959387509E+01  0.10811706301E+03  0.91071512049E+02 0.  0.
        -11    1    3    3    0    0 -0.11716563236E+02 -0.19759446560E+02 -0.21322415155E+02  0.31342606312E+02  0.00000000000E+00 0. -1.
         11    1    3    3    0    0 -0.50527811433E+02 -0.16878160423E+02  0.87508103129E+02  0.10244803630E+03  0.00000000000E+00 0.  1.
        -13    1    4    4    0    0 -0.18619014666E+02 -0.10391271601E+02 -0.24273470988E+02  0.32308630835E+02  0.00000000000E+00 0.  1.
         13    1    4    4    0    0  0.74207644075E+02 -0.43362408492E+01  0.14877532237E+02  0.75808432178E+02  0.00000000000E+00 0. -1.
         -3    1    1    2    0  502  0.66557452597E+01  0.51365119434E+02 -0.34073215695E+03  0.34464630742E+03  0.00000000000E+00 0.  1.
<scales pt_clust_5="13000.00000" pt_clust_6="13000.00000" pt_clust_7="13000.00000" pt_clust_8="13000.00000" pt_clust_9="51.79454"></scales>
<clustering>
<clus scale="   51.795">  2  9  1 -1</clus>
<clus scale="   91.072">  7  8 -1 -1</clus>
<clus scale="   91.119">  5  6 -1 -1</clus>
<clus scale="  110.414">  2  7  1 -1</clus>
<clus scale="   51.795">  2  5  1 -1</clus>
</clustering>
</event>
<event>
 9    1  0.1315259E-005  0.1398945E+03  0.7546771E-02  0.1213586E+00
         -1   -1    0    0    0  501 -0.00000000000E+00  0.00000000000E+00  0.18240369784E+03  0.18240369784E+03  0.00000000000E+00 0.  1.
         21   -1    0    0  501  502  0.00000000000E+00 -0.00000000000E+00 -0.20833385657E+03  0.20833385657E+03  0.00000000000E+00 0. -1.
         23    2    1    2    0    0  0.30143029495E+02  0.10827784983E+03  0.61959731582E+02  0.15808628701E+03  0.92301521177E+02 0.  0.
         23    2    1    2    0    0 -0.40699962986E+02 -0.73280441917E+02 -0.12797260725E+03  0.17840284251E+03  0.91782764482E+02 0.  0.
        -11    1    3    3    0    0  0.57088127725E+02  0.10274313657E+03  0.45548386162E+02  0.12605499562E+03  0.00000000000E+00 0.  1.
         11    1    3    3    0    0 -0.26945098230E+02  0.55347132632E+01  0.16411345420E+02  0.32031291389E+02  0.00000000000E+00 0. -1.
        -13    1    4    4    0    0 -0.60538305982E+02 -0.16200873026E+02 -0.77506398363E+02  0.99672446369E+02  0.00000000000E+00 0. -1.
         13    1    4    4    0    0  0.19838342996E+02 -0.57079568891E+02 -0.50466208887E+02  0.78730396145E+02  0.00000000000E+00 0.  1.
         -1    1    1    2    0  502  0.10556933491E+02 -0.34997407915E+02  0.40082716933E+02  0.54248424883E+02  0.00000000000E+00 0.  1.
<scales pt_clust_5="13000.00000" pt_clust_6="13000.00000" pt_clust_7="13000.00000" pt_clust_8="13000.00000" pt_clust_9="36.55501"></scales>
<clustering>
<clus scale="   36.555">  2  9  1 -1</clus>
<clus scale="   91.783">  7  8 -1 -1</clus>
<clus scale="   92.302">  5  6 -1 -1</clus>
<clus scale="  139.553">  2  7  1 -1</clus>
<clus scale="   36.555">  2  5  1 -1</clus>
</clustering>
</event>
<event>
 9    1  0.1315259E-005  0.1099699E+03  0.7546771E-02  0.1261226E+00
         21   -1    0    0  501  502  0.00000000000E+00  0.00000000000E+00  0.85604630887E+02  0.85604630887E+02  0.00000000000E+00 0. -1.
          1   -1    0    0  502    0 -0.00000000000E+00 -0.00000000000E+00 -0.89598394086E+03  0.89598394086E+03  0.00000000000E+00 0. -1.
         23    2    1    2    0    0  0.65768553678E+02 -0.53099307984E+02 -0.54428146454E+03  0.55847119066E+03  0.92210189200E+02 0.  0.
         23    2    1    2    0    0 -0.18955506520E+02  0.31465515037E+02 -0.32815659499E+03  0.34242803372E+03  0.90668724395E+02 0.  0.
        -11    1    4    4    0    0  0.29517914724E+02  0.16177245885E+02 -0.54239725702E+02  0.63835400981E+02  0.00000000000E+00 0. -1.
         11    1    4    4    0    0 -0.48473421244E+02  0.15288269151E+02 -0.27391686928E+03  0.27859263274E+03  0.00000000000E+00 0.  1.
        -13    1    3    3    0    0  0.19234822277E+02  0.22307067252E+02 -0.69372630473E+02  0.75366739986E+02  0.00000000000E+00 0.  1.
         13    1    3    3    0    0  0.46533731401E+02 -0.75406375236E+02 -0.47490883407E+03  0.48310445068E+03  0.00000000000E+00 0. -1.
          1    1    1    2  501    0 -0.46813047158E+02  0.21633792947E+02  0.62058749555E+02  0.80689347363E+02  0.00000000000E+00 0. -1.
<scales pt_clust_5="13000.00000" pt_clust_6="13000.00000" pt_clust_7="13000.00000" pt_clust_8="13000.00000" pt_clust_9="51.57017"></scales>
<clustering>
<clus scale="   51.570">  1  9  2 -1</clus>
<clus scale="   90.669">  5  6 -1 -1</clus>
<clus scale="   92.210">  7  8 -1 -1</clus>
<clus scale="  108.681">  1  5  2 -1</clus>
<clus scale="   51.570">  1  5  2 -1</clus>
</clustering>
</event>
<event>
 9    1  0.1315259E-005  0.1541815E+03  0.7546771E-02  0.1217248E+00
          3   -1    0    0  502    0 -0.00000000000E+00  0.00000000000E+00  0.17814025053E+03  0.17814025053E+03  0.00000000000E+00 0. -1.
         21   -1    0    0  501  502  0.00000000000E+00 -0.00000000000E+00 -0.11077380241E+04  0.11077380241E+04  0.00000000000E+00 0. -1.
         23    2    1    2    0    0 -0.20284390149E+01  0.27514804014E+02  0.10310149693E+03  0.14119712532E+03  0.92442038735E+02 0.  0.
         23    2    1    2    0    0 -0.13522736590E+02  0.98432395560E+02 -0.34790717802E+02  0.13873581497E+03  0.90362776676E+02 0.  0.
        -11    1    4    4    0    0  0.88920594394E+00  0.49083192604E+02  0.28836720130E+02  0.56934233210E+02  0.00000000000E+00 0. -1.
         11    1    4    4    0    0 -0.14411942534E+02  0.49349202957E+02 -0.63627437932E+02  0.81801581756E+02  0.00000000000E+00 0.  1.
        -11    1    3    3    0    0 -0.42159379020E+02  0.22882457183E+02  0.27019314652E+02  0.55055094681E+02  0.00000000000E+00 0. -1.
         11    1    3    3    0    0  0.40130940005E+02  0.46323468311E+01  0.76082182280E+02  0.86142030643E+02  0.00000000000E+00 0.  1.
          3    1    1    2  501    0  0.15551175605E+02 -0.12594719957E+03 -0.99790855266E+03  0.10059453343E+04  0.00000000000E+00 0. -1.
<scales pt_clust_5="13000.00000" pt_clust_6="13000.00000" pt_clust_7="13000.00000" pt_clust_8="13000.00000" pt_clust_9="124.92603"></scales>
<clustering>
<clus scale="   90.363">  5  6 -1 -1</clus>
<clus scale="   92.442">  7  8 -1 -1</clus>
<clus scale="   96.471">  1  7  2 -1</clus>
<clus scale="  124.926">  2  9  1 -1</clus>
<clus scale="  124.926">  2  5  1 -1</clus>
</clustering>
</event>
<event>
 9    1  0.1315259E-005  0.1080316E+03  0.7546771E-02  0.1264588E+00
         21   -1    0    0  501  502  0.00000000000E+00  0.00000000000E+00  0.93600179969E+02  0.93600179969E+02  0.00000000000E+00 0. -1.
          3   -1    0    0  502    0 -0.00000000000E+00 -0.00000000000E+00 -0.73563163294E+03  0.73563163294E+03  0.00000000000E+00 0. -1.
         23    2    1    2    0    0 -0.71283695401E+02  0.90924729406E+00 -0.54916408522E+03  0.56163393542E+03  0.93644503062E+02 0.  0.
         23    2    1    2    0    0  0.16367143619E+02  0.11889728044E+02 -0.15617909165E+03  0.18281571065E+03  0.92846251245E+02 0.  0.
        -13    1    3    3    0    0  0.22239173578E+02  0.79466794482E+01 -0.95489154162E+02  0.98366199064E+02  0.00000000000E+00 0.  1.
         13    1    3    3    0    0 -0.93522868980E+02 -0.70374321542E+01 -0.45367493106E+03  0.46326773635E+03  0.00000000000E+00 0. -1.
        -13    1    4    4    0    0  0.12587088621E+02  0.35052057193E+02 -0.15746412987E+02  0.40435517004E+02  0.00000000000E+00 0.  1.
         13    1    4    4    0    0  0.37800549979E+01 -0.23162329149E+02 -0.14043267866E+03  0.14238019365E+03  0.00000000000E+00 0. -1.
          3    1    1    2  501    0  0.54916551782E+02 -0.12798975338E+02  0.63311723904E+02  0.84782166834E+02  0.00000000000E+00 0. -1.
<scales pt_clust_5="13000.00000" pt_clust_6="13000.00000" pt_clust_7="13000.00000" pt_clust_8="13000.00000" pt_clust_9="56.38831"></scales>
<clustering>
<clus scale="   56.388">  1  9  2 -1</clus>
<clus scale="   92.846">  7  8 -1 -1</clus>
<clus scale="   93.645">  5  6 -1 -1</clus>
<clus scale="  107.340">  1  7  2 -1</clus>
<clus scale="   56.388">  1  5  2 -1</clus>
</clustering>
</event>
<event>
 9    1  0.1315259E-005  0.1460909E+03  0.7546771E-02  0.1205760E+00
         21   -1    0    0  501  502  0.00000000000E+00  0.00000000000E+00  0.35608856407E+03  0.35608856407E+03  0.00000000000E+00 0.  1.
          1   -1    0    0  502    0 -0.00000000000E+00 -0.00000000000E+00 -0.14514265468E+03  0.14514265468E+03  0.00000000000E+00 0. -1.
         23    2    1    2    0    0 -0.18811925683E+02  0.10434664629E+03 -0.46412865627E+02  0.14614106703E+03  0.89224134837E+02 0.  0.
         23    2    1    2    0    0  0.26154505628E+02 -0.13479609542E+03  0.96116017274E+02  0.19083331212E+03  0.91241540608E+02 0.  0.
        -11    1    4    4    0    0 -0.30114370369E+02 -0.31695125753E+02  0.44984653709E+02  0.62730179089E+02  0.00000000000E+00 0. -1.
         11    1    4    4    0    0  0.56268875997E+02 -0.10310096966E+03  0.51131363566E+02  0.12810313303E+03  0.00000000000E+00 0.  1.
        -13    1    3    3    0    0  0.14192067513E+02  0.87352249025E+02 -0.59656128410E+02  0.10672714672E+03  0.00000000000E+00 0. -1.
         13    1    3    3    0    0 -0.33003993196E+02  0.16994397270E+02  0.13243262783E+02  0.39413920315E+02  0.00000000000E+00 0.  1.
          1    1    1    2  501    0 -0.73425799451E+01  0.30449449120E+02  0.16124275774E+03  0.16425683960E+03  0.00000000000E+00 0. -1.
<scales pt_clust_5="13000.00000" pt_clust_6="13000.00000" pt_clust_7="13000.00000" pt_clust_8="13000.00000" pt_clust_9="31.32224"></scales>
<clustering>
<clus scale="   31.322">  1  9  2 -1</clus>
<clus scale="   89.224">  7  8 -1 -1</clus>
<clus scale="   91.242">  5  6 -1 -1</clus>
<clus scale="  144.840">  2  7  1 -1</clus>
<clus scale="   31.322">  1  5  2 -1</clus>
</clustering>
</event>
<event>
 9    1  0.1315259E-005  0.1918520E+03  0.7546771E-02  0.1178721E+00
         -2   -1    0    0    0  501 -0.00000000000E+00  0.00000000000E+00  0.62542556409E+03  0.62542556409E+03  0.00000000000E+00 0.  1.
         21   -1    0    0  501  502  0.00000000000E+00 -0.00000000000E+00 -0.15368762458E+03  0.15368762458E+03  0.00000000000E+00 0.  1.
         23    2    1    2    0    0 -0.52595194214E+02 -0.54634393148E+02  0.17635771730E+03  0.21107191314E+03  0.87739026071E+02 0.  0.
         23    2    1    2    0    0 -0.41757631693E+02  0.18913459935E+03  0.33560085259E+03  0.39889500647E+03  0.94729601747E+02 0.  0.
        -11    1    3    3    0    0 -0.59286085972E+02 -0.44261189549E+01  0.12758016463E+03  0.14075201215E+03  0.00000000000E+00 0.  1.
         11    1    3    3    0    0  0.66908917580E+01 -0.50208274193E+02  0.48777552675E+02  0.70319900988E+02  0.00000000000E+00 0. -1.
        -13    1    4    4    0    0 -0.68289930399E+02  0.14178193342E+03  0.21312314008E+03  0.26492848861E+03  0.00000000000E+00 0.  1.
         13    1    4    4    0    0  0.26532298706E+02  0.47352665935E+02  0.12247771251E+03  0.13396651786E+03  0.00000000000E+00 0. -1.
         -2    1    1    2    0  502  0.94352825907E+02 -0.13450020620E+03 -0.40220630388E+02  0.16914626905E+03  0.00000000000E+00 0.  1.
<scales pt_clust_5="13000.00000" pt_clust_6="13000.00000" pt_clust_7="13000.00000" pt_clust_8="13000.00000" pt_clust_9="166.83373"></scales>
<clustering>
<clus scale="   87.739">  5  6 -1 -1</clus>
<clus scale="   94.730">  7  8 -1 -1</clus>
<clus scale="  115.971">  1  5  2 -1</clus>
<clus scale="  166.834">  2  9  1 -1</clus>
<clus scale="  166.834">  2  5  1 -1</clus>
</clustering>
</event>
<event>
 9    1  0.1315259E-005  0.1466875E+03  0.7546771E-02  0.1204645E+00
         21   -1    0    0  501  502  0.00000000000E+00  0.00000000000E+00  0.61262951200E+02  0.61262951200E+02  0.00000000000E+00 0. -1.
          2   -1    0    0  502    0 -0.00000000000E+00 -0.00000000000E+00 -0.10420227044E+04  0.10420227044E+04  0.00000000000E+00 0. -1.
         23    2    1    2    0    0 -0.94624993885E+02 -0.66868698931E+02 -0.84756908717E+03  0.86030528498E+03  0.91249731393E+02 0.  0.
         23    2    1    2    0    0  0.10337714514E+03  0.34909310212E+02 -0.45866289794E+02  0.14958042755E+03  0.91460886126E+02 0.  0.
        -11    1    3    3    0    0 -0.97995653615E+01  0.22172455973E+02 -0.12143152404E+03  0.12382755879E+03  0.00000000000E+00 0.  1.
         11    1    3    3    0    0 -0.84825428524E+02 -0.89041154904E+02 -0.72613756313E+03  0.73647772619E+03  0.00000000000E+00 0. -1.
        -11    1    4    4    0    0  0.35215200798E+02  0.44667781131E+02 -0.56189884778E+02  0.79953887897E+02  0.00000000000E+00 0. -1.
         11    1    4    4    0    0  0.68161944343E+02 -0.97584709191E+01  0.10323594984E+02  0.69626539658E+02  0.00000000000E+00 0.  1.
          2    1    1    2  501    0 -0.87521512561E+01  0.31959388719E+02 -0.87324376216E+02  0.93399943043E+02  0.00000000000E+00 0. -1.
<scales pt_clust_5="13000.00000" pt_clust_6="13000.00000" pt_clust_7="13000.00000" pt_clust_8="13000.00000" pt_clust_9="33.13614"></scales>
<clustering>
<clus scale="   33.136">  1  9  2 -1</clus>
<clus scale="   91.250">  5  6 -1 -1</clus>
<clus scale="   91.461">  7  8 -1 -1</clus>
<clus scale="  146.556">  2  5  1 -1</clus>
<clus scale="   33.136">  1  5  2 -1</clus>
</clustering>
</event>
<event>
 9    1  0.1315259E-005  0.9283759E+02  0.7546771E-02  0.1297015E+00
         21   -1    0    0  501  502  0.00000000000E+00  0.00000000000E+00  0.36721195358E+03  0.36721195358E+03  0.00000000000E+00 0. -1.
         -2   -1    0    0    0  501 -0.00000000000E+00 -0.00000000000E+00 -0.53960674574E+02  0.53960674574E+02  0.00000000000E+00 0.  1.
         23    2    1    2    0    0 -0.95255888022E+01  0.71030558971E+01  0.85750833064E+01  0.93447110036E+02  0.92291061730E+02 0.  0.
         23    2    1    2    0    0  0.10823467503E+02  0.17762545536E+02  0.20790889638E+03  0.22780608637E+03  0.90757084127E+02 0.  0.
        -11    1    3    3    0    0  0.29402706839E+02  0.33338254787E+02  0.12951191620E+02  0.46300019072E+02  0.00000000000E+00 0.  1.
         11    1    3    3    0    0 -0.38928295641E+02 -0.26235198890E+02 -0.43761083139E+01  0.47147090963E+02  0.00000000000E+00 0. -1.
        -13    1    4    4    0    0  0.49726001600E+02 -0.13850630382E+01  0.11231615058E+03  0.12283937201E+03  0.00000000000E+00 0.  1.
         13    1    4    4    0    0 -0.38902534097E+02  0.19147608574E+02  0.95592745802E+02  0.10496671436E+03  0.00000000000E+00 0. -1.
         -2    1    1    2    0  502 -0.12978787013E+01 -0.24865601433E+02  0.96767299316E+02  0.99919431747E+02  0.00000000000E+00 0.  1.
<scales pt_clust_5="13000.00000" pt_clust_6="13000.00000" pt_clust_7="13000.00000" pt_clust_8="13000.00000" pt_clust_9="24.89945"></scales>
<clustering>
<clus scale="   24.899">  1  9  2 -1</clus>
<clus scale="   90.757">  7  8 -1 -1</clus>
<clus scale="   91.313">  1  7  2 -1</clus>
<clus scale="   92.291">  5  6 -1 -1</clus>
<clus scale="   24.899">  1  5  2 -1</clus>
</clustering>
</event>
<event>
 9    1  0.1315259E-005  0.1711369E+03  0.7546771E-02  0.1176874E+00
         21   -1    0    0  501  502  0.00000000000E+00  0.00000000000E+00  0.25077499708E+03  0.25077499708E+03  0.00000000000E+00 0. -1.
          2   -1    0    0  502    0 -0.00000000000E+00 -0.00000000000E+00 -0.22814207430E+03  0.22814207430E+03  0.00000000000E+00 0. -1.
         23    2    1    2    0    0 -0.17635825864E+02 -0.13860065989E+03 -0.56914719732E+02  0.17694885130E+03  0.92468618347E+02 0.  0.
         23    2    1    2    0    0 -0.52602491054E+02  0.15905270936E+03  0.11290948551E+03  0.22156473720E+03  0.90981286148E+02 0.  0.
        -11    1    3    3    0    0 -0.52221876942E+02 -0.11221235901E+03 -0.46504908132E+02  0.13221741347E+03  0.00000000000E+00 0. -1.
         11    1    3    3    0    0  0.34586051078E+02 -0.26388300884E+02 -0.10409811600E+02  0.44731437829E+02  0.00000000000E+00 0.  1.
        -13    1    4    4    0    0  0.23607494515E+02  0.22623855799E+02  0.31312368996E+02  0.45272697077E+02  0.00000000000E+00 0.  1.
         13    1    4    4    0    0 -0.76209985570E+02  0.13642885356E+03  0.81597116516E+02  0.17629204012E+03  0.00000000000E+00 0. -1.
          2    1    1    2  501    0  0.70238316918E+02 -0.20452049471E+02 -0.33361842997E+02  0.80403482879E+02  0.00000000000E+00 0. -1.
<scales pt_clust_5="13000.00000" pt_clust_6="13000.00000" pt_clust_7="13000.00000" pt_clust_8="13000.00000" pt_clust_9="73.15540"></scales>
<clustering>
<clus scale="   73.155">  1  9  2 -1</clus>
<clus scale="   90.981">  7  8 -1 -1</clus>
<clus scale="   92.469">  5  6 -1 -1</clus>
<clus scale="  170.338">  1  7  2 -1</clus>
<clus scale="   73.155">  1  5  2 -1</clus>
</clustering>
</event>
<event>
 9    1  0.1315259E-005  0.1137072E+03  0.7546771E-02  0.1254225E+00
         21   -1    0    0  501  502  0.00000000000E+00  0.00000000000E+00  0.21336233719E+03  0.21336233719E+03  0.00000000000E+00 0. -1.
         -1   -1    0    0    0  501 -0.00000000000E+00 -0.00000000000E+00 -0.10533098766E+03  0.10533098766E+03  0.00000000000E+00 0.  1.
         23    2    1    2    0    0 -0.52229071453E+02 -0.25604655939E+02 -0.37553273279E+01  0.10877555058E+03  0.91839771397E+02 0.  0.
         23    2    1    2    0    0  0.93112040820E+02  0.32235877546E+01  0.91675576193E+02  0.15915572381E+03  0.90806880172E+02 0.  0.
        -11    1    4    4    0    0 -0.88570675339E+01 -0.21563070527E+02  0.27902483209E+02  0.36358798455E+02  0.00000000000E+00 0.  1.
         11    1    4    4    0    0  0.10196910835E+03  0.24786658281E+02  0.63773092984E+02  0.12279692535E+03  0.00000000000E+00 0. -1.
        -11    1    3    3    0    0 -0.72534284831E+02  0.54265765017E+00  0.94181090846E+01  0.73145182562E+02  0.00000000000E+00 0.  1.
         11    1    3    3    0    0  0.20305213378E+02 -0.26147313589E+02 -0.13173436412E+02  0.35630368019E+02  0.00000000000E+00 0. -1.
         -1    1    1    2    0  502 -0.40882969368E+02  0.22381068184E+02  0.20111100660E+02  0.50762050462E+02  0.00000000000E+00 0.  1.
<scales pt_clust_5="13000.00000" pt_clust_6="13000.00000" pt_clust_7="13000.00000" pt_clust_8="13000.00000" pt_clust_9="46.60825"></scales>
<clustering>
<clus scale="   46.608">  1  9  2 -1</clus>
<clus scale="   90.807">  5  6 -1 -1</clus>
<clus scale="   91.840">  7  8 -1 -1</clus>
<clus scale="  112.875">  1  5  2 -1</clus>
<clus scale="   46.608">  1  5  2 -1</clus>
</clustering>
</event>
<event>
 9    1  0.1315259E-005  0.1779271E+03  0.7546771E-02  0.1170172E+00
          1   -1    0    0  502    0 -0.00000000000E+00  0.00000000000E+00  0.27436236084E+03  0.27436236084E+03  0.00000000000E+00 0. -1.
         21   -1    0    0  501  502  0.00000000000E+00 -0.00000000000E+00 -0.54692328464E+03  0.54692328464E+03  0.00000000000E+00 0.  1.
         23    2    1    2    0    0  0.39037026372E+02  0.14657335737E+03  0.22364572430E+03  0.28521325360E+03  0.91222538401E+02 0.  0.
         23    2    1    2    0    0 -0.11805548593E+02 -0.14523478033E+03 -0.39726065706E+03  0.43343879937E+03  0.93918319584E+02 0.  0.
        -11    1    4    4    0    0 -0.30488174442E+00 -0.84352270805E+02 -0.10501836027E+03  0.13470061075E+03  0.00000000000E+00 0. -1.
         11    1    4    4    0    0 -0.11500666848E+02 -0.60882509521E+02 -0.29224229679E+03  0.29873818862E+03  0.00000000000E+00 0.  1.
        -11    1    3    3    0    0  0.33134322600E+02  0.10757259135E+02  0.19435274310E+02  0.39891500921E+02  0.00000000000E+00 0.  1.
         11    1    3    3    0    0  0.59027037713E+01  0.13581609824E+03  0.20421044999E+03  0.24532175268E+03  0.00000000000E+00 0. -1.
          1    1    1    2  501    0 -0.27231477779E+02 -0.13385770459E+01 -0.98945991039E+02  0.10263359252E+03  0.00000000000E+00 0. -1.
<scales pt_clust_5="13000.00000" pt_clust_6="13000.00000" pt_clust_7="13000.00000" pt_clust_8="13000.00000" pt_clust_9="27.26436"></scales>
<clustering>
<clus scale="   27.264">  2  9  1 -1</clus>
<clus scale="   91.223">  7  8 -1 -1</clus>
<clus scale="   93.918">  5  6 -1 -1</clus>
<clus scale="  176.519">  1  7  2 -1</clus>
<clus scale="   27.264">  2  5  1 -1</clus>
</clustering>
</event>
<event>
 9    1  0.1315259E-005  0.1703329E+03  0.7546771E-02  0.1193191E+00
         21   -1    0    0  501  502  0.00000000000E+00  0.00000000000E+00  0.13773505969E+03  0.13773505969E+03  0.00000000000E+00 0. -1.
          2   -1    0    0  502    0 -0.00000000000E+00 -0.00000000000E+00 -0.77361870656E+03  0.77361870656E+03  0.00000000000E+00 0. -1.
         23    2    1    2    0    0 -0.70021500312E+02 -0.36262368032E+02 -0.16789063055E+03  0.20642261891E+03  0.90581807957E+02 0.  0.
         23    2    1    2    0    0 -0.65850677559E+02  0.95558897072E+02 -0.52560232281E+03  0.54588348382E+03  0.90901934090E+02 0.  0.
        -13    1    3    3    0    0 -0.31602190663E+02 -0.62256165183E+02 -0.74232685528E+02  0.10190691909E+03  0.00000000000E+00 0.  1.
         13    1    3    3    0    0 -0.38419309649E+02  0.25993797152E+02 -0.93657945018E+02  0.10451569982E+03  0.00000000000E+00 0. -1.
        -13    1    4    4    0    0 -0.72567944433E+02  0.25343235649E+02 -0.27059999103E+03  0.28130542351E+03  0.00000000000E+00 0. -1.
         13    1    4    4    0    0  0.67172668741E+01  0.70215661423E+02 -0.25500233178E+03  0.26457806031E+03  0.00000000000E+00 0.  1.
          2    1    1    2  501    0  0.13587217787E+03 -0.59296529040E+02  0.57609306486E+02  0.15904766351E+03  0.00000000000E+00 0. -1.
<scales pt_clust_5="13000.00000" pt_clust_6="13000.00000" pt_clust_7="13000.00000" pt_clust_8="13000.00000" pt_clust_9="144.04913"></scales>
<clustering>
<clus scale="   90.582">  5  6 -1 -1</clus>
<clus scale="   90.902">  7  8 -1 -1</clus>
<clus scale="  120.096">  2  5  1 -1</clus>
<clus scale="  144.049">  1  9  2 -1</clus>
<clus scale="  144.049">  1  5  2 -1</clus>
</clustering>
</event>
<event>
 9    1  0.1315259E-005  0.9766574E+02  0.7546771E-02  0.1286286E+00
          2   -1    0    0  502    0 -0.00000000000E+00  0.00000000000E+00  0.43908051287E+03  0.43908051287E+03  0.00000000000E+00 0. -1.
         21   -1    0    0  501  502  0.00000000000E+00 -0.00000000000E+00 -0.61660359944E+02  0.61660359944E+02  0.00000000000E+00 0. -1.
         23    2    1    2    0    0 -0.16602548922E+02 -0.49699332770E+02  0.27527880831E+03  0.29474894283E+03  0.91393920397E+02 0.  0.
         23    2    1    2    0    0  0.47275427739E+01  0.68474829628E+01  0.12661218200E+03  0.15523645062E+03  0.89434184120E+02 0.  0.
        -13    1    3    3    0    0 -0.80113430540E+01 -0.75394315134E+02  0.22777157647E+03  0.24005910818E+03  0.00000000000E+00 0. -1.
         13    1    3    3    0    0 -0.85912058680E+01  0.25694982364E+02  0.47507231839E+02  0.54689834649E+02  0.00000000000E+00 0.  1.
        -13    1    4    4    0    0 -0.39848266852E+02  0.14299823059E+02  0.43938439337E+02  0.61016028730E+02  0.00000000000E+00 0. -1.
         13    1    4    4    0    0  0.44575809626E+02 -0.74523400958E+01  0.82673742659E+02  0.94220421894E+02  0.00000000000E+00 0.  1.
          2    1    1    2  501    0  0.11875006148E+02  0.42851849807E+02 -0.24470837381E+02  0.50755479360E+02  0.00000000000E+00 0. -1.
<scales pt_clust_5="13000.00000" pt_clust_6="13000.00000" pt_clust_7="13000.00000" pt_clust_8="13000.00000" pt_clust_9="44.46681"></scales>
<clustering>
<clus scale="   44.467">  2  9  1 -1</clus>
<clus scale="   89.434">  7  8 -1 -1</clus>
<clus scale="   91.394">  5  6 -1 -1</clus>
<clus scale="   95.834">  2  7  1 -1</clus>
<clus scale="   44.467">  2  5  1 -1</clus>
</clustering>
</event>
<event>
 9    1  0.1315259E-005  0.1748032E+03  0.7546771E-02  0.1174351E+00
         21   -1    0    0  501  502  0.00000000000E+00  0.00000000000E+00  0.16558423559E+03  0.16558423559E+03  0.00000000000E+00 0. -1.
          1   -1    0    0  502    0 -0.00000000000E+00 -0.00000000000E+00 -0.45807392455E+03  0.45807392455E+03  0.00000000000E+00 0. -1.
         23    2    1    2    0    0  0.28887190437E+02  0.16138300983E+03 -0.32723736556E+03  0.37637334216E+03  0.87713474664E+02 0.  0.
         23    2    1    2    0    0 -0.11397382561E+02 -0.10279980600E+03 -0.42571092900E+02  0.14871465380E+03  0.98010457909E+02 0.  0.
        -11    1    3    3    0    0 -0.20264838026E+02  0.76798154761E+01 -0.64430315023E+02  0.67977266199E+02  0.00000000000E+00 0.  1.
         11    1    3    3    0    0  0.49152028464E+02  0.15370319435E+03 -0.26280705054E+03  0.30839607596E+03  0.00000000000E+00 0. -1.
        -13    1    4    4    0    0  0.18667354983E+02 -0.10945534912E+03 -0.27296739671E+02  0.11434183656E+03  0.00000000000E+00 0. -1.
         13    1    4    4    0    0 -0.30064737545E+02  0.66555431150E+01 -0.15274353229E+02  0.34372817230E+02  0.00000000000E+00 0.  1.
          1    1    1    2  501    0 -0.17489807876E+02 -0.58583203826E+02  0.77318769496E+02  0.98570164180E+02  0.00000000000E+00 0. -1.
<scales pt_clust_5="13000.00000" pt_clust_6="13000.00000" pt_clust_7="13000.00000" pt_clust_8="13000.00000" pt_clust_9="61.13825"></scales>
<clustering>
<clus scale="   61.138">  1  9  2 -1</clus>
<clus scale="   87.713">  5  6 -1 -1</clus>
<clus scale="   98.010">  7  8 -1 -1</clus>
<clus scale="  169.245">  2  5  1 -1</clus>
<clus scale="   61.138">  1  5  2 -1</clus>
</clustering>
</event>
<event>
 9    1  0.1315259E-005  0.9266706E+02  0.7546771E-02  0.1296693E+00
          3   -1    0    0  502    0 -0.00000000000E+00  0.00000000000E+00  0.17913280320E+03  0.17913280320E+03  0.00000000000E+00 0. -1.
         21   -1    0    0  501  502  0.00000000000E+00 -0.00000000000E+00 -0.75322314385E+02  0.75322314385E+02  0.00000000000E+00 0.  1.
         23    2    1    2    0    0 -0.20827633470E+02  0.25911831048E+02  0.75273623598E+02  0.12192263812E+03  0.89965537689E+02 0.  0.
         23    2    1    2    0    0  0.45645586628E+01 -0.82948219950E+01  0.47555132945E+02  0.10192952017E+03  0.89657666408E+02 0.  0.
        -11    1    3    3    0    0  0.15943124728E+02 -0.25430119713E+02  0.38595891085E+02  0.48892913836E+02  0.00000000000E+00 0. -1.
         11    1    3    3    0    0 -0.36770758198E+02  0.51341950761E+02  0.36677732512E+02  0.73029724281E+02  0.00000000000E+00 0.  1.
        -13    1    4    4    0    0 -0.26301544491E+02  0.14902037032E+01  0.61324521673E+02  0.66743455919E+02  0.00000000000E+00 0.  1.
         13    1    4    4    0    0  0.30866103154E+02 -0.97850256982E+01 -0.13769388727E+02  0.35186064255E+02  0.00000000000E+00 0. -1.
          3    1    1    2  501    0  0.16263074807E+02 -0.17617009053E+02 -0.19018267728E+02  0.30602959294E+02  0.00000000000E+00 0. -1.
<scales pt_clust_5="13000.00000" pt_clust_6="13000.00000" pt_clust_7="13000.00000" pt_clust_8="13000.00000" pt_clust_9="23.97596"></scales>
<clustering>
<clus scale="   23.976">  2  9  1 -1</clus>
<clus scale="   89.658">  7  8 -1 -1</clus>
<clus scale="   89.966">  5  6 -1 -1</clus>
<clus scale="   92.368">  2  7  1 -1</clus>
<clus scale="   23.976">  2  5  1 -1</clus>
</clustering>
</event>
<event>
 9    1  0.1315259E-005  0.9817815E+02  0.7546771E-02  0.1285068E+00
         21   -1    0    0  501  502  0.00000000000E+00  0.00000000000E+00  0.16898500655E+03  0.16898500655E+03  0.00000000000E+00 0. -1.
          1   -1    0    0  502    0 -0.00000000000E+00 -0.00000000000E+00 -0.25343729040E+03  0.25343729040E+03  0.00000000000E+00 0. -1.
         23    2    1    2    0    0 -0.21367667590E+02 -0.99658475403E+01 -0.12182486962E+03  0.15475725359E+03  0.92480340311E+02 0.  0.
         23    2    1    2    0    0  0.68616368086E+01  0.59957863959E+02 -0.82697624425E+02  0.13679685772E+03  0.90732880962E+02 0.  0.
        -11    1    3    3    0    0 -0.39272672674E+02  0.31419904361E+02 -0.66754759643E+02  0.83580806074E+02  0.00000000000E+00 0. -1.
         11    1    3    3    0    0  0.17905005083E+02 -0.41385751902E+02 -0.55070109979E+02  0.71176447513E+02  0.00000000000E+00 0.  1.
        -13    1    4    4    0    0 -0.41845957387E+02  0.31065677111E+02 -0.35286172366E+02  0.62938655882E+02  0.00000000000E+00 0.  1.
         13    1    4    4    0    0  0.48707594195E+02  0.28892186847E+02 -0.47411452059E+02  0.73858201843E+02  0.00000000000E+00 0. -1.
          1    1    1    2  501    0  0.14506030782E+02 -0.49992016418E+02  0.12007021020E+03  0.13086818564E+03  0.00000000000E+00 0. -1.
<scales pt_clust_5="13000.00000" pt_clust_6="13000.00000" pt_clust_7="13000.00000" pt_clust_8="13000.00000" pt_clust_9="52.05407"></scales>
<clustering>
<clus scale="   52.054">  1  9  2 -1</clus>
<clus scale="   90.733">  7  8 -1 -1</clus>
<clus scale="   92.480">  5  6 -1 -1</clus>
<clus scale="   96.534">  1  7  2 -1</clus>
<clus scale="   52.054">  1  5  2 -1</clus>
</clustering>
</event>
<event>
 9    1  0.1315259E-005  0.1262115E+03  0.7546771E-02  0.1234009E+00
         21   -1    0    0  501  502  0.00000000000E+00  0.00000000000E+00  0.12962695929E+03  0.12962695929E+03  0.00000000000E+00 0. -1.
          1   -1    0    0  502    0 -0.00000000000E+00 -0.00000000000E+00 -0.59629459582E+03  0.59629459582E+03  0.00000000000E+00 0. -1.
         23    2    1    2    0    0  0.86020471933E+02 -0.50613050231E+02 -0.50707787717E+03  0.52480523865E+03  0.91276297860E+02 0.  0.
         23    2    1    2    0    0 -0.42184851305E+02 -0.29966860393E+01 -0.29927519471E+02  0.10240985287E+03  0.88337872604E+02 0.  0.
        -11    1    3    3    0    0  0.55001922740E+02 -0.73990492892E+02 -0.29071581119E+03  0.30498440521E+03  0.00000000000E+00 0.  1.
         11    1    3    3    0    0  0.31018549193E+02  0.23377442660E+02 -0.21636206598E+03  0.21982083344E+03  0.00000000000E+00 0. -1.
        -13    1    4    4    0    0  0.80220456491E+01 -0.21026105079E+02 -0.42059541133E+02  0.47701732793E+02  0.00000000000E+00 0. -1.
         13    1    4    4    0    0 -0.50206896954E+02  0.18029419039E+02  0.12132021662E+02  0.54708120076E+02  0.00000000000E+00 0.  1.
          1    1    1    2  501    0 -0.43835620628E+02  0.53609736271E+02  0.70337760113E+02  0.98706463601E+02  0.00000000000E+00 0. -1.
<scales pt_clust_5="13000.00000" pt_clust_6="13000.00000" pt_clust_7="13000.00000" pt_clust_8="13000.00000" pt_clust_9="69.25002"></scales>
<clustering>
<clus scale="   69.250">  1  9  2 -1</clus>
<clus scale="   88.338">  7  8 -1 -1</clus>
<clus scale="   91.276">  5  6 -1 -1</clus>
<clus scale="  124.103">  1  7  2 -1</clus>
<clus scale="   69.250">  1  5  2 -1</clus>
</clustering>
</event>
<event>
 9    1  0.1315259E-005  0.2157200E+03  0.7546771E-02  0.1159365E+00
         21   -1    0    0  501  502  0.00000000000E+00  0.00000000000E+00  0.49668509812E+03  0.49668509812E+03  0.00000000000E+00 0. -1.
          1   -1    0    0  502    0 -0.00000000000E+00 -0.00000000000E+00 -0.24311559034E+03  0.24311559034E+03  0.00000000000E+00 0. -1.
         23    2    1    2    0    0  0.63456386457E+02  0.61355360050E+02 -0.34129263477E+02  0.13161617910E+03  0.91470316416E+02 0.  0.
         23    2    1    2    0    0  0.14165204256E+03 -0.23632313656E+02 -0.78502555631E+02  0.18676321459E+03  0.89966992142E+02 0.  0.
        -13    1    3    3    0    0 -0.87766747730E+01  0.27604127292E+02  0.20043142706E+02  0.35224216573E+02  0.00000000000E+00 0.  1.
         13    1    3    3    0    0  0.72233061230E+02  0.33751232758E+02 -0.54172406183E+02  0.96391962523E+02  0.00000000000E+00 0. -1.
        -13    1    4    4    0    0  0.38229496621E+02  0.30147828701E+02 -0.49718610590E+01  0.48939813952E+02  0.00000000000E+00 0.  1.
         13    1    4    4    0    0  0.10342254593E+03 -0.53780142357E+02 -0.73530694572E+02  0.13782340064E+03  0.00000000000E+00 0. -1.
          1    1    1    2  501    0 -0.20510842901E+03 -0.37723046394E+02  0.36620132688E+03  0.42142129477E+03  0.00000000000E+00 0. -1.
<scales pt_clust_5="13000.00000" pt_clust_6="13000.00000" pt_clust_7="13000.00000" pt_clust_8="13000.00000" pt_clust_9="196.06394"></scales>
<clustering>
<clus scale="   89.967">  7  8 -1 -1</clus>
<clus scale="   91.470">  5  6 -1 -1</clus>
<clus scale="  127.114">  2  5  1 -1</clus>
<clus scale="  196.064">  1  9  2 -1</clus>
<clus scale="  196.064">  1  5  2 -1</clus>
</clustering>
</event>
<event>
 9    1  0.1315259E-005  0.1415486E+03  0.7546771E-02  0.1213161E+00
         21   -1    0    0  501  502  0.00000000000E+00  0.00000000000E+00  0.97817013398E+03  0.97817013398E+03  0.00000000000E+00 0. -1.
         -1   -1    0    0    0  501 -0.00000000000E+00 -0.00000000000E+00 -0.39465258018E+02  0.39465258018E+02  0.00000000000E+00 0.  1.
         23    2    1    2    0    0 -0.89364912529E+02  0.42984882607E+01  0.19632580752E+03  0.23407634949E+03  0.90792896745E+02 0.  0.
         23    2    1    2    0    0  0.13825670089E+03 -0.18881737510E+02  0.68816128045E+03  0.70911008911E+03  0.98993611971E+02 0.  0.
        -11    1    4    4    0    0  0.34606538900E+02  0.35693257554E+02  0.13980017766E+03  0.14837692153E+03  0.00000000000E+00 0.  1.
         11    1    4    4    0    0  0.10365016199E+03 -0.54574995064E+02  0.54836110279E+03  0.56073316757E+03  0.00000000000E+00 0. -1.
        -11    1    3    3    0    0 -0.11449366201E+02  0.39429214859E+02  0.50914509427E+02  0.65406714036E+02  0.00000000000E+00 0. -1.
         11    1    3    3    0    0 -0.77915546328E+02 -0.35130726598E+02  0.14541129809E+03  0.16866963545E+03  0.00000000000E+00 0.  1.
         -1    1    1    2    0  502 -0.48891788361E+02  0.14583249250E+02  0.54217787999E+02  0.74448953406E+02  0.00000000000E+00 0.  1.
<scales pt_clust_5="13000.00000" pt_clust_6="13000.00000" pt_clust_7="13000.00000" pt_clust_8="13000.00000" pt_clust_9="51.02040"></scales>
<clustering>
<clus scale="   51.020">  1  9  2 -1</clus>
<clus scale="   90.793">  7  8 -1 -1</clus>
<clus scale="   98.994">  5  6 -1 -1</clus>
<clus scale="  135.940">  2  7  1 -1</clus>
<clus scale="   51.020">  1  5  2 -1</clus>
</clustering>
</event>
<event>
 9    1  0.1315259E-005  0.9339882E+02  0.7546771E-02  0.1296151E+00
         21   -1    0    0  501  502  0.00000000000E+00  0.00000000000E+00  0.56429107178E+02  0.56429107178E+02  0.00000000000E+00 0.  1.
          1   -1    0    0  502    0 -0.00000000000E+00 -0.00000000000E+00 -0.23064529937E+03  0.23064529937E+03  0.00000000000E+00 0. -1.
         23    2    1    2    0    0  0.34963647527E+01 -0.18074690110E+02 -0.12438500653E+03  0.15639038513E+03  0.92991417466E+02 0.  0.
         23    2    1    2    0    0  0.26899131045E+01 -0.69389766469E+01 -0.52009836186E+02  0.10482478561E+03  0.90707373393E+02 0.  0.
        -13    1    3    3    0    0 -0.27602968733E+02 -0.44680430435E+02 -0.56639045673E+02  0.77241480058E+02  0.00000000000E+00 0.  1.
         13    1    3    3    0    0  0.31099333486E+02  0.26605740325E+02 -0.67745960861E+02  0.79148905075E+02  0.00000000000E+00 0. -1.
        -13    1    4    4    0    0 -0.23349946505E+02  0.33857844674E+02 -0.33359175511E+02  0.52956663778E+02  0.00000000000E+00 0.  1.
         13    1    4    4    0    0  0.26039859610E+02 -0.40796821321E+02 -0.18650660675E+02  0.51868121828E+02  0.00000000000E+00 0. -1.
          1    1    1    2  501    0 -0.61862778571E+01  0.25013666757E+02  0.21786505306E+01  0.25859235806E+02  0.00000000000E+00 0. -1.
<scales pt_clust_5="13000.00000" pt_clust_6="13000.00000" pt_clust_7="13000.00000" pt_clust_8="13000.00000" pt_clust_9="25.76730"></scales>
<clustering>
<clus scale="   25.767">  1  9  2 -1</clus>
<clus scale="   90.707">  7  8 -1 -1</clus>
<clus scale="   91.125">  1  7  2 -1</clus>
<clus scale="   92.991">  5  6 -1 -1</clus>
<clus scale="   25.767">  1  5  2 -1</clus>
</clustering>
</event>
<event>
 9    1  0.1315259E-005  0.1818339E+03  0.7546771E-02  0.1185188E+00
         -2   -1    0    0    0  501 -0.00000000000E+00  0.00000000000E+00  0.55937290136E+03  0.55937290136E+03  0.00000000000E+00 0.  1.
         21   -1    0    0  501  502  0.00000000000E+00 -0.00000000000E+00 -0.12834665599E+03  0.12834665599E+03  0.00000000000E+00 0.  1.
         23    2    1    2    0    0 -0.19649505520E+02  0.72781503319E+02  0.12875803279E+03  0.17454301109E+03  0.90572520227E+02 0.  0.
         23    2    1    2    0    0  0.14119499613E+03  0.59983637677E+02  0.21924117779E+02  0.18002087628E+03  0.91612145673E+02 0.  0.
        -11    1    4    4    0    0  0.22909890984E+02  0.53056024599E+02 -0.65462642708E+01  0.58160626089E+02  0.00000000000E+00 0.  1.
         11    1    4    4    0    0  0.11828510514E+03  0.69276130775E+01  0.28470382050E+02  0.12186025019E+03  0.00000000000E+00 0. -1.
        -11    1    3    3    0    0 -0.39491295467E+02 -0.20066434003E+01  0.54201145765E+02  0.67092125004E+02  0.00000000000E+00 0. -1.
         11    1    3    3    0    0  0.19841789947E+02  0.74788146719E+02  0.74556887023E+02  0.10745088609E+03  0.00000000000E+00 0.  1.
         -2    1    1    2    0  502 -0.12154549061E+03 -0.13276514100E+03  0.28034409481E+03  0.33315566998E+03  0.00000000000E+00 0.  1.
<scales pt_clust_5="13000.00000" pt_clust_6="13000.00000" pt_clust_7="13000.00000" pt_clust_8="13000.00000" pt_clust_9="157.06944"></scales>
<clustering>
<clus scale="   90.573">  7  8 -1 -1</clus>
<clus scale="   91.612">  5  6 -1 -1</clus>
<clus scale="  117.842">  1  7  2 -1</clus>
<clus scale="  157.069">  2  9  1 -1</clus>
<clus scale="  157.069">  2  5  1 -1</clus>
</clustering>
</event>
<event>
 9    1  0.1315259E-005  0.1484035E+03  0.7546771E-02  0.1202626E+00
         21   -1    0    0  501  502  0.00000000000E+00  0.00000000000E+00  0.28333992018E+03  0.28333992018E+03  0.00000000000E+00 0.  1.
          1   -1    0    0  502    0 -0.00000000000E+00 -0.00000000000E+00 -0.18430811113E+03  0.18430811113E+03  0.00000000000E+00 0. -1.
         23    2    1    2    0    0 -0.10447386985E+03 -0.59605823416E+02 -0.10069624014E+03  0.18091207012E+03  0.90121033451E+02 0.  0.
         23    2    1    2    0    0  0.67185552516E+02  0.92350470971E+02  0.10528789868E+03  0.18005150786E+03  0.91052160440E+02 0.  0.
        -11    1    3    3    0    0 -0.74480968313E+02 -0.14345670547E+02 -0.11823507433E+02  0.76765931456E+02  0.00000000000E+00 0.  1.
         11    1    3    3    0    0 -0.29992901540E+02 -0.45260152868E+02 -0.88872732703E+02  0.10414613866E+03  0.00000000000E+00 0. -1.
        -11    1    4    4    0    0  0.40430136232E+02  0.10504803166E+03  0.98717607211E+02  0.14971590044E+03  0.00000000000E+00 0.  1.
         11    1    4    4    0    0  0.26755416284E+02 -0.12697560686E+02  0.65702914668E+01  0.30335607425E+02  0.00000000000E+00 0. -1.
          1    1    1    2  501    0  0.37288317337E+02 -0.32744647556E+02  0.94440150509E+02  0.10668445333E+03  0.00000000000E+00 0. -1.
<scales pt_clust_5="13000.00000" pt_clust_6="13000.00000" pt_clust_7="13000.00000" pt_clust_8="13000.00000" pt_clust_9="49.62490"></scales>
<clustering>
<clus scale="   49.625">  1  9  2 -1</clus>
<clus scale="   90.121">  5  6 -1 -1</clus>
<clus scale="   91.052">  7  8 -1 -1</clus>
<clus scale="  147.834">  2  5  1 -1</clus>
<clus scale="   49.625">  1  5  2 -1</clus>
</clustering>
</event>
<event>
 9    1  0.1315259E-005  0.1298970E+03  0.7546771E-02  0.1228052E+00
          4   -1    0    0  502    0 -0.00000000000E+00  0.00000000000E+00  0.88450279917E+02  0.88450279917E+02  0.00000000000E+00 0. -1.
         21   -1    0    0  501  502  0.00000000000E+00 -0.00000000000E+00 -0.47440004900E+03  0.47440004900E+03  0.00000000000E+00 0. -1.
         23    2    1    2    0    0  0.52905404336E+01 -0.92162297498E+02 -0.64443580733E+02  0.14369649405E+03  0.89296295597E+02 0.  0.
         23    2    1    2    0    0 -0.84429874595E+02  0.71777318001E+02 -0.80008215137E+02  0.16420314813E+03  0.90999847597E+02 0.  0.
        -11    1    4    4    0    0 -0.73716450532E+01  0.34985429272E+02  0.12904624912E+02  0.38011192513E+02  0.00000000000E+00 0.  1.
         11    1    4    4    0    0 -0.77058229542E+02  0.36791888728E+02 -0.92912840048E+02  0.12619195562E+03  0.00000000000E+00 0. -1.
        -13    1    3    3    0    0  0.40454288709E+02 -0.18182600642E+02 -0.10377367685E+02  0.45550479702E+02  0.00000000000E+00 0.  1.
         13    1    3    3    0    0 -0.35163748275E+02 -0.73979696856E+02 -0.54066213048E+02  0.98146014351E+02  0.00000000000E+00 0. -1.
          4    1    1    2  501    0  0.79139334161E+02  0.20384979497E+02 -0.24149797321E+03  0.25495068673E+03  0.00000000000E+00 0. -1.
<scales pt_clust_5="13000.00000" pt_clust_6="13000.00000" pt_clust_7="13000.00000" pt_clust_8="13000.00000" pt_clust_9="81.72259"></scales>
<clustering>
<clus scale="   81.723">  2  9  1 -1</clus>
<clus scale="   89.296">  7  8 -1 -1</clus>
<clus scale="   91.000">  5  6 -1 -1</clus>
<clus scale="  128.709">  1  7  2 -1</clus>
<clus scale="   81.723">  2  5  1 -1</clus>
</clustering>
</event>
<event>
 9    1  0.1315259E-005  0.2374784E+03  0.7546771E-02  0.1121617E+00
          2   -1    0    0  502    0 -0.00000000000E+00  0.00000000000E+00  0.95626582548E+03  0.95626582548E+03  0.00000000000E+00 0. -1.
         21   -1    0    0  501  502  0.00000000000E+00 -0.00000000000E+00 -0.11838428906E+03  0.11838428906E+03  0.00000000000E+00 0. -1.
         23    2    1    2    0    0  0.15478136040E+03 -0.13535422795E+03  0.47988419184E+03  0.52973240606E+03  0.89719272795E+02 0.  0.
         23    2    1    2    0    0 -0.26153400864E+03  0.79090513240E+02  0.22767707090E+03  0.36730828521E+03  0.91777888474E+02 0.  0.
        -11    1    4    4    0    0 -0.20193332578E+03  0.54482718156E+02  0.11817248006E+03  0.24022941053E+03  0.00000000000E+00 0. -1.
         11    1    4    4    0    0 -0.59600682855E+02  0.24607795084E+02  0.10950459084E+03  0.12707887469E+03  0.00000000000E+00 0.  1.
        -13    1    3    3    0    0  0.11239332963E+03 -0.40335600156E+02  0.27971565406E+03  0.30413823882E+03  0.00000000000E+00 0.  1.
         13    1    3    3    0    0  0.42388030766E+02 -0.95018627793E+02  0.20016853777E+03  0.22559416724E+03  0.00000000000E+00 0. -1.
          2    1    1    2  501    0  0.10675264824E+03  0.56263714709E+02  0.13032027368E+03  0.17760942326E+03  0.00000000000E+00 0. -1.
<scales pt_clust_5="13000.00000" pt_clust_6="13000.00000" pt_clust_7="13000.00000" pt_clust_8="13000.00000" pt_clust_9="120.67201"></scales>
<clustering>
<clus scale="   89.719">  7  8 -1 -1</clus>
<clus scale="   91.778">  5  6 -1 -1</clus>
<clus scale="  120.672">  2  9  1 -1</clus>
<clus scale="  236.690">  1  7  2 -1</clus>
<clus scale="  120.672">  2  5  1 -1</clus>
</clustering>
</event>
<event>
 9    1  0.1315259E-005  0.9295335E+02  0.7546771E-02  0.1296043E+00
         21   -1    0    0  501  502  0.00000000000E+00  0.00000000000E+00  0.63196603716E+02  0.63196603716E+02  0.00000000000E+00 0.  1.
          4   -1    0    0  502    0 -0.00000000000E+00 -0.00000000000E+00 -0.19010905049E+03  0.19010905049E+03  0.00000000000E+00 0. -1.
         23    2    1    2    0    0 -0.18648036730E+02 -0.22473621496E+01 -0.55870251471E+02  0.10857593886E+03  0.91183603733E+02 0.  0.
         23    2    1    2    0    0  0.14647738629E+01  0.27887811290E+02 -0.56928813727E+02  0.11079028850E+03  0.90850000621E+02 0.  0.
        -13    1    4    4    0    0  0.20826878277E+02 -0.25706572691E+02 -0.38802134026E+02  0.50992081182E+02  0.00000000000E+00 0. -1.
         13    1    4    4    0    0 -0.19362104414E+02  0.53594383980E+02 -0.18126679701E+02  0.59798207319E+02  0.00000000000E+00 0.  1.
        -13    1    3    3    0    0  0.12250671563E+01 -0.27915251939E+02 -0.68316334357E+02  0.73809779978E+02  0.00000000000E+00 0. -1.
         13    1    3    3    0    0 -0.19873103886E+02  0.25667889790E+02  0.12446082886E+02  0.34766158884E+02  0.00000000000E+00 0.  1.
          4    1    1    2  501    0  0.17183262867E+02 -0.25640449140E+02 -0.14113381573E+02  0.33939426841E+02  0.00000000000E+00 0. -1.
<scales pt_clust_5="13000.00000" pt_clust_6="13000.00000" pt_clust_7="13000.00000" pt_clust_8="13000.00000" pt_clust_9="30.86579"></scales>
<clustering>
<clus scale="   30.866">  1  9  2 -1</clus>
<clus scale="   90.850">  5  6 -1 -1</clus>
<clus scale="   91.184">  7  8 -1 -1</clus>
<clus scale="   92.626">  1  5  2 -1</clus>
<clus scale="   30.866">  1  5  2 -1</clus>
</clustering>
</event>
<event>
 9    1  0.1315259E-005  0.1361303E+03  0.7546771E-02  0.1219873E+00
         21   -1    0    0  501  502  0.00000000000E+00  0.00000000000E+00  0.20864231091E+03  0.20864231091E+03  0.00000000000E+00 0.  1.
         -4   -1    0    0    0  501 -0.00000000000E+00 -0.00000000000E+00 -0.25586580679E+03  0.25586580679E+03  0.00000000000E+00 0.  1.
         23    2    1    2    0    0 -0.52054902451E+02 -0.81057757895E+02 -0.18512620251E+03  0.23056503168E+03  0.98022701421E+02 0.  0.
         23    2    1    2    0    0  0.15698273560E+02  0.91068872188E+02  0.53808806084E+02  0.14178121223E+03  0.93094303014E+02 0.  0.
        -11    1    3    3    0    0 -0.76699083883E+02 -0.76127848862E+02 -0.12404574529E+03  0.16451609576E+03  0.00000000000E+00 0.  1.
         11    1    3    3    0    0  0.24644181432E+02 -0.49299090331E+01 -0.61080457221E+02  0.66048935918E+02  0.00000000000E+00 0. -1.
        -13    1    4    4    0    0 -0.16517341216E+02  0.96280714775E+02  0.33155964885E+02  0.10316063496E+03  0.00000000000E+00 0.  1.
         13    1    4    4    0    0  0.32215614776E+02 -0.52118425871E+01  0.20652841199E+02  0.38620577263E+02  0.00000000000E+00 0. -1.
         -4    1    1    2    0  502  0.36356628891E+02 -0.10011114293E+02  0.84093900536E+02  0.92161873793E+02  0.00000000000E+00 0.  1.
<scales pt_clust_5="13000.00000" pt_clust_6="13000.00000" pt_clust_7="13000.00000" pt_clust_8="13000.00000" pt_clust_9="37.70977"></scales>
<clustering>
<clus scale="   37.710">  1  9  2 -1</clus>
<clus scale="   93.094">  7  8 -1 -1</clus>
<clus scale="   98.023">  5  6 -1 -1</clus>
<clus scale="  132.626">  1  7  2 -1</clus>
<clus scale="   37.710">  1  5  2 -1</clus>
</clustering>
</event>
<event>
 9    1  0.1315259E-005  0.9452153E+02  0.7546771E-02  0.1295318E+00
         21   -1    0    0  501  502  0.00000000000E+00  0.00000000000E+00  0.15847684868E+03  0.15847684868E+03  0.00000000000E+00 0.  1.
         -2   -1    0    0    0  501 -0.00000000000E+00 -0.00000000000E+00 -0.17127553009E+03  0.17127553009E+03  0.00000000000E+00 0.  1.
         23    2    1    2    0    0 -0.20396945478E+02  0.16845255899E+02 -0.77049078851E+02  0.12184382280E+03  0.90606614393E+02 0.  0.
         23    2    1    2    0    0  0.34689578038E+02  0.10810157441E+02 -0.38722087136E+02  0.10033330876E+03  0.85130173770E+02 0.  0.
        -11    1    3    3    0    0 -0.22241798816E+02 -0.31754233261E+02 -0.57671286533E+02  0.69491051474E+02  0.00000000000E+00 0. -1.
         11    1    3    3    0    0  0.18448533381E+01  0.48599489160E+02 -0.19377792318E+02  0.52352771327E+02  0.00000000000E+00 0.  1.
        -13    1    4    4    0    0  0.26829774087E+02 -0.25369247575E+02  0.10827566329E+02  0.38479497043E+02  0.00000000000E+00 0. -1.
         13    1    4    4    0    0  0.78598039515E+01  0.36179405016E+02 -0.49549653465E+02  0.61853811717E+02  0.00000000000E+00 0.  1.
         -2    1    1    2    0  502 -0.14292632560E+02 -0.27655413340E+02  0.10297248457E+03  0.10757524721E+03  0.00000000000E+00 0.  1.
<scales pt_clust_5="13000.00000" pt_clust_6="13000.00000" pt_clust_7="13000.00000" pt_clust_8="13000.00000" pt_clust_9="31.13039"></scales>
<clustering>
<clus scale="   31.130">  1  9  2 -1</clus>
<clus scale="   85.130">  7  8 -1 -1</clus>
<clus scale="   89.286">  1  7  2 -1</clus>
<clus scale="   90.607">  5  6 -1 -1</clus>
<clus scale="   31.130">  1  5  2 -1</clus>
</clustering>
</event>
<event>
 9    1  0.1315259E-005  0.1219256E+03  0.7546771E-02  0.1240170E+00
         21   -1    0    0  501  502  0.00000000000E+00  0.00000000000E+00  0.12057561982E+03  0.12057561982E+03  0.00000000000E+00 0.  1.
         -2   -1    0    0    0  501 -0.00000000000E+00 -0.00000000000E+00 -0.28689452298E+03  0.28689452298E+03  0.00000000000E+00 0.  1.
         23    2    1    2    0    0 -0.30754739807E+01 -0.67669328637E+02 -0.10826228699E+03  0.15603538851E+03  0.89653349658E+02 0.  0.
         23    2    1    2    0    0 -0.17630487449E+02  0.13319616589E+03  0.54383938947E+00  0.16112131880E+03  0.88925423341E+02 0.  0.
        -11    1    4    4    0    0  0.10737484620E+02  0.10231729857E+03 -0.32330198859E+02  0.10783953320E+03  0.00000000000E+00 0. -1.
         11    1    4    4    0    0 -0.28367972069E+02  0.30878867318E+02  0.32874038248E+02  0.53281785601E+02  0.00000000000E+00 0.  1.
        -13    1    3    3    0    0  0.13252163811E+02  0.18372455735E+02 -0.11091528296E+02  0.25222786828E+02  0.00000000000E+00 0. -1.
         13    1    3    3    0    0 -0.16327637791E+02 -0.86041784373E+02 -0.97170758691E+02  0.13081260168E+03  0.00000000000E+00 0.  1.
         -2    1    1    2    0  502  0.20705961430E+02 -0.65526837252E+02 -0.58600455555E+02  0.90313435491E+02  0.00000000000E+00 0.  1.
<scales pt_clust_5="13000.00000" pt_clust_6="13000.00000" pt_clust_7="13000.00000" pt_clust_8="13000.00000" pt_clust_9="68.72051"></scales>
<clustering>
<clus scale="   68.721">  1  9  2 -1</clus>
<clus scale="   88.925">  5  6 -1 -1</clus>
<clus scale="   89.653">  7  8 -1 -1</clus>
<clus scale="  121.391">  1  5  2 -1</clus>
<clus scale="   68.721">  1  5  2 -1</clus>
</clustering>
</event>
<event>
 9    1  0.1315259E-005  0.3609049E+03  0.7546771E-02  0.1058253E+00
         21   -1    0    0  501  502  0.00000000000E+00  0.00000000000E+00  0.15562536824E+03  0.15562536824E+03  0.00000000000E+00 0. -1.
          1   -1    0    0  502    0 -0.00000000000E+00 -0.00000000000E+00 -0.10523765895E+04  0.10523765895E+04  0.00000000000E+00 0. -1.
         23    2    1    2    0    0 -0.33546917105E+03  0.27259170632E+02 -0.55655246591E+03  0.65674927020E+03  0.91029278160E+02 0.  0.
         23    2    1    2    0    0  0.37007604997E+03 -0.20376305019E+02 -0.34663807699E+03  0.51538522633E+03  0.89958315530E+02 0.  0.
        -13    1    3    3    0    0 -0.26856052283E+03  0.50317089665E+02 -0.39412463498E+03  0.47957355206E+03  0.00000000000E+00 0. -1.
         13    1    3    3    0    0 -0.66908648221E+02 -0.23057919034E+02 -0.16242783093E+03  0.17717571814E+03  0.00000000000E+00 0.  1.
        -13    1    4    4    0    0  0.14279764137E+03 -0.51909945462E+02 -0.13884878039E+03  0.20582709402E+03  0.00000000000E+00 0. -1.
         13    1    4    4    0    0  0.22727840860E+03  0.31533640443E+02 -0.20778929660E+03  0.30955813231E+03  0.00000000000E+00 0.  1.
          1    1    1    2  501    0 -0.34606878921E+02 -0.68828656128E+01  0.64393216784E+01  0.35867461178E+02  0.00000000000E+00 0. -1.
<scales pt_clust_5="13000.00000" pt_clust_6="13000.00000" pt_clust_7="13000.00000" pt_clust_8="13000.00000" pt_clust_9="35.28470"></scales>
<clustering>
<clus scale="   35.285">  1  9  2 -1</clus>
<clus scale="   89.958">  7  8 -1 -1</clus>
<clus scale="   91.029">  5  6 -1 -1</clus>
<clus scale="  360.636">  1  7  2 -1</clus>
<clus scale="   35.285">  1  5  2 -1</clus>
</clustering>
</event>
<event>
 9    1  0.1315259E-005  0.1006962E+03  0.7546771E-02  0.1278870E+00
          1   -1    0    0  502    0 -0.00000000000E+00  0.00000000000E+00  0.24015589982E+03  0.24015589982E+03  0.00000000000E+00 0. -1.
         21   -1    0    0  501  502  0.00000000000E+00 -0.00000000000E+00 -0.12800188502E+03  0.12800188502E+03  0.00000000000E+00 0.  1.
         23    2    1    2    0    0 -0.43820561748E+02 -0.96317821625E+01  0.16625842613E+03  0.19477715658E+03  0.91012436551E+02 0.  0.
         23    2    1    2    0    0  0.19094828265E+02  0.40516073734E+02 -0.77244601338E+02  0.12754756426E+03  0.91079569696E+02 0.  0.
        -11    1    3    3    0    0 -0.23960556627E+02 -0.49524724986E+02  0.11014827311E+03  0.12312371310E+03  0.00000000000E+00 0.  1.
         11    1    3    3    0    0 -0.19860005121E+02  0.39892942823E+02  0.56110153021E+02  0.71653443480E+02  0.00000000000E+00 0. -1.
        -11    1    4    4    0    0 -0.65182219413E+01 -0.26701651661E+02 -0.10510580240E+02  0.29426819666E+02  0.00000000000E+00 0.  1.
         11    1    4    4    0    0  0.25613050206E+02  0.67217725395E+02 -0.66734021098E+02  0.98120744596E+02  0.00000000000E+00 0. -1.
          1    1    1    2  501    0  0.24725733483E+02 -0.30884291572E+02  0.23140189996E+02  0.45833063995E+02  0.00000000000E+00 0. -1.
<scales pt_clust_5="13000.00000" pt_clust_6="13000.00000" pt_clust_7="13000.00000" pt_clust_8="13000.00000" pt_clust_9="39.56265"></scales>
<clustering>
<clus scale="   39.563">  2  9  1 -1</clus>
<clus scale="   91.012">  5  6 -1 -1</clus>
<clus scale="   91.080">  7  8 -1 -1</clus>
<clus scale="  100.635">  1  5  2 -1</clus>
<clus scale="   39.563">  2  5  1 -1</clus>
</clustering>
</event>
<event>
 9    1  0.1315259E-005  0.2783678E+03  0.7546771E-02  0.1097043E+00
          1   -1    0    0  502    0 -0.00000000000E+00  0.00000000000E+00  0.26073379574E+03  0.26073379574E+03  0.00000000000E+00 0. -1.
         21   -1    0    0  501  502  0.00000000000E+00 -0.00000000000E+00 -0.97500020986E+03  0.97500020986E+03  0.00000000000E+00 0. -1.
         23    2    1    2    0    0 -0.23353755214E+03  0.13265658427E+03  0.86811796894E+02  0.29572912620E+03  0.88214910279E+02 0.  0.
         23    2    1    2    0    0  0.24261667489E+03 -0.52673452770E+02 -0.19996514597E+03  0.33352598549E+03  0.98062122298E+02 0.  0.
        -11    1    4    4    0    0  0.15899678262E+03  0.57682885020E+01 -0.87083240872E+02  0.18137458718E+03  0.00000000000E+00 0. -1.
         11    1    4    4    0    0  0.83619892271E+02 -0.58441741272E+02 -0.11288190510E+03  0.15215139830E+03  0.00000000000E+00 0.  1.
        -13    1    3    3    0    0 -0.45173370935E+02  0.11327333485E+01 -0.10238822844E+02  0.46333033785E+02  0.00000000000E+00 0.  1.
         13    1    3    3    0    0 -0.18836418120E+03  0.13152385092E+03  0.97050619738E+02  0.24939609242E+03  0.00000000000E+00 0. -1.
          1    1    1    2  501    0 -0.90791227533E+01 -0.79983131498E+02 -0.60111306504E+03  0.60647889391E+03  0.00000000000E+00 0. -1.
<scales pt_clust_5="13000.00000" pt_clust_6="13000.00000" pt_clust_7="13000.00000" pt_clust_8="13000.00000" pt_clust_9="80.49678"></scales>
<clustering>
<clus scale="   80.497">  2  9  1 -1</clus>
<clus scale="   88.215">  7  8 -1 -1</clus>
<clus scale="   98.062">  5  6 -1 -1</clus>
<clus scale="  275.053">  1  7  2 -1</clus>
<clus scale="   80.497">  2  5  1 -1</clus>
</clustering>
</event>
<event>
 9    1  0.1315259E-005  0.1018138E+03  0.7546771E-02  0.1278198E+00
         -3   -1    0    0    0  501 -0.00000000000E+00  0.00000000000E+00  0.41538542095E+03  0.41538542095E+03  0.00000000000E+00 0.  1.
         21   -1    0    0  501  502  0.00000000000E+00 -0.00000000000E+00 -0.39937703194E+02  0.39937703194E+02  0.00000000000E+00 0. -1.
         23    2    1    2    0    0 -0.48502104076E+02  0.28059833395E+02  0.21394838553E+03  0.24014050410E+03  0.93561432694E+02 0.  0.
         23    2    1    2    0    0  0.27383717255E+02  0.53927577021E+01  0.14352652050E+03  0.17173053063E+03  0.90069768842E+02 0.  0.
        -11    1    4    4    0    0 -0.17602344366E+02  0.35133028461E+02  0.48006448813E+02  0.62038627834E+02  0.00000000000E+00 0. -1.
         11    1    4    4    0    0  0.44986061621E+02 -0.29740270758E+02  0.95520071684E+02  0.10969190280E+03  0.00000000000E+00 0.  1.
        -13    1    3    3    0    0 -0.93612535351E+01  0.26361915059E+02  0.61000291484E+01  0.28632044791E+02  0.00000000000E+00 0. -1.
         13    1    3    3    0    0 -0.39140850541E+02  0.16979183355E+01  0.20784835638E+03  0.21150845931E+03  0.00000000000E+00 0.  1.
         -3    1    1    2    0  502  0.21118386820E+02 -0.33452591097E+02  0.17972811730E+02  0.43452089414E+02  0.00000000000E+00 0.  1.
<scales pt_clust_5="13000.00000" pt_clust_6="13000.00000" pt_clust_7="13000.00000" pt_clust_8="13000.00000" pt_clust_9="39.56087"></scales>
<clustering>
<clus scale="   39.561">  2  9  1 -1</clus>
<clus scale="   90.070">  5  6 -1 -1</clus>
<clus scale="   93.561">  7  8 -1 -1</clus>
<clus scale="   98.615">  2  5  1 -1</clus>
<clus scale="   39.561">  2  5  1 -1</clus>
</clustering>
</event>
<event>
 9    1  0.1315259E-005  0.1374663E+03  0.7546771E-02  0.1216945E+00
         21   -1    0    0  501  502  0.00000000000E+00  0.00000000000E+00  0.82962720803E+03  0.82962720803E+03  0.00000000000E+00 0.  1.
          1   -1    0    0  502    0 -0.00000000000E+00 -0.00000000000E+00 -0.57701629098E+02  0.57701629098E+02  0.00000000000E+00 0. -1.
         23    2    1    2    0    0 -0.99693362240E+02  0.34554743737E+02  0.10978184908E+03  0.17919227288E+03  0.94472321254E+02 0.  0.
         23    2    1    2    0    0  0.55017265956E+02 -0.87438236385E+02  0.22285010490E+03  0.26342147984E+03  0.95164920282E+02 0.  0.
        -11    1    3    3    0    0 -0.81668180106E+02 -0.17539397698E+02  0.47785521482E+02  0.96232937068E+02  0.00000000000E+00 0.  1.
         11    1    3    3    0    0 -0.18025182133E+02  0.52094141435E+02  0.61996327595E+02  0.82959335810E+02  0.00000000000E+00 0. -1.
        -13    1    4    4    0    0  0.26807667471E+02 -0.99524855882E+02  0.20054572019E+03  0.22548266864E+03  0.00000000000E+00 0.  1.
         13    1    4    4    0    0  0.28209598485E+02  0.12086619497E+02  0.22304384711E+02  0.37938811195E+02  0.00000000000E+00 0. -1.
          1    1    1    2  501    0  0.44676096284E+02  0.52883492648E+02  0.43929362495E+03  0.44471508441E+03  0.00000000000E+00 0. -1.
<scales pt_clust_5="13000.00000" pt_clust_6="13000.00000" pt_clust_7="13000.00000" pt_clust_8="13000.00000" pt_clust_9="69.22873"></scales>
<clustering>
<clus scale="   69.229">  1  9  2 -1</clus>
<clus scale="   94.472">  5  6 -1 -1</clus>
<clus scale="   95.165">  7  8 -1 -1</clus>
<clus scale="  136.988">  2  5  1 -1</clus>
<clus scale="   69.229">  1  5  2 -1</clus>
</clustering>
</event>
<event>
 9    1  0.1315259E-005  0.1012706E+03  0.7546771E-02  0.1277912E+00
         -1   -1    0    0    0  501 -0.00000000000E+00  0.00000000000E+00  0.49497388811E+02  0.49497388811E+02  0.00000000000E+00 0.  1.
         21   -1    0    0  501  502  0.00000000000E+00 -0.00000000000E+00 -0.36236543003E+03  0.36236543003E+03  0.00000000000E+00 0. -1.
         23    2    1    2    0    0  0.21936051652E+02  0.28469574571E+02 -0.61350727877E+02  0.11578984956E+03  0.91387474043E+02 0.  0.
         23    2    1    2    0    0 -0.13902111802E+02 -0.52726087761E+02 -0.11432183963E+03  0.15651824658E+03  0.91951995370E+02 0.  0.
        -11    1    4    4    0    0  0.26203829517E+02 -0.18326849433E+02 -0.15877576496E+01  0.32016168818E+02  0.00000000000E+00 0.  1.
         11    1    4    4    0    0 -0.40105941318E+02 -0.34399238329E+02 -0.11273408198E+03  0.12450207776E+03  0.00000000000E+00 0. -1.
        -13    1    3    3    0    0 -0.12751226227E+02  0.26762357823E+02  0.14027287585E+02  0.32796072380E+02  0.00000000000E+00 0.  1.
         13    1    3    3    0    0  0.34687277880E+02  0.17072167479E+01 -0.75378015463E+02  0.82993777181E+02  0.00000000000E+00 0. -1.
         -1    1    1    2    0  502 -0.80339398506E+01  0.24256513191E+02 -0.13719547372E+03  0.13955472271E+03  0.00000000000E+00 0.  1.
<scales pt_clust_5="13000.00000" pt_clust_6="13000.00000" pt_clust_7="13000.00000" pt_clust_8="13000.00000" pt_clust_9="25.55235"></scales>
<clustering>
<clus scale="   25.552">  2  9  1 -1</clus>
<clus scale="   91.387">  7  8 -1 -1</clus>
<clus scale="   91.952">  5  6 -1 -1</clus>
<clus scale="  100.758">  1  7  2 -1</clus>
<clus scale="   25.552">  2  5  1 -1</clus>
</clustering>
</event>
<event>
 9    1  0.1315259E-005  0.1227053E+03  0.7546771E-02  0.1239814E+00
          2   -1    0    0  502    0 -0.00000000000E+00  0.00000000000E+00  0.23662384123E+03  0.23662384123E+03  0.00000000000E+00 0. -1.
         21   -1    0    0  501  502  0.00000000000E+00 -0.00000000000E+00 -0.11152175273E+03  0.11152175273E+03  0.00000000000E+00 0. -1.
         23    2    1    2    0    0  0.75723791202E+02 -0.12667972027E+02  0.12233912185E+03  0.16901372413E+03  0.87773618714E+02 0.  0.
         23    2    1    2    0    0 -0.87949836302E+02  0.29520085724E+02  0.40144392953E+02  0.13634354259E+03  0.91495246618E+02 0.  0.
        -11    1    3    3    0    0 -0.17447747724E+02  0.10356215682E+02  0.26564494857E+02  0.33426748135E+02  0.00000000000E+00 0.  1.
         11    1    3    3    0    0  0.93171538926E+02 -0.23024187709E+02  0.95774626990E+02  0.13558697600E+03  0.00000000000E+00 0. -1.
        -11    1    4    4    0    0 -0.29765147364E+02  0.51371457385E+01  0.62497062404E+02  0.69413522264E+02  0.00000000000E+00 0. -1.
         11    1    4    4    0    0 -0.58184688939E+02  0.24382939986E+02 -0.22352669452E+02  0.66930020326E+02  0.00000000000E+00 0.  1.
          2    1    1    2  501    0  0.12226045100E+02 -0.16852113698E+02 -0.37381426305E+02  0.42788327234E+02  0.00000000000E+00 0. -1.
<scales pt_clust_5="13000.00000" pt_clust_6="13000.00000" pt_clust_7="13000.00000" pt_clust_8="13000.00000" pt_clust_9="20.81994"></scales>
<clustering>
<clus scale="   20.820">  2  9  1 -1</clus>
<clus scale="   87.774">  5  6 -1 -1</clus>
<clus scale="   91.495">  7  8 -1 -1</clus>
<clus scale="  119.956">  1  5  2 -1</clus>
<clus scale="   20.820">  2  5  1 -1</clus>
</clustering>
</event>
<event>
 9    1  0.1315259E-005  0.1036713E+03  0.7546771E-02  0.1273861E+00
         21   -1    0    0  501  502  0.00000000000E+00  0.00000000000E+00  0.46972568070E+03  0.46972568070E+03  0.00000000000E+00 0. -1.
         -1   -1    0    0    0  501 -0.00000000000E+00 -0.00000000000E+00 -0.33448640121E+02  0.33448640121E+02  0.00000000000E+00 0.  1.
         23    2    1    2    0    0  0.11292146877E+02 -0.43688658369E+02  0.10574064518E+03  0.14629518734E+03  0.90470914364E+02 0.  0.
         23    2    1    2    0    0 -0.43077184298E+00  0.62229339045E+02  0.22889851046E+03  0.25299464973E+03  0.87972089329E+02 0.  0.
        -11    1    4    4    0    0  0.12565527765E+02 -0.16454815953E+02  0.17693292529E+02  0.27234280908E+02  0.00000000000E+00 0.  1.
         11    1    4    4    0    0 -0.12996299608E+02  0.78684154998E+02  0.21120521793E+03  0.22576036883E+03  0.00000000000E+00 0. -1.
        -11    1    3    3    0    0  0.45186238107E+02 -0.91278972640E-01  0.39162512508E+02  0.59795541908E+02  0.00000000000E+00 0.  1.
         11    1    3    3    0    0 -0.33894091230E+02 -0.43597379397E+02  0.66578132670E+02  0.86499645435E+02  0.00000000000E+00 0. -1.
         -1    1    1    2    0  502 -0.10861375034E+02 -0.18540680675E+02  0.10163788494E+03  0.10388448375E+03  0.00000000000E+00 0.  1.
<scales pt_clust_5="13000.00000" pt_clust_6="13000.00000" pt_clust_7="13000.00000" pt_clust_8="13000.00000" pt_clust_9="21.48782"></scales>
<clustering>
<clus scale="   21.488">  1  9  2 -1</clus>
<clus scale="   87.972">  5  6 -1 -1</clus>
<clus scale="   90.471">  7  8 -1 -1</clus>
<clus scale="  101.498">  1  5  2 -1</clus>
<clus scale="   21.488">  1  5  2 -1</clus>
</clustering>
</event>
<event>
 9    1  0.1315259E-005  0.9776207E+02  0.7546771E-02  0.1287574E+00
          1   -1    0    0  502    0 -0.00000000000E+00  0.00000000000E+00  0.34732912088E+03  0.34732912088E+03  0.00000000000E+00 0. -1.
         21   -1    0    0  501  502  0.00000000000E+00 -0.00000000000E+00 -0.53593030661E+02  0.53593030661E+02  0.00000000000E+00 0. -1.
         23    2    1    2    0    0  0.40199878972E+02  0.45748472988E+01  0.17996305842E+03  0.20662356433E+03  0.93110877157E+02 0.  0.
         23    2    1    2    0    0 -0.17506898692E+02 -0.89145664549E+01  0.13524971321E+03  0.16275413666E+03  0.88376824331E+02 0.  0.
        -13    1    3    3    0    0  0.17002066922E+02  0.27487646770E+02  0.10398351821E+02  0.33952418546E+02  0.00000000000E+00 0.  1.
         13    1    3    3    0    0  0.23197812050E+02 -0.22912799471E+02  0.16956470660E+03  0.17267114578E+03  0.00000000000E+00 0. -1.
        -13    1    4    4    0    0 -0.13376051262E+02  0.21349060780E+02  0.12917862348E+03  0.13161237749E+03  0.00000000000E+00 0.  1.
         13    1    4    4    0    0 -0.41308474298E+01 -0.30263627235E+02  0.60710897351E+01  0.31141759175E+02  0.00000000000E+00 0. -1.
          1    1    1    2  501    0 -0.22692980280E+02  0.43397191561E+01 -0.21476681409E+02  0.31544450553E+02  0.00000000000E+00 0. -1.
<scales pt_clust_5="13000.00000" pt_clust_6="13000.00000" pt_clust_7="13000.00000" pt_clust_8="13000.00000" pt_clust_9="23.10421"></scales>
<clustering>
<clus scale="   23.104">  2  9  1 -1</clus>
<clus scale="   88.377">  7  8 -1 -1</clus>
<clus scale="   93.111">  5  6 -1 -1</clus>
<clus scale="   93.264">  2  7  1 -1</clus>
<clus scale="   23.104">  2  5  1 -1</clus>
</clustering>
</event>
<event>
 9    1  0.1315259E-005  0.1769459E+03  0.7546771E-02  0.1181844E+00
         21   -1    0    0  501  502  0.00000000000E+00  0.00000000000E+00  0.16701138734E+03  0.16701138734E+03  0.00000000000E+00 0.  1.
         -3   -1    0    0    0  501 -0.00000000000E+00 -0.00000000000E+00 -0.46507041016E+03  0.46507041016E+03  0.00000000000E+00 0.  1.
         23    2    1    2    0    0  0.36946883632E+02 -0.97462508923E+02 -0.56052004777E+02  0.14876510271E+03  0.90139978310E+02 0.  0.
         23    2    1    2    0    0 -0.18194814726E+03  0.81641057608E+02 -0.25573011619E+03  0.33681069423E+03  0.90956917498E+02 0.  0.
        -11    1    3    3    0    0  0.47945320589E+02 -0.10583058667E+02 -0.29390028585E+02  0.57223497598E+02  0.00000000000E+00 0. -1.
         11    1    3    3    0    0 -0.10998436957E+02 -0.86879450257E+02 -0.26661976192E+02  0.91541605114E+02  0.00000000000E+00 0.  1.
        -11    1    4    4    0    0 -0.13238638116E+03  0.31697569168E+02 -0.21789370418E+03  0.25692130338E+03  0.00000000000E+00 0.  1.
         11    1    4    4    0    0 -0.49561766100E+02  0.49943488441E+02 -0.37836412009E+02  0.79889390849E+02  0.00000000000E+00 0. -1.
         -3    1    1    2    0  502  0.14500126363E+03  0.15821451315E+02  0.13723098143E+02  0.14650600056E+03  0.00000000000E+00 0.  1.
<scales pt_clust_5="13000.00000" pt_clust_6="13000.00000" pt_clust_7="13000.00000" pt_clust_8="13000.00000" pt_clust_9="151.77847"></scales>
<clustering>
<clus scale="   90.140">  5  6 -1 -1</clus>
<clus scale="   90.957">  7  8 -1 -1</clus>
<clus scale="  137.801">  2  5  1 -1</clus>
<clus scale="  151.778">  1  9  2 -1</clus>
<clus scale="  151.778">  1  5  2 -1</clus>
</clustering>
</event>
<event>
 9    1  0.1315259E-005  0.1161470E+03  0.7546771E-02  0.1249907E+00
         21   -1    0    0  501  502  0.00000000000E+00  0.00000000000E+00  0.14265835450E+03  0.14265835450E+03  0.00000000000E+00 0. -1.
         -1   -1    0    0    0  501 -0.00000000000E+00 -0.00000000000E+00 -0.39459405450E+03  0.39459405450E+03  0.00000000000E+00 0.  1.
         23    2    1    2    0    0 -0.22646853700E+02 -0.65263678968E+02 -0.33376770334E+03  0.35296137457E+03  0.91698551625E+02 0.  0.
         23    2    1    2    0    0  0.13419525046E+02  0.93411720107E+02  0.48342995469E+02  0.13958119812E+03  0.90774625045E+02 0.  0.
        -11    1    3    3    0    0 -0.51619765990E+02 -0.53257750254E+02 -0.28856703720E+03  0.29794617494E+03  0.00000000000E+00 0.  1.
         11    1    3    3    0    0  0.28972912290E+02 -0.12005928714E+02 -0.45200666145E+02  0.55015199634E+02  0.00000000000E+00 0. -1.
        -13    1    4    4    0    0 -0.22274916138E+02  0.22607154993E+02  0.51197847451E+02  0.60236823700E+02  0.00000000000E+00 0. -1.
         13    1    4    4    0    0  0.35694441184E+02  0.70804565113E+02 -0.28548519820E+01  0.79344374421E+02  0.00000000000E+00 0.  1.
         -1    1    1    2    0  502  0.92273286536E+01 -0.28148041139E+02  0.33489007877E+02  0.44709836307E+02  0.00000000000E+00 0.  1.
<scales pt_clust_5="13000.00000" pt_clust_6="13000.00000" pt_clust_7="13000.00000" pt_clust_8="13000.00000" pt_clust_9="29.62188"></scales>
<clustering>
<clus scale="   29.622">  1  9  2 -1</clus>
<clus scale="   90.775">  7  8 -1 -1</clus>
<clus scale="   91.699">  5  6 -1 -1</clus>
<clus scale="  115.419">  1  7  2 -1</clus>
<clus scale="   29.622">  1  5  2 -1</clus>
</clustering>
</event>
<event>
 9    1  0.1315259E-005  0.1156339E+03  0.7546771E-02  0.1251280E+00
          3   -1    0    0  502    0 -0.00000000000E+00  0.00000000000E+00  0.37408277065E+03  0.37408277065E+03  0.00000000000E+00 0. -1.
         21   -1    0    0  501  502  0.00000000000E+00 -0.00000000000E+00 -0.13411861368E+03  0.13411861368E+03  0.00000000000E+00 0.  1.
         23    2    1    2    0    0 -0.76368164823E+02  0.17070021475E+02  0.17850241875E+03  0.21393135541E+03  0.88204473209E+02 0.  0.
         23    2    1    2    0    0  0.43847643115E+02  0.59314274337E+02 -0.71918996685E+02  0.13716316903E+03  0.90557130632E+02 0.  0.
        -11    1    4    4    0    0  0.61671236704E+02  0.31777815121E+02 -0.14260686503E+02  0.70827523958E+02  0.00000000000E+00 0.  1.
         11    1    4    4    0    0 -0.17823593589E+02  0.27536459215E+02 -0.57658310182E+02  0.66335645076E+02  0.00000000000E+00 0. -1.
        -11    1    3    3    0    0 -0.77709462303E+02 -0.20218446956E+02  0.11455569639E+03  0.13989479513E+03  0.00000000000E+00 0.  1.
         11    1    3    3    0    0  0.13412974801E+01  0.37288468431E+02  0.63946722365E+02  0.74036560280E+02  0.00000000000E+00 0. -1.
          3    1    1    2  501    0  0.32520521708E+02 -0.76384295811E+02  0.13338073491E+03  0.15710685989E+03  0.00000000000E+00 0. -1.
<scales pt_clust_5="13000.00000" pt_clust_6="13000.00000" pt_clust_7="13000.00000" pt_clust_8="13000.00000" pt_clust_9="83.01899"></scales>
<clustering>
<clus scale="   83.019">  2  9  1 -1</clus>
<clus scale="   88.204">  7  8 -1 -1</clus>
<clus scale="   90.557">  5  6 -1 -1</clus>
<clus scale="  113.801">  1  7  2 -1</clus>
<clus scale="   83.019">  2  5  1 -1</clus>
</clustering>
</event>
<event>
 9    1  0.1315259E-005  0.9561817E+02  0.7546771E-02  0.1289814E+00
         -2   -1    0    0    0  501 -0.00000000000E+00  0.00000000000E+00  0.14980090241E+03  0.14980090241E+03  0.00000000000E+00 0.  1.
         21   -1    0    0  501  502  0.00000000000E+00 -0.00000000000E+00 -0.37124004540E+03  0.37124004540E+03  0.00000000000E+00 0.  1.
         23    2    1    2    0    0 -0.14497620865E+02  0.14625646251E+01  0.35286248999E+02  0.10031732104E+03  0.92769205160E+02 0.  0.
         23    2    1    2    0    0 -0.48121066614E+01 -0.44091112778E+02  0.47279197138E+02  0.11313811199E+03  0.92723930605E+02 0.  0.
        -13    1    4    4    0    0 -0.20802793398E+02 -0.30248142953E+02 -0.20561395376E+02  0.42077040593E+02  0.00000000000E+00 0.  1.
         13    1    4    4    0    0  0.15990686736E+02 -0.13842969825E+02  0.67840592514E+02  0.71061071400E+02  0.00000000000E+00 0. -1.
        -13    1    3    3    0    0 -0.34714859879E+02 -0.17916984619E+02  0.53989368191E+02  0.66640766142E+02  0.00000000000E+00 0.  1.
         13    1    3    3    0    0  0.20217239014E+02  0.19379549244E+02 -0.18703119192E+02  0.33676554898E+02  0.00000000000E+00 0. -1.
         -2    1    1    2    0  502  0.19309727527E+02  0.42628548152E+02 -0.30400458912E+03  0.30758551478E+03  0.00000000000E+00 0.  1.
<scales pt_clust_5="13000.00000" pt_clust_6="13000.00000" pt_clust_7="13000.00000" pt_clust_8="13000.00000" pt_clust_9="46.79806"></scales>
<clustering>
<clus scale="   46.798">  2  9  1 -1</clus>
<clus scale="   92.724">  5  6 -1 -1</clus>
<clus scale="   92.769">  7  8 -1 -1</clus>
<clus scale="   95.574">  2  5  1 -1</clus>
<clus scale="   46.798">  2  5  1 -1</clus>
</clustering>
</event>
<event>
 9    1  0.1315259E-005  0.1181737E+03  0.7546771E-02  0.1246800E+00
         21   -1    0    0  501  502  0.00000000000E+00  0.00000000000E+00  0.78730821506E+03  0.78730821506E+03  0.00000000000E+00 0. -1.
         -3   -1    0    0    0  501 -0.00000000000E+00 -0.00000000000E+00 -0.39595627568E+02  0.39595627568E+02  0.00000000000E+00 0.  1.
         23    2    1    2    0    0 -0.29442700511E+01  0.67474100858E+02  0.80451554769E+02  0.14157090308E+03  0.94912828008E+02 0.  0.
         23    2    1    2    0    0  0.23747592810E+02 -0.81275340086E+02  0.47127675339E+03  0.48776500139E+03  0.92969291863E+02 0.  0.
        -13    1    3    3    0    0  0.45676645815E+01 -0.24096659653E+02  0.14770491361E+02  0.28630053811E+02  0.00000000000E+00 0. -1.
         13    1    3    3    0    0 -0.75119346326E+01  0.91570760511E+02  0.65681063408E+02  0.11294084927E+03  0.00000000000E+00 0.  1.
        -13    1    4    4    0    0  0.22866124030E+02 -0.11482917824E+01  0.23256285417E+02  0.32634843551E+02  0.00000000000E+00 0.  1.
         13    1    4    4    0    0  0.88146878040E+00 -0.80127048303E+02  0.44802046797E+03  0.45513015784E+03  0.00000000000E+00 0. -1.
         -3    1    1    2    0  502 -0.20803322759E+02  0.13801239228E+02  0.19598427933E+03  0.19756793816E+03  0.00000000000E+00 0.  1.
<scales pt_clust_5="13000.00000" pt_clust_6="13000.00000" pt_clust_7="13000.00000" pt_clust_8="13000.00000" pt_clust_9="24.96502"></scales>
<clustering>
<clus scale="   24.965">  1  9  2 -1</clus>
<clus scale="   92.969">  7  8 -1 -1</clus>
<clus scale="   94.913">  5  6 -1 -1</clus>
<clus scale="  116.619">  1  7  2 -1</clus>
<clus scale="   24.965">  1  5  2 -1</clus>
</clustering>
</event>
<event>
 9    1  0.1315259E-005  0.1607082E+03  0.7546771E-02  0.1189374E+00
          1   -1    0    0  502    0 -0.00000000000E+00  0.00000000000E+00  0.21557750364E+03  0.21557750364E+03  0.00000000000E+00 0. -1.
         21   -1    0    0  501  502  0.00000000000E+00 -0.00000000000E+00 -0.71086116549E+03  0.71086116549E+03  0.00000000000E+00 0.  1.
         23    2    1    2    0    0  0.69041034592E+02  0.11193631964E+03  0.16657097018E+03  0.22727080615E+03  0.81300228229E+02 0.  0.
         23    2    1    2    0    0 -0.98372096355E+02 -0.12203036154E+03 -0.62637405879E+03  0.65203961303E+03  0.90789409922E+02 0.  0.
        -11    1    3    3    0    0 -0.43516090302E+01  0.54749060929E+02  0.31679817582E+02  0.63403525263E+02  0.00000000000E+00 0.  1.
         11    1    3    3    0    0  0.73392643622E+02  0.57187258714E+02  0.13489115260E+03  0.16386728089E+03  0.00000000000E+00 0. -1.
        -13    1    4    4    0    0 -0.70025681670E+02 -0.13208971310E+03 -0.54996550718E+03  0.56992398395E+03  0.00000000000E+00 0.  1.
         13    1    4    4    0    0 -0.28346414685E+02  0.10059351552E+02 -0.76408551614E+02  0.82115629078E+02  0.00000000000E+00 0. -1.
          1    1    1    2  501    0  0.29331061763E+02  0.10094041902E+02 -0.35480573233E+02  0.47128249946E+02  0.00000000000E+00 0. -1.
<scales pt_clust_5="13000.00000" pt_clust_6="13000.00000" pt_clust_7="13000.00000" pt_clust_8="13000.00000" pt_clust_9="31.01936"></scales>
<clustering>
<clus scale="   31.019">  2  9  1 -1</clus>
<clus scale="   81.300">  5  6 -1 -1</clus>
<clus scale="   90.789">  7  8 -1 -1</clus>
<clus scale="  155.545">  1  5  2 -1</clus>
<clus scale="   31.019">  2  5  1 -1</clus>
</clustering>
</event>
<event>
 9    1  0.1315259E-005  0.2566223E+03  0.7546771E-02  0.1109414E+00
          1   -1    0    0  502    0 -0.00000000000E+00  0.00000000000E+00  0.13618651506E+04  0.13618651506E+04  0.00000000000E+00 0. -1.
         21   -1    0    0  501  502  0.00000000000E+00 -0.00000000000E+00 -0.12151692188E+03  0.12151692188E+03  0.00000000000E+00 0.  1.
         23    2    1    2    0    0 -0.16713851404E+03 -0.18296563585E+03  0.92946905913E+03  0.96626440868E+03  0.91337116428E+02 0.  0.
         23    2    1    2    0    0  0.14385580027E+03  0.17254532765E+03  0.37633727326E+03  0.44686504156E+03  0.87133465190E+02 0.  0.
        -11    1    4    4    0    0  0.15557725324E+03  0.15373557698E+03  0.33851983046E+03  0.40303174189E+03  0.00000000000E+00 0.  1.
         11    1    4    4    0    0 -0.11721452969E+02  0.18809750668E+02  0.37817442801E+02  0.43833299670E+02  0.00000000000E+00 0. -1.
        -13    1    3    3    0    0 -0.92986536164E+02 -0.14813247429E+03  0.72929718722E+03  0.74997607504E+03  0.00000000000E+00 0. -1.
         13    1    3    3    0    0 -0.74151977875E+02 -0.34833161552E+02  0.20017187190E+03  0.21628833364E+03  0.00000000000E+00 0.  1.
          1    1    1    2  501    0  0.23282713768E+02  0.10420308197E+02 -0.65458103708E+02  0.70252622189E+02  0.00000000000E+00 0. -1.
<scales pt_clust_5="13000.00000" pt_clust_6="13000.00000" pt_clust_7="13000.00000" pt_clust_8="13000.00000" pt_clust_9="25.50819"></scales>
<clustering>
<clus scale="   25.508">  2  9  1 -1</clus>
<clus scale="   87.133">  5  6 -1 -1</clus>
<clus scale="   91.337">  7  8 -1 -1</clus>
<clus scale="  255.156">  2  5  1 -1</clus>
<clus scale="   25.508">  2  5  1 -1</clus>
</clustering>
</event>
<event>
 9    1  0.1315259E-005  0.1010693E+03  0.7546771E-02  0.1280816E+00
         21   -1    0    0  501  502  0.00000000000E+00  0.00000000000E+00  0.46704517814E+03  0.46704517814E+03  0.00000000000E+00 0. -1.
          4   -1    0    0  502    0 -0.00000000000E+00 -0.00000000000E+00 -0.65904904316E+02  0.65904904316E+02  0.00000000000E+00 0. -1.
         23    2    1    2    0    0  0.25115170375E+01 -0.34059685996E+02 -0.48816912512E+01  0.10288581082E+03  0.96929300163E+02 0.  0.
         23    2    1    2    0    0  0.14850998738E+02  0.63948422056E+01  0.18923932786E+03  0.21083491153E+03  0.91533548714E+02 0.  0.
        -11    1    3    3    0    0 -0.69245086557E+01  0.33656806336E+02 -0.32349277742E+00  0.34363266440E+02  0.00000000000E+00 0.  1.
         11    1    3    3    0    0  0.94360256932E+01 -0.67716492332E+02 -0.45581984738E+01  0.68522544377E+02  0.00000000000E+00 0. -1.
        -13    1    4    4    0    0 -0.83450332291E+01 -0.37542138747E+02  0.11700421078E+03  0.12316264491E+03  0.00000000000E+00 0. -1.
         13    1    4    4    0    0  0.23196031967E+02  0.43936980953E+02  0.72235117080E+02  0.87672266617E+02  0.00000000000E+00 0.  1.
          4    1    1    2  501    0 -0.17362515775E+02  0.27664843790E+02  0.21678263721E+03  0.21922936010E+03  0.00000000000E+00 0. -1.
<scales pt_clust_5="13000.00000" pt_clust_6="13000.00000" pt_clust_7="13000.00000" pt_clust_8="13000.00000" pt_clust_9="32.66191"></scales>
<clustering>
<clus scale="   32.662">  1  9  2 -1</clus>
<clus scale="   91.534">  7  8 -1 -1</clus>
<clus scale="   95.907">  1  7  2 -1</clus>
<clus scale="   96.929">  5  6 -1 -1</clus>
<clus scale="   32.662">  1  5  2 -1</clus>
</clustering>
</event>
<event>
 9    1  0.1315259E-005  0.1791515E+03  0.7546771E-02  0.1168861E+00
         -3   -1    0    0    0  501 -0.00000000000E+00  0.00000000000E+00  0.24997984541E+03  0.24997984541E+03  0.00000000000E+00 0.  1.
         21   -1    0    0  501  502  0.00000000000E+00 -0.00000000000E+00 -0.18672788146E+03  0.18672788146E+03  0.00000000000E+00 0. -1.
         23    2    1    2    0    0 -0.16276352645E+03  0.16492357173E+02  0.11151194544E+03  0.21860172096E+03  0.92670572692E+02 0.  0.
         23    2    1    2    0    0  0.13754278519E+03  0.78634995243E+01 -0.86782946291E+01  0.16522875674E+03  0.90804057581E+02 0.  0.
        -11    1    3    3    0    0 -0.13053389571E+03  0.49881773059E+02  0.96519369566E+02  0.16983308839E+03  0.00000000000E+00 0.  1.
         11    1    3    3    0    0 -0.32229630744E+02 -0.33389415886E+02  0.14992575876E+02  0.48768632568E+02  0.00000000000E+00 0. -1.
        -13    1    4    4    0    0  0.58639577073E+02  0.27487318842E+02 -0.42183372089E+02  0.77289000364E+02  0.00000000000E+00 0.  1.
         13    1    4    4    0    0  0.78903208115E+02 -0.19623819318E+02  0.33505077460E+02  0.87939756374E+02  0.00000000000E+00 0. -1.
         -3    1    1    2    0  502  0.25220741263E+02 -0.24355856697E+02 -0.39581686860E+02  0.52877249172E+02  0.00000000000E+00 0.  1.
<scales pt_clust_5="13000.00000" pt_clust_6="13000.00000" pt_clust_7="13000.00000" pt_clust_8="13000.00000" pt_clust_9="35.06128"></scales>
<clustering>
<clus scale="   35.061">  2  9  1 -1</clus>
<clus scale="   90.804">  7  8 -1 -1</clus>
<clus scale="   92.671">  5  6 -1 -1</clus>
<clus scale="  178.193">  2  7  1 -1</clus>
<clus scale="   35.061">  2  5  1 -1</clus>
</clustering>
</event>
<event>
 9    1  0.1315259E-005  0.9538011E+02  0.7546771E-02  0.1291435E+00
         21   -1    0    0  501  502  0.00000000000E+00  0.00000000000E+00  0.20043923570E+03  0.20043923570E+03  0.00000000000E+00 0.  1.
         -3   -1    0    0    0  501 -0.00000000000E+00 -0.00000000000E+00 -0.15619889779E+03  0.15619889779E+03  0.00000000000E+00 0.  1.
         23    2    1    2    0    0  0.20680479189E+02 -0.64261120681E+01 -0.11705799100E+03  0.15128541602E+03  0.93358056458E+02 0.  0.
         23    2    1    2    0    0 -0.83248590360E+01 -0.23509109883E+02  0.11878113671E+03  0.15190657173E+03  0.91349146523E+02 0.  0.
        -11    1    4    4    0    0  0.26067972023E+02 -0.27144430222E+02  0.10994980552E+03  0.11621238743E+03  0.00000000000E+00 0.  1.
         11    1    4    4    0    0 -0.34392831059E+02  0.36353203386E+01  0.88313311878E+01  0.35694184299E+02  0.00000000000E+00 0. -1.
        -13    1    3    3    0    0  0.12931841435E+02 -0.27217628727E+02 -0.12433473472E+03  0.12793419439E+03  0.00000000000E+00 0.  1.
         13    1    3    3    0    0  0.77486377540E+01  0.20791516659E+02  0.72767437213E+01  0.23351221621E+02  0.00000000000E+00 0. -1.
         -3    1    1    2    0  502 -0.12355620153E+02  0.29935221951E+02  0.42517192198E+02  0.53446145745E+02  0.00000000000E+00 0.  1.
<scales pt_clust_5="13000.00000" pt_clust_6="13000.00000" pt_clust_7="13000.00000" pt_clust_8="13000.00000" pt_clust_9="32.38486"></scales>
<clustering>
<clus scale="   32.385">  1  9  2 -1</clus>
<clus scale="   91.349">  5  6 -1 -1</clus>
<clus scale="   93.358">  7  8 -1 -1</clus>
<clus scale="   93.415">  1  5  2 -1</clus>
<clus scale="   32.385">  1  5  2 -1</clus>
</clustering>
</event>
<event>
 9    1  0.1315259E-005  0.9385681E+02  0.7546771E-02  0.1294661E+00
          1   -1    0    0  502    0 -0.00000000000E+00  0.00000000000E+00  0.23009341445E+03  0.23009341445E+03  0.00000000000E+00 0. -1.
         21   -1    0    0  501  502  0.00000000000E+00 -0.00000000000E+00 -0.15682764228E+03  0.15682764228E+03  0.00000000000E+00 0.  1.
         23    2    1    2    0    0 -0.21600869282E+02  0.19297473349E+01  0.19087752118E+03  0.21222191978E+03  0.90186438383E+02 0.  0.
         23    2    1    2    0    0 -0.53864630321E+01 -0.13129428186E+02 -0.11104739771E+03  0.14475185553E+03  0.91761534815E+02 0.  0.
        -11    1    3    3    0    0 -0.17211564760E+02  0.40190461116E+02  0.51174188298E+02  0.67307567733E+02  0.00000000000E+00 0.  1.
         11    1    3    3    0    0 -0.43893045226E+01 -0.38260713781E+02  0.13970333288E+03  0.14491435205E+03  0.00000000000E+00 0. -1.
        -11    1    4    4    0    0  0.22059964517E+02 -0.44233647602E+02 -0.74843149534E+02  0.89692556251E+02  0.00000000000E+00 0.  1.
         11    1    4    4    0    0 -0.27446427549E+02  0.31104219416E+02 -0.36204248177E+02  0.55059299276E+02  0.00000000000E+00 0. -1.
          1    1    1    2  501    0  0.26987332314E+02  0.11199680851E+02 -0.65643512866E+01  0.29947281420E+02  0.00000000000E+00 0. -1.
<scales pt_clust_5="13000.00000" pt_clust_6="13000.00000" pt_clust_7="13000.00000" pt_clust_8="13000.00000" pt_clust_9="29.21898"></scales>
<clustering>
<clus scale="   29.219">  2  9  1 -1</clus>
<clus scale="   90.186">  5  6 -1 -1</clus>
<clus scale="   91.762">  7  8 -1 -1</clus>
<clus scale="   92.317">  1  5  2 -1</clus>
<clus scale="   29.219">  2  5  1 -1</clus>
</clustering>
</event>
<event>
 9    1  0.1315259E-005  0.1246117E+03  0.7546771E-02  0.1236290E+00
         21   -1    0    0  501  502  0.00000000000E+00  0.00000000000E+00  0.26012834392E+03  0.26012834392E+03  0.00000000000E+00 0. -1.
          1   -1    0    0  502    0 -0.00000000000E+00 -0.00000000000E+00 -0.93524141003E+02  0.93524141003E+02  0.00000000000E+00 0. -1.
         23    2    1    2    0    0 -0.66706972785E+02  0.44342162686E+02  0.65319542056E+02  0.13790658700E+03  0.91299159657E+02 0.  0.
         23    2    1    2    0    0  0.94442819507E+02  0.60702298953E+01  0.70153021313E+02  0.15032521694E+03  0.93380568650E+02 0.  0.
        -11    1    4    4    0    0  0.38524740421E+01  0.32244260823E+02  0.39580507280E+02  0.51197172469E+02  0.00000000000E+00 0.  1.
         11    1    4    4    0    0  0.90590345465E+02 -0.26174030928E+02  0.30572514033E+02  0.99128044472E+02  0.00000000000E+00 0. -1.
        -13    1    3    3    0    0 -0.14841919765E+02  0.64066852484E+02  0.39392459144E+02  0.76659050391E+02  0.00000000000E+00 0. -1.
         13    1    3    3    0    0 -0.51865053021E+02 -0.19724689798E+02  0.25927082913E+02  0.61247536610E+02  0.00000000000E+00 0.  1.
          1    1    1    2  501    0 -0.27735846722E+02 -0.50412392581E+02  0.31131639550E+02  0.65420680983E+02  0.00000000000E+00 0. -1.
<scales pt_clust_5="13000.00000" pt_clust_6="13000.00000" pt_clust_7="13000.00000" pt_clust_8="13000.00000" pt_clust_9="57.53857"></scales>
<clustering>
<clus scale="   57.539">  1  9  2 -1</clus>
<clus scale="   91.299">  7  8 -1 -1</clus>
<clus scale="   93.381">  5  6 -1 -1</clus>
<clus scale="  123.060">  2  7  1 -1</clus>
<clus scale="   57.539">  1  5  2 -1</clus>
</clustering>
</event>
<event>
 9    1  0.1315259E-005  0.1110612E+03  0.7546771E-02  0.1259570E+00
         -4   -1    0    0    0  501 -0.00000000000E+00  0.00000000000E+00  0.30482266252E+03  0.30482266252E+03  0.00000000000E+00 0. -1.
         21   -1    0    0  501  502  0.00000000000E+00 -0.00000000000E+00 -0.21654592947E+03  0.21654592947E+03  0.00000000000E+00 0. -1.
         23    2    1    2    0    0  0.53233590576E+02 -0.21984284486E+02  0.23497349248E+03  0.25878236520E+03  0.91862105580E+02 0.  0.
         23    2    1    2    0    0 -0.93851548298E+02  0.18481754441E+02 -0.23721966225E+02  0.13302972958E+03  0.89355967377E+02 0.  0.
        -11    1    3    3    0    0  0.36680409148E+02 -0.55636074752E+02  0.11313332330E+03  0.13130108175E+03  0.00000000000E+00 0. -1.
         11    1    3    3    0    0  0.16553181428E+02  0.33651790267E+02  0.12184016918E+03  0.12748128345E+03  0.00000000000E+00 0.  1.
        -11    1    4    4    0    0 -0.15002320195E+02 -0.31152148924E+02  0.62921294149E+01  0.35144229773E+02  0.00000000000E+00 0. -1.
         11    1    4    4    0    0 -0.78849228103E+02  0.49633903365E+02 -0.30014095640E+02  0.97885499809E+02  0.00000000000E+00 0.  1.
         -4    1    1    2    0  502  0.40617957722E+02  0.35025300444E+01 -0.12297479320E+03  0.12955649721E+03  0.00000000000E+00 0. -1.
<scales pt_clust_5="13000.00000" pt_clust_6="13000.00000" pt_clust_7="13000.00000" pt_clust_8="13000.00000" pt_clust_9="40.76869"></scales>
<clustering>
<clus scale="   40.769">  2  9  1 -1</clus>
<clus scale="   89.356">  7  8 -1 -1</clus>
<clus scale="   91.862">  5  6 -1 -1</clus>
<clus scale="  108.997">  2  7  1 -1</clus>
<clus scale="   40.769">  2  5  1 -1</clus>
</clustering>
</event>
<event>
 9    1  0.1315259E-005  0.9736918E+02  0.7546771E-02  0.1289141E+00
         21   -1    0    0  501  502  0.00000000000E+00  0.00000000000E+00  0.36207144344E+03  0.36207144344E+03  0.00000000000E+00 0.  1.
          1   -1    0    0  502    0 -0.00000000000E+00 -0.00000000000E+00 -0.51303266258E+02  0.51303266258E+02  0.00000000000E+00 0. -1.
         23    2    1    2    0    0  0.41394185026E+01 -0.17010738624E+02  0.41669280312E+02  0.10422482723E+03  0.93914778791E+02 0.  0.
         23    2    1    2    0    0 -0.35462213299E+02  0.43060108705E+02  0.23085932265E+03  0.25327545011E+03  0.87981164100E+02 0.  0.
        -13    1    4    4    0    0  0.13979925261E+02 -0.17403368321E+02  0.84272240636E+02  0.87178701992E+02  0.00000000000E+00 0. -1.
         13    1    4    4    0    0 -0.49442138559E+02  0.60463477027E+02  0.14658708202E+03  0.16609674811E+03  0.00000000000E+00 0.  1.
        -13    1    3    3    0    0  0.24272479380E+02  0.26715797988E+02 -0.58689808125E+01  0.36569550902E+02  0.00000000000E+00 0.  1.
         13    1    3    3    0    0 -0.20133060877E+02 -0.43726536612E+02  0.47538261124E+02  0.67655276328E+02  0.00000000000E+00 0. -1.
          1    1    1    2  501    0  0.31322794796E+02 -0.26049370082E+02  0.38239574215E+02  0.55874432361E+02  0.00000000000E+00 0. -1.
<scales pt_clust_5="13000.00000" pt_clust_6="13000.00000" pt_clust_7="13000.00000" pt_clust_8="13000.00000" pt_clust_9="40.73928"></scales>
<clustering>
<clus scale="   40.739">  1  9  2 -1</clus>
<clus scale="   87.981">  5  6 -1 -1</clus>
<clus scale="   91.659">  1  5  2 -1</clus>
<clus scale="   93.915">  7  8 -1 -1</clus>
<clus scale="   40.739">  1  5  2 -1</clus>
</clustering>
</event>
<event>
 9    1  0.1315259E-005  0.1092288E+03  0.7546771E-02  0.1268263E+00
         21   -1    0    0  501  502  0.00000000000E+00  0.00000000000E+00  0.65198042268E+03  0.65198042268E+03  0.00000000000E+00 0. -1.
         -1   -1    0    0    0  501 -0.00000000000E+00 -0.00000000000E+00 -0.82696536409E+02  0.82696536409E+02  0.00000000000E+00 0.  1.
         23    2    1    2    0    0  0.37086947635E+02  0.12296261601E+02 -0.12693714554E+02  0.10284299016E+03  0.94281018773E+02 0.  0.
         23    2    1    2    0    0  0.41237739932E+02  0.33368534755E+02  0.15714412633E+03  0.19743379471E+03  0.10710656632E+03 0.  0.
        -11    1    4    4    0    0  0.11311891536E+02 -0.26205976333E+02  0.20487756444E+01  0.28616596012E+02  0.00000000000E+00 0.  1.
         11    1    4    4    0    0  0.29925848396E+02  0.59574511088E+02  0.15509535069E+03  0.16881719870E+03  0.00000000000E+00 0. -1.
        -13    1    3    3    0    0  0.59016342471E+02  0.26599729903E+02 -0.30113777975E+02  0.71395475581E+02  0.00000000000E+00 0. -1.
         13    1    3    3    0    0 -0.21929394837E+02 -0.14303468302E+02  0.17420063420E+02  0.31447514575E+02  0.00000000000E+00 0.  1.
         -1    1    1    2    0  502 -0.78324687566E+02 -0.45664796356E+02  0.42483347449E+03  0.43440017421E+03  0.00000000000E+00 0.  1.
<scales pt_clust_5="13000.00000" pt_clust_6="13000.00000" pt_clust_7="13000.00000" pt_clust_8="13000.00000" pt_clust_9="90.66438"></scales>
<clustering>
<clus scale="   90.664">  1  9  2 -1</clus>
<clus scale="   94.281">  7  8 -1 -1</clus>
<clus scale="   96.685">  2  7  1 -1</clus>
<clus scale="  107.107">  5  6 -1 -1</clus>
<clus scale="   90.664">  1  5  2 -1</clus>
</clustering>
</event>
<event>
 9    1  0.1315259E-005  0.1076984E+03  0.7546771E-02  0.1265302E+00
         21   -1    0    0  501  502  0.00000000000E+00  0.00000000000E+00  0.19846635193E+03  0.19846635193E+03  0.00000000000E+00 0. -1.
          1   -1    0    0  502    0 -0.00000000000E+00 -0.00000000000E+00 -0.55709207521E+03  0.55709207521E+03  0.00000000000E+00 0. -1.
         23    2    1    2    0    0 -0.46923628028E+02 -0.61939065937E+02 -0.34061017263E+03  0.36123785135E+03  0.91865231681E+02 0.  0.
         23    2    1    2    0    0  0.15973353697E+02  0.23564326772E+02 -0.19109261946E+03  0.21435888033E+03  0.92859651299E+02 0.  0.
        -11    1    4    4    0    0  0.34842703661E+02 -0.15948073085E+02 -0.14816348556E+03  0.15303847061E+03  0.00000000000E+00 0. -1.
         11    1    4    4    0    0 -0.18869349965E+02  0.39512399858E+02 -0.42929133899E+02  0.61320409717E+02  0.00000000000E+00 0.  1.
        -11    1    3    3    0    0 -0.65390211312E+02 -0.70228095171E+02 -0.23736855707E+03  0.25603065631E+03  0.00000000000E+00 0. -1.
         11    1    3    3    0    0  0.18466583284E+02  0.82890292342E+01 -0.10324161556E+03  0.10520719503E+03  0.00000000000E+00 0.  1.
          1    1    1    2  501    0  0.30950274331E+02  0.38374739164E+02  0.17307706881E+03  0.17996169546E+03  0.00000000000E+00 0. -1.
<scales pt_clust_5="13000.00000" pt_clust_6="13000.00000" pt_clust_7="13000.00000" pt_clust_8="13000.00000" pt_clust_9="49.30051"></scales>
<clustering>
<clus scale="   49.301">  1  9  2 -1</clus>
<clus scale="   91.865">  7  8 -1 -1</clus>
<clus scale="   92.860">  5  6 -1 -1</clus>
<clus scale="  106.842">  2  7  1 -1</clus>
<clus scale="   49.301">  1  5  2 -1</clus>
</clustering>
</event>
<event>
 9    1  0.1315259E-005  0.2404107E+03  0.7546771E-02  0.1119616E+00
         21   -1    0    0  501  502  0.00000000000E+00  0.00000000000E+00  0.31713463076E+03  0.31713463076E+03  0.00000000000E+00 0.  1.
          1   -1    0    0  502    0 -0.00000000000E+00 -0.00000000000E+00 -0.33791383307E+03  0.33791383307E+03  0.00000000000E+00 0. -1.
         23    2    1    2    0    0 -0.21736463437E+03 -0.74908246847E+02 -0.12543196988E+03  0.27658796277E+03  0.88933077986E+02 0.  0.
         23    2    1    2    0    0  0.22415804639E+03 -0.43029850699E+02  0.73305007152E+02  0.25623845975E+03  0.90477214639E+02 0.  0.
        -11    1    4    4    0    0  0.19715032083E+03 -0.62714784060E+02  0.80600541808E+02  0.22203117007E+03  0.00000000000E+00 0.  1.
         11    1    4    4    0    0  0.27007725562E+02  0.19684933361E+02 -0.72955346559E+01  0.34207289681E+02  0.00000000000E+00 0. -1.
        -11    1    3    3    0    0 -0.17493125337E+03 -0.73818543100E+02 -0.60993154051E+02  0.19942488700E+03  0.00000000000E+00 0.  1.
         11    1    3    3    0    0 -0.42433380994E+02 -0.10897037472E+01 -0.64438815832E+02  0.77163075772E+02  0.00000000000E+00 0. -1.
          1    1    1    2  501    0 -0.67934120194E+01  0.11793809755E+03  0.31347760425E+02  0.12222204132E+03  0.00000000000E+00 0. -1.
<scales pt_clust_5="13000.00000" pt_clust_6="13000.00000" pt_clust_7="13000.00000" pt_clust_8="13000.00000" pt_clust_9="118.13359"></scales>
<clustering>
<clus scale="   88.933">  7  8 -1 -1</clus>
<clus scale="   90.477">  5  6 -1 -1</clus>
<clus scale="  118.134">  1  9  2 -1</clus>
<clus scale="  239.834">  2  7  1 -1</clus>
<clus scale="  118.134">  1  5  2 -1</clus>
</clustering>
</event>
<event>
 9    1  0.1315259E-005  0.9532184E+02  0.7546771E-02  0.1291189E+00
         21   -1    0    0  501  502  0.00000000000E+00  0.00000000000E+00  0.12807178567E+03  0.12807178567E+03  0.00000000000E+00 0. -1.
          1   -1    0    0  502    0 -0.00000000000E+00 -0.00000000000E+00 -0.41792701987E+03  0.41792701987E+03  0.00000000000E+00 0. -1.
         23    2    1    2    0    0  0.23030022908E+01  0.15151908264E+02 -0.21100985637E+03  0.23062509088E+03  0.91803534315E+02 0.  0.
         23    2    1    2    0    0  0.33065321877E+02 -0.31982176920E+02 -0.18014808663E+03  0.20676241181E+03  0.90449912489E+02 0.  0.
        -11    1    4    4    0    0  0.55724917127E+02 -0.11094455903E+01 -0.14270595638E+03  0.15320407059E+03  0.00000000000E+00 0. -1.
         11    1    4    4    0    0 -0.22659595249E+02 -0.30872731329E+02 -0.37442130244E+02  0.53558341216E+02  0.00000000000E+00 0.  1.
        -11    1    3    3    0    0 -0.13590577275E+02  0.51445547106E+02 -0.11264004449E+03  0.12457579111E+03  0.00000000000E+00 0. -1.
         11    1    3    3    0    0  0.15893579566E+02 -0.36293638842E+02 -0.98369811884E+02  0.10604929977E+03  0.00000000000E+00 0.  1.
          1    1    1    2  501    0 -0.35368324168E+02  0.16830268655E+02  0.10130270880E+03  0.10861130286E+03  0.00000000000E+00 0. -1.
<scales pt_clust_5="13000.00000" pt_clust_6="13000.00000" pt_clust_7="13000.00000" pt_clust_8="13000.00000" pt_clust_9="39.16856"></scales>
<clustering>
<clus scale="   39.169">  1  9  2 -1</clus>
<clus scale="   90.450">  5  6 -1 -1</clus>
<clus scale="   91.804">  7  8 -1 -1</clus>
<clus scale="   94.019">  1  5  2 -1</clus>
<clus scale="   39.169">  1  5  2 -1</clus>
</clustering>
</event>
<event>
 9    1  0.1315259E-005  0.1334593E+03  0.7546771E-02  0.1222862E+00
         21   -1    0    0  501  502  0.00000000000E+00  0.00000000000E+00  0.12721670259E+03  0.12721670259E+03  0.00000000000E+00 0.  1.
          1   -1    0    0  502    0 -0.00000000000E+00 -0.00000000000E+00 -0.17963365226E+03  0.17963365226E+03  0.00000000000E+00 0. -1.
         23    2    1    2    0    0  0.19523193804E+02  0.88054148024E+02 -0.54140685104E+02  0.13876269672E+03  0.90494111058E+02 0.  0.
         23    2    1    2    0    0 -0.18505907493E+02 -0.10852741122E+03 -0.14310426408E+02  0.14206298284E+03  0.88636534182E+02 0.  0.
        -11    1    4    4    0    0 -0.95301815405E+01 -0.22015486669E+02 -0.44036662316E+02  0.50147119971E+02  0.00000000000E+00 0. -1.
         11    1    4    4    0    0 -0.89757259523E+01 -0.86511924555E+02  0.29726235908E+02  0.91915862874E+02  0.00000000000E+00 0.  1.
        -13    1    3    3    0    0 -0.25419671461E+02 -0.94186765537E+00 -0.23050162472E+02  0.34327202068E+02  0.00000000000E+00 0.  1.
         13    1    3    3    0    0  0.44942865265E+02  0.88996015680E+02 -0.31090522632E+02  0.10443549465E+03  0.00000000000E+00 0. -1.
          1    1    1    2  501    0 -0.10172863109E+01  0.20473263199E+02  0.16034161844E+02  0.26024675281E+02  0.00000000000E+00 0. -1.
<scales pt_clust_5="13000.00000" pt_clust_6="13000.00000" pt_clust_7="13000.00000" pt_clust_8="13000.00000" pt_clust_9="20.49852"></scales>
<clustering>
<clus scale="   20.499">  1  9  2 -1</clus>
<clus scale="   88.637">  5  6 -1 -1</clus>
<clus scale="   90.494">  7  8 -1 -1</clus>
<clus scale="  132.207">  1  5  2 -1</clus>
<clus scale="   20.499">  1  5  2 -1</clus>
</clustering>
</event>
<event>
 9    1  0.1315259E-005  0.1099241E+03  0.7546771E-02  0.1263124E+00
          2   -1    0    0  502    0 -0.00000000000E+00  0.00000000000E+00  0.91478441342E+02  0.91478441342E+02  0.00000000000E+00 0. -1.
         21   -1    0    0  501  502  0.00000000000E+00 -0.00000000000E+00 -0.32484079535E+03  0.32484079535E+03  0.00000000000E+00 0. -1.
         23    2    1    2    0    0 -0.34448083986E+01  0.24156251325E+02  0.14370348798E+01  0.10378779156E+03  0.10086847587E+03 0.  0.
         23    2    1    2    0    0  0.62418689334E+02 -0.67695776765E+01 -0.82712408369E+02  0.14848674178E+03  0.10613693997E+03 0.  0.
        -13    1    3    3    0    0  0.19137874017E+02 -0.15993993021E+02 -0.36434305356E+02  0.44153421628E+02  0.00000000000E+00 0.  1.
         13    1    3    3    0    0 -0.22582682416E+02  0.40150244346E+02  0.37871340236E+02  0.59634369934E+02  0.00000000000E+00 0. -1.
        -13    1    4    4    0    0 -0.21270481569E+02 -0.15813077946E+02 -0.52933249501E+02  0.59198105739E+02  0.00000000000E+00 0. -1.
         13    1    4    4    0    0  0.83689170904E+02  0.90435002693E+01 -0.29779158868E+02  0.89288636044E+02  0.00000000000E+00 0.  1.
          2    1    1    2  501    0 -0.58973880936E+02 -0.17386673648E+02 -0.15208698052E+03  0.16404470335E+03  0.00000000000E+00 0. -1.
<scales pt_clust_5="13000.00000" pt_clust_6="13000.00000" pt_clust_7="13000.00000" pt_clust_8="13000.00000" pt_clust_9="61.48345"></scales>
<clustering>
<clus scale="   61.483">  2  9  1 -1</clus>
<clus scale="  100.868">  5  6 -1 -1</clus>
<clus scale="  104.846">  1  5  2 -1</clus>
<clus scale="  106.137">  7  8 -1 -1</clus>
<clus scale="   61.483">  2  5  1 -1</clus>
</clustering>
</event>
<event>
 9    1  0.1315259E-005  0.9817300E+02  0.7546771E-02  0.1284366E+00
         -1   -1    0    0    0  501 -0.00000000000E+00  0.00000000000E+00  0.26060992992E+03  0.26060992992E+03  0.00000000000E+00 0.  1.
         21   -1    0    0  501  502  0.00000000000E+00 -0.00000000000E+00 -0.57006443623E+02  0.57006443623E+02  0.00000000000E+00 0. -1.
         23    2    1    2    0    0  0.23378907872E+02 -0.22236203188E+01  0.10903338870E+03  0.14426584030E+03  0.91503196691E+02 0.  0.
         23    2    1    2    0    0 -0.48004443348E+02  0.45228974144E+01  0.10398388328E+03  0.14688691608E+03  0.91859865833E+02 0.  0.
        -13    1    4    4    0    0 -0.18726230090E+02 -0.15706088900E+02  0.10831427344E+03  0.11103753759E+03  0.00000000000E+00 0.  1.
         13    1    4    4    0    0 -0.29278213258E+02  0.20228986315E+02 -0.43303901680E+01  0.35849378487E+02  0.00000000000E+00 0. -1.
        -13    1    3    3    0    0 -0.22313770224E+02 -0.30908309559E+02  0.29695052679E+02  0.48322087030E+02  0.00000000000E+00 0. -1.
         13    1    3    3    0    0  0.45692678096E+02  0.28684689240E+02  0.79338336023E+02  0.95943753268E+02  0.00000000000E+00 0.  1.
         -1    1    1    2    0  502  0.24625535476E+02 -0.22992770955E+01 -0.94137856833E+01  0.26463617167E+02  0.00000000000E+00 0.  1.
<scales pt_clust_5="13000.00000" pt_clust_6="13000.00000" pt_clust_7="13000.00000" pt_clust_8="13000.00000" pt_clust_9="24.73264"></scales>
<clustering>
<clus scale="   24.733">  2  9  1 -1</clus>
<clus scale="   91.503">  7  8 -1 -1</clus>
<clus scale="   91.860">  5  6 -1 -1</clus>
<clus scale="   97.839">  1  7  2 -1</clus>
<clus scale="   24.733">  2  5  1 -1</clus>
</clustering>
</event>
<event>
 9    1  0.1315259E-005  0.1067866E+03  0.7546771E-02  0.1267362E+00
          4   -1    0    0  502    0 -0.00000000000E+00  0.00000000000E+00  0.12503870724E+03  0.12503870724E+03  0.00000000000E+00 0. -1.
         21   -1    0    0  501  502  0.00000000000E+00 -0.00000000000E+00 -0.21969826366E+03  0.21969826366E+03  0.00000000000E+00 0.  1.
         23    2    1    2    0    0  0.48806683059E+02 -0.13243285783E+02 -0.38141280816E+01  0.10570643792E+03  0.92746032345E+02 0.  0.
         23    2    1    2    0    0 -0.27172794343E+02  0.77403109065E+02 -0.11410533723E+03  0.16743771612E+03  0.91026143217E+02 0.  0.
        -11    1    3    3    0    0 -0.23333740304E+02  0.15079292049E+02 -0.48292625793E+01  0.28198763490E+02  0.00000000000E+00 0.  1.
         11    1    3    3    0    0  0.72140423363E+02 -0.28322577832E+02  0.10151344977E+01  0.77507674433E+02  0.00000000000E+00 0. -1.
        -13    1    4    4    0    0  0.18657224829E+02 -0.11509309188E+02 -0.27164363925E+02  0.34906430694E+02  0.00000000000E+00 0. -1.
         13    1    4    4    0    0 -0.45830019172E+02  0.88912418253E+02 -0.86940973306E+02  0.13253128542E+03  0.00000000000E+00 0.  1.
          4    1    1    2  501    0 -0.21633888716E+02 -0.64159823282E+02  0.23259908896E+02  0.71592816863E+02  0.00000000000E+00 0. -1.
<scales pt_clust_5="13000.00000" pt_clust_6="13000.00000" pt_clust_7="13000.00000" pt_clust_8="13000.00000" pt_clust_9="67.70903"></scales>
<clustering>
<clus scale="   67.709">  2  9  1 -1</clus>
<clus scale="   91.026">  7  8 -1 -1</clus>
<clus scale="   92.746">  5  6 -1 -1</clus>
<clus scale="  105.296">  2  7  1 -1</clus>
<clus scale="   67.709">  2  5  1 -1</clus>
</clustering>
</event>
<event>
 9    1  0.1315259E-005  0.1100059E+03  0.7546771E-02  0.1260836E+00
         21   -1    0    0  501  502  0.00000000000E+00  0.00000000000E+00  0.53897053657E+03  0.53897053657E+03  0.00000000000E+00 0.  1.
         -1   -1    0    0    0  501 -0.00000000000E+00 -0.00000000000E+00 -0.30469738841E+02  0.30469738841E+02  0.00000000000E+00 0.  1.
         23    2    1    2    0    0  0.12807029680E+01 -0.75484731451E+02  0.20078495448E+03  0.23320872121E+03  0.91499315944E+02 0.  0.
         23    2    1    2    0    0  0.10238872422E+02  0.45913900605E+02  0.21151339135E+03  0.23492979506E+03  0.90780907194E+02 0.  0.
        -11    1    3    3    0    0 -0.74612885482E+01 -0.44047590529E+02  0.19049007422E+02  0.48566714342E+02  0.00000000000E+00 0.  1.
         11    1    3    3    0    0  0.87419915162E+01 -0.31437140922E+02  0.18173594706E+03  0.18464200687E+03  0.00000000000E+00 0. -1.
        -11    1    4    4    0    0 -0.26408380948E+02 -0.13476042767E+02  0.90536899274E+02  0.95267709341E+02  0.00000000000E+00 0.  1.
         11    1    4    4    0    0  0.36647253369E+02  0.59389943372E+02  0.12097649207E+03  0.13966208572E+03  0.00000000000E+00 0. -1.
         -1    1    1    2    0  502 -0.11519575390E+02  0.29570830847E+02  0.96202451897E+02  0.10130175914E+03  0.00000000000E+00 0.  1.
<scales pt_clust_5="13000.00000" pt_clust_6="13000.00000" pt_clust_7="13000.00000" pt_clust_8="13000.00000" pt_clust_9="31.73538"></scales>
<clustering>
<clus scale="   31.735">  1  9  2 -1</clus>
<clus scale="   90.781">  7  8 -1 -1</clus>
<clus scale="   91.499">  5  6 -1 -1</clus>
<clus scale="  109.409">  1  7  2 -1</clus>
<clus scale="   31.735">  1  5  2 -1</clus>
</clustering>
</event>
<event>
 9    1  0.1315259E-005  0.1741460E+03  0.7546771E-02  0.1173672E+00
         -3   -1    0    0    0  501 -0.00000000000E+00  0.00000000000E+00  0.47939925300E+03  0.47939925300E+03  0.00000000000E+00 0.  1.
         21   -1    0    0  501  502  0.00000000000E+00 -0.00000000000E+00 -0.11140058518E+03  0.11140058518E+03  0.00000000000E+00 0.  1.
         23    2    1    2    0    0 -0.10855415732E+02 -0.14028615254E+03  0.29483252471E+03  0.33911728515E+03  0.90974011782E+02 0.  0.
         23    2    1    2    0    0 -0.17143372905E+02  0.17376582286E+03  0.59505999255E+02  0.20595050715E+03  0.91576148744E+02 0.  0.
        -13    1    3    3    0    0 -0.29004144045E+02 -0.16630493056E+02  0.25003352760E+02  0.41749027777E+02  0.00000000000E+00 0. -1.
         13    1    3    3    0    0  0.18148728313E+02 -0.12365565948E+03  0.26982917195E+03  0.29736825738E+03  0.00000000000E+00 0.  1.
        -13    1    4    4    0    0 -0.55089577264E+02  0.10635848526E+03  0.38007273325E+02  0.12566440122E+03  0.00000000000E+00 0.  1.
         13    1    4    4    0    0  0.37946204359E+02  0.67407337606E+02  0.21498725930E+02  0.80286105927E+02  0.00000000000E+00 0. -1.
         -3    1    1    2    0  502  0.27998788637E+02 -0.33479670322E+02  0.13660143849E+02  0.45732045876E+02  0.00000000000E+00 0.  1.
<scales pt_clust_5="13000.00000" pt_clust_6="13000.00000" pt_clust_7="13000.00000" pt_clust_8="13000.00000" pt_clust_9="43.64425"></scales>
<clustering>
<clus scale="   43.644">  2  9  1 -1</clus>
<clus scale="   90.974">  5  6 -1 -1</clus>
<clus scale="   91.576">  7  8 -1 -1</clus>
<clus scale="  173.830">  1  5  2 -1</clus>
<clus scale="   43.644">  2  5  1 -1</clus>
</clustering>
</event>
<event>
 9    1  0.1315259E-005  0.1003241E+03  0.7546771E-02  0.1279785E+00
         21   -1    0    0  501  502  0.00000000000E+00  0.00000000000E+00  0.67001713578E+02  0.67001713578E+02  0.00000000000E+00 0.  1.
          1   -1    0    0  502    0 -0.00000000000E+00 -0.00000000000E+00 -0.46915365740E+03  0.46915365740E+03  0.00000000000E+00 0. -1.
         23    2    1    2    0    0 -0.32302478643E+02 -0.32173459172E+02 -0.37356174680E+03  0.38710392580E+03  0.90677941601E+02 0.  0.
         23    2    1    2    0    0 -0.12359568529E+02  0.36411844528E+02 -0.64722035465E+01  0.99032768636E+02  0.91033062613E+02 0.  0.
        -11    1    3    3    0    0  0.31730653156E+02 -0.13618719950E+02 -0.14185076564E+03  0.14599295735E+03  0.00000000000E+00 0. -1.
         11    1    3    3    0    0 -0.64033131799E+02 -0.18554739221E+02 -0.23171098117E+03  0.24111096845E+03  0.00000000000E+00 0.  1.
        -11    1    4    4    0    0 -0.34292369601E+02 -0.76275424094E+01 -0.28394663079E+02  0.45170819203E+02  0.00000000000E+00 0.  1.
         11    1    4    4    0    0  0.21932801073E+02  0.44039386937E+02  0.21922459533E+02  0.53861949433E+02  0.00000000000E+00 0. -1.
          1    1    1    2  501    0  0.44662047171E+02 -0.42383853559E+01 -0.22117993476E+02  0.50018676545E+02  0.00000000000E+00 0. -1.
<scales pt_clust_5="13000.00000" pt_clust_6="13000.00000" pt_clust_7="13000.00000" pt_clust_8="13000.00000" pt_clust_9="44.86271"></scales>
<clustering>
<clus scale="   44.863">  1  9  2 -1</clus>
<clus scale="   90.678">  5  6 -1 -1</clus>
<clus scale="   91.033">  7  8 -1 -1</clus>
<clus scale="  100.002">  2  5  1 -1</clus>
<clus scale="   44.863">  1  5  2 -1</clus>
</clustering>
</event>
<event>
 9    1  0.1315259E-005  0.1021232E+03  0.7546771E-02  0.1276093E+00
          1   -1    0    0  502    0 -0.00000000000E+00  0.00000000000E+00  0.68611117528E+03  0.68611117528E+03  0.00000000000E+00 0. -1.
         21   -1    0    0  501  502  0.00000000000E+00 -0.00000000000E+00 -0.28204840182E+02  0.28204840182E+02  0.00000000000E+00 0.  1.
         23    2    1    2    0    0  0.33604205806E+00  0.60023355242E+02  0.44577825723E+03  0.45877391959E+03  0.90290301711E+02 0.  0.
         23    2    1    2    0    0  0.69734534034E+01 -0.13515950642E+02  0.11229679101E+03  0.14516703871E+03  0.90728109661E+02 0.  0.
        -11    1    4    4    0    0 -0.39723137056E+01 -0.39717932804E+02  0.10960057394E+03  0.11664295637E+03  0.00000000000E+00 0. -1.
         11    1    4    4    0    0  0.10945767109E+02  0.26201982162E+02  0.26962170674E+01  0.28524082339E+02  0.00000000000E+00 0.  1.
        -13    1    3    3    0    0  0.37866786218E+02  0.57619244816E+02  0.32677136760E+03  0.33396616229E+03  0.00000000000E+00 0.  1.
         13    1    3    3    0    0 -0.37530744160E+02  0.24041104260E+01  0.11900688963E+03  0.12480775730E+03  0.00000000000E+00 0. -1.
          1    1    1    2  501    0 -0.73094954615E+01 -0.46507404600E+02  0.99831286855E+02  0.11037505715E+03  0.00000000000E+00 0. -1.
<scales pt_clust_5="13000.00000" pt_clust_6="13000.00000" pt_clust_7="13000.00000" pt_clust_8="13000.00000" pt_clust_9="47.07831"></scales>
<clustering>
<clus scale="   47.078">  2  9  1 -1</clus>
<clus scale="   90.290">  7  8 -1 -1</clus>
<clus scale="   90.728">  5  6 -1 -1</clus>
<clus scale="  101.734">  1  7  2 -1</clus>
<clus scale="   47.078">  2  5  1 -1</clus>
</clustering>
</event>
<event>
 9    1  0.1315259E-005  0.1166188E+03  0.7546771E-02  0.1252978E+00
          3   -1    0    0  502    0 -0.00000000000E+00  0.00000000000E+00  0.24910549914E+03  0.24910549914E+03  0.00000000000E+00 0. -1.
         21   -1    0    0  501  502  0.00000000000E+00 -0.00000000000E+00 -0.10563701169E+03  0.10563701169E+03  0.00000000000E+00 0. -1.
         23    2    1    2    0    0  0.33576772426E+02  0.43013690008E+02  0.12900026989E+03  0.16667338015E+03  0.90340294676E+02 0.  0.
         23    2    1    2    0    0 -0.56877149935E+02 -0.35136244103E+02  0.60707816815E+02  0.13569487856E+03  0.10128225517E+03 0.  0.
        -11    1    4    4    0    0  0.28297782452E+02 -0.10736046819E+02  0.40710547629E+01  0.30538511422E+02  0.00000000000E+00 0.  1.
         11    1    4    4    0    0 -0.85174932387E+02 -0.24400197284E+02  0.56636762053E+02  0.10515636714E+03  0.00000000000E+00 0. -1.
        -13    1    3    3    0    0  0.89365728900E+01  0.41319066285E+02  0.78073001732E+01  0.42989318553E+02  0.00000000000E+00 0. -1.
         13    1    3    3    0    0  0.24640199536E+02  0.16946237234E+01  0.12119296972E+03  0.12368406159E+03  0.00000000000E+00 0.  1.
          3    1    1    2  501    0  0.23300377510E+02 -0.78774459047E+01 -0.46239599256E+02  0.52374252123E+02  0.00000000000E+00 0. -1.
<scales pt_clust_5="13000.00000" pt_clust_6="13000.00000" pt_clust_7="13000.00000" pt_clust_8="13000.00000" pt_clust_9="24.59597"></scales>
<clustering>
<clus scale="   24.596">  2  9  1 -1</clus>
<clus scale="   90.340">  7  8 -1 -1</clus>
<clus scale="  101.282">  5  6 -1 -1</clus>
<clus scale="  107.253">  1  7  2 -1</clus>
<clus scale="   24.596">  2  5  1 -1</clus>
</clustering>
</event>
<event>
 9    1  0.1315259E-005  0.1558555E+03  0.7546771E-02  0.1218256E+00
         21   -1    0    0  501  502  0.00000000000E+00  0.00000000000E+00  0.19389452351E+03  0.19389452351E+03  0.00000000000E+00 0.  1.
          3   -1    0    0  502    0 -0.00000000000E+00 -0.00000000000E+00 -0.19566898347E+03  0.19566898347E+03  0.00000000000E+00 0. -1.
         23    2    1    2    0    0  0.84100610027E+00 -0.75797757963E+01  0.23811190667E+02  0.94482301628E+02  0.91114061634E+02 0.  0.
         23    2    1    2    0    0  0.10654641215E+03  0.32097998305E+02 -0.75947828668E+02  0.17396328839E+03  0.11005786473E+03 0.  0.
        -11    1    4    4    0    0  0.39300369268E+02  0.67979036530E+02 -0.51560276787E+02  0.93936843542E+02  0.00000000000E+00 0. -1.
         11    1    4    4    0    0  0.67246042885E+02 -0.35881038226E+02 -0.24387551881E+02  0.80026444845E+02  0.00000000000E+00 0.  1.
        -13    1    3    3    0    0  0.26364934000E+02  0.31878864884E+02  0.23313019236E+02  0.47485457111E+02  0.00000000000E+00 0.  1.
         13    1    3    3    0    0 -0.25523927900E+02 -0.39458640681E+02  0.49817143157E+00  0.46996844517E+02  0.00000000000E+00 0. -1.
          3    1    1    2  501    0 -0.10738741825E+03 -0.24518222508E+02  0.50362178040E+02  0.12111791697E+03  0.00000000000E+00 0. -1.
<scales pt_clust_5="13000.00000" pt_clust_6="13000.00000" pt_clust_7="13000.00000" pt_clust_8="13000.00000" pt_clust_9="110.35484"></scales>
<clustering>
<clus scale="   91.114">  7  8 -1 -1</clus>
<clus scale="   91.433">  2  7  1 -1</clus>
<clus scale="  110.058">  5  6 -1 -1</clus>
<clus scale="  110.355">  1  9  2 -1</clus>
<clus scale="  110.355">  1  5  2 -1</clus>
</clustering>
</event>
<event>
 9    1  0.1315259E-005  0.1205883E+03  0.7546771E-02  0.1255860E+00
          2   -1    0    0  502    0 -0.00000000000E+00  0.00000000000E+00  0.13354524346E+03  0.13354524346E+03  0.00000000000E+00 0. -1.
         21   -1    0    0  501  502  0.00000000000E+00 -0.00000000000E+00 -0.16766855502E+03  0.16766855502E+03  0.00000000000E+00 0. -1.
         23    2    1    2    0    0  0.10774355592E+02 -0.20463704751E+02  0.56807211791E+02  0.13477195486E+03  0.12000654380E+03 0.  0.
         23    2    1    2    0    0  0.81023534672E+01 -0.27936922696E+01 -0.25920645570E+02  0.94863069740E+02  0.90849707129E+02 0.  0.
        -11    1    3    3    0    0  0.63419879621E+02 -0.27273368585E+02  0.34740486323E+02  0.77284016168E+02  0.00000000000E+00 0. -1.
         11    1    3    3    0    0 -0.52645524029E+02  0.68096638338E+01  0.22066725468E+02  0.57487938689E+02  0.00000000000E+00 0.  1.
        -13    1    4    4    0    0 -0.61419071830E+01  0.36857296831E+02 -0.35626298951E+02  0.51627672139E+02  0.00000000000E+00 0.  1.
         13    1    4    4    0    0  0.14244260650E+02 -0.39650989101E+02  0.97056533808E+01  0.43235397601E+02  0.00000000000E+00 0. -1.
          2    1    1    2  501    0 -0.18876709059E+02  0.23257397021E+02 -0.65009877786E+02  0.71578773885E+02  0.00000000000E+00 0. -1.
<scales pt_clust_5="13000.00000" pt_clust_6="13000.00000" pt_clust_7="13000.00000" pt_clust_8="13000.00000" pt_clust_9="29.95391"></scales>
<clustering>
<clus scale="   29.954">  2  9  1 -1</clus>
<clus scale="   90.850">  7  8 -1 -1</clus>
<clus scale="   91.617">  2  7  1 -1</clus>
<clus scale="  120.007">  5  6 -1 -1</clus>
<clus scale="   29.954">  2  5  1 -1</clus>
</clustering>
</event>
<event>
 9    1  0.1315259E-005  0.1082768E+03  0.7546771E-02  0.1265038E+00
         21   -1    0    0  501  502  0.00000000000E+00  0.00000000000E+00  0.12177788631E+03  0.12177788631E+03  0.00000000000E+00 0. -1.
          2   -1    0    0  502    0 -0.00000000000E+00 -0.00000000000E+00 -0.24840185964E+03  0.24840185964E+03  0.00000000000E+00 0. -1.
         23    2    1    2    0    0  0.67310159848E+02 -0.12557070750E+02 -0.12398768424E+03  0.16958358637E+03  0.93259365640E+02 0.  0.
         23    2    1    2    0    0 -0.36947002419E+02 -0.37135116649E+02 -0.58738052120E+02  0.11973428579E+03  0.90233267424E+02 0.  0.
        -11    1    3    3    0    0  0.47848590525E+02  0.11485703693E+02 -0.12916512039E+03  0.13822097283E+03  0.00000000000E+00 0. -1.
         11    1    3    3    0    0  0.19461569324E+02 -0.24042774443E+02  0.51774361466E+01  0.31362613548E+02  0.00000000000E+00 0.  1.
        -11    1    4    4    0    0 -0.61940583525E+02 -0.46072250403E+02 -0.37955175912E+02  0.86022575660E+02  0.00000000000E+00 0. -1.
         11    1    4    4    0    0  0.24993581106E+02  0.89371337545E+01 -0.20782876208E+02  0.33711710128E+02  0.00000000000E+00 0.  1.
          2    1    1    2  501    0 -0.30363157429E+02  0.49692187399E+02  0.56101763026E+02  0.80861873786E+02  0.00000000000E+00 0. -1.
<scales pt_clust_5="13000.00000" pt_clust_6="13000.00000" pt_clust_7="13000.00000" pt_clust_8="13000.00000" pt_clust_9="58.23431"></scales>
<clustering>
<clus scale="   58.234">  1  9  2 -1</clus>
<clus scale="   90.233">  7  8 -1 -1</clus>
<clus scale="   93.259">  5  6 -1 -1</clus>
<clus scale="  105.682">  1  7  2 -1</clus>
<clus scale="   58.234">  1  5  2 -1</clus>
</clustering>
</event>
<event>
 9    1  0.1315259E-005  0.1144235E+03  0.7546771E-02  0.1257434E+00
         -1   -1    0    0    0  501 -0.00000000000E+00  0.00000000000E+00  0.10907502750E+04  0.10907502750E+04  0.00000000000E+00 0.  1.
         21   -1    0    0  501  502  0.00000000000E+00 -0.00000000000E+00 -0.23787776304E+02  0.23787776304E+02  0.00000000000E+00 0. -1.
         23    2    1    2    0    0  0.45498419496E+02  0.63429062146E+01  0.27302749295E+03  0.28725805868E+03  0.76569195719E+02 0.  0.
         23    2    1    2    0    0 -0.68531266397E+02 -0.87561783306E+02  0.57666980205E+03  0.59418948067E+03  0.90274459083E+02 0.  0.
        -13    1    3    3    0    0  0.28820577365E+02  0.28456188872E+02  0.24321769888E+03  0.24656688629E+03  0.00000000000E+00 0.  1.
         13    1    3    3    0    0  0.16677842131E+02 -0.22113282657E+02  0.29809794067E+02  0.40691172388E+02  0.00000000000E+00 0. -1.
        -13    1    4    4    0    0  0.75059811386E+01 -0.51082749001E+02  0.13492522354E+03  0.14446661533E+03  0.00000000000E+00 0. -1.
         13    1    4    4    0    0 -0.76037247535E+02 -0.36479034305E+02  0.44174457851E+03  0.44972286533E+03  0.00000000000E+00 0.  1.
         -1    1    1    2    0  502  0.23032846901E+02  0.81218877091E+02  0.21726520374E+03  0.23309051201E+03  0.00000000000E+00 0.  1.
<scales pt_clust_5="13000.00000" pt_clust_6="13000.00000" pt_clust_7="13000.00000" pt_clust_8="13000.00000" pt_clust_9="84.42167"></scales>
<clustering>
<clus scale="   76.569">  5  6 -1 -1</clus>
<clus scale="   84.422">  2  9  1 -1</clus>
<clus scale="   90.274">  7  8 -1 -1</clus>
<clus scale="  103.952">  1  5  2 -1</clus>
<clus scale="   84.422">  2  5  1 -1</clus>
</clustering>
</event>
<event>
 9    1  0.1315259E-005  0.1474765E+03  0.7546771E-02  0.1203614E+00
         -1   -1    0    0    0  501 -0.00000000000E+00  0.00000000000E+00  0.44868061306E+03  0.44868061306E+03  0.00000000000E+00 0.  1.
         21   -1    0    0  501  502  0.00000000000E+00 -0.00000000000E+00 -0.15040895904E+03  0.15040895904E+03  0.00000000000E+00 0. -1.
         23    2    1    2    0    0 -0.37270925557E+01  0.10173908774E+03  0.18677331233E+03  0.23119744665E+03  0.90571827525E+02 0.  0.
         23    2    1    2    0    0  0.21454106830E+02 -0.13351509164E+03  0.20837110759E+03  0.26441123721E+03  0.90599257671E+02 0.  0.
        -11    1    3    3    0    0 -0.44527707001E+02  0.52548214948E+02  0.12263742524E+03  0.14065549991E+03  0.00000000000E+00 0. -1.
         11    1    3    3    0    0  0.40800614446E+02  0.49190872796E+02  0.64135887093E+02  0.90541946736E+02  0.00000000000E+00 0.  1.
        -11    1    4    4    0    0  0.39204057730E+02 -0.14721026449E+02  0.42995332887E+02  0.60018875467E+02  0.00000000000E+00 0.  1.
         11    1    4    4    0    0 -0.17749950900E+02 -0.11879406519E+03  0.16537577470E+03  0.20439236174E+03  0.00000000000E+00 0. -1.
         -1    1    1    2    0  502 -0.17727014275E+02  0.31776003894E+02 -0.96872765898E+02  0.10348088824E+03  0.00000000000E+00 0.  1.
<scales pt_clust_5="13000.00000" pt_clust_6="13000.00000" pt_clust_7="13000.00000" pt_clust_8="13000.00000" pt_clust_9="36.38628"></scales>
<clustering>
<clus scale="   36.386">  2  9  1 -1</clus>
<clus scale="   90.572">  5  6 -1 -1</clus>
<clus scale="   90.599">  7  8 -1 -1</clus>
<clus scale="  147.460">  1  5  2 -1</clus>
<clus scale="   36.386">  2  5  1 -1</clus>
</clustering>
</event>
<event>
 9    1  0.1315259E-005  0.1032607E+03  0.7546771E-02  0.1275335E+00
         -1   -1    0    0    0  501 -0.00000000000E+00  0.00000000000E+00  0.54299020070E+03  0.54299020070E+03  0.00000000000E+00 0.  1.
         21   -1    0    0  501  502  0.00000000000E+00 -0.00000000000E+00 -0.57461804764E+02  0.57461804764E+02  0.00000000000E+00 0. -1.
         23    2    1    2    0    0  0.36390029742E+02  0.45714851024E+01  0.32958690888E+03  0.34436154432E+03  0.92801993310E+02 0.  0.
         23    2    1    2    0    0 -0.32438887294E+02  0.46061440205E+02  0.16997711751E+03  0.20339982085E+03  0.96464133022E+02 0.  0.
        -11    1    3    3    0    0  0.64100781225E+02  0.23905199939E+01  0.28242362319E+03  0.28961651830E+03  0.00000000000E+00 0.  1.
         11    1    3    3    0    0 -0.27710751483E+02  0.21809651085E+01  0.47163285692E+02  0.54745026019E+02  0.00000000000E+00 0. -1.
        -13    1    4    4    0    0 -0.52559967442E+02  0.59558032073E+02  0.91010463650E+02  0.12079989179E+03  0.00000000000E+00 0. -1.
         13    1    4    4    0    0  0.20121080147E+02 -0.13496591867E+02  0.78966653864E+02  0.82599929061E+02  0.00000000000E+00 0.  1.
         -1    1    1    2    0  502 -0.39511424473E+01 -0.50632925308E+02 -0.14035630461E+02  0.52690640291E+02  0.00000000000E+00 0.  1.
<scales pt_clust_5="13000.00000" pt_clust_6="13000.00000" pt_clust_7="13000.00000" pt_clust_8="13000.00000" pt_clust_9="50.78686"></scales>
<clustering>
<clus scale="   50.787">  2  9  1 -1</clus>
<clus scale="   92.802">  5  6 -1 -1</clus>
<clus scale="   96.464">  7  8 -1 -1</clus>
<clus scale="   99.848">  1  5  2 -1</clus>
<clus scale="   50.787">  2  5  1 -1</clus>
</clustering>
</event>
<event>
 9    1  0.1315259E-005  0.2213173E+03  0.7546771E-02  0.1157737E+00
         21   -1    0    0  501  502  0.00000000000E+00  0.00000000000E+00  0.61086886611E+02  0.61086886611E+02  0.00000000000E+00 0.  1.
         -1   -1    0    0    0  501 -0.00000000000E+00 -0.00000000000E+00 -0.16502127261E+04  0.16502127261E+04  0.00000000000E+00 0.  1.
         23    2    1    2    0    0  0.48038514191E+02 -0.62606233302E+02 -0.38400693199E+03  0.40300246040E+03  0.93393896867E+02 0.  0.
         23    2    1    2    0    0 -0.16212777444E+03  0.20782127957E+03 -0.96988638950E+03  0.10092351078E+04  0.91655849377E+02 0.  0.
        -11    1    4    4    0    0 -0.11302191173E+03  0.70691682869E+02 -0.45021703078E+03  0.46953875385E+03  0.00000000000E+00 0.  1.
         11    1    4    4    0    0 -0.49105862708E+02  0.13712959670E+03 -0.51966935871E+03  0.53969635391E+03  0.00000000000E+00 0. -1.
        -11    1    3    3    0    0  0.39792555533E+02  0.74330302271E+01 -0.67282400400E+02  0.78521454506E+02  0.00000000000E+00 0.  1.
         11    1    3    3    0    0  0.82459586578E+01 -0.70039263529E+02 -0.31672453159E+03  0.32448100589E+03  0.00000000000E+00 0. -1.
         -1    1    1    2    0  502  0.11408926025E+03 -0.14521504627E+03 -0.23523251799E+03  0.29906204454E+03  0.00000000000E+00 0.  1.
<scales pt_clust_5="13000.00000" pt_clust_6="13000.00000" pt_clust_7="13000.00000" pt_clust_8="13000.00000" pt_clust_9="201.44611"></scales>
<clustering>
<clus scale="   91.656">  5  6 -1 -1</clus>
<clus scale="   93.394">  7  8 -1 -1</clus>
<clus scale="  122.269">  2  7  1 -1</clus>
<clus scale="  201.446">  1  9  2 -1</clus>
<clus scale="  201.446">  1  5  2 -1</clus>
</clustering>
</event>
<event>
 9    1  0.1315259E-005  0.9624589E+02  0.7546771E-02  0.1290815E+00
         21   -1    0    0  501  502  0.00000000000E+00  0.00000000000E+00  0.30740504721E+02  0.30740504721E+02  0.00000000000E+00 0.  1.
          2   -1    0    0  502    0 -0.00000000000E+00 -0.00000000000E+00 -0.41175998502E+03  0.41175998502E+03  0.00000000000E+00 0. -1.
         23    2    1    2    0    0  0.10338137853E+02 -0.16537980272E+02 -0.21598059905E+03  0.23714120041E+03  0.95958052709E+02 0.  0.
         23    2    1    2    0    0  0.24145916830E+01 -0.82471562763E+01 -0.14178381239E+03  0.16905869247E+03  0.91675221329E+02 0.  0.
        -11    1    4    4    0    0  0.41837873982E+02 -0.15123936991E+02 -0.40522720461E+02  0.60176673579E+02  0.00000000000E+00 0.  1.
         11    1    4    4    0    0 -0.39423282299E+02  0.68767807143E+01 -0.10126109193E+03  0.10888201890E+03  0.00000000000E+00 0. -1.
        -13    1    3    3    0    0  0.30580133186E+02 -0.49551337561E+02 -0.14557804967E+03  0.15679109715E+03  0.00000000000E+00 0.  1.
         13    1    3    3    0    0 -0.20241995332E+02  0.33013357289E+02 -0.70402549382E+02  0.80350103261E+02  0.00000000000E+00 0. -1.
          2    1    1    2  501    0 -0.12752729536E+02  0.24785136548E+02 -0.23255068853E+02  0.36300596850E+02  0.00000000000E+00 0. -1.
<scales pt_clust_5="13000.00000" pt_clust_6="13000.00000" pt_clust_7="13000.00000" pt_clust_8="13000.00000" pt_clust_9="27.87356"></scales>
<clustering>
<clus scale="   27.874">  1  9  2 -1</clus>
<clus scale="   91.675">  5  6 -1 -1</clus>
<clus scale="   91.976">  1  5  2 -1</clus>
<clus scale="   95.958">  7  8 -1 -1</clus>
<clus scale="   27.874">  1  5  2 -1</clus>
</clustering>
</event>
<event>
 9    1  0.1315259E-005  0.1199729E+03  0.7546771E-02  0.1243789E+00
          2   -1    0    0  502    0 -0.00000000000E+00  0.00000000000E+00  0.50079874195E+03  0.50079874195E+03  0.00000000000E+00 0. -1.
         21   -1    0    0  501  502  0.00000000000E+00 -0.00000000000E+00 -0.16899565862E+03  0.16899565862E+03  0.00000000000E+00 0. -1.
         23    2    1    2    0    0 -0.61703814187E+02  0.53279678339E+02  0.31439900237E+03  0.33769295750E+03  0.92432224080E+02 0.  0.
         23    2    1    2    0    0  0.32496838155E+02 -0.63875676656E+02  0.15377431423E+03  0.19223663995E+03  0.90400439520E+02 0.  0.
        -13    1    3    3    0    0 -0.21587071680E+02  0.56742064153E+02  0.83092450120E+02  0.10290781688E+03  0.00000000000E+00 0. -1.
         13    1    3    3    0    0 -0.40116742508E+02 -0.34623858141E+01  0.23130655225E+03  0.23478514062E+03  0.00000000000E+00 0.  1.
        -13    1    4    4    0    0  0.22376861387E+02  0.83472203142E+01  0.96767836827E+02  0.99671531827E+02  0.00000000000E+00 0.  1.
         13    1    4    4    0    0  0.10119976768E+02 -0.72222896970E+02  0.57006477400E+02  0.92565108125E+02  0.00000000000E+00 0. -1.
          2    1    1    2  501    0  0.29206976033E+02  0.10595998317E+02 -0.13637023326E+03  0.13986480311E+03  0.00000000000E+00 0. -1.
<scales pt_clust_5="13000.00000" pt_clust_6="13000.00000" pt_clust_7="13000.00000" pt_clust_8="13000.00000" pt_clust_9="31.06964"></scales>
<clustering>
<clus scale="   31.070">  2  9  1 -1</clus>
<clus scale="   90.400">  7  8 -1 -1</clus>
<clus scale="   92.432">  5  6 -1 -1</clus>
<clus scale="  118.415">  2  7  1 -1</clus>
<clus scale="   31.070">  2  5  1 -1</clus>
</clustering>
</event>
<event>
 9    1  0.1315259E-005  0.1143800E+03  0.7546771E-02  0.1253378E+00
         21   -1    0    0  501  502  0.00000000000E+00  0.00000000000E+00  0.12744558284E+03  0.12744558284E+03  0.00000000000E+00 0. -1.
          1   -1    0    0  502    0 -0.00000000000E+00 -0.00000000000E+00 -0.30599465543E+03  0.30599465543E+03  0.00000000000E+00 0. -1.
         23    2    1    2    0    0 -0.66780015784E+02  0.36564042537E+02 -0.24484329862E+03  0.27160019980E+03  0.89565216116E+02 0.  0.
         23    2    1    2    0    0  0.47026792681E+02 -0.17618563513E+02  0.12736521999E+02  0.10169397743E+03  0.87507217087E+02 0.  0.
        -11    1    3    3    0    0 -0.38177608125E+02 -0.11363881598E+02 -0.18709390909E+03  0.19128721439E+03  0.00000000000E+00 0. -1.
         11    1    3    3    0    0 -0.28602407658E+02  0.47927924135E+02 -0.57749389527E+02  0.80312985416E+02  0.00000000000E+00 0.  1.
        -11    1    4    4    0    0  0.17706490320E+02  0.21388698410E+02  0.37747191434E+02  0.46859862145E+02  0.00000000000E+00 0. -1.
         11    1    4    4    0    0  0.29320302361E+02 -0.39007261922E+02 -0.25010669435E+02  0.54834115282E+02  0.00000000000E+00 0.  1.
          1    1    1    2  501    0  0.19753223103E+02 -0.18945479024E+02  0.53557704032E+02  0.60146061048E+02  0.00000000000E+00 0. -1.
<scales pt_clust_5="13000.00000" pt_clust_6="13000.00000" pt_clust_7="13000.00000" pt_clust_8="13000.00000" pt_clust_9="27.37007"></scales>
<clustering>
<clus scale="   27.370">  1  9  2 -1</clus>
<clus scale="   87.507">  7  8 -1 -1</clus>
<clus scale="   89.565">  5  6 -1 -1</clus>
<clus scale="  112.776">  1  7  2 -1</clus>
<clus scale="   27.370">  1  5  2 -1</clus>
</clustering>
</event>
<event>
 9    1  0.1315259E-005  0.9553943E+02  0.7546771E-02  0.1290098E+00
         -3   -1    0    0    0  501 -0.00000000000E+00  0.00000000000E+00  0.27992948804E+03  0.27992948804E+03  0.00000000000E+00 0.  1.
         21   -1    0    0  501  502  0.00000000000E+00 -0.00000000000E+00 -0.21899988870E+03  0.21899988870E+03  0.00000000000E+00 0.  1.
         23    2    1    2    0    0 -0.14522797617E+01 -0.25590306078E+02  0.21610524363E+03  0.23570950220E+03  0.90556723768E+02 0.  0.
         23    2    1    2    0    0 -0.10986888860E+02  0.51600376703E+02  0.37468203735E+00  0.10502012514E+03  0.90806253616E+02 0.  0.
        -11    1    3    3    0    0 -0.35484736542E+02 -0.15539204058E+02  0.18341552994E+03  0.18746170280E+03  0.00000000000E+00 0. -1.
         11    1    3    3    0    0  0.34032456780E+02 -0.10051102020E+02  0.32689713690E+02  0.48247799405E+02  0.00000000000E+00 0.  1.
        -13    1    4    4    0    0  0.27358328787E+02  0.50356620045E+02  0.21517116080E+02  0.61214815370E+02  0.00000000000E+00 0.  1.
         13    1    4    4    0    0 -0.38345217648E+02  0.12437566580E+01 -0.21142434043E+02  0.43805309773E+02  0.00000000000E+00 0. -1.
         -3    1    1    2    0  502  0.12439168622E+02 -0.26010070625E+02 -0.15555032632E+03  0.15819974940E+03  0.00000000000E+00 0.  1.
<scales pt_clust_5="13000.00000" pt_clust_6="13000.00000" pt_clust_7="13000.00000" pt_clust_8="13000.00000" pt_clust_9="28.83152"></scales>
<clustering>
<clus scale="   28.832">  2  9  1 -1</clus>
<clus scale="   90.557">  5  6 -1 -1</clus>
<clus scale="   90.806">  7  8 -1 -1</clus>
<clus scale="   95.302">  1  5  2 -1</clus>
<clus scale="   28.832">  2  5  1 -1</clus>
</clustering>
</event>
<event>
 9    1  0.1315259E-005  0.9553522E+02  0.7546771E-02  0.1290808E+00
          2   -1    0    0  502    0 -0.00000000000E+00  0.00000000000E+00  0.44109249415E+03  0.44109249415E+03  0.00000000000E+00 0. -1.
         21   -1    0    0  501  502  0.00000000000E+00 -0.00000000000E+00 -0.57113473574E+02  0.57113473574E+02  0.00000000000E+00 0. -1.
         23    2    1    2    0    0  0.11031999262E+02  0.47187275556E+02  0.25949028752E+03  0.27805008182E+03  0.87340109340E+02 0.  0.
         23    2    1    2    0    0  0.23997965032E+01 -0.17453751578E+02  0.15232891488E+03  0.17726566197E+03  0.88930445505E+02 0.  0.
        -13    1    3    3    0    0  0.45408656031E+02  0.11180642481E+02  0.90340992524E+02  0.10172732051E+03  0.00000000000E+00 0.  1.
         13    1    3    3    0    0 -0.34376656769E+02  0.36006633074E+02  0.16914929500E+03  0.17632276130E+03  0.00000000000E+00 0. -1.
        -13    1    4    4    0    0 -0.23931710903E+02 -0.99459391228E+01  0.37514596719E+01  0.26186293007E+02  0.00000000000E+00 0.  1.
         13    1    4    4    0    0  0.26331507406E+02 -0.75078124553E+01  0.14857745521E+03  0.15107936896E+03  0.00000000000E+00 0. -1.
          2    1    1    2  501    0 -0.13431795765E+02 -0.29733523977E+02 -0.27840181822E+02  0.42890223939E+02  0.00000000000E+00 0. -1.
<scales pt_clust_5="13000.00000" pt_clust_6="13000.00000" pt_clust_7="13000.00000" pt_clust_8="13000.00000" pt_clust_9="32.62661"></scales>
<clustering>
<clus scale="   32.627">  2  9  1 -1</clus>
<clus scale="   87.340">  5  6 -1 -1</clus>
<clus scale="   88.930">  7  8 -1 -1</clus>
<clus scale="   94.057">  1  5  2 -1</clus>
<clus scale="   32.627">  2  5  1 -1</clus>
</clustering>
</event>
<event>
 9    1  0.1315259E-005  0.3259356E+03  0.7546771E-02  0.1114234E+00
          2   -1    0    0  502    0 -0.00000000000E+00  0.00000000000E+00  0.10648183116E+04  0.10648183116E+04  0.00000000000E+00 0. -1.
         21   -1    0    0  501  502  0.00000000000E+00 -0.00000000000E+00 -0.13900635798E+03  0.13900635798E+03  0.00000000000E+00 0. -1.
         23    2    1    2    0    0  0.94602213402E+01  0.63322733183E+02  0.13595948911E+03  0.17500700345E+03  0.89683913009E+02 0.  0.
         23    2    1    2    0    0 -0.28644404261E+03 -0.15901801441E+03  0.27923652236E+03  0.44008490463E+03  0.91459113305E+02 0.  0.
        -11    1    4    4    0    0 -0.12716337049E+03 -0.93418156559E+02  0.18702876767E+03  0.24469825235E+03  0.00000000000E+00 0.  1.
         11    1    4    4    0    0 -0.15928067212E+03 -0.65599857847E+02  0.92207754695E+02  0.19538665228E+03  0.00000000000E+00 0. -1.
        -13    1    3    3    0    0  0.26351402006E+02  0.77012385451E+02  0.76523266159E+02  0.11171890692E+03  0.00000000000E+00 0. -1.
         13    1    3    3    0    0 -0.16891180665E+02 -0.13689652268E+02  0.59436222953E+02  0.63288096530E+02  0.00000000000E+00 0.  1.
          2    1    1    2  501    0  0.27698382127E+03  0.95695281223E+02  0.51061594218E+03  0.58873276153E+03  0.00000000000E+00 0. -1.
<scales pt_clust_5="13000.00000" pt_clust_6="13000.00000" pt_clust_7="13000.00000" pt_clust_8="13000.00000" pt_clust_9="312.84078"></scales>
<clustering>
<clus scale="   89.684">  7  8 -1 -1</clus>
<clus scale="   91.459">  5  6 -1 -1</clus>
<clus scale="  110.193">  1  7  2 -1</clus>
<clus scale="  312.841">  2  9  1 -1</clus>
<clus scale="  312.841">  2  5  1 -1</clus>
</clustering>
</event>
<event>
 9    1  0.1315259E-005  0.1142265E+03  0.7546771E-02  0.1263183E+00
         21   -1    0    0  501  502  0.00000000000E+00  0.00000000000E+00  0.19314677271E+03  0.19314677271E+03  0.00000000000E+00 0. -1.
          3   -1    0    0  502    0 -0.00000000000E+00 -0.00000000000E+00 -0.34796708140E+03  0.34796708140E+03  0.00000000000E+00 0. -1.
         23    2    1    2    0    0 -0.41080382985E+02  0.19646976058E+01 -0.16706796621E+03  0.19375259886E+03  0.89089316574E+02 0.  0.
         23    2    1    2    0    0 -0.10436752448E+01 -0.30911836085E+02 -0.14322947936E+03  0.18369845191E+03  0.11078721321E+03 0.  0.
        -11    1    3    3    0    0 -0.65815862164E+01 -0.34376061032E+02 -0.12001826526E+03  0.12501765813E+03  0.00000000000E+00 0.  1.
         11    1    3    3    0    0 -0.34498796769E+02  0.36340758638E+02 -0.47049700952E+02  0.68734940726E+02  0.00000000000E+00 0. -1.
        -13    1    4    4    0    0  0.12667315279E+02 -0.65819933908E+02 -0.12536077349E+03  0.14215501436E+03  0.00000000000E+00 0. -1.
         13    1    4    4    0    0 -0.13710990524E+02  0.34908097823E+02 -0.17868705864E+02  0.41543437556E+02  0.00000000000E+00 0.  1.
          3    1    1    2  501    0  0.42124058230E+02  0.28947138480E+02  0.15547713687E+03  0.16366280334E+03  0.00000000000E+00 0. -1.
<scales pt_clust_5="13000.00000" pt_clust_6="13000.00000" pt_clust_7="13000.00000" pt_clust_8="13000.00000" pt_clust_9="51.11138"></scales>
<clustering>
<clus scale="   51.111">  1  9  2 -1</clus>
<clus scale="   89.089">  5  6 -1 -1</clus>
<clus scale="   93.332">  2  5  1 -1</clus>
<clus scale="  110.787">  7  8 -1 -1</clus>
<clus scale="   51.111">  1  5  2 -1</clus>
</clustering>
</event>
<event>
 9    1  0.1315259E-005  0.1057776E+03  0.7546771E-02  0.1269428E+00
         21   -1    0    0  501  502  0.00000000000E+00  0.00000000000E+00  0.57112194009E+02  0.57112194009E+02  0.00000000000E+00 0.  1.
          2   -1    0    0  502    0 -0.00000000000E+00 -0.00000000000E+00 -0.30392800598E+03  0.30392800598E+03  0.00000000000E+00 0. -1.
         23    2    1    2    0    0  0.42356128764E+02  0.81758328407E+01 -0.14728398472E+03  0.17762458338E+03  0.89426140356E+02 0.  0.
         23    2    1    2    0    0 -0.66520816125E+02 -0.31841228612E+02 -0.90909776368E+02  0.14851113504E+03  0.91389753108E+02 0.  0.
        -13    1    3    3    0    0  0.16561613126E+02 -0.30768468651E+02 -0.16294098650E+02  0.38554939285E+02  0.00000000000E+00 0.  1.
         13    1    3    3    0    0  0.25794515638E+02  0.38944301491E+02 -0.13098988607E+03  0.13906964410E+03  0.00000000000E+00 0. -1.
        -13    1    4    4    0    0 -0.51383577255E+02  0.22730625196E+02 -0.65902966580E+02  0.86603431441E+02  0.00000000000E+00 0. -1.
         13    1    4    4    0    0 -0.15137238869E+02 -0.54571853809E+02 -0.25006809789E+02  0.61907703596E+02  0.00000000000E+00 0.  1.
          2    1    1    2  501    0  0.24164687361E+02  0.23665395771E+02 -0.86220508784E+01  0.34904481569E+02  0.00000000000E+00 0. -1.
<scales pt_clust_5="13000.00000" pt_clust_6="13000.00000" pt_clust_7="13000.00000" pt_clust_8="13000.00000" pt_clust_9="33.82282"></scales>
<clustering>
<clus scale="   33.823">  1  9  2 -1</clus>
<clus scale="   89.426">  5  6 -1 -1</clus>
<clus scale="   91.390">  7  8 -1 -1</clus>
<clus scale="  104.086">  2  5  1 -1</clus>
<clus scale="   33.823">  1  5  2 -1</clus>
</clustering>
</event>
<event>
 9    1  0.1315259E-005  0.1342104E+03  0.7546771E-02  0.1221429E+00
         -3   -1    0    0    0  501 -0.00000000000E+00  0.00000000000E+00  0.38883144290E+03  0.38883144290E+03  0.00000000000E+00 0.  1.
         21   -1    0    0  501  502  0.00000000000E+00 -0.00000000000E+00 -0.67293049483E+02  0.67293049483E+02  0.00000000000E+00 0.  1.
         23    2    1    2    0    0 -0.29664240841E+02 -0.97294052699E+02  0.21755435285E+03  0.25693788333E+03  0.91329510955E+02 0.  0.
         23    2    1    2    0    0 -0.58511979218E+01  0.96235349934E+02  0.93274479767E+02  0.16207647654E+03  0.90957004012E+02 0.  0.
        -11    1    3    3    0    0 -0.42423849216E+02 -0.76754835699E+01  0.46520698661E+02  0.63426110035E+02  0.00000000000E+00 0. -1.
         11    1    3    3    0    0  0.12759608375E+02 -0.89618569129E+02  0.17103365419E+03  0.19351177330E+03  0.00000000000E+00 0.  1.
        -11    1    4    4    0    0  0.41164874443E+02  0.48325382747E+02  0.59181183820E+02  0.86788835825E+02  0.00000000000E+00 0.  1.
         11    1    4    4    0    0 -0.47016072364E+02  0.47909967187E+02  0.34093295948E+02  0.75287640719E+02  0.00000000000E+00 0. -1.
         -3    1    1    2    0  502  0.35515438763E+02  0.10587027654E+01  0.10709560795E+02  0.37110132504E+02  0.00000000000E+00 0.  1.
<scales pt_clust_5="13000.00000" pt_clust_6="13000.00000" pt_clust_7="13000.00000" pt_clust_8="13000.00000" pt_clust_9="35.53122"></scales>
<clustering>
<clus scale="   35.531">  2  9  1 -1</clus>
<clus scale="   90.957">  7  8 -1 -1</clus>
<clus scale="   91.330">  5  6 -1 -1</clus>
<clus scale="  133.957">  2  7  1 -1</clus>
<clus scale="   35.531">  2  5  1 -1</clus>
</clustering>
</event>
<event>
 9    1  0.1315259E-005  0.9267970E+02  0.7546771E-02  0.1296805E+00
         21   -1    0    0  501  502  0.00000000000E+00  0.00000000000E+00  0.86702027211E+02  0.86702027211E+02  0.00000000000E+00 0.  1.
          2   -1    0    0  502    0 -0.00000000000E+00 -0.00000000000E+00 -0.21327268262E+03  0.21327268262E+03  0.00000000000E+00 0. -1.
         23    2    1    2    0    0  0.18423219073E+02  0.54276326457E+01 -0.15241802139E+03  0.17791109238E+03  0.89734215052E+02 0.  0.
         23    2    1    2    0    0 -0.30994308821E+02  0.11756798247E+02  0.12644864354E+02  0.97010812977E+02  0.90290286054E+02 0.  0.
        -13    1    4    4    0    0 -0.49845368005E+02 -0.13049951001E+02  0.31693513630E+02  0.60492484979E+02  0.00000000000E+00 0.  1.
         13    1    4    4    0    0  0.18851059184E+02  0.24806749247E+02 -0.19048649276E+02  0.36518327999E+02  0.00000000000E+00 0. -1.
        -13    1    3    3    0    0 -0.18599656045E+02  0.82943182110E+01  0.67748931728E+00  0.20376503904E+02  0.00000000000E+00 0.  1.
         13    1    3    3    0    0  0.37022875119E+02 -0.28666855653E+01 -0.15309551071E+03  0.15753458848E+03  0.00000000000E+00 0. -1.
          2    1    1    2  501    0  0.12571089747E+02 -0.17184430893E+02  0.13202501629E+02  0.25052804470E+02  0.00000000000E+00 0. -1.
<scales pt_clust_5="13000.00000" pt_clust_6="13000.00000" pt_clust_7="13000.00000" pt_clust_8="13000.00000" pt_clust_9="21.29171"></scales>
<clustering>
<clus scale="   21.292">  1  9  2 -1</clus>
<clus scale="   89.734">  7  8 -1 -1</clus>
<clus scale="   90.290">  5  6 -1 -1</clus>
<clus scale="   92.138">  2  7  1 -1</clus>
<clus scale="   21.292">  1  5  2 -1</clus>
</clustering>
</event>
<event>
 9    1  0.1315259E-005  0.2227905E+03  0.7546771E-02  0.1131881E+00
          1   -1    0    0  502    0 -0.00000000000E+00  0.00000000000E+00  0.11002273177E+04  0.11002273177E+04  0.00000000000E+00 0. -1.
         21   -1    0    0  501  502  0.00000000000E+00 -0.00000000000E+00 -0.10491977739E+03  0.10491977739E+03  0.00000000000E+00 0.  1.
         23    2    1    2    0    0 -0.56335453361E+02  0.19934943654E+03  0.94004645276E+03  0.96685112135E+03  0.90553168594E+02 0.  0.
         23    2    1    2    0    0  0.45543127401E+02 -0.17500633973E+03  0.59877610294E+02  0.21127056078E+03  0.91370269997E+02 0.  0.
        -11    1    4    4    0    0  0.26162924463E+02 -0.16869572534E+03  0.27356680551E+02  0.17289052702E+03  0.00000000000E+00 0.  1.
         11    1    4    4    0    0  0.19380202938E+02 -0.63106143926E+01  0.32520929743E+02  0.38380033758E+02  0.00000000000E+00 0. -1.
        -13    1    3    3    0    0 -0.90129838244E+00  0.26902635496E+02  0.36644432461E+02  0.45468434829E+02  0.00000000000E+00 0.  1.
         13    1    3    3    0    0 -0.55434154978E+02  0.17244680105E+03  0.90340202030E+03  0.92138268652E+03  0.00000000000E+00 0. -1.
          1    1    1    2  501    0  0.10792325960E+02 -0.24343096812E+02 -0.46165227756E+01  0.27025412940E+02  0.00000000000E+00 0. -1.
<scales pt_clust_5="13000.00000" pt_clust_6="13000.00000" pt_clust_7="13000.00000" pt_clust_8="13000.00000" pt_clust_9="26.62819"></scales>
<clustering>
<clus scale="   26.628">  2  9  1 -1</clus>
<clus scale="   90.553">  7  8 -1 -1</clus>
<clus scale="   91.370">  5  6 -1 -1</clus>
<clus scale="  222.457">  1  7  2 -1</clus>
<clus scale="   26.628">  2  5  1 -1</clus>
</clustering>
</event>
<event>
 9    1  0.1315259E-005  0.1079054E+03  0.7546771E-02  0.1264839E+00
         21   -1    0    0  501  502  0.00000000000E+00  0.00000000000E+00  0.11721808580E+03  0.11721808580E+03  0.00000000000E+00 0. -1.
          1   -1    0    0  502    0 -0.00000000000E+00 -0.00000000000E+00 -0.29184452374E+03  0.29184452374E+03  0.00000000000E+00 0. -1.
         23    2    1    2    0    0  0.97451480213E+01  0.53408201838E+02 -0.18348949496E+03  0.21203879762E+03  0.91349072262E+02 0.  0.
         23    2    1    2    0    0  0.90126237467E+01 -0.66627738596E+02 -0.57674576649E+02  0.12664010040E+03  0.90503454635E+02 0.  0.
        -13    1    3    3    0    0 -0.38250284289E+02  0.16979954086E+02 -0.47546895621E+02  0.63341221745E+02  0.00000000000E+00 0. -1.
         13    1    3    3    0    0  0.47995432310E+02  0.36428247752E+02 -0.13594259934E+03  0.14869757588E+03  0.00000000000E+00 0.  1.
        -13    1    4    4    0    0  0.30755829421E+02 -0.70646183792E+02 -0.14885172366E+02  0.78475299834E+02  0.00000000000E+00 0. -1.
         13    1    4    4    0    0 -0.21743205674E+02  0.40184451961E+01 -0.42789404283E+02  0.48164800567E+02  0.00000000000E+00 0.  1.
          1    1    1    2  501    0 -0.18757771768E+02  0.13219536758E+02  0.66537633659E+02  0.70383711516E+02  0.00000000000E+00 0. -1.
<scales pt_clust_5="13000.00000" pt_clust_6="13000.00000" pt_clust_7="13000.00000" pt_clust_8="13000.00000" pt_clust_9="22.94799"></scales>
<clustering>
<clus scale="   22.948">  1  9  2 -1</clus>
<clus scale="   90.503">  7  8 -1 -1</clus>
<clus scale="   91.349">  5  6 -1 -1</clus>
<clus scale="  107.190">  1  7  2 -1</clus>
<clus scale="   22.948">  1  5  2 -1</clus>
</clustering>
</event>
<event>
 9    1  0.1315259E-005  0.9814410E+02  0.7546771E-02  0.1284738E+00
          1   -1    0    0  502    0 -0.00000000000E+00  0.00000000000E+00  0.34985224692E+03  0.34985224692E+03  0.00000000000E+00 0. -1.
         21   -1    0    0  501  502  0.00000000000E+00 -0.00000000000E+00 -0.66145901245E+02  0.66145901245E+02  0.00000000000E+00 0. -1.
         23    2    1    2    0    0  0.13324201365E+02  0.34400045488E+02  0.18012524957E+03  0.20493968436E+03  0.90522213969E+02 0.  0.
         23    2    1    2    0    0 -0.57833232535E+02  0.50832123464E+01  0.10590233606E+03  0.15151545699E+03  0.91493754393E+02 0.  0.
        -11    1    3    3    0    0 -0.30084120109E+02  0.31989602374E+02  0.13633724047E+03  0.14323488430E+03  0.00000000000E+00 0. -1.
         11    1    3    3    0    0  0.43408321474E+02  0.24104431143E+01  0.43788009102E+02  0.61704800059E+02  0.00000000000E+00 0.  1.
        -13    1    4    4    0    0 -0.46401806302E+02  0.46244449711E+02  0.67685041461E+02  0.94196292893E+02  0.00000000000E+00 0. -1.
         13    1    4    4    0    0 -0.11431426232E+02 -0.41161237365E+02  0.38217294594E+02  0.57319164101E+02  0.00000000000E+00 0.  1.
          1    1    1    2  501    0  0.44509031170E+02 -0.39483257834E+02 -0.23212399517E+01  0.59543006808E+02  0.00000000000E+00 0. -1.
<scales pt_clust_5="13000.00000" pt_clust_6="13000.00000" pt_clust_7="13000.00000" pt_clust_8="13000.00000" pt_clust_9="59.49774"></scales>
<clustering>
<clus scale="   59.498">  2  9  1 -1</clus>
<clus scale="   90.522">  5  6 -1 -1</clus>
<clus scale="   91.494">  7  8 -1 -1</clus>
<clus scale="   97.239">  1  5  2 -1</clus>
<clus scale="   59.498">  2  5  1 -1</clus>
</clustering>
</event>
<event>
 9    1  0.1315259E-005  0.1076380E+03  0.7546771E-02  0.1269641E+00
         21   -1    0    0  501  502  0.00000000000E+00  0.00000000000E+00  0.21668091675E+02  0.21668091675E+02  0.00000000000E+00 0.  1.
          1   -1    0    0  502    0 -0.00000000000E+00 -0.00000000000E+00 -0.11546427170E+04  0.11546427170E+04  0.00000000000E+00 0. -1.
         23    2    1    2    0    0  0.57712470158E+02 -0.57781253251E+01 -0.58722468039E+03  0.59853370035E+03  0.10022798632E+03 0.  0.
         23    2    1    2    0    0 -0.12038577192E+01 -0.54481574379E+02 -0.34358496327E+03  0.35938495073E+03  0.90206566340E+02 0.  0.
        -11    1    4    4    0    0 -0.29365542294E+02 -0.58963848878E+02 -0.30107269222E+03  0.30819447845E+03  0.00000000000E+00 0. -1.
         11    1    4    4    0    0  0.28161684574E+02  0.44822744993E+01 -0.42512271048E+02  0.51190472282E+02  0.00000000000E+00 0.  1.
        -13    1    3    3    0    0 -0.28805809507E+02  0.18091037534E+01 -0.13661857005E+03  0.13963409755E+03  0.00000000000E+00 0. -1.
         13    1    3    3    0    0  0.86518279666E+02 -0.75872290785E+01 -0.45060611035E+03  0.45889960279E+03  0.00000000000E+00 0.  1.
          1    1    1    2  501    0 -0.56508612439E+02  0.60259699704E+02 -0.20216498168E+03  0.21839215761E+03  0.00000000000E+00 0. -1.
<scales pt_clust_5="13000.00000" pt_clust_6="13000.00000" pt_clust_7="13000.00000" pt_clust_8="13000.00000" pt_clust_9="82.61026"></scales>
<clustering>
<clus scale="   82.610">  1  9  2 -1</clus>
<clus scale="   90.207">  5  6 -1 -1</clus>
<clus scale="   98.374">  1  5  2 -1</clus>
<clus scale="  100.228">  7  8 -1 -1</clus>
<clus scale="   82.610">  1  5  2 -1</clus>
</clustering>
</event>
<event>
 9    1  0.1315259E-005  0.1015666E+03  0.7546771E-02  0.1279075E+00
          1   -1    0    0  502    0 -0.00000000000E+00  0.00000000000E+00  0.10712044645E+03  0.10712044645E+03  0.00000000000E+00 0. -1.
         21   -1    0    0  501  502  0.00000000000E+00 -0.00000000000E+00 -0.24826887824E+03  0.24826887824E+03  0.00000000000E+00 0. -1.
         23    2    1    2    0    0  0.48324601507E+02  0.57825553423E+01  0.24995119340E+02  0.10560415512E+03  0.90325946061E+02 0.  0.
         23    2    1    2    0    0 -0.15234271320E+02 -0.21857769846E+02 -0.21472563295E+02  0.10050999683E+03  0.94505784809E+02 0.  0.
        -11    1    4    4    0    0 -0.14909107986E+02  0.30429406991E+02 -0.32632970169E+02  0.47044033127E+02  0.00000000000E+00 0.  1.
         11    1    4    4    0    0 -0.32516333445E+00 -0.52287176837E+02  0.11160406874E+02  0.53465963700E+02  0.00000000000E+00 0. -1.
        -11    1    3    3    0    0 -0.18798235452E+02 -0.15981129619E+02  0.24881878624E+02  0.35041090792E+02  0.00000000000E+00 0.  1.
         11    1    3    3    0    0  0.67122836959E+02  0.21763684962E+02  0.11324071571E+00  0.70563064333E+02  0.00000000000E+00 0. -1.
          1    1    1    2  501    0 -0.33090330187E+02  0.16075214504E+02 -0.14467098784E+03  0.14927517274E+03  0.00000000000E+00 0. -1.
<scales pt_clust_5="13000.00000" pt_clust_6="13000.00000" pt_clust_7="13000.00000" pt_clust_8="13000.00000" pt_clust_9="36.78835"></scales>
<clustering>
<clus scale="   36.788">  2  9  1 -1</clus>
<clus scale="   90.326">  7  8 -1 -1</clus>
<clus scale="   94.506">  5  6 -1 -1</clus>
<clus scale="   97.689">  1  7  2 -1</clus>
<clus scale="   36.788">  2  5  1 -1</clus>
</clustering>
</event>
<event>
 9    1  0.1315259E-005  0.1121621E+03  0.7546771E-02  0.1258603E+00
         21   -1    0    0  501  502  0.00000000000E+00  0.00000000000E+00  0.76781839510E+02  0.76781839510E+02  0.00000000000E+00 0. -1.
         -1   -1    0    0    0  501 -0.00000000000E+00 -0.00000000000E+00 -0.31849930113E+03  0.31849930113E+03  0.00000000000E+00 0.  1.
         23    2    1    2    0    0 -0.14435120380E+01 -0.69473354193E+02 -0.20043239516E+03  0.23278801477E+03  0.95856580999E+02 0.  0.
         23    2    1    2    0    0 -0.18012094155E+02  0.38471891740E+02 -0.64467287246E+02  0.11916846030E+03  0.90777578810E+02 0.  0.
        -11    1    3    3    0    0 -0.25659229738E+02  0.51836464213E+01 -0.10988182254E+03  0.11295698821E+03  0.00000000000E+00 0.  1.
         11    1    3    3    0    0  0.24215717700E+02 -0.74657000614E+02 -0.90550572624E+02  0.11983102656E+03  0.00000000000E+00 0. -1.
        -13    1    4    4    0    0 -0.20036162149E+02 -0.27489549565E+02 -0.18264816398E+02  0.38609929383E+02  0.00000000000E+00 0. -1.
         13    1    4    4    0    0  0.20240679934E+01  0.65961441306E+02 -0.46202470848E+02  0.80558530913E+02  0.00000000000E+00 0.  1.
         -1    1    1    2    0  502  0.19455606193E+02  0.31001462452E+02  0.23182220787E+02  0.43324665574E+02  0.00000000000E+00 0.  1.
<scales pt_clust_5="13000.00000" pt_clust_6="13000.00000" pt_clust_7="13000.00000" pt_clust_8="13000.00000" pt_clust_9="36.60070"></scales>
<clustering>
<clus scale="   36.601">  1  9  2 -1</clus>
<clus scale="   90.778">  7  8 -1 -1</clus>
<clus scale="   95.857">  5  6 -1 -1</clus>
<clus scale="  107.854">  1  7  2 -1</clus>
<clus scale="   36.601">  1  5  2 -1</clus>
</clustering>
</event>
<event>
 9    1  0.1315259E-005  0.9350408E+02  0.7546771E-02  0.1296071E+00
         21   -1    0    0  501  502  0.00000000000E+00  0.00000000000E+00  0.29244059719E+02  0.29244059719E+02  0.00000000000E+00 0. -1.
          2   -1    0    0  502    0 -0.00000000000E+00 -0.00000000000E+00 -0.10105903015E+04  0.10105903015E+04  0.00000000000E+00 0. -1.
         23    2    1    2    0    0  0.11430901760E+02 -0.19559809679E+02 -0.39691218015E+03  0.40769167984E+03  0.90332582099E+02 0.  0.
         23    2    1    2    0    0 -0.64751165349E+01 -0.62665327655E+02 -0.13662957673E+03  0.17682478176E+03  0.92900440167E+02 0.  0.
        -11    1    3    3    0    0 -0.14225774966E+02  0.32232644694E+02 -0.14130862853E+03  0.14563462691E+03  0.00000000000E+00 0.  1.
         11    1    3    3    0    0  0.25656676726E+02 -0.51792454373E+02 -0.25560355162E+03  0.26205705293E+03  0.00000000000E+00 0. -1.
        -13    1    4    4    0    0 -0.31972108512E+02  0.10800328527E+02 -0.50995820176E+02  0.61150932082E+02  0.00000000000E+00 0.  1.
         13    1    4    4    0    0  0.25496991977E+02 -0.73465656182E+02 -0.85633756558E+02  0.11567384968E+03  0.00000000000E+00 0. -1.
          2    1    1    2  501    0 -0.49557852254E+01  0.82225137333E+02 -0.44780448490E+03  0.45531789962E+03  0.00000000000E+00 0. -1.
<scales pt_clust_5="13000.00000" pt_clust_6="13000.00000" pt_clust_7="13000.00000" pt_clust_8="13000.00000" pt_clust_9="82.37439"></scales>
<clustering>
<clus scale="   82.374">  1  9  2 -1</clus>
<clus scale="   90.333">  5  6 -1 -1</clus>
<clus scale="   90.953">  2  5  1 -1</clus>
<clus scale="   92.900">  7  8 -1 -1</clus>
<clus scale="   82.374">  1  5  2 -1</clus>
</clustering>
</event>
<event>
 9    1  0.1315259E-005  0.1282249E+03  0.7546771E-02  0.1230193E+00
         21   -1    0    0  501  502  0.00000000000E+00  0.00000000000E+00  0.10494922364E+03  0.10494922364E+03  0.00000000000E+00 0. -1.
         -4   -1    0    0    0  501 -0.00000000000E+00 -0.00000000000E+00 -0.22450383655E+03  0.22450383655E+03  0.00000000000E+00 0.  1.
         23    2    1    2    0    0 -0.67864484945E+02 -0.63053433387E+02 -0.84012842468E+02  0.15432320350E+03  0.90422174604E+02 0.  0.
         23    2    1    2    0    0  0.36173745254E+02  0.84919730179E+02 -0.11944654273E+02  0.12997167017E+03  0.90719677375E+02 0.  0.
        -13    1    4    4    0    0  0.25190437034E+02  0.10419666071E+03 -0.11063990925E+02  0.10776787145E+03  0.00000000000E+00 0.  1.
         13    1    4    4    0    0  0.10983308220E+02 -0.19276930529E+02 -0.88066334831E+00  0.22203798729E+02  0.00000000000E+00 0. -1.
        -13    1    3    3    0    0 -0.34793046386E+02  0.17461050027E+02 -0.43311767923E+02  0.58235329359E+02  0.00000000000E+00 0.  1.
         13    1    3    3    0    0 -0.33071438559E+02 -0.80514483414E+02 -0.40701074545E+02  0.96087874141E+02  0.00000000000E+00 0. -1.
         -4    1    1    2    0  502  0.31690739691E+02 -0.21866296792E+02 -0.23597116167E+02  0.45158186511E+02  0.00000000000E+00 0.  1.
<scales pt_clust_5="13000.00000" pt_clust_6="13000.00000" pt_clust_7="13000.00000" pt_clust_8="13000.00000" pt_clust_9="38.50246"></scales>
<clustering>
<clus scale="   38.502">  1  9  2 -1</clus>
<clus scale="   90.422">  7  8 -1 -1</clus>
<clus scale="   90.720">  5  6 -1 -1</clus>
<clus scale="  128.015">  2  7  1 -1</clus>
<clus scale="   38.502">  1  5  2 -1</clus>
</clustering>
</event>
<event>
 9    1  0.1315259E-005  0.1055554E+03  0.7546771E-02  0.1270268E+00
          2   -1    0    0  502    0 -0.00000000000E+00  0.00000000000E+00  0.29307013267E+03  0.29307013267E+03  0.00000000000E+00 0.  1.
         21   -1    0    0  501  502  0.00000000000E+00 -0.00000000000E+00 -0.67452005257E+02  0.67452005257E+02  0.00000000000E+00 0. -1.
         23    2    1    2    0    0  0.44719437216E+02 -0.12753363425E+02  0.11760323929E+03  0.15732905831E+03  0.93591849827E+02 0.  0.
         23    2    1    2    0    0 -0.41072428442E+02  0.42770205412E+02  0.20153145857E+02  0.11027377468E+03  0.90762994907E+02 0.  0.
        -11    1    4    4    0    0 -0.13879341981E+02 -0.18088048270E+02  0.35200587968E+02  0.41939182364E+02  0.00000000000E+00 0.  1.
         11    1    4    4    0    0 -0.27193086461E+02  0.60858253682E+02 -0.15047442111E+02  0.68334592313E+02  0.00000000000E+00 0. -1.
        -11    1    3    3    0    0  0.10274500214E+02 -0.49610822282E+02  0.78813019824E+02  0.93692535113E+02  0.00000000000E+00 0. -1.
         11    1    3    3    0    0  0.34444937002E+02  0.36857458857E+02  0.38790219462E+02  0.63636523195E+02  0.00000000000E+00 0.  1.
          2    1    1    2  501    0 -0.36470087742E+01 -0.30016841987E+02  0.87861742267E+02  0.92919304938E+02  0.00000000000E+00 0.  1.
<scales pt_clust_5="13000.00000" pt_clust_6="13000.00000" pt_clust_7="13000.00000" pt_clust_8="13000.00000" pt_clust_9="30.23760"></scales>
<clustering>
<clus scale="   30.238">  2  9  1 -1</clus>
<clus scale="   90.763">  5  6 -1 -1</clus>
<clus scale="   93.592">  7  8 -1 -1</clus>
<clus scale="  103.055">  2  5  1 -1</clus>
<clus scale="   30.238">  2  5  1 -1</clus>
</clustering>
</event>
<event>
 9    1  0.1315259E-005  0.9592716E+02  0.7546771E-02  0.1290986E+00
         -3   -1    0    0    0  501 -0.00000000000E+00  0.00000000000E+00  0.14228861576E+03  0.14228861576E+03  0.00000000000E+00 0.  1.
         21   -1    0    0  501  502  0.00000000000E+00 -0.00000000000E+00 -0.39079496473E+03  0.39079496473E+03  0.00000000000E+00 0.  1.
         23    2    1    2    0    0 -0.21480022843E+02  0.10501895209E+02  0.58830033296E+02  0.11189773833E+03  0.92132783747E+02 0.  0.
         23    2    1    2    0    0 -0.10387201575E+02  0.12454068921E+02  0.13654779103E+02  0.97800898231E+02  0.95475467598E+02 0.  0.
        -11    1    3    3    0    0 -0.49507738740E+02  0.32348059074E+02  0.31067855179E+02  0.66802879776E+02  0.00000000000E+00 0.  1.
         11    1    3    3    0    0  0.28027715897E+02 -0.21846163865E+02  0.27762178117E+02  0.45094858552E+02  0.00000000000E+00 0. -1.
        -11    1    4    4    0    0  0.40970782721E+02 -0.24843867457E+01  0.16501240033E+02  0.44238762832E+02  0.00000000000E+00 0. -1.
         11    1    4    4    0    0 -0.51357984296E+02  0.14938455667E+02 -0.28464609293E+01  0.53562135399E+02  0.00000000000E+00 0.  1.
         -3    1    1    2    0  502  0.31867224418E+02 -0.22955964131E+02 -0.32099116137E+03  0.32338494393E+03  0.00000000000E+00 0.  1.
<scales pt_clust_5="13000.00000" pt_clust_6="13000.00000" pt_clust_7="13000.00000" pt_clust_8="13000.00000" pt_clust_9="39.27463"></scales>
<clustering>
<clus scale="   39.275">  2  9  1 -1</clus>
<clus scale="   92.133">  5  6 -1 -1</clus>
<clus scale="   92.601">  1  5  2 -1</clus>
<clus scale="   95.475">  7  8 -1 -1</clus>
<clus scale="   39.275">  2  5  1 -1</clus>
</clustering>
</event>
<event>
 9    1  0.1315259E-005  0.1733658E+03  0.7546771E-02  0.1174964E+00
         21   -1    0    0  501  502  0.00000000000E+00  0.00000000000E+00  0.13044856542E+03  0.13044856542E+03  0.00000000000E+00 0.  1.
          2   -1    0    0  502    0 -0.00000000000E+00 -0.00000000000E+00 -0.60633031374E+03  0.60633031374E+03  0.00000000000E+00 0. -1.
         23    2    1    2    0    0  0.13969671950E+03 -0.98018320183E+01 -0.45677153814E+03  0.48687547453E+03  0.93788273742E+02 0.  0.
         23    2    1    2    0    0 -0.17966157824E+03 -0.10463768334E+02 -0.31398160854E+02  0.20343967443E+03  0.89521413544E+02 0.  0.
        -11    1    3    3    0    0  0.37994724684E+02  0.40046367443E+02 -0.14265000158E+03  0.15295860094E+03  0.00000000000E+00 0. -1.
         11    1    3    3    0    0  0.10170199481E+03 -0.49848199461E+02 -0.31412153656E+03  0.33391687360E+03  0.00000000000E+00 0.  1.
        -11    1    4    4    0    0 -0.19706035663E+02 -0.33886128204E+02 -0.31165385924E+01  0.39323152710E+02  0.00000000000E+00 0.  1.
         11    1    4    4    0    0 -0.15995554258E+03  0.23422359870E+02 -0.28281622262E+02  0.16411652172E+03  0.00000000000E+00 0. -1.
          2    1    1    2  501    0  0.39964858745E+02  0.20265600352E+02  0.12287950675E+02  0.46463730198E+02  0.00000000000E+00 0. -1.
<scales pt_clust_5="13000.00000" pt_clust_6="13000.00000" pt_clust_7="13000.00000" pt_clust_8="13000.00000" pt_clust_9="44.80942"></scales>
<clustering>
<clus scale="   44.809">  1  9  2 -1</clus>
<clus scale="   89.521">  7  8 -1 -1</clus>
<clus scale="   93.788">  5  6 -1 -1</clus>
<clus scale="  171.095">  1  7  2 -1</clus>
<clus scale="   44.809">  1  5  2 -1</clus>
</clustering>
</event>
<event>
 9    1  0.1315259E-005  0.1070648E+03  0.7546771E-02  0.1269245E+00
          3   -1    0    0  502    0 -0.00000000000E+00  0.00000000000E+00  0.29267182568E+03  0.29267182568E+03  0.00000000000E+00 0. -1.
         21   -1    0    0  501  502  0.00000000000E+00 -0.00000000000E+00 -0.67288255995E+02  0.67288255995E+02  0.00000000000E+00 0.  1.
         23    2    1    2    0    0 -0.32792023685E+02 -0.20542090311E+02  0.18958958160E+03  0.21373839123E+03  0.90788744574E+02 0.  0.
         23    2    1    2    0    0  0.55633911896E+02  0.29915363151E+02  0.23945524009E+02  0.11883563192E+03  0.97767367706E+02 0.  0.
        -11    1    3    3    0    0  0.81557289406E+01 -0.46103292020E+02  0.12205193482E+03  0.13072377076E+03  0.00000000000E+00 0. -1.
         11    1    3    3    0    0 -0.40947752625E+02  0.25561201710E+02  0.67537646782E+02  0.83014620464E+02  0.00000000000E+00 0.  1.
        -13    1    4    4    0    0  0.78734305570E+02  0.33251863838E+02  0.99450157060E-01  0.85468047905E+02  0.00000000000E+00 0.  1.
         13    1    4    4    0    0 -0.23100393675E+02 -0.33365006872E+01  0.23846073852E+02  0.33367584014E+02  0.00000000000E+00 0. -1.
          3    1    1    2  501    0 -0.22841888211E+02 -0.93732728402E+01  0.11848464075E+02  0.27386058528E+02  0.00000000000E+00 0. -1.
<scales pt_clust_5="13000.00000" pt_clust_6="13000.00000" pt_clust_7="13000.00000" pt_clust_8="13000.00000" pt_clust_9="24.69028"></scales>
<clustering>
<clus scale="   24.690">  2  9  1 -1</clus>
<clus scale="   90.789">  5  6 -1 -1</clus>
<clus scale="   97.767">  7  8 -1 -1</clus>
<clus scale="  100.732">  1  5  2 -1</clus>
<clus scale="   24.690">  2  5  1 -1</clus>
</clustering>
</event>
<event>
 9    1  0.1315259E-005  0.1012940E+03  0.7546771E-02  0.1280159E+00
         21   -1    0    0  501  502  0.00000000000E+00  0.00000000000E+00  0.26664806442E+02  0.26664806442E+02  0.00000000000E+00 0. -1.
          2   -1    0    0  502    0 -0.00000000000E+00 -0.00000000000E+00 -0.52613145746E+03  0.52613145746E+03  0.00000000000E+00 0. -1.
         23    2    1    2    0    0 -0.27419061324E+02 -0.80266142680E+01 -0.24201636784E+03  0.26003910440E+03  0.90731373038E+02 0.  0.
         23    2    1    2    0    0  0.39546919920E+02 -0.22275156929E+02 -0.20853575659E+03  0.23395313581E+03  0.95847621177E+02 0.  0.
        -11    1    3    3    0    0  0.29491587649E+02 -0.19189518401E+02 -0.67202024137E+02  0.75855806677E+02  0.00000000000E+00 0.  1.
         11    1    3    3    0    0 -0.56910648973E+02  0.11162904133E+02 -0.17481434370E+03  0.18418329772E+03  0.00000000000E+00 0. -1.
        -11    1    4    4    0    0  0.45561893583E+02 -0.43891114199E+02 -0.73112696996E+02  0.96683931005E+02  0.00000000000E+00 0. -1.
         11    1    4    4    0    0 -0.60149736632E+01  0.21615957270E+02 -0.13542305960E+03  0.13726920480E+03  0.00000000000E+00 0.  1.
          2    1    1    2  501    0 -0.12127858596E+02  0.30301771197E+02 -0.48914526588E+02  0.58804023698E+02  0.00000000000E+00 0. -1.
<scales pt_clust_5="13000.00000" pt_clust_6="13000.00000" pt_clust_7="13000.00000" pt_clust_8="13000.00000" pt_clust_9="32.63866"></scales>
<clustering>
<clus scale="   32.639">  1  9  2 -1</clus>
<clus scale="   90.731">  5  6 -1 -1</clus>
<clus scale="   95.848">  7  8 -1 -1</clus>
<clus scale="   96.467">  2  5  1 -1</clus>
<clus scale="   32.639">  1  5  2 -1</clus>
</clustering>
</event>
<event>
 9    1  0.1315259E-005  0.1302662E+03  0.7546771E-02  0.1227629E+00
         21   -1    0    0  501  502  0.00000000000E+00  0.00000000000E+00  0.20688026535E+03  0.20688026535E+03  0.00000000000E+00 0.  1.
         -3   -1    0    0    0  501 -0.00000000000E+00 -0.00000000000E+00 -0.20752217945E+03  0.20752217945E+03  0.00000000000E+00 0.  1.
         23    2    1    2    0    0  0.11714896965E+02  0.83200105130E+02 -0.61679784136E+02  0.13684846228E+03  0.88676995616E+02 0.  0.
         23    2    1    2    0    0  0.24578022212E+02 -0.10609819406E+03 -0.56306215186E+02  0.15260946366E+03  0.90875478390E+02 0.  0.
        -11    1    4    4    0    0 -0.34125153968E+02 -0.30352461449E+02 -0.13272423965E+02  0.47560017739E+02  0.00000000000E+00 0. -1.
         11    1    4    4    0    0  0.58703176180E+02 -0.75745732609E+02 -0.43033791221E+02  0.10504944592E+03  0.00000000000E+00 0.  1.
        -13    1    3    3    0    0  0.36397978614E+02  0.67879159879E+02 -0.72568622410E+02  0.10582342912E+03  0.00000000000E+00 0. -1.
         13    1    3    3    0    0 -0.24683081649E+02  0.15320945251E+02  0.10888838274E+02  0.31025033152E+02  0.00000000000E+00 0.  1.
         -3    1    1    2    0  502 -0.36292919177E+02  0.22898088928E+02  0.11734408522E+03  0.12494451887E+03  0.00000000000E+00 0.  1.
<scales pt_clust_5="13000.00000" pt_clust_6="13000.00000" pt_clust_7="13000.00000" pt_clust_8="13000.00000" pt_clust_9="42.91268"></scales>
<clustering>
<clus scale="   42.913">  1  9  2 -1</clus>
<clus scale="   88.677">  7  8 -1 -1</clus>
<clus scale="   90.875">  5  6 -1 -1</clus>
<clus scale="  128.742">  2  7  1 -1</clus>
<clus scale="   42.913">  1  5  2 -1</clus>
</clustering>
</event>
<event>
 9    1  0.1315259E-005  0.1033080E+03  0.7546771E-02  0.1276199E+00
         -2   -1    0    0    0  501 -0.00000000000E+00  0.00000000000E+00  0.52828542342E+02  0.52828542342E+02  0.00000000000E+00 0.  1.
         21   -1    0    0  501  502  0.00000000000E+00 -0.00000000000E+00 -0.28298012126E+03  0.28298012126E+03  0.00000000000E+00 0. -1.
         23    2    1    2    0    0  0.21529059279E+02  0.33706072866E+02 -0.51204752817E+02  0.10877593283E+03  0.87239194809E+02 0.  0.
         23    2    1    2    0    0 -0.43231100737E+02 -0.33030705983E+02 -0.10707734114E+03  0.15195505371E+03  0.93085045815E+02 0.  0.
        -11    1    4    4    0    0 -0.12106425115E+02 -0.48544441682E+02 -0.10593994599E+03  0.11715972219E+03  0.00000000000E+00 0. -1.
         11    1    4    4    0    0 -0.31124675622E+02  0.15513735699E+02 -0.11373951476E+01  0.34795331521E+02  0.00000000000E+00 0.  1.
        -13    1    3    3    0    0 -0.27918520934E+02  0.25950330908E+02 -0.43990185466E+02  0.58206528008E+02  0.00000000000E+00 0. -1.
         13    1    3    3    0    0  0.49447580213E+02  0.77557419576E+01 -0.72145673514E+01  0.50569404824E+02  0.00000000000E+00 0.  1.
         -2    1    1    2    0  502  0.21702041458E+02 -0.67536688228E+00 -0.71869484961E+02  0.75077677058E+02  0.00000000000E+00 0.  1.
<scales pt_clust_5="13000.00000" pt_clust_6="13000.00000" pt_clust_7="13000.00000" pt_clust_8="13000.00000" pt_clust_9="21.71255"></scales>
<clustering>
<clus scale="   21.713">  2  9  1 -1</clus>
<clus scale="   87.239">  7  8 -1 -1</clus>
<clus scale="   93.085">  5  6 -1 -1</clus>
<clus scale="   98.073">  1  7  2 -1</clus>
<clus scale="   21.713">  2  5  1 -1</clus>
</clustering>
</event>
<event>
 9    1  0.1315259E-005  0.1173506E+03  0.7546771E-02  0.1249669E+00
          2   -1    0    0  502    0 -0.00000000000E+00  0.00000000000E+00  0.23889662061E+03  0.23889662061E+03  0.00000000000E+00 0. -1.
         21   -1    0    0  501  502  0.00000000000E+00 -0.00000000000E+00 -0.11302738930E+03  0.11302738930E+03  0.00000000000E+00 0. -1.
         23    2    1    2    0    0 -0.46842086111E+02  0.19789945013E+02  0.88532601771E+02  0.14208600447E+03  0.98815930577E+02 0.  0.
         23    2    1    2    0    0  0.57822892896E+02 -0.56484551408E+02  0.84287995859E+02  0.14924507635E+03  0.92928117807E+02 0.  0.
        -11    1    3    3    0    0  0.69672611478E+01  0.47028929720E+02  0.22313066734E+02  0.52517957934E+02  0.00000000000E+00 0.  1.
         11    1    3    3    0    0 -0.53809347258E+02 -0.27238984707E+02  0.66219535037E+02  0.89568046539E+02  0.00000000000E+00 0. -1.
        -13    1    4    4    0    0  0.30026573731E+02 -0.86459816843E+01 -0.15700775876E+02  0.34969450845E+02  0.00000000000E+00 0.  1.
         13    1    4    4    0    0  0.27796319165E+02 -0.47838569723E+02  0.99988771735E+02  0.11427562551E+03  0.00000000000E+00 0. -1.
          2    1    1    2  501    0 -0.10980806785E+02  0.36694606395E+02 -0.46951366313E+02  0.60592929082E+02  0.00000000000E+00 0. -1.
<scales pt_clust_5="13000.00000" pt_clust_6="13000.00000" pt_clust_7="13000.00000" pt_clust_8="13000.00000" pt_clust_9="38.30238"></scales>
<clustering>
<clus scale="   38.302">  2  9  1 -1</clus>
<clus scale="   92.928">  7  8 -1 -1</clus>
<clus scale="   98.816">  5  6 -1 -1</clus>
<clus scale="  112.438">  2  7  1 -1</clus>
<clus scale="   38.302">  2  5  1 -1</clus>
</clustering>
</event>
<event>
 9    1  0.1315259E-005  0.1060687E+03  0.7546771E-02  0.1268047E+00
         21   -1    0    0  501  502  0.00000000000E+00  0.00000000000E+00  0.18764831529E+03  0.18764831529E+03  0.00000000000E+00 0.  1.
          2   -1    0    0  502    0 -0.00000000000E+00 -0.00000000000E+00 -0.95578068226E+02  0.95578068226E+02  0.00000000000E+00 0. -1.
         23    2    1    2    0    0 -0.13358054797E+02  0.41845800334E+02  0.24058510141E+01  0.10155075457E+03  0.91527367494E+02 0.  0.
         23    2    1    2    0    0  0.49826639796E+02 -0.56145281461E+02  0.60989186548E+02  0.13312976927E+03  0.91481516850E+02 0.  0.
        -11    1    4    4    0    0  0.53172462062E+02  0.56863914129E+01  0.13664024325E+02  0.55193761693E+02  0.00000000000E+00 0. -1.
         11    1    4    4    0    0 -0.33458222654E+01 -0.61831672874E+02  0.47325162223E+02  0.77936007573E+02  0.00000000000E+00 0.  1.
        -13    1    3    3    0    0 -0.36069938194E+02 -0.24267680315E+01  0.27877507946E+02  0.45651780838E+02  0.00000000000E+00 0.  1.
         13    1    3    3    0    0  0.22711883397E+02  0.44272568366E+02 -0.25471656932E+02  0.55898973729E+02  0.00000000000E+00 0. -1.
          2    1    1    2  501    0 -0.36468584999E+02  0.14299481127E+02  0.28675209498E+02  0.48545859680E+02  0.00000000000E+00 0. -1.
<scales pt_clust_5="13000.00000" pt_clust_6="13000.00000" pt_clust_7="13000.00000" pt_clust_8="13000.00000" pt_clust_9="39.17184"></scales>
<clustering>
<clus scale="   39.172">  1  9  2 -1</clus>
<clus scale="   91.482">  5  6 -1 -1</clus>
<clus scale="   91.527">  7  8 -1 -1</clus>
<clus scale="  106.029">  1  5  2 -1</clus>
<clus scale="   39.172">  1  5  2 -1</clus>
</clustering>
</event>
<event>
 9    1  0.3426941E-005  0.1080313E+03  0.7546771E-02  0.1265613E+00
         21   -1    0    0  501  502  0.00000000000E+00  0.00000000000E+00  0.28088970161E+03  0.28088970161E+03  0.00000000000E+00 0.  1.
          1   -1    0    0  502    0 -0.00000000000E+00 -0.00000000000E+00 -0.30892385881E+03  0.30892385881E+03  0.00000000000E+00 0. -1.
         23    2    1    2    0    0  0.56530586642E+02 -0.14053980127E+02 -0.28545144761E+03  0.30531601638E+03  0.91335203143E+02 0.  0.
         23    2    1    2    0    0 -0.47926524407E+02 -0.46277045127E+01  0.20606062496E+03  0.22917537566E+03  0.87988659847E+02 0.  0.
        -11    1    4    4    0    0 -0.36808733929E+02  0.18731269477E+02  0.19773009021E+03  0.20199735623E+03  0.00000000000E+00 0.  1.
         11    1    4    4    0    0 -0.11117790478E+02 -0.23358973990E+02  0.83305347439E+01  0.27178019429E+02  0.00000000000E+00 0. -1.
        -13    1    3    3    0    0 -0.25081473386E+02 -0.31550694264E+00 -0.54850249108E+02  0.60313594480E+02  0.00000000000E+00 0.  1.
         13    1    3    3    0    0  0.81612060028E+02 -0.13738473184E+02 -0.23060119850E+03  0.24500242190E+03  0.00000000000E+00 0. -1.
          1    1    1    2  501    0 -0.86040622354E+01  0.18681684640E+02  0.51356665445E+02  0.55322168373E+02  0.00000000000E+00 0. -1.
<scales pt_clust_5="13000.00000" pt_clust_6="13000.00000" pt_clust_7="13000.00000" pt_clust_8="13000.00000" pt_clust_9="20.56782"></scales>
<clustering>
<clus scale="   20.568">  1  9  2 -1</clus>
<clus scale="   87.989">  5  6 -1 -1</clus>
<clus scale="   91.335">  7  8 -1 -1</clus>
<clus scale="  105.217">  1  5  2 -1</clus>
<clus scale="   20.568">  1  5  2 -1</clus>
</clustering>
</event>
<event>
 9    1  0.1315259E-005  0.1873726E+03  0.7546771E-02  0.1164749E+00
         21   -1    0    0  501  502  0.00000000000E+00  0.00000000000E+00  0.19543338949E+03  0.19543338949E+03  0.00000000000E+00 0. -1.
          1   -1    0    0  502    0 -0.00000000000E+00 -0.00000000000E+00 -0.47540496939E+03  0.47540496939E+03  0.00000000000E+00 0. -1.
         23    2    1    2    0    0  0.11222123202E+02  0.14442028535E+03 -0.16154400322E+03  0.23538571666E+03  0.91251387712E+02 0.  0.
         23    2    1    2    0    0  0.15808159601E+03 -0.11103953370E+03 -0.15098771469E+03  0.25984459427E+03  0.86036934755E+02 0.  0.
        -11    1    3    3    0    0 -0.23322285247E+02  0.13257378160E+03 -0.12421954589E+03  0.18316722452E+03  0.00000000000E+00 0. -1.
         11    1    3    3    0    0  0.34544408449E+02  0.11846503754E+02 -0.37324457333E+02  0.52218492141E+02  0.00000000000E+00 0.  1.
        -11    1    4    4    0    0  0.80068799886E+02 -0.76730162030E+01 -0.42889150001E+02  0.91155729829E+02  0.00000000000E+00 0.  1.
         11    1    4    4    0    0  0.78012796125E+02 -0.10336651749E+03 -0.10809856469E+03  0.16868886444E+03  0.00000000000E+00 0. -1.
          1    1    1    2  501    0 -0.16930371921E+03 -0.33380751658E+02  0.32560137999E+02  0.17560804796E+03  0.00000000000E+00 0. -1.
<scales pt_clust_5="13000.00000" pt_clust_6="13000.00000" pt_clust_7="13000.00000" pt_clust_8="13000.00000" pt_clust_9="166.45155"></scales>
<clustering>
<clus scale="   86.037">  7  8 -1 -1</clus>
<clus scale="   91.251">  5  6 -1 -1</clus>
<clus scale="  171.202">  2  5  1 -1</clus>
<clus scale="  166.452">  1  9  2 -1</clus>
<clus scale="  166.452">  1  5  2 -1</clus>
</clustering>
</event>
<event>
 9    1  0.1315259E-005  0.9128607E+02  0.7546771E-02  0.1299929E+00
         -2   -1    0    0    0  501 -0.00000000000E+00  0.00000000000E+00  0.35619638291E+03  0.35619638291E+03  0.00000000000E+00 0.  1.
         21   -1    0    0  501  502  0.00000000000E+00 -0.00000000000E+00 -0.32577726283E+02  0.32577726283E+02  0.00000000000E+00 0.  1.
         23    2    1    2    0    0 -0.22708090779E+02  0.41604171050E+01  0.15831529744E+03  0.18338580179E+03  0.89630644517E+02 0.  0.
         23    2    1    2    0    0  0.44535904527E+01  0.19354554129E+02  0.12750709569E+03  0.15727658130E+03  0.89907899214E+02 0.  0.
        -13    1    4    4    0    0  0.40969027377E+02 -0.11175176588E+02  0.43951066330E+02  0.61114990040E+02  0.00000000000E+00 0. -1.
         13    1    4    4    0    0 -0.36515436925E+02  0.30529730717E+02  0.83556029364E+02  0.96161591265E+02  0.00000000000E+00 0.  1.
        -13    1    3    3    0    0 -0.53345111943E+02 -0.16197895228E+02  0.97312729142E+02  0.11215096982E+03  0.00000000000E+00 0.  1.
         13    1    3    3    0    0  0.30637021164E+02  0.20358312332E+02  0.61002568303E+02  0.71234831974E+02  0.00000000000E+00 0. -1.
         -2    1    1    2    0  502  0.18254500326E+02 -0.23514971234E+02  0.37796263484E+02  0.48111726093E+02  0.00000000000E+00 0.  1.
<scales pt_clust_5="13000.00000" pt_clust_6="13000.00000" pt_clust_7="13000.00000" pt_clust_8="13000.00000" pt_clust_9="29.76879"></scales>
<clustering>
<clus scale="   29.769">  2  9  1 -1</clus>
<clus scale="   89.631">  7  8 -1 -1</clus>
<clus scale="   89.908">  5  6 -1 -1</clus>
<clus scale="   91.013">  1  7  2 -1</clus>
<clus scale="   29.769">  2  5  1 -1</clus>
</clustering>
</event>
<event>
 9    1  0.1315259E-005  0.9812248E+02  0.7546771E-02  0.1287559E+00
          2   -1    0    0  502    0 -0.00000000000E+00  0.00000000000E+00  0.18318047684E+03  0.18318047684E+03  0.00000000000E+00 0. -1.
         21   -1    0    0  501  502  0.00000000000E+00 -0.00000000000E+00 -0.11878365645E+03  0.11878365645E+03  0.00000000000E+00 0. -1.
         23    2    1    2    0    0 -0.13563265787E+02 -0.11653377868E+01  0.53940077060E+02  0.11073601168E+03  0.95747648422E+02 0.  0.
         23    2    1    2    0    0 -0.35065894434E+02  0.40247185324E+02  0.51629245391E+02  0.11647946974E+03  0.89735360990E+02 0.  0.
        -13    1    4    4    0    0  0.49431234932E+00 -0.26145958920E+02  0.26118363776E+02  0.36959767841E+02  0.00000000000E+00 0.  1.
         13    1    4    4    0    0 -0.35560206784E+02  0.66393144244E+02  0.25510881616E+02  0.79519701898E+02  0.00000000000E+00 0. -1.
        -13    1    3    3    0    0 -0.10862327761E+02 -0.46509861864E+02  0.12791565875E+02  0.49444732505E+02  0.00000000000E+00 0.  1.
         13    1    3    3    0    0 -0.27009380261E+01  0.45344524077E+02  0.41148511186E+02  0.61291279174E+02  0.00000000000E+00 0. -1.
          2    1    1    2  501    0  0.48629160222E+02 -0.39081847537E+02 -0.41172502056E+02  0.74748651870E+02  0.00000000000E+00 0. -1.
<scales pt_clust_5="13000.00000" pt_clust_6="13000.00000" pt_clust_7="13000.00000" pt_clust_8="13000.00000" pt_clust_9="62.38739"></scales>
<clustering>
<clus scale="   62.387">  2  9  1 -1</clus>
<clus scale="   89.735">  5  6 -1 -1</clus>
<clus scale="   92.265">  2  5  1 -1</clus>
<clus scale="   95.748">  7  8 -1 -1</clus>
<clus scale="   62.387">  2  5  1 -1</clus>
</clustering>
</event>
<event>
 9    1  0.1315259E-005  0.1215664E+03  0.7546771E-02  0.1240739E+00
          1   -1    0    0  502    0 -0.00000000000E+00  0.00000000000E+00  0.69710597111E+02  0.69710597111E+02  0.00000000000E+00 0. -1.
         21   -1    0    0  501  502  0.00000000000E+00 -0.00000000000E+00 -0.58560135661E+03  0.58560135661E+03  0.00000000000E+00 0. -1.
         23    2    1    2    0    0  0.50765781587E+02 -0.21114853674E+02 -0.18460367818E+03  0.21321806570E+03  0.91435353750E+02 0.  0.
         23    2    1    2    0    0 -0.11187965270E+03  0.55861627079E+02 -0.33782804855E+03  0.37148915903E+03  0.90767983458E+02 0.  0.
        -11    1    4    4    0    0 -0.98451316022E+02  0.74206812638E+02 -0.31891743082E+03  0.34191759292E+03  0.00000000000E+00 0. -1.
         11    1    4    4    0    0 -0.13428336677E+02 -0.18345185559E+02 -0.18910617728E+02  0.29571566106E+02  0.00000000000E+00 0.  1.
        -13    1    3    3    0    0  0.74548737541E+02 -0.24118469900E+00 -0.13868513731E+03  0.15745202365E+03  0.00000000000E+00 0.  1.
         13    1    3    3    0    0 -0.23782955954E+02 -0.20873668975E+02 -0.45918540874E+02  0.55766042054E+02  0.00000000000E+00 0. -1.
          1    1    1    2  501    0  0.61113871112E+02 -0.34746773405E+02  0.65409672315E+01  0.70604728997E+02  0.00000000000E+00 0. -1.
<scales pt_clust_5="13000.00000" pt_clust_6="13000.00000" pt_clust_7="13000.00000" pt_clust_8="13000.00000" pt_clust_9="70.30113"></scales>
<clustering>
<clus scale="   70.301">  2  9  1 -1</clus>
<clus scale="   90.768">  5  6 -1 -1</clus>
<clus scale="   91.435">  7  8 -1 -1</clus>
<clus scale="  121.065">  2  5  1 -1</clus>
<clus scale="   70.301">  2  5  1 -1</clus>
</clustering>
</event>
<event>
 9    1  0.1315259E-005  0.2178508E+03  0.7546771E-02  0.1135733E+00
         21   -1    0    0  501  502  0.00000000000E+00  0.00000000000E+00  0.10226770894E+03  0.10226770894E+03  0.00000000000E+00 0. -1.
          4   -1    0    0  502    0 -0.00000000000E+00 -0.00000000000E+00 -0.68098899499E+03  0.68098899499E+03  0.00000000000E+00 0. -1.
         23    2    1    2    0    0 -0.51027109463E+02 -0.15521306680E+03 -0.18861152974E+03  0.26539901829E+03  0.90374043578E+02 0.  0.
         23    2    1    2    0    0  0.30849550244E+02  0.23528653776E+03 -0.32251175193E+03  0.41114130995E+03  0.93337543404E+02 0.  0.
        -11    1    3    3    0    0  0.96544911994E+01 -0.55079479356E+02 -0.18524114547E+02  0.58907563744E+02  0.00000000000E+00 0.  1.
         11    1    3    3    0    0 -0.60681600662E+02 -0.10013358744E+03 -0.17008741519E+03  0.20649145455E+03  0.00000000000E+00 0. -1.
        -13    1    4    4    0    0 -0.15057604116E+01  0.15326633219E+03 -0.13630519072E+03  0.20511445808E+03  0.00000000000E+00 0.  1.
         13    1    4    4    0    0  0.32355310655E+02  0.82020205564E+02 -0.18620656122E+03  0.20602685186E+03  0.00000000000E+00 0. -1.
          4    1    1    2  501    0  0.20177559219E+02 -0.80073470959E+02 -0.67598004375E+02  0.10671637570E+03  0.00000000000E+00 0. -1.
<scales pt_clust_5="13000.00000" pt_clust_6="13000.00000" pt_clust_7="13000.00000" pt_clust_8="13000.00000" pt_clust_9="82.57660"></scales>
<clustering>
<clus scale="   82.577">  1  9  2 -1</clus>
<clus scale="   90.374">  5  6 -1 -1</clus>
<clus scale="   93.338">  7  8 -1 -1</clus>
<clus scale="  216.598">  2  5  1 -1</clus>
<clus scale="   82.577">  1  5  2 -1</clus>
</clustering>
</event>
<event>
 9    1  0.1315259E-005  0.1346366E+03  0.7546771E-02  0.1222430E+00
          2   -1    0    0  502    0 -0.00000000000E+00  0.00000000000E+00  0.35454392502E+03  0.35454392502E+03  0.00000000000E+00 0. -1.
         21   -1    0    0  501  502  0.00000000000E+00 -0.00000000000E+00 -0.89266351408E+02  0.89266351408E+02  0.00000000000E+00 0. -1.
         23    2    1    2    0    0  0.93457680304E+02  0.28591222156E+02  0.25425479668E+03  0.28980370554E+03  0.98938820087E+02 0.  0.
         23    2    1    2    0    0 -0.72345307460E+02 -0.10375236545E+01 -0.62292914970E+00  0.11739289778E+03  0.92443412100E+02 0.  0.
        -11    1    3    3    0    0  0.70585055848E+02 -0.15031598441E+02  0.21509323680E+03  0.22687727868E+03  0.00000000000E+00 0. -1.
         11    1    3    3    0    0  0.22872624456E+02  0.43622820597E+02  0.39161559872E+02  0.62926426865E+02  0.00000000000E+00 0.  1.
        -13    1    4    4    0    0  0.13337598984E+02 -0.24740358971E+02  0.39059387142E+01  0.28376632392E+02  0.00000000000E+00 0.  1.
         13    1    4    4    0    0 -0.85682906444E+02  0.23702835316E+02 -0.45288678639E+01  0.89016265384E+02  0.00000000000E+00 0. -1.
          2    1    1    2  501    0 -0.21112372844E+02 -0.27553698501E+02  0.11645706081E+02  0.36613673106E+02  0.00000000000E+00 0. -1.
<scales pt_clust_5="13000.00000" pt_clust_6="13000.00000" pt_clust_7="13000.00000" pt_clust_8="13000.00000" pt_clust_9="34.71223"></scales>
<clustering>
<clus scale="   34.712">  2  9  1 -1</clus>
<clus scale="   92.443">  7  8 -1 -1</clus>
<clus scale="   98.939">  5  6 -1 -1</clus>
<clus scale="  129.938">  2  7  1 -1</clus>
<clus scale="   34.712">  2  5  1 -1</clus>
</clustering>
</event>
<event>
 9    1  0.1315259E-005  0.9902717E+02  0.7546771E-02  0.1282559E+00
          1   -1    0    0  502    0 -0.00000000000E+00  0.00000000000E+00  0.12710248129E+03  0.12710248129E+03  0.00000000000E+00 0. -1.
         21   -1    0    0  501  502  0.00000000000E+00 -0.00000000000E+00 -0.11879328793E+03  0.11879328793E+03  0.00000000000E+00 0.  1.
         23    2    1    2    0    0  0.31994273192E+02  0.32330113606E+02  0.46376107071E+02  0.11165024082E+03  0.90808387308E+02 0.  0.
         23    2    1    2    0    0 -0.10040083625E+02 -0.27692168999E+02 -0.72643163263E+01  0.96136514040E+02  0.91223897839E+02 0.  0.
        -11    1    4    4    0    0  0.35812190719E+02  0.67305764755E+01  0.68780213945E+01  0.37082621834E+02  0.00000000000E+00 0. -1.
         11    1    4    4    0    0 -0.45852274343E+02 -0.34422745474E+02 -0.14142337721E+02  0.59053892206E+02  0.00000000000E+00 0.  1.
        -13    1    3    3    0    0  0.20086817159E+02 -0.21656977418E+02 -0.11421305171E+02  0.31669403315E+02  0.00000000000E+00 0.  1.
         13    1    3    3    0    0  0.11907456032E+02  0.53987091024E+02  0.57797412242E+02  0.79980837507E+02  0.00000000000E+00 0. -1.
          1    1    1    2  501    0 -0.21954189567E+02 -0.46379446070E+01 -0.30802597385E+02  0.38109014359E+02  0.00000000000E+00 0. -1.
<scales pt_clust_5="13000.00000" pt_clust_6="13000.00000" pt_clust_7="13000.00000" pt_clust_8="13000.00000" pt_clust_9="22.43874"></scales>
<clustering>
<clus scale="   22.439">  2  9  1 -1</clus>
<clus scale="   90.808">  7  8 -1 -1</clus>
<clus scale="   91.224">  5  6 -1 -1</clus>
<clus scale="   98.645">  1  7  2 -1</clus>
<clus scale="   22.439">  2  5  1 -1</clus>
</clustering>
</event>
<event>
 9    1  0.1315259E-005  0.9395046E+02  0.7546771E-02  0.1294107E+00
          3   -1    0    0  502    0 -0.00000000000E+00  0.00000000000E+00  0.54284412823E+03  0.54284412823E+03  0.00000000000E+00 0. -1.
         21   -1    0    0  501  502  0.00000000000E+00 -0.00000000000E+00 -0.25983998021E+02  0.25983998021E+02  0.00000000000E+00 0.  1.
         23    2    1    2    0    0 -0.11512563553E+02  0.11176123604E+02  0.31874923924E+03  0.33205491388E+03  0.91662115698E+02 0.  0.
         23    2    1    2    0    0  0.34027795924E+02  0.16112433311E+01  0.18228894405E+03  0.20642874919E+03  0.90681212865E+02 0.  0.
        -11    1    4    4    0    0 -0.28170852491E+02  0.13529424945E+02  0.40634858053E+02  0.51262402971E+02  0.00000000000E+00 0.  1.
         11    1    4    4    0    0  0.62198648415E+02 -0.11918181614E+02  0.14165408600E+03  0.15516634622E+03  0.00000000000E+00 0. -1.
        -13    1    3    3    0    0  0.51475123717E-02 -0.37451909380E+02  0.19558519893E+03  0.19913868429E+03  0.00000000000E+00 0.  1.
         13    1    3    3    0    0 -0.11517711065E+02  0.48628032984E+02  0.12316404032E+03  0.13291622959E+03  0.00000000000E+00 0. -1.
          3    1    1    2  501    0 -0.22515232371E+02 -0.12787366935E+02  0.15821946911E+02  0.30344463184E+02  0.00000000000E+00 0. -1.
<scales pt_clust_5="13000.00000" pt_clust_6="13000.00000" pt_clust_7="13000.00000" pt_clust_8="13000.00000" pt_clust_9="25.89310"></scales>
<clustering>
<clus scale="   25.893">  2  9  1 -1</clus>
<clus scale="   90.681">  5  6 -1 -1</clus>
<clus scale="   91.662">  7  8 -1 -1</clus>
<clus scale="   92.994">  2  5  1 -1</clus>
<clus scale="   25.893">  2  5  1 -1</clus>
</clustering>
</event>
<event>
 9    1  0.1315259E-005  0.9852625E+02  0.7546771E-02  0.1284335E+00
          2   -1    0    0  502    0 -0.00000000000E+00  0.00000000000E+00  0.65695663407E+03  0.65695663407E+03  0.00000000000E+00 0. -1.
         21   -1    0    0  501  502  0.00000000000E+00 -0.00000000000E+00 -0.64291213718E+02  0.64291213718E+02  0.00000000000E+00 0.  1.
         23    2    1    2    0    0  0.66250087642E+01  0.34579840720E+02  0.58498535514E+03  0.59338143379E+03  0.93026899943E+02 0.  0.
         23    2    1    2    0    0  0.10807146787E+00 -0.10221938074E+02  0.27391989635E+02  0.95816425627E+02  0.91246734880E+02 0.  0.
        -13    1    4    4    0    0 -0.44216287548E+02 -0.74200539273E+01  0.25012674059E+01  0.44904271773E+02  0.00000000000E+00 0.  1.
         13    1    4    4    0    0  0.44324359016E+02 -0.28018841464E+01  0.24890722229E+02  0.50912153854E+02  0.00000000000E+00 0. -1.
        -13    1    3    3    0    0  0.39464522420E+02 -0.13067870225E+02  0.25137285632E+03  0.25478722624E+03  0.00000000000E+00 0.  1.
         13    1    3    3    0    0 -0.32839513656E+02  0.47647710945E+02  0.33361249882E+03  0.33859420755E+03  0.00000000000E+00 0. -1.
          2    1    1    2  501    0 -0.67330802321E+01 -0.24357902646E+02 -0.19711924417E+02  0.32049988377E+02  0.00000000000E+00 0. -1.
<scales pt_clust_5="13000.00000" pt_clust_6="13000.00000" pt_clust_7="13000.00000" pt_clust_8="13000.00000" pt_clust_9="25.27136"></scales>
<clustering>
<clus scale="   25.271">  2  9  1 -1</clus>
<clus scale="   91.247">  5  6 -1 -1</clus>
<clus scale="   93.027">  7  8 -1 -1</clus>
<clus scale="   96.847">  2  5  1 -1</clus>
<clus scale="   25.271">  2  5  1 -1</clus>
</clustering>
</event>
<event>
 9    1  0.1315259E-005  0.1342434E+03  0.7546771E-02  0.1223242E+00
         21   -1    0    0  501  502  0.00000000000E+00  0.00000000000E+00  0.67462447238E+02  0.67462447238E+02  0.00000000000E+00 0.  1.
         -3   -1    0    0    0  501 -0.00000000000E+00 -0.00000000000E+00 -0.89209277146E+03  0.89209277146E+03  0.00000000000E+00 0.  1.
         23    2    1    2    0    0 -0.35771132478E+01 -0.95435987994E+02 -0.77882369803E+03  0.79086930100E+03  0.98929647316E+02 0.  0.
         23    2    1    2    0    0  0.20573676836E+02  0.63223611864E+02 -0.61810967089E+02  0.12890326724E+03  0.91514782289E+02 0.  0.
        -13    1    3    3    0    0  0.32354598260E+02 -0.96194851635E+02 -0.58650357843E+03  0.59521988964E+03  0.00000000000E+00 0.  1.
         13    1    3    3    0    0 -0.35931711508E+02  0.75886364005E+00 -0.19232011959E+03  0.19564941136E+03  0.00000000000E+00 0. -1.
        -13    1    4    4    0    0 -0.32976743859E+02  0.77725882557E+01 -0.30881012744E+02  0.45842291738E+02  0.00000000000E+00 0.  1.
         13    1    4    4    0    0  0.53550420695E+02  0.55451023608E+02 -0.30929954345E+02  0.83060975503E+02  0.00000000000E+00 0. -1.
         -3    1    1    2    0  502 -0.16996563588E+02  0.32212376130E+02  0.16004340892E+02  0.39782650454E+02  0.00000000000E+00 0.  1.
<scales pt_clust_5="13000.00000" pt_clust_6="13000.00000" pt_clust_7="13000.00000" pt_clust_8="13000.00000" pt_clust_9="36.42143"></scales>
<clustering>
<clus scale="   36.421">  1  9  2 -1</clus>
<clus scale="   91.515">  7  8 -1 -1</clus>
<clus scale="   98.930">  5  6 -1 -1</clus>
<clus scale="  128.877">  1  7  2 -1</clus>
<clus scale="   36.421">  1  5  2 -1</clus>
</clustering>
</event>
<event>
 9    1  0.1315259E-005  0.1025608E+03  0.7546771E-02  0.1282899E+00
          2   -1    0    0  502    0 -0.00000000000E+00  0.00000000000E+00  0.76815205904E+02  0.76815205904E+02  0.00000000000E+00 0. -1.
         21   -1    0    0  501  502  0.00000000000E+00 -0.00000000000E+00 -0.18117850642E+03  0.18117850642E+03  0.00000000000E+00 0.  1.
         23    2    1    2    0    0  0.16353163820E+02  0.42225921044E+02  0.12310025991E+00  0.88083281693E+02  0.75552597475E+02 0.  0.
         23    2    1    2    0    0 -0.35371749937E+02 -0.34090805423E+02 -0.58516574640E+02  0.11950099065E+03  0.91885545933E+02 0.  0.
        -13    1    4    4    0    0 -0.28653966512E+02  0.82587512495E+01 -0.69164861399E+02  0.75319551389E+02  0.00000000000E+00 0.  1.
         13    1    4    4    0    0 -0.67177834246E+01 -0.42349556673E+02  0.10648286759E+02  0.44181439264E+02  0.00000000000E+00 0. -1.
        -13    1    3    3    0    0  0.39501734589E+02  0.38048542561E+02  0.18872980521E+02  0.58002310474E+02  0.00000000000E+00 0. -1.
         13    1    3    3    0    0 -0.23148570769E+02  0.41773784830E+01 -0.18749880261E+02  0.30080971219E+02  0.00000000000E+00 0.  1.
          2    1    1    2  501    0  0.19018586117E+02 -0.81351156208E+01 -0.45969826132E+02  0.50409439976E+02  0.00000000000E+00 0. -1.
<scales pt_clust_5="13000.00000" pt_clust_6="13000.00000" pt_clust_7="13000.00000" pt_clust_8="13000.00000" pt_clust_9="20.68542"></scales>
<clustering>
<clus scale="   20.685">  2  9  1 -1</clus>
<clus scale="   75.553">  7  8 -1 -1</clus>
<clus scale="   88.227">  1  7  2 -1</clus>
<clus scale="   91.886">  5  6 -1 -1</clus>
<clus scale="   20.685">  2  5  1 -1</clus>
</clustering>
</event>
<event>
 9    1  0.1315259E-005  0.9263115E+02  0.7546771E-02  0.1297654E+00
          1   -1    0    0  502    0 -0.00000000000E+00  0.00000000000E+00  0.29438493332E+03  0.29438493332E+03  0.00000000000E+00 0. -1.
         21   -1    0    0  501  502  0.00000000000E+00 -0.00000000000E+00 -0.40443711314E+02  0.40443711314E+02  0.00000000000E+00 0.  1.
         23    2    1    2    0    0 -0.11168743466E+01  0.25258935819E+02  0.14533659177E+03  0.17293732676E+03  0.90251497665E+02 0.  0.
         23    2    1    2    0    0 -0.21689695884E+02 -0.10076705213E+02  0.73989846162E+02  0.11774584191E+03  0.88417210185E+02 0.  0.
        -11    1    4    4    0    0 -0.48077375749E+02  0.14089455222E+02  0.22200594774E+02  0.54797930761E+02  0.00000000000E+00 0.  1.
         11    1    4    4    0    0  0.26387679865E+02 -0.24166160435E+02  0.51789251388E+02  0.62947911150E+02  0.00000000000E+00 0. -1.
        -13    1    3    3    0    0  0.42448823565E+02 -0.11087674702E+01  0.58813276544E+02  0.72540564412E+02  0.00000000000E+00 0. -1.
         13    1    3    3    0    0 -0.43565697912E+02  0.26367703289E+02  0.86523315228E+02  0.10039676234E+03  0.00000000000E+00 0.  1.
          1    1    1    2  501    0  0.22806570231E+02 -0.15182230606E+02  0.34614784070E+02  0.44145475964E+02  0.00000000000E+00 0. -1.
<scales pt_clust_5="13000.00000" pt_clust_6="13000.00000" pt_clust_7="13000.00000" pt_clust_8="13000.00000" pt_clust_9="27.39782"></scales>
<clustering>
<clus scale="   27.398">  2  9  1 -1</clus>
<clus scale="   88.417">  5  6 -1 -1</clus>
<clus scale="   90.251">  7  8 -1 -1</clus>
<clus scale="   90.845">  2  5  1 -1</clus>
<clus scale="   27.398">  2  5  1 -1</clus>
</clustering>
</event>
<event>
 9    1  0.1315259E-005  0.1080271E+03  0.7546771E-02  0.1264859E+00
          1   -1    0    0  502    0 -0.00000000000E+00  0.00000000000E+00  0.19121406158E+03  0.19121406158E+03  0.00000000000E+00 0. -1.
         21   -1    0    0  501  502  0.00000000000E+00 -0.00000000000E+00 -0.13093832416E+03  0.13093832416E+03  0.00000000000E+00 0.  1.
         23    2    1    2    0    0  0.52568970581E+02 -0.21007349989E+02  0.12718107917E+03  0.16600608188E+03  0.90433328486E+02 0.  0.
         23    2    1    2    0    0 -0.61609166356E+02 -0.67119656481E+00 -0.72143539403E+02  0.13208132443E+03  0.91894755566E+02 0.  0.
        -11    1    3    3    0    0 -0.10400370486E+02  0.24619342929E+02  0.19063830528E+02  0.32828484383E+02  0.00000000000E+00 0.  1.
         11    1    3    3    0    0  0.62969341067E+02 -0.45626692919E+02  0.10811724864E+03  0.13317759750E+03  0.00000000000E+00 0. -1.
        -13    1    4    4    0    0  0.22446843127E+02 -0.52454880551E+01 -0.30308523974E+02  0.38078636225E+02  0.00000000000E+00 0. -1.
         13    1    4    4    0    0 -0.84056009484E+02  0.45742914903E+01 -0.41835015430E+02  0.94002688201E+02  0.00000000000E+00 0.  1.
          1    1    1    2  501    0  0.90401957753E+01  0.21678546554E+02  0.52381976538E+01  0.24064979431E+02  0.00000000000E+00 0. -1.
<scales pt_clust_5="13000.00000" pt_clust_6="13000.00000" pt_clust_7="13000.00000" pt_clust_8="13000.00000" pt_clust_9="23.48798"></scales>
<clustering>
<clus scale="   23.488">  2  9  1 -1</clus>
<clus scale="   90.433">  5  6 -1 -1</clus>
<clus scale="   91.895">  7  8 -1 -1</clus>
<clus scale="  106.787">  1  5  2 -1</clus>
<clus scale="   23.488">  2  5  1 -1</clus>
</clustering>
</event>
<event>
 9    1  0.1315259E-005  0.1006743E+03  0.7546771E-02  0.1280713E+00
          2   -1    0    0  502    0 -0.00000000000E+00  0.00000000000E+00  0.30333612025E+03  0.30333612025E+03  0.00000000000E+00 0. -1.
         21   -1    0    0  501  502  0.00000000000E+00 -0.00000000000E+00 -0.56341287489E+02  0.56341287489E+02  0.00000000000E+00 0. -1.
         23    2    1    2    0    0  0.30734569678E+02 -0.18230937119E+02  0.13847942398E+03  0.16904270691E+03  0.90121612561E+02 0.  0.
         23    2    1    2    0    0  0.89326910730E+00  0.52821614109E+02  0.89642371581E+02  0.14010721669E+03  0.93826203903E+02 0.  0.
        -11    1    3    3    0    0 -0.43360773293E+01  0.32315268460E+02  0.68510772128E+02  0.75873605686E+02  0.00000000000E+00 0.  1.
         11    1    3    3    0    0  0.35070647008E+02 -0.50546205579E+02  0.69968651854E+02  0.93169101221E+02  0.00000000000E+00 0. -1.
        -13    1    4    4    0    0 -0.27080530490E+02  0.42077197727E+02  0.97092978952E+02  0.10922862382E+03  0.00000000000E+00 0. -1.
         13    1    4    4    0    0  0.27973799597E+02  0.10744416382E+02 -0.74506073704E+01  0.30878592867E+02  0.00000000000E+00 0.  1.
          2    1    1    2  501    0 -0.31627838786E+02 -0.34590676990E+02  0.18873037199E+02  0.50527484145E+02  0.00000000000E+00 0. -1.
<scales pt_clust_5="13000.00000" pt_clust_6="13000.00000" pt_clust_7="13000.00000" pt_clust_8="13000.00000" pt_clust_9="46.87041"></scales>
<clustering>
<clus scale="   46.870">  2  9  1 -1</clus>
<clus scale="   90.122">  5  6 -1 -1</clus>
<clus scale="   93.826">  7  8 -1 -1</clus>
<clus scale="   97.231">  1  5  2 -1</clus>
<clus scale="   46.870">  2  5  1 -1</clus>
</clustering>
</event>
<event>
 9    1  0.1315259E-005  0.9852745E+02  0.7546771E-02  0.1284133E+00
         -3   -1    0    0    0  501 -0.00000000000E+00  0.00000000000E+00  0.10096347386E+03  0.10096347386E+03  0.00000000000E+00 0.  1.
         21   -1    0    0  501  502  0.00000000000E+00 -0.00000000000E+00 -0.24364856720E+03  0.24364856720E+03  0.00000000000E+00 0.  1.
         23    2    1    2    0    0 -0.14882668617E+02  0.34106803772E+02  0.64105818675E+01  0.98555364418E+02  0.91034589069E+02 0.  0.
         23    2    1    2    0    0 -0.26685539387E+02 -0.41814595701E+02 -0.12638113161E+02  0.10320013247E+03  0.89610083203E+02 0.  0.
        -11    1    3    3    0    0  0.21733485058E+02 -0.16077260086E+02  0.21599779446E+02  0.34603079874E+02  0.00000000000E+00 0. -1.
         11    1    3    3    0    0 -0.36616153675E+02  0.50184063859E+02 -0.15189197579E+02  0.63952284544E+02  0.00000000000E+00 0.  1.
        -11    1    4    4    0    0  0.25577515627E+02 -0.33224470361E+02 -0.24994021755E+02  0.48813685170E+02  0.00000000000E+00 0. -1.
         11    1    4    4    0    0 -0.52263055014E+02 -0.85901253402E+01  0.12355908595E+02  0.54386447300E+02  0.00000000000E+00 0.  1.
         -3    1    1    2    0  502  0.41568208004E+02  0.77077919290E+01 -0.13645756205E+03  0.14285654417E+03  0.00000000000E+00 0.  1.
<scales pt_clust_5="13000.00000" pt_clust_6="13000.00000" pt_clust_7="13000.00000" pt_clust_8="13000.00000" pt_clust_9="42.27678"></scales>
<clustering>
<clus scale="   42.277">  2  9  1 -1</clus>
<clus scale="   89.610">  7  8 -1 -1</clus>
<clus scale="   91.035">  5  6 -1 -1</clus>
<clus scale="   97.213">  2  7  1 -1</clus>
<clus scale="   42.277">  2  5  1 -1</clus>
</clustering>
</event>
<event>
 9    1  0.1315259E-005  0.9625502E+02  0.7546771E-02  0.1297058E+00
         21   -1    0    0  501  502  0.00000000000E+00  0.00000000000E+00  0.68859221284E+03  0.68859221284E+03  0.00000000000E+00 0.  1.
          2   -1    0    0  502    0 -0.00000000000E+00 -0.00000000000E+00 -0.23761675794E+02  0.23761675794E+02  0.00000000000E+00 0. -1.
         23    2    1    2    0    0  0.73034515396E+01  0.31488112577E+02  0.11800946603E+03  0.15299083344E+03  0.91842906128E+02 0.  0.
         23    2    1    2    0    0 -0.31228650894E+02 -0.88915927309E+01  0.34631513287E+03  0.35617435200E+03  0.76627075574E+02 0.  0.
        -11    1    4    4    0    0 -0.54648201421E+02 -0.16086570880E+01  0.28384458276E+03  0.28906186338E+03  0.00000000000E+00 0. -1.
         11    1    4    4    0    0  0.23419550527E+02 -0.72829356429E+01  0.62470550106E+02  0.67112488622E+02  0.00000000000E+00 0.  1.
        -11    1    3    3    0    0  0.43168998415E+02 -0.80930997637E+01  0.55157624800E+02  0.70508327604E+02  0.00000000000E+00 0.  1.
         11    1    3    3    0    0 -0.35865546876E+02  0.39581212341E+02  0.62851841231E+02  0.82482505837E+02  0.00000000000E+00 0. -1.
          2    1    1    2  501    0  0.23925199355E+02 -0.22596519846E+02  0.20050593815E+03  0.20318870319E+03  0.00000000000E+00 0. -1.
<scales pt_clust_5="13000.00000" pt_clust_6="13000.00000" pt_clust_7="13000.00000" pt_clust_8="13000.00000" pt_clust_9="32.90924"></scales>
<clustering>
<clus scale="   32.909">  1  9  2 -1</clus>
<clus scale="   76.627">  5  6 -1 -1</clus>
<clus scale="   81.863">  1  5  2 -1</clus>
<clus scale="   91.843">  7  8 -1 -1</clus>
<clus scale="   32.909">  1  5  2 -1</clus>
</clustering>
</event>
<event>
 9    1  0.1315259E-005  0.1588660E+03  0.7546771E-02  0.1192350E+00
         21   -1    0    0  501  502  0.00000000000E+00  0.00000000000E+00  0.94807918338E+02  0.94807918338E+02  0.00000000000E+00 0. -1.
          1   -1    0    0  502    0 -0.00000000000E+00 -0.00000000000E+00 -0.55438023564E+03  0.55438023564E+03  0.00000000000E+00 0. -1.
         23    2    1    2    0    0 -0.10197978997E+03  0.41410383824E+02 -0.33068112103E+03  0.36429108901E+03  0.10603441081E+03 0.  0.
         23    2    1    2    0    0  0.14175738233E+03 -0.60305591708E+02 -0.38387979754E+02  0.18424857797E+03  0.93498565009E+02 0.  0.
        -13    1    3    3    0    0 -0.64598093619E+02 -0.30579324320E+02 -0.14460667224E+03  0.16130436582E+03  0.00000000000E+00 0.  1.
         13    1    3    3    0    0 -0.37381696353E+02  0.71989708143E+02 -0.18607444878E+03  0.20298672319E+03  0.00000000000E+00 0. -1.
        -13    1    4    4    0    0  0.11752968064E+03 -0.73772427676E+01 -0.44125629744E+02  0.12575659324E+03  0.00000000000E+00 0. -1.
         13    1    4    4    0    0  0.24227701687E+02 -0.52928348940E+02  0.57376499893E+01  0.58491984733E+02  0.00000000000E+00 0.  1.
          1    1    1    2  501    0 -0.39777592356E+02  0.18895207884E+02 -0.90503216516E+02  0.10064848699E+03  0.00000000000E+00 0. -1.
<scales pt_clust_5="13000.00000" pt_clust_6="13000.00000" pt_clust_7="13000.00000" pt_clust_8="13000.00000" pt_clust_9="44.03734"></scales>
<clustering>
<clus scale="   44.037">  1  9  2 -1</clus>
<clus scale="   93.499">  7  8 -1 -1</clus>
<clus scale="  106.034">  5  6 -1 -1</clus>
<clus scale="  150.788">  1  7  2 -1</clus>
<clus scale="   44.037">  1  5  2 -1</clus>
</clustering>
</event>
<event>
 9    1  0.1315259E-005  0.1134238E+03  0.7546771E-02  0.1255615E+00
          1   -1    0    0  502    0 -0.00000000000E+00  0.00000000000E+00  0.27315834761E+03  0.27315834761E+03  0.00000000000E+00 0. -1.
         21   -1    0    0  501  502  0.00000000000E+00 -0.00000000000E+00 -0.12603333418E+03  0.12603333418E+03  0.00000000000E+00 0.  1.
         23    2    1    2    0    0  0.35261330908E+02  0.54581410724E+02  0.19337372356E+03  0.22359067143E+03  0.91525403750E+02 0.  0.
         23    2    1    2    0    0 -0.67217856592E+02 -0.43954741079E+02 -0.97433970630E+00  0.11917482620E+03  0.88042207797E+02 0.  0.
        -11    1    4    4    0    0 -0.32268717815E+02 -0.68292186765E+02 -0.82078202045E+01  0.75976715085E+02  0.00000000000E+00 0.  1.
         11    1    4    4    0    0 -0.34949138778E+02  0.24337445686E+02  0.72334804982E+01  0.43198111115E+02  0.00000000000E+00 0. -1.
        -13    1    3    3    0    0  0.27289874943E+02  0.74498098815E+02  0.18361446155E+03  0.20002243497E+03  0.00000000000E+00 0. -1.
         13    1    3    3    0    0  0.79714559646E+01 -0.19916688090E+02  0.97592620108E+01  0.23568236457E+02  0.00000000000E+00 0.  1.
          1    1    1    2  501    0  0.31956525684E+02 -0.10626669645E+02 -0.45274370428E+02  0.56426184163E+02  0.00000000000E+00 0. -1.
<scales pt_clust_5="13000.00000" pt_clust_6="13000.00000" pt_clust_7="13000.00000" pt_clust_8="13000.00000" pt_clust_9="33.67708"></scales>
<clustering>
<clus scale="   33.677">  2  9  1 -1</clus>
<clus scale="   88.042">  5  6 -1 -1</clus>
<clus scale="   91.525">  7  8 -1 -1</clus>
<clus scale="  110.632">  2  5  1 -1</clus>
<clus scale="   33.677">  2  5  1 -1</clus>
</clustering>
</event>
<event>
 9    1  0.1315259E-005  0.1014112E+03  0.7546771E-02  0.1277928E+00
          2   -1    0    0  502    0 -0.00000000000E+00  0.00000000000E+00  0.32621642576E+03  0.32621642576E+03  0.00000000000E+00 0. -1.
         21   -1    0    0  501  502  0.00000000000E+00 -0.00000000000E+00 -0.42059209111E+02  0.42059209111E+02  0.00000000000E+00 0. -1.
         23    2    1    2    0    0 -0.41613114651E+02 -0.24413767848E+02  0.13524704814E+03  0.16871235758E+03  0.88568686324E+02 0.  0.
         23    2    1    2    0    0  0.26792891228E+02  0.47973380404E+02  0.10234242465E+03  0.14531155719E+03  0.87305054391E+02 0.  0.
        -11    1    4    4    0    0 -0.21707774130E+02  0.21488021061E+02  0.18172589873E+01  0.30598446644E+02  0.00000000000E+00 0. -1.
         11    1    4    4    0    0  0.48500665358E+02  0.26485359343E+02  0.10052516567E+03  0.11471311055E+03  0.00000000000E+00 0.  1.
        -11    1    3    3    0    0  0.18592023786E+02 -0.32895027029E+02  0.35207022013E+02  0.51645721514E+02  0.00000000000E+00 0.  1.
         11    1    3    3    0    0 -0.60205138437E+02  0.84812591810E+01  0.10004002613E+03  0.11706663606E+03  0.00000000000E+00 0. -1.
          2    1    1    2  501    0  0.14820223422E+02 -0.23559612556E+02  0.46567743853E+02  0.54251720099E+02  0.00000000000E+00 0. -1.
<scales pt_clust_5="13000.00000" pt_clust_6="13000.00000" pt_clust_7="13000.00000" pt_clust_8="13000.00000" pt_clust_9="27.83335"></scales>
<clustering>
<clus scale="   27.833">  2  9  1 -1</clus>
<clus scale="   87.305">  5  6 -1 -1</clus>
<clus scale="   88.569">  7  8 -1 -1</clus>
<clus scale="  100.309">  2  5  1 -1</clus>
<clus scale="   27.833">  2  5  1 -1</clus>
</clustering>
</event>
<event>
 9    1  0.1315259E-005  0.1382798E+03  0.7546771E-02  0.1216979E+00
         21   -1    0    0  501  502  0.00000000000E+00  0.00000000000E+00  0.27466102342E+03  0.27466102342E+03  0.00000000000E+00 0.  1.
          1   -1    0    0  502    0 -0.00000000000E+00 -0.00000000000E+00 -0.13670412004E+03  0.13670412004E+03  0.00000000000E+00 0. -1.
         23    2    1    2    0    0  0.36824317892E+02 -0.10187361987E+03 -0.68717620032E+02  0.15398396913E+03  0.85174448240E+02 0.  0.
         23    2    1    2    0    0 -0.18788474564E+02  0.85191020099E+02  0.15238312731E+03  0.19778959379E+03  0.91047181400E+02 0.  0.
        -11    1    4    4    0    0 -0.40247783980E+02  0.94374823105E+02  0.12783555452E+03  0.16391589414E+03  0.00000000000E+00 0.  1.
         11    1    4    4    0    0  0.21459309416E+02 -0.91838030061E+01  0.24547572786E+02  0.33873699650E+02  0.00000000000E+00 0. -1.
        -11    1    3    3    0    0  0.24312686046E+02 -0.67323338841E+02 -0.87229480968E+02  0.11283847307E+03  0.00000000000E+00 0. -1.
         11    1    3    3    0    0  0.12511631847E+02 -0.34550281026E+02  0.18511860936E+02  0.41145496057E+02  0.00000000000E+00 0.  1.
          1    1    1    2  501    0 -0.18035843329E+02  0.16682599769E+02  0.54291396111E+02  0.59591580540E+02  0.00000000000E+00 0. -1.
<scales pt_clust_5="13000.00000" pt_clust_6="13000.00000" pt_clust_7="13000.00000" pt_clust_8="13000.00000" pt_clust_9="24.56829"></scales>
<clustering>
<clus scale="   24.568">  1  9  2 -1</clus>
<clus scale="   85.174">  7  8 -1 -1</clus>
<clus scale="   91.047">  5  6 -1 -1</clus>
<clus scale="  134.486">  2  7  1 -1</clus>
<clus scale="   24.568">  1  5  2 -1</clus>
</clustering>
</event>
<event>
 9    1  0.1315259E-005  0.1467220E+03  0.7546771E-02  0.1204562E+00
         21   -1    0    0  501  502  0.00000000000E+00  0.00000000000E+00  0.21829425383E+03  0.21829425383E+03  0.00000000000E+00 0.  1.
         -2   -1    0    0    0  501 -0.00000000000E+00 -0.00000000000E+00 -0.20899435086E+03  0.20899435086E+03  0.00000000000E+00 0.  1.
         23    2    1    2    0    0 -0.52844637845E+01 -0.10353503788E+03 -0.92658169852E+02  0.16591711429E+03  0.90529126511E+02 0.  0.
         23    2    1    2    0    0  0.31034462442E+02  0.15124203776E+03  0.48961077593E+02  0.18555789155E+03  0.90538677656E+02 0.  0.
        -13    1    3    3    0    0  0.19878678573E+02  0.90872934236E+01 -0.19428551894E+02  0.29243963347E+02  0.00000000000E+00 0. -1.
         13    1    3    3    0    0 -0.25163142357E+02 -0.11262233130E+03 -0.73229617958E+02  0.13667315094E+03  0.00000000000E+00 0.  1.
        -13    1    4    4    0    0  0.44441271138E+02  0.32770322258E+02 -0.34373713712E+01  0.55323919992E+02  0.00000000000E+00 0. -1.
         13    1    4    4    0    0 -0.13406808696E+02  0.11847171550E+03  0.52398448964E+02  0.13023397156E+03  0.00000000000E+00 0.  1.
         -2    1    1    2    0  502 -0.25749998657E+02 -0.47706999880E+02  0.52996995225E+02  0.75813598855E+02  0.00000000000E+00 0.  1.
<scales pt_clust_5="13000.00000" pt_clust_6="13000.00000" pt_clust_7="13000.00000" pt_clust_8="13000.00000" pt_clust_9="54.21273"></scales>
<clustering>
<clus scale="   54.213">  1  9  2 -1</clus>
<clus scale="   90.529">  5  6 -1 -1</clus>
<clus scale="   90.539">  7  8 -1 -1</clus>
<clus scale="  146.716">  2  5  1 -1</clus>
<clus scale="   54.213">  1  5  2 -1</clus>
</clustering>
</event>
<event>
 9    1  0.1315259E-005  0.1078135E+03  0.7546771E-02  0.1265683E+00
         21   -1    0    0  501  502  0.00000000000E+00  0.00000000000E+00  0.36529228710E+03  0.36529228710E+03  0.00000000000E+00 0.  1.
         -3   -1    0    0    0  501 -0.00000000000E+00 -0.00000000000E+00 -0.66822611594E+02  0.66822611594E+02  0.00000000000E+00 0.  1.
         23    2    1    2    0    0  0.49609923390E+02 -0.73710795971E+01  0.52508190629E+02  0.11609336985E+03  0.90581913901E+02 0.  0.
         23    2    1    2    0    0 -0.62036866382E+02  0.29925231671E+02  0.57343714793E+02  0.12565403719E+03  0.88071239091E+02 0.  0.
        -11    1    3    3    0    0  0.38853351089E+02  0.31170420079E+02 -0.33118229120E+00  0.49812525136E+02  0.00000000000E+00 0.  1.
         11    1    3    3    0    0  0.10756572302E+02 -0.38541499676E+02  0.52839372920E+02  0.66280844710E+02  0.00000000000E+00 0. -1.
        -13    1    4    4    0    0 -0.74777622699E+01 -0.29817159412E+02  0.12829410558E+02  0.33310264172E+02  0.00000000000E+00 0. -1.
         13    1    4    4    0    0 -0.54559104112E+02  0.59742391083E+02  0.44514304234E+02  0.92343773019E+02  0.00000000000E+00 0.  1.
         -3    1    1    2    0  502  0.12426942992E+02 -0.22554152074E+02  0.18861777008E+03  0.19036749166E+03  0.00000000000E+00 0.  1.
<scales pt_clust_5="13000.00000" pt_clust_6="13000.00000" pt_clust_7="13000.00000" pt_clust_8="13000.00000" pt_clust_9="25.75109"></scales>
<clustering>
<clus scale="   25.751">  1  9  2 -1</clus>
<clus scale="   88.071">  7  8 -1 -1</clus>
<clus scale="   90.582">  5  6 -1 -1</clus>
<clus scale="  105.713">  1  7  2 -1</clus>
<clus scale="   25.751">  1  5  2 -1</clus>
</clustering>
</event>
<event>
 9    1  0.1315259E-005  0.9543843E+02  0.7546771E-02  0.1290569E+00
         21   -1    0    0  501  502  0.00000000000E+00  0.00000000000E+00  0.10852815866E+03  0.10852815866E+03  0.00000000000E+00 0. -1.
         -1   -1    0    0    0  501 -0.00000000000E+00 -0.00000000000E+00 -0.31347717017E+03  0.31347717017E+03  0.00000000000E+00 0.  1.
         23    2    1    2    0    0  0.43958909130E+02  0.21652006162E+02 -0.20214172490E+03  0.22626107809E+03  0.89059550036E+02 0.  0.
         23    2    1    2    0    0 -0.61595355247E+01  0.13092120374E+02 -0.67432453632E+02  0.11320723368E+03  0.89774152516E+02 0.  0.
        -11    1    4    4    0    0  0.35683878710E+02  0.27906504091E+02 -0.43379619850E+02  0.62720838552E+02  0.00000000000E+00 0.  1.
         11    1    4    4    0    0 -0.41843414235E+02 -0.14814383717E+02 -0.24052833782E+02  0.50486395124E+02  0.00000000000E+00 0. -1.
        -11    1    3    3    0    0  0.48350127603E+02  0.50262612499E+02 -0.16528475193E+03  0.17939652805E+03  0.00000000000E+00 0.  1.
         11    1    3    3    0    0 -0.43912184736E+01 -0.28610606338E+02 -0.36856972962E+02  0.46864550042E+02  0.00000000000E+00 0. -1.
         -1    1    1    2    0  502 -0.37799373605E+02 -0.34744126536E+02  0.64625167015E+02  0.82537017062E+02  0.00000000000E+00 0.  1.
<scales pt_clust_5="13000.00000" pt_clust_6="13000.00000" pt_clust_7="13000.00000" pt_clust_8="13000.00000" pt_clust_9="51.34147"></scales>
<clustering>
<clus scale="   51.341">  1  9  2 -1</clus>
<clus scale="   89.060">  7  8 -1 -1</clus>
<clus scale="   89.774">  5  6 -1 -1</clus>
<clus scale="   94.767">  2  7  1 -1</clus>
<clus scale="   51.341">  1  5  2 -1</clus>
</clustering>
</event>
<event>
 9    1  0.1315259E-005  0.1556589E+03  0.7546771E-02  0.1210040E+00
          1   -1    0    0  502    0 -0.00000000000E+00  0.00000000000E+00  0.10221281515E+04  0.10221281515E+04  0.00000000000E+00 0. -1.
         21   -1    0    0  501  502  0.00000000000E+00 -0.00000000000E+00 -0.43563709809E+02  0.43563709809E+02  0.00000000000E+00 0. -1.
         23    2    1    2    0    0 -0.24664302579E+02 -0.58402836381E+02  0.17709001883E+03  0.20807563886E+03  0.88968407868E+02 0.  0.
         23    2    1    2    0    0 -0.25785200320E+02 -0.77779936890E+02  0.58052768876E+03  0.59321433253E+03  0.90422628620E+02 0.  0.
        -11    1    3    3    0    0 -0.39793249568E+01  0.23585213247E+02  0.29487073464E+02  0.37968207918E+02  0.00000000000E+00 0.  1.
         11    1    3    3    0    0 -0.20684977623E+02 -0.81988049628E+02  0.14760294537E+03  0.17010743094E+03  0.00000000000E+00 0. -1.
        -13    1    4    4    0    0 -0.30010039573E+02  0.71188189506E+01  0.84437317668E+02  0.89894052492E+02  0.00000000000E+00 0.  1.
         13    1    4    4    0    0  0.42248392524E+01 -0.84898755840E+02  0.49609037109E+03  0.50332028004E+03  0.00000000000E+00 0. -1.
          1    1    1    2  501    0  0.50449502900E+02  0.13618277327E+03  0.22094673406E+03  0.26440188988E+03  0.00000000000E+00 0. -1.
<scales pt_clust_5="13000.00000" pt_clust_6="13000.00000" pt_clust_7="13000.00000" pt_clust_8="13000.00000" pt_clust_9="126.70222"></scales>
<clustering>
<clus scale="   88.968">  5  6 -1 -1</clus>
<clus scale="   90.423">  7  8 -1 -1</clus>
<clus scale="  109.246">  1  5  2 -1</clus>
<clus scale="  126.702">  2  9  1 -1</clus>
<clus scale="  126.702">  2  5  1 -1</clus>
</clustering>
</event>
<event>
 9    1  0.1315259E-005  0.9876114E+02  0.7546771E-02  0.1283482E+00
         -3   -1    0    0    0  501 -0.00000000000E+00  0.00000000000E+00  0.98029694178E+02  0.98029694178E+02  0.00000000000E+00 0.  1.
         21   -1    0    0  501  502  0.00000000000E+00 -0.00000000000E+00 -0.16383753872E+03  0.16383753872E+03  0.00000000000E+00 0.  1.
         23    2    1    2    0    0 -0.35424651282E+02  0.85464956140E+01  0.23690485616E+02  0.10201376911E+03  0.92290960953E+02 0.  0.
         23    2    1    2    0    0  0.24525942945E+02 -0.28070163921E+02 -0.41471154783E+02  0.10687644007E+03  0.91177084747E+02 0.  0.
        -11    1    4    4    0    0 -0.19328668447E+02 -0.30401466891E+02 -0.50508230692E+02  0.62039729051E+02  0.00000000000E+00 0.  1.
         11    1    4    4    0    0  0.43854611392E+02  0.23313029703E+01  0.90370759093E+01  0.44836711018E+02  0.00000000000E+00 0. -1.
        -13    1    3    3    0    0 -0.28849632875E+02 -0.40473296570E+02  0.13692535746E+02  0.51554578725E+02  0.00000000000E+00 0.  1.
         13    1    3    3    0    0 -0.65750184070E+01  0.49019792184E+02  0.99979498692E+01  0.50459190386E+02  0.00000000000E+00 0. -1.
         -3    1    1    2    0  502  0.10898708337E+02  0.19523668307E+02 -0.48027175373E+02  0.52977023717E+02  0.00000000000E+00 0.  1.
<scales pt_clust_5="13000.00000" pt_clust_6="13000.00000" pt_clust_7="13000.00000" pt_clust_8="13000.00000" pt_clust_9="22.35968"></scales>
<clustering>
<clus scale="   22.360">  2  9  1 -1</clus>
<clus scale="   91.177">  5  6 -1 -1</clus>
<clus scale="   92.291">  7  8 -1 -1</clus>
<clus scale="   97.721">  2  5  1 -1</clus>
<clus scale="   22.360">  2  5  1 -1</clus>
</clustering>
</event>
<event>
 9    1  0.1315259E-005  0.1114619E+03  0.7546771E-02  0.1260441E+00
         21   -1    0    0  501  502  0.00000000000E+00  0.00000000000E+00  0.19701256370E+03  0.19701256370E+03  0.00000000000E+00 0. -1.
         -3   -1    0    0    0  501 -0.00000000000E+00 -0.00000000000E+00 -0.23329896422E+03  0.23329896422E+03  0.00000000000E+00 0.  1.
         23    2    1    2    0    0 -0.15934453065E+02  0.53248286647E+02 -0.16909757362E+03  0.20211686246E+03  0.95749411812E+02 0.  0.
         23    2    1    2    0    0  0.74576761895E+02 -0.46144850430E+02  0.10254978616E+03  0.16182350658E+03  0.89327196329E+02 0.  0.
        -11    1    4    4    0    0  0.34845424165E+02 -0.63828368128E+02  0.91638511613E+02  0.11698667007E+03  0.00000000000E+00 0. -1.
         11    1    4    4    0    0  0.39731337730E+02  0.17683517698E+02  0.10911274547E+02  0.44836836510E+02  0.00000000000E+00 0.  1.
        -13    1    3    3    0    0  0.23257894079E+02  0.21620407227E+02 -0.71918018861E+01  0.32559079533E+02  0.00000000000E+00 0. -1.
         13    1    3    3    0    0 -0.39192347144E+02  0.31627879419E+02 -0.16190577173E+03  0.16955778293E+03  0.00000000000E+00 0.  1.
         -3    1    1    2    0  502 -0.58642308830E+02 -0.71034362166E+01  0.30261386945E+02  0.66371158878E+02  0.00000000000E+00 0.  1.
<scales pt_clust_5="13000.00000" pt_clust_6="13000.00000" pt_clust_7="13000.00000" pt_clust_8="13000.00000" pt_clust_9="59.07097"></scales>
<clustering>
<clus scale="   59.071">  1  9  2 -1</clus>
<clus scale="   89.327">  5  6 -1 -1</clus>
<clus scale="   95.749">  7  8 -1 -1</clus>
<clus scale="  105.996">  1  5  2 -1</clus>
<clus scale="   59.071">  1  5  2 -1</clus>
</clustering>
</event>
<event>
 9    1  0.1315259E-005  0.9353140E+02  0.7546771E-02  0.1296160E+00
         21   -1    0    0  501  502  0.00000000000E+00  0.00000000000E+00  0.30340431884E+02  0.30340431884E+02  0.00000000000E+00 0. -1.
         -4   -1    0    0    0  501 -0.00000000000E+00 -0.00000000000E+00 -0.46648676406E+03  0.46648676406E+03  0.00000000000E+00 0.  1.
         23    2    1    2    0    0  0.12592369442E+01 -0.29061189066E+01 -0.21095552515E+03  0.22991987799E+03  0.91383179535E+02 0.  0.
         23    2    1    2    0    0 -0.64233621448E+01  0.39153857307E+02 -0.20055315298E+03  0.22277591501E+03  0.88505689171E+02 0.  0.
        -11    1    3    3    0    0 -0.38628925408E+02  0.15202286677E+02 -0.14434422732E+03  0.15019507102E+03  0.00000000000E+00 0. -1.
         11    1    3    3    0    0  0.39888162352E+02 -0.18108405583E+02 -0.66611297824E+02  0.79724806970E+02  0.00000000000E+00 0.  1.
        -11    1    4    4    0    0 -0.15455460706E+02  0.60705097222E+02 -0.89205592948E+02  0.10900283440E+03  0.00000000000E+00 0. -1.
         11    1    4    4    0    0  0.90320985611E+01 -0.21551239915E+02 -0.11134756004E+03  0.11377308061E+03  0.00000000000E+00 0.  1.
         -4    1    1    2    0  502  0.51641252006E+01 -0.36247738400E+02 -0.24637654048E+02  0.44131402937E+02  0.00000000000E+00 0.  1.
<scales pt_clust_5="13000.00000" pt_clust_6="13000.00000" pt_clust_7="13000.00000" pt_clust_8="13000.00000" pt_clust_9="36.61375"></scales>
<clustering>
<clus scale="   36.614">  1  9  2 -1</clus>
<clus scale="   88.506">  7  8 -1 -1</clus>
<clus scale="   90.722">  1  7  2 -1</clus>
<clus scale="   91.383">  5  6 -1 -1</clus>
<clus scale="   36.614">  1  5  2 -1</clus>
</clustering>
</event>
<event>
 9    1  0.1315259E-005  0.9830220E+02  0.7546771E-02  0.1284570E+00
          3   -1    0    0  502    0 -0.00000000000E+00  0.00000000000E+00  0.11073766226E+03  0.11073766226E+03  0.00000000000E+00 0. -1.
         21   -1    0    0  501  502  0.00000000000E+00 -0.00000000000E+00 -0.16963072802E+03  0.16963072802E+03  0.00000000000E+00 0.  1.
         23    2    1    2    0    0 -0.61546942789E+01 -0.26377701647E+02  0.47931009347E+02  0.10772890346E+03  0.92598442631E+02 0.  0.
         23    2    1    2    0    0  0.18476630986E+02  0.48348513492E+02 -0.63907093251E+02  0.12287590547E+03  0.91298449759E+02 0.  0.
        -11    1    4    4    0    0 -0.18125374705E+02  0.31262679508E+02 -0.73015086871E+02  0.81468320524E+02  0.00000000000E+00 0.  1.
         11    1    4    4    0    0  0.36602005690E+02  0.17085833984E+02  0.91079936197E+01  0.41407584949E+02  0.00000000000E+00 0. -1.
        -11    1    3    3    0    0 -0.11370154518E+02  0.30273080939E+02 -0.14870026856E+01  0.32372071610E+02  0.00000000000E+00 0.  1.
         11    1    3    3    0    0  0.52154602392E+01 -0.56650782587E+02  0.49418012033E+02  0.75356831850E+02  0.00000000000E+00 0. -1.
          3    1    1    2  501    0 -0.12321936707E+02 -0.21970811845E+02 -0.42916981851E+02  0.49763581347E+02  0.00000000000E+00 0. -1.
<scales pt_clust_5="13000.00000" pt_clust_6="13000.00000" pt_clust_7="13000.00000" pt_clust_8="13000.00000" pt_clust_9="25.19021"></scales>
<clustering>
<clus scale="   25.190">  2  9  1 -1</clus>
<clus scale="   91.298">  5  6 -1 -1</clus>
<clus scale="   92.598">  7  8 -1 -1</clus>
<clus scale="   97.079">  2  5  1 -1</clus>
<clus scale="   25.190">  2  5  1 -1</clus>
</clustering>
</event>
<event>
 9    1  0.1315259E-005  0.1648363E+03  0.7546771E-02  0.1183674E+00
         21   -1    0    0  501  502  0.00000000000E+00  0.00000000000E+00  0.27708944585E+03  0.27708944585E+03  0.00000000000E+00 0.  1.
          2   -1    0    0  502    0 -0.00000000000E+00 -0.00000000000E+00 -0.16459201424E+03  0.16459201424E+03  0.00000000000E+00 0. -1.
         23    2    1    2    0    0  0.28275212466E+02  0.13978297327E+03 -0.72045327992E+02  0.18285002258E+03  0.88909134605E+02 0.  0.
         23    2    1    2    0    0 -0.33895662349E+02 -0.11700258821E+03  0.13248856232E+03  0.20173349660E+03  0.91129923365E+02 0.  0.
        -13    1    3    3    0    0  0.58964360099E+02  0.86330067227E+02 -0.58291270548E+02  0.11969773804E+03  0.00000000000E+00 0.  1.
         13    1    3    3    0    0 -0.30689147632E+02  0.53452906045E+02 -0.13754057444E+02  0.63152284545E+02  0.00000000000E+00 0. -1.
        -13    1    4    4    0    0  0.19307127456E+02 -0.84122880190E+02  0.96934763754E+02  0.12979126537E+03  0.00000000000E+00 0. -1.
         13    1    4    4    0    0 -0.53202789805E+02 -0.32879708015E+02  0.35553798568E+02  0.71942231233E+02  0.00000000000E+00 0.  1.
          2    1    1    2  501    0  0.56204498829E+01 -0.22780385067E+02  0.52054197278E+02  0.57097940900E+02  0.00000000000E+00 0. -1.
<scales pt_clust_5="13000.00000" pt_clust_6="13000.00000" pt_clust_7="13000.00000" pt_clust_8="13000.00000" pt_clust_9="23.46349"></scales>
<clustering>
<clus scale="   23.463">  1  9  2 -1</clus>
<clus scale="   88.909">  5  6 -1 -1</clus>
<clus scale="   91.130">  7  8 -1 -1</clus>
<clus scale="  163.619">  2  5  1 -1</clus>
<clus scale="   23.463">  1  5  2 -1</clus>
</clustering>
</event>
<event>
 9    1  0.1315259E-005  0.1964703E+03  0.7546771E-02  0.1157631E+00
         21   -1    0    0  501  502  0.00000000000E+00  0.00000000000E+00  0.90510944330E+02  0.90510944330E+02  0.00000000000E+00 0.  1.
          2   -1    0    0  502    0 -0.00000000000E+00 -0.00000000000E+00 -0.73056534167E+03  0.73056534167E+03  0.00000000000E+00 0. -1.
         23    2    1    2    0    0 -0.11177908318E+03 -0.10667507323E+03 -0.53622488670E+03  0.57239550341E+03  0.12737876008E+03 0.  0.
         23    2    1    2    0    0  0.66769725104E+02  0.12558660448E+03 -0.10658569902E+03  0.19978206172E+03  0.91225925783E+02 0.  0.
        -11    1    3    3    0    0  0.21816519151E+02 -0.47657335282E+02 -0.17755233627E+03  0.18512702188E+03  0.00000000000E+00 0.  1.
         11    1    3    3    0    0 -0.13359560234E+03 -0.59017737948E+02 -0.35867255043E+03  0.38726848153E+03  0.00000000000E+00 0. -1.
        -13    1    4    4    0    0  0.25922900472E+02  0.12491316423E+03 -0.73660410540E+02  0.14731310684E+03  0.00000000000E+00 0.  1.
         13    1    4    4    0    0  0.40846824631E+02  0.67344024599E+00 -0.32925288483E+02  0.52468954877E+02  0.00000000000E+00 0. -1.
          2    1    1    2  501    0  0.45009358080E+02 -0.18911531248E+02  0.27561883765E+01  0.48898720876E+02  0.00000000000E+00 0. -1.
<scales pt_clust_5="13000.00000" pt_clust_6="13000.00000" pt_clust_7="13000.00000" pt_clust_8="13000.00000" pt_clust_9="48.82098"></scales>
<clustering>
<clus scale="   48.821">  1  9  2 -1</clus>
<clus scale="   91.226">  7  8 -1 -1</clus>
<clus scale="  127.379">  5  6 -1 -1</clus>
<clus scale="  175.207">  1  7  2 -1</clus>
<clus scale="   48.821">  1  5  2 -1</clus>
</clustering>
</event>
<event>
 9    1  0.1315259E-005  0.1001523E+03  0.7546771E-02  0.1280130E+00
         21   -1    0    0  501  502  0.00000000000E+00  0.00000000000E+00  0.46193900246E+02  0.46193900246E+02  0.00000000000E+00 0.  1.
         -2   -1    0    0    0  501 -0.00000000000E+00 -0.00000000000E+00 -0.41717538215E+03  0.41717538215E+03  0.00000000000E+00 0.  1.
         23    2    1    2    0    0 -0.42227085911E+02 -0.15544208352E+02 -0.22177867430E+03  0.24412124545E+03  0.91567750388E+02 0.  0.
         23    2    1    2    0    0  0.22887894943E+02  0.31631664065E+02 -0.16278883679E+03  0.19065799099E+03  0.91246075193E+02 0.  0.
        -11    1    4    4    0    0  0.49224253466E+02  0.10365899083E+02 -0.42997972313E+02  0.66176314616E+02  0.00000000000E+00 0. -1.
         11    1    4    4    0    0 -0.26336358523E+02  0.21265764982E+02 -0.11979086448E+03  0.12448167637E+03  0.00000000000E+00 0.  1.
        -11    1    3    3    0    0 -0.16838016077E+02  0.37572611404E+02 -0.68454065242E+02  0.79882281898E+02  0.00000000000E+00 0. -1.
         11    1    3    3    0    0 -0.25389069834E+02 -0.53116819755E+02 -0.15332460906E+03  0.16423896356E+03  0.00000000000E+00 0.  1.
         -2    1    1    2    0  502  0.19339190968E+02 -0.16087455713E+02  0.13586029184E+02  0.28590045953E+02  0.00000000000E+00 0.  1.
<scales pt_clust_5="13000.00000" pt_clust_6="13000.00000" pt_clust_7="13000.00000" pt_clust_8="13000.00000" pt_clust_9="25.15573"></scales>
<clustering>
<clus scale="   25.156">  1  9  2 -1</clus>
<clus scale="   91.246">  5  6 -1 -1</clus>
<clus scale="   91.568">  7  8 -1 -1</clus>
<clus scale="   99.858">  1  5  2 -1</clus>
<clus scale="   25.156">  1  5  2 -1</clus>
</clustering>
</event>
<event>
 9    1  0.1315259E-005  0.9125113E+02  0.7546771E-02  0.1300744E+00
          1   -1    0    0  502    0 -0.00000000000E+00  0.00000000000E+00  0.76687731681E+02  0.76687731681E+02  0.00000000000E+00 0. -1.
         21   -1    0    0  501  502  0.00000000000E+00 -0.00000000000E+00 -0.20254566079E+03  0.20254566079E+03  0.00000000000E+00 0.  1.
         23    2    1    2    0    0 -0.13805604471E+01  0.17545256431E+02  0.11480557352E+02  0.93035995613E+02  0.90631955249E+02 0.  0.
         23    2    1    2    0    0  0.83945626986E+01  0.68288187243E+01 -0.68792674381E+02  0.11310964056E+03  0.89130563169E+02 0.  0.
        -13    1    4    4    0    0  0.18042678951E+02  0.37853450241E+02 -0.68855359068E+02  0.80619367594E+02  0.00000000000E+00 0.  1.
         13    1    4    4    0    0 -0.96481162522E+01 -0.31024631517E+02  0.62684686477E-01  0.32490272965E+02  0.00000000000E+00 0. -1.
        -13    1    3    3    0    0 -0.18544169042E+02  0.32140304112E+02 -0.28740179541E+02  0.46934883338E+02  0.00000000000E+00 0.  1.
         13    1    3    3    0    0  0.17163608595E+02 -0.14595047681E+02  0.40220736893E+02  0.46101112275E+02  0.00000000000E+00 0. -1.
          1    1    1    2  501    0 -0.70140022515E+01 -0.24374075155E+02 -0.68545812084E+02  0.73087756304E+02  0.00000000000E+00 0. -1.
<scales pt_clust_5="13000.00000" pt_clust_6="13000.00000" pt_clust_7="13000.00000" pt_clust_8="13000.00000" pt_clust_9="25.36320"></scales>
<clustering>
<clus scale="   25.363">  2  9  1 -1</clus>
<clus scale="   89.131">  5  6 -1 -1</clus>
<clus scale="   89.760">  2  5  1 -1</clus>
<clus scale="   90.632">  7  8 -1 -1</clus>
<clus scale="   25.363">  2  5  1 -1</clus>
</clustering>
</event>
<event>
 9    1  0.1315259E-005  0.1122740E+03  0.7546771E-02  0.1257531E+00
         -1   -1    0    0    0  501 -0.00000000000E+00  0.00000000000E+00  0.24884641321E+02  0.24884641321E+02  0.00000000000E+00 0.  1.
         21   -1    0    0  501  502  0.00000000000E+00 -0.00000000000E+00 -0.80092607825E+03  0.80092607825E+03  0.00000000000E+00 0.  1.
         23    2    1    2    0    0 -0.14236166507E+02  0.76897216706E+02 -0.27582417185E+03  0.30110204395E+03  0.92019653977E+02 0.  0.
         23    2    1    2    0    0 -0.27442046398E+02 -0.47254976462E+02 -0.37930236692E+03  0.39342216286E+03  0.89020300867E+02 0.  0.
        -11    1    3    3    0    0 -0.44193945296E+02  0.79214539789E+02 -0.20586914559E+03  0.22496700474E+03  0.00000000000E+00 0.  1.
         11    1    3    3    0    0  0.29957778789E+02 -0.23173230834E+01 -0.69955026260E+02  0.76135039209E+02  0.00000000000E+00 0. -1.
        -13    1    4    4    0    0 -0.12935893057E+01 -0.67947353389E+02 -0.20537309582E+03  0.21632527520E+03  0.00000000000E+00 0.  1.
         13    1    4    4    0    0 -0.26148457092E+02  0.20692376927E+02 -0.17392927110E+03  0.17709688766E+03  0.00000000000E+00 0. -1.
         -1    1    1    2    0  502  0.41678212905E+02 -0.29642240243E+02 -0.12091489815E+03  0.13128651276E+03  0.00000000000E+00 0.  1.
<scales pt_clust_5="13000.00000" pt_clust_6="13000.00000" pt_clust_7="13000.00000" pt_clust_8="13000.00000" pt_clust_9="51.14429"></scales>
<clustering>
<clus scale="   51.144">  2  9  1 -1</clus>
<clus scale="   89.020">  7  8 -1 -1</clus>
<clus scale="   92.020">  5  6 -1 -1</clus>
<clus scale="  109.829">  2  7  1 -1</clus>
<clus scale="   51.144">  2  5  1 -1</clus>
</clustering>
</event>
<event>
 9    1  0.1315259E-005  0.1106703E+03  0.7546771E-02  0.1260967E+00
         21   -1    0    0  501  502  0.00000000000E+00  0.00000000000E+00  0.64642285086E+03  0.64642285086E+03  0.00000000000E+00 0. -1.
          1   -1    0    0  502    0 -0.00000000000E+00 -0.00000000000E+00 -0.41958604548E+02  0.41958604548E+02  0.00000000000E+00 0. -1.
         23    2    1    2    0    0  0.19658414486E+02 -0.52901855726E+02  0.75671150764E+02  0.13176983707E+03  0.91935343065E+02 0.  0.
         23    2    1    2    0    0 -0.54557131250E+02  0.57768472237E+02  0.26180307454E+03  0.28730644626E+03  0.87695309285E+02 0.  0.
        -11    1    4    4    0    0 -0.74630932145E+02  0.51351662160E+02  0.16497373833E+03  0.18821026428E+03  0.00000000000E+00 0. -1.
         11    1    4    4    0    0  0.20073800895E+02  0.64168100764E+01  0.96829336204E+02  0.99096181984E+02  0.00000000000E+00 0.  1.
        -13    1    3    3    0    0 -0.34585855582E+02 -0.48272777494E+01  0.18943236397E+02  0.39728204364E+02  0.00000000000E+00 0.  1.
         13    1    3    3    0    0  0.54244270068E+02 -0.48074577977E+02  0.56727914367E+02  0.92041632707E+02  0.00000000000E+00 0. -1.
          1    1    1    2  501    0  0.34898716764E+02 -0.48666165103E+01  0.26699002101E+03  0.26930517207E+03  0.00000000000E+00 0. -1.
<scales pt_clust_5="13000.00000" pt_clust_6="13000.00000" pt_clust_7="13000.00000" pt_clust_8="13000.00000" pt_clust_9="35.23641"></scales>
<clustering>
<clus scale="   35.236">  1  9  2 -1</clus>
<clus scale="   87.695">  5  6 -1 -1</clus>
<clus scale="   91.935">  7  8 -1 -1</clus>
<clus scale="  107.174">  1  5  2 -1</clus>
<clus scale="   35.236">  1  5  2 -1</clus>
</clustering>
</event>
<event>
 9    1  0.1315259E-005  0.9538341E+02  0.7546771E-02  0.1291287E+00
         21   -1    0    0  501  502  0.00000000000E+00  0.00000000000E+00  0.22475650802E+03  0.22475650802E+03  0.00000000000E+00 0. -1.
          2   -1    0    0  502    0 -0.00000000000E+00 -0.00000000000E+00 -0.54725613673E+03  0.54725613673E+03  0.00000000000E+00 0. -1.
         23    2    1    2    0    0 -0.70046564093E+01  0.26014285197E+02 -0.48613113436E+03  0.49558958865E+03  0.92518929648E+02 0.  0.
         23    2    1    2    0    0  0.25129950817E+02  0.20676421087E+02 -0.88558645949E+01  0.96811137656E+02  0.90746576903E+02 0.  0.
        -11    1    4    4    0    0 -0.16674653104E+02  0.16008286866E+02  0.31130454964E+02  0.38773889807E+02  0.00000000000E+00 0.  1.
         11    1    4    4    0    0  0.41804603920E+02  0.46681342211E+01 -0.39986319559E+02  0.58037247849E+02  0.00000000000E+00 0. -1.
        -13    1    3    3    0    0  0.27987197938E+02  0.46625756819E+02 -0.31851193310E+03  0.32312086899E+03  0.00000000000E+00 0. -1.
         13    1    3    3    0    0 -0.34991854347E+02 -0.20611471622E+02 -0.16761920126E+03  0.17246871966E+03  0.00000000000E+00 0.  1.
          2    1    1    2  501    0 -0.18125294407E+02 -0.46690706284E+02  0.17248737024E+03  0.17961191844E+03  0.00000000000E+00 0. -1.
<scales pt_clust_5="13000.00000" pt_clust_6="13000.00000" pt_clust_7="13000.00000" pt_clust_8="13000.00000" pt_clust_9="50.08541"></scales>
<clustering>
<clus scale="   50.085">  1  9  2 -1</clus>
<clus scale="   90.747">  5  6 -1 -1</clus>
<clus scale="   92.519">  7  8 -1 -1</clus>
<clus scale="   93.665">  1  5  2 -1</clus>
<clus scale="   50.085">  1  5  2 -1</clus>
</clustering>
</event>
<event>
 9    1  0.1315259E-005  0.1028017E+03  0.7546771E-02  0.1276095E+00
         -2   -1    0    0    0  501 -0.00000000000E+00  0.00000000000E+00  0.22659752803E+03  0.22659752803E+03  0.00000000000E+00 0.  1.
         21   -1    0    0  501  502  0.00000000000E+00 -0.00000000000E+00 -0.13257469341E+03  0.13257469341E+03  0.00000000000E+00 0.  1.
         23    2    1    2    0    0 -0.33468044526E+02  0.52087588994E+02  0.12219009839E+03  0.16392030530E+03  0.90034545665E+02 0.  0.
         23    2    1    2    0    0  0.77214025164E+01 -0.14461568720E+02  0.48133625724E+02  0.10636753780E+03  0.93426174837E+02 0.  0.
        -13    1    4    4    0    0  0.20544100463E+02  0.25764275093E+02 -0.10076116808E+02  0.34458468696E+02  0.00000000000E+00 0. -1.
         13    1    4    4    0    0 -0.12822697947E+02 -0.40225843814E+02  0.58209742532E+02  0.71909069100E+02  0.00000000000E+00 0.  1.
        -13    1    3    3    0    0 -0.43861974928E+02  0.71327201110E+02  0.11187812295E+03  0.13974318179E+03  0.00000000000E+00 0.  1.
         13    1    3    3    0    0  0.10393930402E+02 -0.19239612116E+02  0.10311975444E+02  0.24177123508E+02  0.00000000000E+00 0. -1.
         -2    1    1    2    0  502  0.25746642009E+02 -0.37626020274E+02 -0.76300889491E+02  0.88884378344E+02  0.00000000000E+00 0.  1.
<scales pt_clust_5="13000.00000" pt_clust_6="13000.00000" pt_clust_7="13000.00000" pt_clust_8="13000.00000" pt_clust_9="45.59174"></scales>
<clustering>
<clus scale="   45.592">  2  9  1 -1</clus>
<clus scale="   90.035">  7  8 -1 -1</clus>
<clus scale="   93.426">  5  6 -1 -1</clus>
<clus scale="   99.729">  1  7  2 -1</clus>
<clus scale="   45.592">  2  5  1 -1</clus>
</clustering>
</event>
<event>
 9    1  0.1315259E-005  0.9691889E+02  0.7546771E-02  0.1290121E+00
         -1   -1    0    0    0  501 -0.00000000000E+00  0.00000000000E+00  0.24397160447E+03  0.24397160447E+03  0.00000000000E+00 0.  1.
         21   -1    0    0  501  502  0.00000000000E+00 -0.00000000000E+00 -0.22004388226E+03  0.22004388226E+03  0.00000000000E+00 0. -1.
         23    2    1    2    0    0  0.18584407104E+02  0.34640382227E+02  0.19048645782E+03  0.21246655464E+03  0.85507952610E+02 0.  0.
         23    2    1    2    0    0  0.34899843076E+01  0.29149179786E+01 -0.13772551897E+02  0.92673832516E+02  0.91531848611E+02 0.  0.
        -11    1    3    3    0    0 -0.24047168232E+01  0.57290386213E+02  0.15584793719E+03  0.16606188768E+03  0.00000000000E+00 0.  1.
         11    1    3    3    0    0  0.20989123927E+02 -0.22650003986E+02  0.34638520636E+02  0.46404666960E+02  0.00000000000E+00 0. -1.
        -11    1    4    4    0    0  0.43489267182E+02  0.17963126599E+02  0.20623479658E+01  0.47098233049E+02  0.00000000000E+00 0. -1.
         11    1    4    4    0    0 -0.39999282874E+02 -0.15048208620E+02 -0.15834899863E+02  0.45575599467E+02  0.00000000000E+00 0.  1.
         -1    1    1    2    0  502 -0.22074391411E+02 -0.37555300206E+02 -0.15278618372E+03  0.15887509958E+03  0.00000000000E+00 0.  1.
<scales pt_clust_5="13000.00000" pt_clust_6="13000.00000" pt_clust_7="13000.00000" pt_clust_8="13000.00000" pt_clust_9="43.56236"></scales>
<clustering>
<clus scale="   43.562">  2  9  1 -1</clus>
<clus scale="   85.508">  5  6 -1 -1</clus>
<clus scale="   91.251">  1  5  2 -1</clus>
<clus scale="   91.532">  7  8 -1 -1</clus>
<clus scale="   43.562">  2  5  1 -1</clus>
</clustering>
</event>
<event>
 9    1  0.1315259E-005  0.1571345E+03  0.7546771E-02  0.1191989E+00
         21   -1    0    0  501  502  0.00000000000E+00  0.00000000000E+00  0.65510168786E+02  0.65510168786E+02  0.00000000000E+00 0.  1.
          2   -1    0    0  502    0 -0.00000000000E+00 -0.00000000000E+00 -0.71587626151E+03  0.71587626151E+03  0.00000000000E+00 0. -1.
         23    2    1    2    0    0  0.11758745717E+03  0.51701217422E+02 -0.40521181114E+03  0.43455206106E+03  0.90216716375E+02 0.  0.
         23    2    1    2    0    0 -0.13204994451E+03 -0.13921590534E+02 -0.25848334130E+03  0.30424179264E+03  0.90102342542E+02 0.  0.
        -11    1    3    3    0    0  0.35885186447E+02  0.64710840650E+02 -0.17932082259E+03  0.19398762053E+03  0.00000000000E+00 0.  1.
         11    1    3    3    0    0  0.81702270721E+02 -0.13009623229E+02 -0.22589098856E+03  0.24056444053E+03  0.00000000000E+00 0. -1.
        -11    1    4    4    0    0 -0.99949138486E+02  0.11117318653E+02 -0.10475365886E+03  0.14521278905E+03  0.00000000000E+00 0.  1.
         11    1    4    4    0    0 -0.32100806021E+02 -0.25038909187E+02 -0.15372968244E+03  0.15902900359E+03  0.00000000000E+00 0. -1.
          2    1    1    2  501    0  0.14462487339E+02 -0.37779626888E+02  0.13329059724E+02  0.42592576594E+02  0.00000000000E+00 0. -1.
<scales pt_clust_5="13000.00000" pt_clust_6="13000.00000" pt_clust_7="13000.00000" pt_clust_8="13000.00000" pt_clust_9="40.45323"></scales>
<clustering>
<clus scale="   40.453">  1  9  2 -1</clus>
<clus scale="   90.102">  7  8 -1 -1</clus>
<clus scale="   90.217">  5  6 -1 -1</clus>
<clus scale="  157.069">  1  7  2 -1</clus>
<clus scale="   40.453">  1  5  2 -1</clus>
</clustering>
</event>
<event>
 9    1  0.1315259E-005  0.1105341E+03  0.7546771E-02  0.1260553E+00
         21   -1    0    0  501  502  0.00000000000E+00  0.00000000000E+00  0.16036181815E+03  0.16036181815E+03  0.00000000000E+00 0. -1.
          2   -1    0    0  502    0 -0.00000000000E+00 -0.00000000000E+00 -0.50182457495E+03  0.50182457495E+03  0.00000000000E+00 0. -1.
         23    2    1    2    0    0 -0.44109914388E+02  0.48741739407E+02 -0.44070250214E+03  0.45423533505E+03  0.88258724822E+02 0.  0.
         23    2    1    2    0    0  0.23962800927E+01 -0.51859317038E+02  0.48569208823E+01  0.10471412604E+03  0.90809292417E+02 0.  0.
        -11    1    4    4    0    0 -0.34337936723E+01  0.25365535696E+02  0.90665810533E+01  0.27155187941E+02  0.00000000000E+00 0. -1.
         11    1    4    4    0    0  0.58300737650E+01 -0.77224852734E+02 -0.42096601710E+01  0.77558938096E+02  0.00000000000E+00 0.  1.
        -11    1    3    3    0    0 -0.65495805235E+02  0.46766662514E+02 -0.40196738289E+03  0.40994462813E+03  0.00000000000E+00 0. -1.
         11    1    3    3    0    0  0.21385890848E+02  0.19750768939E+01 -0.38735119259E+02  0.44290706927E+02  0.00000000000E+00 0.  1.
          2    1    1    2  501    0  0.41713634295E+02  0.31175776309E+01  0.94382824461E+02  0.10323693200E+03  0.00000000000E+00 0. -1.
<scales pt_clust_5="13000.00000" pt_clust_6="13000.00000" pt_clust_7="13000.00000" pt_clust_8="13000.00000" pt_clust_9="41.82997"></scales>
<clustering>
<clus scale="   41.830">  1  9  2 -1</clus>
<clus scale="   88.259">  7  8 -1 -1</clus>
<clus scale="   90.809">  5  6 -1 -1</clus>
<clus scale="  108.448">  2  7  1 -1</clus>
<clus scale="   41.830">  1  5  2 -1</clus>
</clustering>
</event>
<event>
 9    1  0.1315259E-005  0.1767837E+03  0.7546771E-02  0.1171297E+00
          2   -1    0    0  502    0 -0.00000000000E+00  0.00000000000E+00  0.24058002161E+03  0.24058002161E+03  0.00000000000E+00 0. -1.
         21   -1    0    0  501  502  0.00000000000E+00 -0.00000000000E+00 -0.30521334374E+03  0.30521334374E+03  0.00000000000E+00 0.  1.
         23    2    1    2    0    0 -0.11665877225E+03 -0.51822308202E+02  0.45733284770E+02  0.16272338979E+03  0.89958587582E+02 0.  0.
         23    2    1    2    0    0  0.16238092871E+03  0.92042961472E+02  0.49597108282E+02  0.21190746005E+03  0.87209091882E+02 0.  0.
        -11    1    4    4    0    0  0.35390475030E+02  0.55565470939E+02 -0.10580559940E+02  0.66722976044E+02  0.00000000000E+00 0.  1.
         11    1    4    4    0    0  0.12699045368E+03  0.36477490533E+02  0.60177668222E+02  0.14518448400E+03  0.00000000000E+00 0. -1.
        -13    1    3    3    0    0 -0.71348594661E+02 -0.39404483281E+02 -0.18073332700E+02  0.83486409778E+02  0.00000000000E+00 0.  1.
         13    1    3    3    0    0 -0.45310177587E+02 -0.12417824921E+02  0.63806617470E+02  0.79236980014E+02  0.00000000000E+00 0. -1.
          2    1    1    2  501    0 -0.45722156466E+02 -0.40220653271E+02 -0.15996371518E+03  0.17116251551E+03  0.00000000000E+00 0. -1.
<scales pt_clust_5="13000.00000" pt_clust_6="13000.00000" pt_clust_7="13000.00000" pt_clust_8="13000.00000" pt_clust_9="60.89513"></scales>
<clustering>
<clus scale="   60.895">  2  9  1 -1</clus>
<clus scale="   87.209">  5  6 -1 -1</clus>
<clus scale="   89.959">  7  8 -1 -1</clus>
<clus scale="  175.401">  2  5  1 -1</clus>
<clus scale="   60.895">  2  5  1 -1</clus>
</clustering>
</event>
<event>
 9    1  0.1315259E-005  0.1619414E+03  0.7546771E-02  0.1204930E+00
         -3   -1    0    0    0  501 -0.00000000000E+00  0.00000000000E+00  0.62064355642E+03  0.62064355642E+03  0.00000000000E+00 0.  1.
         21   -1    0    0  501  502  0.00000000000E+00 -0.00000000000E+00 -0.67030766804E+02  0.67030766804E+02  0.00000000000E+00 0.  1.
         23    2    1    2    0    0 -0.52865039905E+02  0.13786101468E+02  0.14849775320E+03  0.18376685107E+03  0.93455357306E+02 0.  0.
         23    2    1    2    0    0 -0.10135476639E+03  0.14545588120E+02  0.23431972365E+03  0.27205089547E+03  0.92852539169E+02 0.  0.
        -11    1    4    4    0    0 -0.68553088313E+02  0.51169968587E+02  0.17661143139E+03  0.19623834819E+03  0.00000000000E+00 0.  1.
         11    1    4    4    0    0 -0.32801678080E+02 -0.36624380467E+02  0.57708292255E+02  0.75812547276E+02  0.00000000000E+00 0. -1.
        -13    1    3    3    0    0  0.23409798166E+02  0.19010646540E+02  0.57390339061E+02  0.64831121767E+02  0.00000000000E+00 0. -1.
         13    1    3    3    0    0 -0.76274838071E+02 -0.52245450722E+01  0.91107414135E+02  0.11893572930E+03  0.00000000000E+00 0.  1.
         -3    1    1    2    0  502  0.15421980630E+03 -0.28331689587E+02  0.17079531277E+03  0.23185657669E+03  0.00000000000E+00 0.  1.
<scales pt_clust_5="13000.00000" pt_clust_6="13000.00000" pt_clust_7="13000.00000" pt_clust_8="13000.00000" pt_clust_9="132.67795"></scales>
<clustering>
<clus scale="   92.853">  5  6 -1 -1</clus>
<clus scale="   93.455">  7  8 -1 -1</clus>
<clus scale="  108.253">  1  7  2 -1</clus>
<clus scale="  132.678">  2  9  1 -1</clus>
<clus scale="  132.678">  2  5  1 -1</clus>
</clustering>
</event>
<event>
 9    1  0.1315259E-005  0.1092979E+03  0.7546771E-02  0.1264297E+00
         21   -1    0    0  501  502  0.00000000000E+00  0.00000000000E+00  0.30742600131E+03  0.30742600131E+03  0.00000000000E+00 0.  1.
         -1   -1    0    0    0  501 -0.00000000000E+00 -0.00000000000E+00 -0.72014978914E+02  0.72014978914E+02  0.00000000000E+00 0.  1.
         23    2    1    2    0    0  0.39410601560E+02  0.22988086917E+02  0.54914077739E+02  0.11501236403E+03  0.90170063155E+02 0.  0.
         23    2    1    2    0    0 -0.15848696859E+02 -0.67418173937E+02  0.57563624302E+02  0.13160618873E+03  0.95969926017E+02 0.  0.
        -11    1    3    3    0    0  0.52942508159E+02 -0.21301877248E+01 -0.16114693357E+00  0.52985590855E+02  0.00000000000E+00 0.  1.
         11    1    3    3    0    0 -0.13531906599E+02  0.25118274641E+02  0.55075224673E+02  0.62026773171E+02  0.00000000000E+00 0. -1.
        -11    1    4    4    0    0 -0.44809825931E+02 -0.75194842529E+02  0.35886625356E+02  0.94604623156E+02  0.00000000000E+00 0.  1.
         11    1    4    4    0    0  0.28961129072E+02  0.77766685926E+01  0.21676998946E+02  0.37001565572E+02  0.00000000000E+00 0. -1.
         -1    1    1    2    0  502 -0.23561904702E+02  0.44430087020E+02  0.12293332035E+03  0.13282242747E+03  0.00000000000E+00 0.  1.
<scales pt_clust_5="13000.00000" pt_clust_6="13000.00000" pt_clust_7="13000.00000" pt_clust_8="13000.00000" pt_clust_9="50.29111"></scales>
<clustering>
<clus scale="   50.291">  1  9  2 -1</clus>
<clus scale="   90.170">  5  6 -1 -1</clus>
<clus scale="   95.970">  7  8 -1 -1</clus>
<clus scale="  104.242">  2  5  1 -1</clus>
<clus scale="   50.291">  1  5  2 -1</clus>
</clustering>
</event>
<event>
 9    1  0.1315259E-005  0.1426037E+03  0.7546771E-02  0.1210093E+00
         21   -1    0    0  501  502  0.00000000000E+00  0.00000000000E+00  0.57001405116E+02  0.57001405116E+02  0.00000000000E+00 0. -1.
          1   -1    0    0  502    0 -0.00000000000E+00 -0.00000000000E+00 -0.63386550930E+03  0.63386550930E+03  0.00000000000E+00 0. -1.
         23    2    1    2    0    0 -0.96231393890E+02 -0.69380688865E+02 -0.37491210889E+03  0.40376420214E+03  0.91609390227E+02 0.  0.
         23    2    1    2    0    0  0.79963630562E+02  0.55531895089E+02 -0.22137473444E+03  0.25822933338E+03  0.90540830498E+02 0.  0.
        -13    1    4    4    0    0  0.58660849684E+01  0.48552290522E+02 -0.43656768487E+02  0.65556458892E+02  0.00000000000E+00 0. -1.
         13    1    4    4    0    0  0.74097545594E+02  0.69796045670E+01 -0.17771796595E+03  0.19267287449E+03  0.00000000000E+00 0.  1.
        -13    1    3    3    0    0 -0.50383824127E+02 -0.71851753019E+01 -0.56199747521E+02  0.75819312178E+02  0.00000000000E+00 0.  1.
         13    1    3    3    0    0 -0.45847569763E+02 -0.62195513563E+02 -0.31871236137E+03  0.32794488996E+03  0.00000000000E+00 0. -1.
          1    1    1    2  501    0  0.16267763328E+02  0.13848793777E+02  0.19422739146E+02  0.28873378893E+02  0.00000000000E+00 0. -1.
<scales pt_clust_5="13000.00000" pt_clust_6="13000.00000" pt_clust_7="13000.00000" pt_clust_8="13000.00000" pt_clust_9="21.36420"></scales>
<clustering>
<clus scale="   21.364">  1  9  2 -1</clus>
<clus scale="   90.541">  5  6 -1 -1</clus>
<clus scale="   91.609">  7  8 -1 -1</clus>
<clus scale="  141.920">  1  5  2 -1</clus>
<clus scale="   21.364">  1  5  2 -1</clus>
</clustering>
</event>
<event>
 9    1  0.1315259E-005  0.9989343E+02  0.7546771E-02  0.1281723E+00
         21   -1    0    0  501  502  0.00000000000E+00  0.00000000000E+00  0.17615742172E+03  0.17615742172E+03  0.00000000000E+00 0. -1.
         -1   -1    0    0    0  501 -0.00000000000E+00 -0.00000000000E+00 -0.23250587868E+03  0.23250587868E+03  0.00000000000E+00 0.  1.
         23    2    1    2    0    0  0.25148066962E+02  0.15809419210E+02 -0.17393056327E+03  0.20025415682E+03  0.94697008806E+02 0.  0.
         23    2    1    2    0    0 -0.52800815070E+02 -0.22012685032E+02  0.13642769281E+03  0.17437517356E+03  0.92313061988E+02 0.  0.
        -13    1    3    3    0    0  0.49811716500E+02 -0.19427109513E+02 -0.72511346250E+02  0.90091703390E+02  0.00000000000E+00 0. -1.
         13    1    3    3    0    0 -0.24663649538E+02  0.35236528722E+02 -0.10141921702E+03  0.11016245344E+03  0.00000000000E+00 0.  1.
        -13    1    4    4    0    0 -0.74564547037E+02 -0.24896603814E+02  0.12924785834E+03  0.15127696930E+03  0.00000000000E+00 0. -1.
         13    1    4    4    0    0  0.21763731968E+02  0.28839187818E+01  0.71798344674E+01  0.23098204252E+02  0.00000000000E+00 0.  1.
         -1    1    1    2    0  502  0.27652748108E+02  0.62032658220E+01 -0.18845586493E+02  0.34033970016E+02  0.00000000000E+00 0.  1.
<scales pt_clust_5="13000.00000" pt_clust_6="13000.00000" pt_clust_7="13000.00000" pt_clust_8="13000.00000" pt_clust_9="28.34000"></scales>
<clustering>
<clus scale="   28.340">  1  9  2 -1</clus>
<clus scale="   92.313">  7  8 -1 -1</clus>
<clus scale="   94.697">  5  6 -1 -1</clus>
<clus scale="   97.636">  1  7  2 -1</clus>
<clus scale="   28.340">  1  5  2 -1</clus>
</clustering>
</event>
<event>
 9    1  0.1315259E-005  0.1022266E+03  0.7546771E-02  0.1279922E+00
         21   -1    0    0  501  502  0.00000000000E+00  0.00000000000E+00  0.31716301280E+02  0.31716301280E+02  0.00000000000E+00 0. -1.
         -3   -1    0    0    0  501 -0.00000000000E+00 -0.00000000000E+00 -0.73359324491E+03  0.73359324491E+03  0.00000000000E+00 0.  1.
         23    2    1    2    0    0  0.16388365169E+02  0.25221639087E+01 -0.39982341378E+03  0.41225414684E+03  0.99094800829E+02 0.  0.
         23    2    1    2    0    0 -0.43327965769E+02 -0.44223765061E+02 -0.11330730349E+03  0.15788905086E+03  0.90869980433E+02 0.  0.
        -11    1    4    4    0    0  0.18176212923E+02 -0.28281231813E+02 -0.78606541283E+02  0.85493807505E+02  0.00000000000E+00 0.  1.
         11    1    4    4    0    0 -0.61504178692E+02 -0.15942533248E+02 -0.34700762205E+02  0.72395243356E+02  0.00000000000E+00 0. -1.
        -13    1    3    3    0    0  0.34430173330E+02  0.43543290374E+02 -0.21003582112E+03  0.21724755724E+03  0.00000000000E+00 0.  1.
         13    1    3    3    0    0 -0.18041808161E+02 -0.41021126466E+02 -0.18978759266E+03  0.19500658960E+03  0.00000000000E+00 0. -1.
         -3    1    1    2    0  502  0.26939600600E+02  0.41701601153E+02 -0.18874622636E+03  0.19516634850E+03  0.00000000000E+00 0.  1.
<scales pt_clust_5="13000.00000" pt_clust_6="13000.00000" pt_clust_7="13000.00000" pt_clust_8="13000.00000" pt_clust_9="49.64643"></scales>
<clustering>
<clus scale="   49.646">  1  9  2 -1</clus>
<clus scale="   90.870">  5  6 -1 -1</clus>
<clus scale="   94.275">  1  5  2 -1</clus>
<clus scale="   99.095">  7  8 -1 -1</clus>
<clus scale="   49.646">  1  5  2 -1</clus>
</clustering>
</event>
<event>
 9    1  0.1315259E-005  0.2004561E+03  0.7546771E-02  0.1150642E+00
          1   -1    0    0  502    0 -0.00000000000E+00  0.00000000000E+00  0.39455772705E+03  0.39455772705E+03  0.00000000000E+00 0. -1.
         21   -1    0    0  501  502  0.00000000000E+00 -0.00000000000E+00 -0.20274735630E+03  0.20274735630E+03  0.00000000000E+00 0.  1.
         23    2    1    2    0    0 -0.11488552785E+03 -0.12613139943E+03  0.17239915151E+03  0.26361532740E+03  0.10326547811E+03 0.  0.
         23    2    1    2    0    0  0.26112596022E+02  0.19722649815E+03  0.32022932107E+01  0.21880774791E+03  0.91029756788E+02 0.  0.
        -11    1    3    3    0    0 -0.11239299696E+03 -0.74496355235E+02  0.77436728096E+02  0.15549385701E+03  0.00000000000E+00 0.  1.
         11    1    3    3    0    0 -0.24925308869E+01 -0.51635044197E+02  0.94962423413E+02  0.10812147039E+03  0.00000000000E+00 0. -1.
        -13    1    4    4    0    0  0.27323983499E+02  0.17242027181E+03 -0.30219746765E+02  0.17716823445E+03  0.00000000000E+00 0.  1.
         13    1    4    4    0    0 -0.12113874774E+01  0.24806226342E+02  0.33422039976E+02  0.41639513459E+02  0.00000000000E+00 0. -1.
          1    1    1    2  501    0  0.88772931830E+02 -0.71095098715E+02  0.16208926029E+02  0.11488200803E+03  0.00000000000E+00 0. -1.
<scales pt_clust_5="13000.00000" pt_clust_6="13000.00000" pt_clust_7="13000.00000" pt_clust_8="13000.00000" pt_clust_9="113.73279"></scales>
<clustering>
<clus scale="   91.030">  7  8 -1 -1</clus>
<clus scale="  103.265">  5  6 -1 -1</clus>
<clus scale="  113.733">  2  9  1 -1</clus>
<clus scale="  194.436">  2  7  1 -1</clus>
<clus scale="  113.733">  2  5  1 -1</clus>
</clustering>
</event>
<event>
 9    1  0.1315259E-005  0.2879865E+03  0.7546771E-02  0.1091449E+00
          1   -1    0    0  502    0 -0.00000000000E+00  0.00000000000E+00  0.59599361874E+03  0.59599361874E+03  0.00000000000E+00 0. -1.
         21   -1    0    0  501  502  0.00000000000E+00 -0.00000000000E+00 -0.43598994266E+03  0.43598994266E+03  0.00000000000E+00 0. -1.
         23    2    1    2    0    0  0.24654589800E+03 -0.12183107305E+03  0.29365961662E+03  0.41278578092E+03  0.92349555067E+02 0.  0.
         23    2    1    2    0    0 -0.11711846444E+03  0.31581504513E+03 -0.16112296836E+03  0.38438790079E+03  0.91310294607E+02 0.  0.
        -11    1    4    4    0    0  0.36498879451E+01  0.11174836294E+03 -0.48414310882E+02  0.12183991054E+03  0.00000000000E+00 0.  1.
         11    1    4    4    0    0 -0.12076835238E+03  0.20406668219E+03 -0.11270865747E+03  0.26254799026E+03  0.00000000000E+00 0. -1.
        -13    1    3    3    0    0  0.19845681026E+02 -0.45272766076E+02  0.66441270240E+02  0.82812540081E+02  0.00000000000E+00 0.  1.
         13    1    3    3    0    0  0.22670021697E+03 -0.76558306970E+02  0.22721834638E+03  0.32997324084E+03  0.00000000000E+00 0. -1.
          1    1    1    2  501    0 -0.12942743356E+03 -0.19398397208E+03  0.27467027811E+02  0.23480987969E+03  0.00000000000E+00 0. -1.
<scales pt_clust_5="13000.00000" pt_clust_6="13000.00000" pt_clust_7="13000.00000" pt_clust_8="13000.00000" pt_clust_9="233.19786"></scales>
<clustering>
<clus scale="   91.310">  5  6 -1 -1</clus>
<clus scale="   92.350">  7  8 -1 -1</clus>
<clus scale="  233.198">  2  9  1 -1</clus>
<clus scale="  287.655">  2  5  1 -1</clus>
<clus scale="  233.198">  2  5  1 -1</clus>
</clustering>
</event>
<event>
 9    1  0.1315259E-005  0.1382961E+03  0.7546771E-02  0.1220239E+00
         21   -1    0    0  501  502  0.00000000000E+00  0.00000000000E+00  0.81953517943E+02  0.81953517943E+02  0.00000000000E+00 0.  1.
          1   -1    0    0  502    0 -0.00000000000E+00 -0.00000000000E+00 -0.37029261417E+03  0.37029261417E+03  0.00000000000E+00 0. -1.
         23    2    1    2    0    0  0.10631220211E+03 -0.11640534860E+02 -0.27087425665E+03  0.30699689531E+03  0.97141363196E+02 0.  0.
         23    2    1    2    0    0 -0.76159128457E+02 -0.62027061465E+01 -0.11638444425E+02  0.10973112902E+03  0.77889542795E+02 0.  0.
        -11    1    3    3    0    0  0.11574706649E+03  0.98665607443E+01 -0.24959828986E+03  0.27530717158E+03  0.00000000000E+00 0. -1.
         11    1    3    3    0    0 -0.94348643812E+01 -0.21507095604E+02 -0.21275966797E+02  0.31689723734E+02  0.00000000000E+00 0.  1.
        -13    1    4    4    0    0 -0.52726354015E+02 -0.69963105692E+01 -0.44509524735E+02  0.69354989449E+02  0.00000000000E+00 0. -1.
         13    1    4    4    0    0 -0.23432774442E+02  0.79360442270E+00  0.32871080310E+02  0.40376139572E+02  0.00000000000E+00 0.  1.
          1    1    1    2  501    0 -0.30153073650E+02  0.17843241007E+02 -0.58263951504E+01  0.35518107785E+02  0.00000000000E+00 0. -1.
<scales pt_clust_5="13000.00000" pt_clust_6="13000.00000" pt_clust_7="13000.00000" pt_clust_8="13000.00000" pt_clust_9="35.03697"></scales>
<clustering>
<clus scale="   35.037">  1  9  2 -1</clus>
<clus scale="   77.890">  7  8 -1 -1</clus>
<clus scale="   97.141">  5  6 -1 -1</clus>
<clus scale="  125.524">  1  7  2 -1</clus>
<clus scale="   35.037">  1  5  2 -1</clus>
</clustering>
</event>
<event>
 9    1  0.1315259E-005  0.1351767E+03  0.7546771E-02  0.1220058E+00
         21   -1    0    0  501  502  0.00000000000E+00  0.00000000000E+00  0.43927112563E+03  0.43927112563E+03  0.00000000000E+00 0.  1.
         -1   -1    0    0    0  501 -0.00000000000E+00 -0.00000000000E+00 -0.11799770940E+03  0.11799770940E+03  0.00000000000E+00 0.  1.
         23    2    1    2    0    0  0.10339691135E+03  0.16117633734E+01 -0.19881481640E+02  0.13931763266E+03  0.91217379927E+02 0.  0.
         23    2    1    2    0    0 -0.88609665180E+02  0.42659117132E+02  0.88240429046E+02  0.16076585664E+03  0.91585011361E+02 0.  0.
        -11    1    3    3    0    0  0.62897208395E+02 -0.40977577057E+02  0.55645528933E+01  0.75274065217E+02  0.00000000000E+00 0.  1.
         11    1    3    3    0    0  0.40499702956E+02  0.42589340431E+02 -0.25446034534E+02  0.64043567447E+02  0.00000000000E+00 0. -1.
        -11    1    4    4    0    0 -0.97291288570E+02  0.21040651281E+02  0.93846278820E+02  0.13680434162E+03  0.00000000000E+00 0. -1.
         11    1    4    4    0    0  0.86816233903E+01  0.21618465851E+02 -0.56058497739E+01  0.23961515022E+02  0.00000000000E+00 0.  1.
         -1    1    1    2    0  502 -0.14787246172E+02 -0.44270880506E+02  0.25291446883E+03  0.25718534572E+03  0.00000000000E+00 0.  1.
<scales pt_clust_5="13000.00000" pt_clust_6="13000.00000" pt_clust_7="13000.00000" pt_clust_8="13000.00000" pt_clust_9="46.67519"></scales>
<clustering>
<clus scale="   46.675">  1  9  2 -1</clus>
<clus scale="   91.217">  5  6 -1 -1</clus>
<clus scale="   91.585">  7  8 -1 -1</clus>
<clus scale="  134.928">  2  5  1 -1</clus>
<clus scale="   46.675">  1  5  2 -1</clus>
</clustering>
</event>
<event>
 9    1  0.1315259E-005  0.3545204E+03  0.7546771E-02  0.1061235E+00
         21   -1    0    0  501  502  0.00000000000E+00  0.00000000000E+00  0.19910630324E+03  0.19910630324E+03  0.00000000000E+00 0.  1.
          4   -1    0    0  502    0 -0.00000000000E+00 -0.00000000000E+00 -0.84700294637E+03  0.84700294637E+03  0.00000000000E+00 0. -1.
         23    2    1    2    0    0 -0.31287617363E+02 -0.34896310186E+03 -0.50500368846E+03  0.62420710559E+03  0.10886516366E+03 0.  0.
         23    2    1    2    0    0  0.43280927809E+02  0.31305779261E+03 -0.17429332834E+03  0.37271866921E+03  0.93073206906E+02 0.  0.
        -11    1    3    3    0    0 -0.67776832272E+02 -0.28654365790E+03 -0.39862582664E+03  0.49558401562E+03  0.00000000000E+00 0. -1.
         11    1    3    3    0    0  0.36489214909E+02 -0.62419443960E+02 -0.10637786182E+03  0.12862308997E+03  0.00000000000E+00 0.  1.
        -13    1    4    4    0    0 -0.10310223698E+02  0.98236688779E+02 -0.14870127425E+02  0.99889280830E+02  0.00000000000E+00 0.  1.
         13    1    4    4    0    0  0.53591151507E+02  0.21482110383E+03 -0.15942320092E+03  0.27282938838E+03  0.00000000000E+00 0. -1.
          4    1    1    2  501    0 -0.11993310447E+02  0.35905309252E+02  0.31400373673E+02  0.49183474813E+02  0.00000000000E+00 0. -1.
<scales pt_clust_5="13000.00000" pt_clust_6="13000.00000" pt_clust_7="13000.00000" pt_clust_8="13000.00000" pt_clust_9="37.85539"></scales>
<clustering>
<clus scale="   37.855">  1  9  2 -1</clus>
<clus scale="   93.073">  7  8 -1 -1</clus>
<clus scale="  108.865">  5  6 -1 -1</clus>
<clus scale="  349.994">  1  7  2 -1</clus>
<clus scale="   37.855">  1  5  2 -1</clus>
</clustering>
</event>
<event>
 9    1  0.1315259E-005  0.1050101E+03  0.7546771E-02  0.1273047E+00
         21   -1    0    0  501  502  0.00000000000E+00  0.00000000000E+00  0.69885576915E+02  0.69885576915E+02  0.00000000000E+00 0. -1.
          1   -1    0    0  502    0 -0.00000000000E+00 -0.00000000000E+00 -0.47133249441E+03  0.47133249441E+03  0.00000000000E+00 0. -1.
         23    2    1    2    0    0 -0.38206717005E+02  0.14349258601E+02 -0.37720094993E+03  0.39012090801E+03  0.90819115800E+02 0.  0.
         23    2    1    2    0    0  0.40417316233E+02  0.10730369720E+02 -0.48320830581E+02  0.11626221629E+03  0.97125176869E+02 0.  0.
        -13    1    3    3    0    0  0.19375915692E+02 -0.19329658843E+02 -0.59511829911E+02  0.65503585545E+02  0.00000000000E+00 0.  1.
         13    1    3    3    0    0 -0.57582632696E+02  0.33678917444E+02 -0.31768912001E+03  0.32461732246E+03  0.00000000000E+00 0. -1.
        -13    1    4    4    0    0  0.29823865972E+01 -0.26765921971E+02  0.17232944898E+02  0.31973169981E+02  0.00000000000E+00 0.  1.
         13    1    4    4    0    0  0.37434929636E+02  0.37496291691E+02 -0.65553775478E+02  0.84289046304E+02  0.00000000000E+00 0. -1.
          1    1    1    2  501    0 -0.22105992279E+01 -0.25079628320E+02  0.24074863011E+02  0.34834947030E+02  0.00000000000E+00 0. -1.
<scales pt_clust_5="13000.00000" pt_clust_6="13000.00000" pt_clust_7="13000.00000" pt_clust_8="13000.00000" pt_clust_9="25.17686"></scales>
<clustering>
<clus scale="   25.177">  1  9  2 -1</clus>
<clus scale="   90.819">  5  6 -1 -1</clus>
<clus scale="   97.125">  7  8 -1 -1</clus>
<clus scale="   99.207">  2  5  1 -1</clus>
<clus scale="   25.177">  1  5  2 -1</clus>
</clustering>
</event>
<event>
 9    1  0.1315259E-005  0.9536072E+02  0.7546771E-02  0.1291772E+00
         -4   -1    0    0    0  501 -0.00000000000E+00  0.00000000000E+00  0.36649832919E+02  0.36649832919E+02  0.00000000000E+00 0.  1.
         21   -1    0    0  501  502  0.00000000000E+00 -0.00000000000E+00 -0.53292435844E+03  0.53292435844E+03  0.00000000000E+00 0. -1.
         23    2    1    2    0    0 -0.20959705643E+02  0.56549040603E+02 -0.13141660438E+03  0.17067161803E+03  0.90671792975E+02 0.  0.
         23    2    1    2    0    0  0.58760583269E+00  0.11364136714E+01 -0.13615019965E+03  0.16215406551E+03  0.88064904353E+02 0.  0.
        -13    1    3    3    0    0 -0.30621989106E+02  0.12839780303E+02 -0.11995103710E+03  0.12446211262E+03  0.00000000000E+00 0. -1.
         13    1    3    3    0    0  0.96622834629E+01  0.43709260299E+02 -0.11465567274E+02  0.46209505413E+02  0.00000000000E+00 0.  1.
        -13    1    4    4    0    0 -0.23096919045E+02  0.18890850558E+02 -0.83698967600E+01  0.30990112552E+02  0.00000000000E+00 0.  1.
         13    1    4    4    0    0  0.23684524878E+02 -0.17754436887E+02 -0.12778030289E+03  0.13116395295E+03  0.00000000000E+00 0. -1.
         -4    1    1    2    0  502  0.20372099811E+02 -0.57685454274E+02 -0.22870772150E+03  0.23674850783E+03  0.00000000000E+00 0.  1.
<scales pt_clust_5="13000.00000" pt_clust_6="13000.00000" pt_clust_7="13000.00000" pt_clust_8="13000.00000" pt_clust_9="61.17707"></scales>
<clustering>
<clus scale="   61.177">  2  9  1 -1</clus>
<clus scale="   88.065">  7  8 -1 -1</clus>
<clus scale="   90.672">  5  6 -1 -1</clus>
<clus scale="   92.886">  2  7  1 -1</clus>
<clus scale="   61.177">  2  5  1 -1</clus>
</clustering>
</event>
<event>
 9    1  0.1315259E-005  0.1362047E+03  0.7546771E-02  0.1219394E+00
          1   -1    0    0  502    0 -0.00000000000E+00  0.00000000000E+00  0.12401662698E+04  0.12401662698E+04  0.00000000000E+00 0. -1.
         21   -1    0    0  501  502  0.00000000000E+00 -0.00000000000E+00 -0.23561012335E+02  0.23561012335E+02  0.00000000000E+00 0.  1.
         23    2    1    2    0    0  0.85463849101E+02  0.21297272567E+01  0.54408950772E+03  0.55845724606E+03  0.92371521762E+02 0.  0.
         23    2    1    2    0    0 -0.11678151058E+03  0.15873856793E+02  0.63962979126E+03  0.65641912794E+03  0.88712463154E+02 0.  0.
        -11    1    4    4    0    0 -0.46772395952E+02 -0.33503673517E+02  0.33788673002E+03  0.34275004812E+03  0.00000000000E+00 0.  1.
         11    1    4    4    0    0 -0.70009114631E+02  0.49377530310E+02  0.30174306123E+03  0.31366907982E+03  0.00000000000E+00 0. -1.
        -13    1    3    3    0    0  0.48979833317E+02 -0.44826344914E+02  0.28841850341E+03  0.29596225837E+03  0.00000000000E+00 0.  1.
         13    1    3    3    0    0  0.36484015783E+02  0.46956072170E+02  0.25567100430E+03  0.26249498769E+03  0.00000000000E+00 0. -1.
          1    1    1    2  501    0  0.31317661483E+02 -0.18003584050E+02  0.32885958494E+02  0.48850908133E+02  0.00000000000E+00 0. -1.
<scales pt_clust_5="13000.00000" pt_clust_6="13000.00000" pt_clust_7="13000.00000" pt_clust_8="13000.00000" pt_clust_9="36.12375"></scales>
<clustering>
<clus scale="   36.124">  2  9  1 -1</clus>
<clus scale="   88.712">  5  6 -1 -1</clus>
<clus scale="   92.372">  7  8 -1 -1</clus>
<clus scale="  133.750">  2  5  1 -1</clus>
<clus scale="   36.124">  2  5  1 -1</clus>
</clustering>
</event>
<event>
 9    1  0.1315259E-005  0.1225295E+03  0.7546771E-02  0.1239440E+00
         -2   -1    0    0    0  501 -0.00000000000E+00  0.00000000000E+00  0.32039060204E+02  0.32039060204E+02  0.00000000000E+00 0.  1.
         21   -1    0    0  501  502  0.00000000000E+00 -0.00000000000E+00 -0.63456151124E+03  0.63456151124E+03  0.00000000000E+00 0.  1.
         23    2    1    2    0    0 -0.73477357748E+02  0.23270374330E+02 -0.20764079614E+03  0.23951452650E+03  0.91170586052E+02 0.  0.
         23    2    1    2    0    0  0.87225113062E+02  0.59052002475E+01 -0.27742708490E+03  0.30528378330E+03  0.92678525943E+02 0.  0.
        -11    1    4    4    0    0  0.35356965440E+02 -0.36445574702E+02 -0.18027983353E+03  0.18729445613E+03  0.00000000000E+00 0. -1.
         11    1    4    4    0    0  0.51868147623E+02  0.42350774950E+02 -0.97147251373E+02  0.11798932717E+03  0.00000000000E+00 0.  1.
        -13    1    3    3    0    0 -0.29660428143E+02 -0.13788680607E+02 -0.16449958517E+03  0.16771995180E+03  0.00000000000E+00 0. -1.
         13    1    3    3    0    0 -0.43816929605E+02  0.37059054937E+02 -0.43141210968E+02  0.71794574702E+02  0.00000000000E+00 0.  1.
         -2    1    1    2    0  502 -0.13747755314E+02 -0.29175574578E+02 -0.11745457000E+03  0.12180226165E+03  0.00000000000E+00 0.  1.
<scales pt_clust_5="13000.00000" pt_clust_6="13000.00000" pt_clust_7="13000.00000" pt_clust_8="13000.00000" pt_clust_9="32.25236"></scales>
<clustering>
<clus scale="   32.252">  2  9  1 -1</clus>
<clus scale="   91.171">  7  8 -1 -1</clus>
<clus scale="   92.679">  5  6 -1 -1</clus>
<clus scale="  121.393">  1  7  2 -1</clus>
<clus scale="   32.252">  2  5  1 -1</clus>
</clustering>
</event>
<event>
 9    1  0.1315259E-005  0.9439751E+02  0.7546771E-02  0.1293341E+00
         21   -1    0    0  501  502  0.00000000000E+00  0.00000000000E+00  0.29815696387E+03  0.29815696387E+03  0.00000000000E+00 0.  1.
          1   -1    0    0  502    0 -0.00000000000E+00 -0.00000000000E+00 -0.50867018792E+02  0.50867018792E+02  0.00000000000E+00 0. -1.
         23    2    1    2    0    0 -0.67294757560E+01 -0.52830307704E+01  0.55383969389E+02  0.10650270771E+03  0.90566254341E+02 0.  0.
         23    2    1    2    0    0  0.32355078427E+02  0.19087040742E+02  0.82044420968E+02  0.12886924722E+03  0.92004508814E+02 0.  0.
        -11    1    3    3    0    0  0.38562376327E+02 -0.15880172054E+02  0.13294982579E+02  0.43772060657E+02  0.00000000000E+00 0.  1.
         11    1    3    3    0    0 -0.45291852083E+02  0.10597141283E+02  0.42088986810E+02  0.62730647049E+02  0.00000000000E+00 0. -1.
        -13    1    4    4    0    0  0.27868420513E+02 -0.87352984081E+01  0.93868922289E+02  0.98307318506E+02  0.00000000000E+00 0.  1.
         13    1    4    4    0    0  0.44866579139E+01  0.27822339150E+02 -0.11824501321E+02  0.30561928711E+02  0.00000000000E+00 0. -1.
          1    1    1    2  501    0 -0.25625602671E+02 -0.13804009972E+02  0.10986155472E+03  0.11365202774E+03  0.00000000000E+00 0. -1.
<scales pt_clust_5="13000.00000" pt_clust_6="13000.00000" pt_clust_7="13000.00000" pt_clust_8="13000.00000" pt_clust_9="29.10708"></scales>
<clustering>
<clus scale="   29.107">  1  9  2 -1</clus>
<clus scale="   90.566">  5  6 -1 -1</clus>
<clus scale="   92.005">  7  8 -1 -1</clus>
<clus scale="   92.996">  2  5  1 -1</clus>
<clus scale="   29.107">  1  5  2 -1</clus>
</clustering>
</event>
<event>
 9    1  0.1315259E-005  0.2370147E+03  0.7546771E-02  0.1122335E+00
         21   -1    0    0  501  502  0.00000000000E+00  0.00000000000E+00  0.43073202267E+03  0.43073202267E+03  0.00000000000E+00 0.  1.
          1   -1    0    0  502    0 -0.00000000000E+00 -0.00000000000E+00 -0.41451505909E+03  0.41451505909E+03  0.00000000000E+00 0. -1.
         23    2    1    2    0    0  0.13412972832E+03  0.16598383948E+03 -0.32545124815E+03  0.40154169746E+03  0.98872649842E+02 0.  0.
         23    2    1    2    0    0 -0.14671333225E+03 -0.18405659277E+03  0.33728420243E+03  0.42125118564E+03  0.91051068050E+02 0.  0.
        -11    1    3    3    0    0  0.10063389765E+03  0.17372778765E+03 -0.27498838457E+03  0.34048074425E+03  0.00000000000E+00 0. -1.
         11    1    3    3    0    0  0.33495830670E+02 -0.77439481716E+01 -0.50462863586E+02  0.61060953210E+02  0.00000000000E+00 0.  1.
        -13    1    4    4    0    0 -0.34147854549E+02 -0.10120392721E+03  0.10263686530E+03  0.14813047280E+03  0.00000000000E+00 0. -1.
         13    1    4    4    0    0 -0.11256547770E+03 -0.82852665559E+02  0.23464733714E+03  0.27312071285E+03  0.00000000000E+00 0.  1.
          1    1    1    2  501    0  0.12583603936E+02  0.18072753295E+02  0.43840093077E+01  0.22454198656E+02  0.00000000000E+00 0. -1.
<scales pt_clust_5="13000.00000" pt_clust_6="13000.00000" pt_clust_7="13000.00000" pt_clust_8="13000.00000" pt_clust_9="22.02207"></scales>
<clustering>
<clus scale="   22.022">  1  9  2 -1</clus>
<clus scale="   91.051">  7  8 -1 -1</clus>
<clus scale="   98.873">  5  6 -1 -1</clus>
<clus scale="  233.860">  1  7  2 -1</clus>
<clus scale="   22.022">  1  5  2 -1</clus>
</clustering>
</event>
<event>
 9    1  0.1315259E-005  0.9735519E+02  0.7546771E-02  0.1286387E+00
         21   -1    0    0  501  502  0.00000000000E+00  0.00000000000E+00  0.27495934572E+03  0.27495934572E+03  0.00000000000E+00 0. -1.
          1   -1    0    0  502    0 -0.00000000000E+00 -0.00000000000E+00 -0.16014843922E+03  0.16014843922E+03  0.00000000000E+00 0. -1.
         23    2    1    2    0    0 -0.11111709020E+02 -0.31910274748E+02 -0.10678653707E+03  0.14376796242E+03  0.90133938147E+02 0.  0.
         23    2    1    2    0    0 -0.52727213666E+02  0.53671776845E+02  0.11247969149E+03  0.16306022616E+03  0.90973279971E+02 0.  0.
        -11    1    4    4    0    0  0.22414441176E+02  0.21718324222E+02  0.11648254766E+02  0.33313279925E+02  0.00000000000E+00 0.  1.
         11    1    4    4    0    0 -0.75141654842E+02  0.31953452623E+02  0.10083143672E+03  0.12974694624E+03  0.00000000000E+00 0. -1.
        -13    1    3    3    0    0  0.21181101371E+02 -0.39800722064E+02 -0.17273663399E+02  0.48281631904E+02  0.00000000000E+00 0. -1.
         13    1    3    3    0    0 -0.32292810390E+02  0.78904473152E+01 -0.89512873673E+02  0.95486330513E+02  0.00000000000E+00 0.  1.
          1    1    1    2  501    0  0.63838922686E+02 -0.21761502096E+02  0.10911775208E+03  0.12827959636E+03  0.00000000000E+00 0. -1.
<scales pt_clust_5="13000.00000" pt_clust_6="13000.00000" pt_clust_7="13000.00000" pt_clust_8="13000.00000" pt_clust_9="67.44606"></scales>
<clustering>
<clus scale="   67.446">  1  9  2 -1</clus>
<clus scale="   90.134">  7  8 -1 -1</clus>
<clus scale="   90.973">  5  6 -1 -1</clus>
<clus scale="   96.571">  2  7  1 -1</clus>
<clus scale="   67.446">  1  5  2 -1</clus>
</clustering>
</event>
<event>
 9    1  0.1315259E-005  0.1829549E+03  0.7546771E-02  0.1165110E+00
          2   -1    0    0  502    0 -0.00000000000E+00  0.00000000000E+00  0.12006429911E+04  0.12006429911E+04  0.00000000000E+00 0. -1.
         21   -1    0    0  501  502  0.00000000000E+00 -0.00000000000E+00 -0.95844096685E+02  0.95844096685E+02  0.00000000000E+00 0. -1.
         23    2    1    2    0    0  0.78090466469E+02  0.15040181908E+03  0.68561378116E+03  0.71184110879E+03  0.89065588824E+02 0.  0.
         23    2    1    2    0    0 -0.66950960811E+02 -0.13133456272E+03  0.48518415930E+03  0.51505055572E+03  0.90234184189E+02 0.  0.
        -11    1    3    3    0    0  0.34897547713E+02  0.14352760743E+03  0.52928505047E+03  0.54950948816E+03  0.00000000000E+00 0.  1.
         11    1    3    3    0    0  0.43192918756E+02  0.68742116518E+01  0.15632873069E+03  0.16233162063E+03  0.00000000000E+00 0. -1.
        -13    1    4    4    0    0 -0.45013822643E+02 -0.14133955707E+03  0.42863193850E+03  0.45357298566E+03  0.00000000000E+00 0. -1.
         13    1    4    4    0    0 -0.21937138168E+02  0.10004994349E+02  0.56552220800E+02  0.61477570059E+02  0.00000000000E+00 0.  1.
          2    1    1    2  501    0 -0.11139505658E+02 -0.19067256360E+02 -0.65999046081E+02  0.69595423233E+02  0.00000000000E+00 0. -1.
<scales pt_clust_5="13000.00000" pt_clust_6="13000.00000" pt_clust_7="13000.00000" pt_clust_8="13000.00000" pt_clust_9="22.08277"></scales>
<clustering>
<clus scale="   22.083">  2  9  1 -1</clus>
<clus scale="   89.066">  5  6 -1 -1</clus>
<clus scale="   90.234">  7  8 -1 -1</clus>
<clus scale="  182.381">  1  5  2 -1</clus>
<clus scale="   22.083">  2  5  1 -1</clus>
</clustering>
</event>
<event>
 9    1  0.1315259E-005  0.9507431E+02  0.7546771E-02  0.1291827E+00
         21   -1    0    0  501  502  0.00000000000E+00  0.00000000000E+00  0.10008262999E+03  0.10008262999E+03  0.00000000000E+00 0. -1.
          2   -1    0    0  502    0 -0.00000000000E+00 -0.00000000000E+00 -0.33145812529E+03  0.33145812529E+03  0.00000000000E+00 0. -1.
         23    2    1    2    0    0 -0.13000005327E+02  0.38521723473E+01 -0.18985149283E+03  0.21072384944E+03  0.90427385356E+02 0.  0.
         23    2    1    2    0    0  0.92506130402E+02  0.14441332088E+02 -0.46568795325E+01  0.13129003288E+03  0.91920889746E+02 0.  0.
        -11    1    4    4    0    0  0.10459763831E+02  0.23920964096E+02 -0.34681288818E+02  0.43409802772E+02  0.00000000000E+00 0.  1.
         11    1    4    4    0    0  0.82046366571E+02 -0.94796320075E+01  0.30024409285E+02  0.87880230105E+02  0.00000000000E+00 0. -1.
        -13    1    3    3    0    0  0.36157916671E+02 -0.13635357579E+02 -0.68868617373E+02  0.78969642099E+02  0.00000000000E+00 0. -1.
         13    1    3    3    0    0 -0.49157921998E+02  0.17487529926E+02 -0.12098287546E+03  0.13175420734E+03  0.00000000000E+00 0.  1.
          2    1    1    2  501    0 -0.79506125074E+02 -0.18293504436E+02 -0.36867122936E+02  0.89526872962E+02  0.00000000000E+00 0. -1.
<scales pt_clust_5="13000.00000" pt_clust_6="13000.00000" pt_clust_7="13000.00000" pt_clust_8="13000.00000" pt_clust_9="81.58355"></scales>
<clustering>
<clus scale="   81.584">  1  9  2 -1</clus>
<clus scale="   90.427">  7  8 -1 -1</clus>
<clus scale="   91.921">  5  6 -1 -1</clus>
<clus scale="   93.631">  2  7  1 -1</clus>
<clus scale="   81.584">  1  5  2 -1</clus>
</clustering>
</event>
<event>
 9    1  0.1315259E-005  0.9452461E+02  0.7546771E-02  0.1293736E+00
         21   -1    0    0  501  502  0.00000000000E+00  0.00000000000E+00  0.20508886644E+03  0.20508886644E+03  0.00000000000E+00 0. -1.
         -3   -1    0    0    0  501 -0.00000000000E+00 -0.00000000000E+00 -0.10295892567E+03  0.10295892567E+03  0.00000000000E+00 0.  1.
         23    2    1    2    0    0 -0.98221008598E+01  0.14126426660E+02 -0.44983893593E+02  0.10265986525E+03  0.90661279803E+02 0.  0.
         23    2    1    2    0    0 -0.31886156185E+02 -0.19625129320E+02  0.93866042389E+02  0.13752673185E+03  0.93278590267E+02 0.  0.
        -11    1    4    4    0    0 -0.40771293127E+02  0.85388319557E+00 -0.26884923336E+00  0.40781119892E+02  0.00000000000E+00 0. -1.
         11    1    4    4    0    0  0.88851369425E+01 -0.20479012516E+02  0.94134891622E+02  0.96745611957E+02  0.00000000000E+00 0.  1.
        -13    1    3    3    0    0 -0.47190252567E+02  0.17345723168E+02 -0.41126918080E+02  0.64955503541E+02  0.00000000000E+00 0. -1.
         13    1    3    3    0    0  0.37368151707E+02 -0.32192965082E+01 -0.38569755126E+01  0.37704361712E+02  0.00000000000E+00 0.  1.
         -3    1    1    2    0  502  0.41708257044E+02  0.54987026606E+01  0.53247791975E+02  0.67861195000E+02  0.00000000000E+00 0.  1.
<scales pt_clust_5="13000.00000" pt_clust_6="13000.00000" pt_clust_7="13000.00000" pt_clust_8="13000.00000" pt_clust_9="42.06916"></scales>
<clustering>
<clus scale="   42.069">  1  9  2 -1</clus>
<clus scale="   90.661">  7  8 -1 -1</clus>
<clus scale="   91.943">  2  7  1 -1</clus>
<clus scale="   93.279">  5  6 -1 -1</clus>
<clus scale="   42.069">  1  5  2 -1</clus>
</clustering>
</event>
<event>
 9    1  0.1315259E-005  0.9592940E+02  0.7546771E-02  0.1299060E+00
          3   -1    0    0  502    0 -0.00000000000E+00  0.00000000000E+00  0.26886412189E+02  0.26886412189E+02  0.00000000000E+00 0. -1.
         21   -1    0    0  501  502  0.00000000000E+00 -0.00000000000E+00 -0.45475408281E+03  0.45475408281E+03  0.00000000000E+00 0.  1.
         23    2    1    2    0    0 -0.21672619121E+02 -0.41127662069E+02 -0.20887246545E+03  0.23256747097E+03  0.91097391425E+02 0.  0.
         23    2    1    2    0    0 -0.84760381450E+01  0.19861665862E+02 -0.17810762027E+03  0.19400053789E+03  0.73807555933E+02 0.  0.
        -11    1    3    3    0    0 -0.32705204193E+02 -0.60357239204E+02 -0.19421493461E+03  0.20599045495E+03  0.00000000000E+00 0.  1.
         11    1    3    3    0    0  0.11032585072E+02  0.19229577135E+02 -0.14657530836E+02  0.26577016017E+02  0.00000000000E+00 0. -1.
        -11    1    4    4    0    0 -0.30774267929E+02  0.29560837776E+02 -0.15383207439E+03  0.15964086510E+03  0.00000000000E+00 0.  1.
         11    1    4    4    0    0  0.22298229784E+02 -0.96991719135E+01 -0.24275545872E+02  0.34359672796E+02  0.00000000000E+00 0. -1.
          3    1    1    2  501    0  0.30148657266E+02  0.21265996207E+02 -0.40887584911E+02  0.55072486139E+02  0.00000000000E+00 0. -1.
<scales pt_clust_5="13000.00000" pt_clust_6="13000.00000" pt_clust_7="13000.00000" pt_clust_8="13000.00000" pt_clust_9="36.89425"></scales>
<clustering>
<clus scale="   36.894">  2  9  1 -1</clus>
<clus scale="   73.808">  7  8 -1 -1</clus>
<clus scale="   79.695">  2  7  1 -1</clus>
<clus scale="   91.097">  5  6 -1 -1</clus>
<clus scale="   36.894">  2  5  1 -1</clus>
</clustering>
</event>
<event>
 9    1  0.1315259E-005  0.1149274E+03  0.7546771E-02  0.1252663E+00
          1   -1    0    0  502    0 -0.00000000000E+00  0.00000000000E+00  0.18831299240E+02  0.18831299240E+02  0.00000000000E+00 0. -1.
         21   -1    0    0  501  502  0.00000000000E+00 -0.00000000000E+00 -0.10427471042E+04  0.10427471042E+04  0.00000000000E+00 0.  1.
         23    2    1    2    0    0 -0.14365308103E+02 -0.59164664008E+02 -0.25589205607E+03  0.27923126867E+03  0.93715193522E+02 0.  0.
         23    2    1    2    0    0 -0.97820721469E+00  0.81058254617E+02 -0.60723506410E+03  0.61935095712E+03  0.91048270091E+02 0.  0.
        -11    1    3    3    0    0 -0.39785583686E+02 -0.67266760337E+02 -0.22616526493E+03  0.23928735189E+03  0.00000000000E+00 0. -1.
         11    1    3    3    0    0  0.25420275583E+02  0.81020963299E+01 -0.29726791143E+02  0.39943916774E+02  0.00000000000E+00 0.  1.
        -11    1    4    4    0    0  0.44109135483E+02  0.51157217911E+02 -0.31703514755E+03  0.32415113999E+03  0.00000000000E+00 0. -1.
         11    1    4    4    0    0 -0.45087342698E+02  0.29901036706E+02 -0.29019991655E+03  0.29519981713E+03  0.00000000000E+00 0.  1.
          1    1    1    2  501    0  0.15343515318E+02 -0.21893590609E+02 -0.16078868475E+03  0.16299617761E+03  0.00000000000E+00 0. -1.
<scales pt_clust_5="13000.00000" pt_clust_6="13000.00000" pt_clust_7="13000.00000" pt_clust_8="13000.00000" pt_clust_9="26.73486"></scales>
<clustering>
<clus scale="   26.735">  2  9  1 -1</clus>
<clus scale="   91.048">  7  8 -1 -1</clus>
<clus scale="   93.715">  5  6 -1 -1</clus>
<clus scale="  112.763">  2  7  1 -1</clus>
<clus scale="   26.735">  2  5  1 -1</clus>
</clustering>
</event>
<event>
 9    1  0.1315259E-005  0.1243599E+03  0.7546771E-02  0.1236681E+00
          2   -1    0    0  502    0 -0.00000000000E+00  0.00000000000E+00  0.22173332321E+03  0.22173332321E+03  0.00000000000E+00 0. -1.
         21   -1    0    0  501  502  0.00000000000E+00 -0.00000000000E+00 -0.14445321778E+03  0.14445321778E+03  0.00000000000E+00 0.  1.
         23    2    1    2    0    0 -0.86533605518E+02 -0.96042401445E+01  0.14170985786E+03  0.19029992709E+03  0.92477414130E+02 0.  0.
         23    2    1    2    0    0  0.61507812558E+02  0.24606253988E+02 -0.12196723323E+02  0.11605652061E+03  0.94507550890E+02 0.  0.
        -11    1    4    4    0    0 -0.49715047843E+01 -0.22921329901E+02 -0.23918051849E+02  0.33498901900E+02  0.00000000000E+00 0.  1.
         11    1    4    4    0    0  0.66479317343E+02  0.47527583889E+02  0.11721328526E+02  0.82557618710E+02  0.00000000000E+00 0. -1.
        -13    1    3    3    0    0 -0.93939594319E+02  0.20331825292E+02  0.10474228778E+03  0.14215828274E+03  0.00000000000E+00 0.  1.
         13    1    3    3    0    0  0.74059888012E+01 -0.29936065437E+02  0.36967570073E+02  0.48141644354E+02  0.00000000000E+00 0. -1.
          2    1    1    2  501    0  0.25025792960E+02 -0.15002013844E+02 -0.52233029103E+02  0.59830093281E+02  0.00000000000E+00 0. -1.
<scales pt_clust_5="13000.00000" pt_clust_6="13000.00000" pt_clust_7="13000.00000" pt_clust_8="13000.00000" pt_clust_9="29.17792"></scales>
<clustering>
<clus scale="   29.178">  2  9  1 -1</clus>
<clus scale="   92.477">  7  8 -1 -1</clus>
<clus scale="   94.508">  5  6 -1 -1</clus>
<clus scale="  122.824">  1  7  2 -1</clus>
<clus scale="   29.178">  2  5  1 -1</clus>
</clustering>
</event>
<event>
 9    1  0.1315259E-005  0.1310136E+03  0.7546771E-02  0.1226274E+00
          2   -1    0    0  502    0 -0.00000000000E+00  0.00000000000E+00  0.85583766979E+03  0.85583766979E+03  0.00000000000E+00 0. -1.
         21   -1    0    0  501  502  0.00000000000E+00 -0.00000000000E+00 -0.63481740322E+02  0.63481740322E+02  0.00000000000E+00 0. -1.
         23    2    1    2    0    0  0.53374236592E+02  0.89733988035E+02  0.55638818662E+03  0.57343203542E+03  0.91408354625E+02 0.  0.
         23    2    1    2    0    0 -0.75676961905E+02  0.10137461844E+02  0.43069304386E+02  0.12752637630E+03  0.92618793860E+02 0.  0.
        -11    1    3    3    0    0  0.75559675888E+02  0.45240935924E+02  0.32180881765E+03  0.33364190687E+03  0.00000000000E+00 0. -1.
         11    1    3    3    0    0 -0.22185439296E+02  0.44493052111E+02  0.23457936897E+03  0.23979012855E+03  0.00000000000E+00 0.  1.
        -13    1    4    4    0    0 -0.12545643287E+02 -0.23213685775E+02 -0.19324457902E+02  0.32706315077E+02  0.00000000000E+00 0.  1.
         13    1    4    4    0    0 -0.63131318618E+02  0.33351147619E+02  0.62393762288E+02  0.94820061223E+02  0.00000000000E+00 0. -1.
          2    1    1    2  501    0  0.22302725313E+02 -0.99871449879E+02  0.19289843846E+03  0.21836099839E+03  0.00000000000E+00 0. -1.
<scales pt_clust_5="13000.00000" pt_clust_6="13000.00000" pt_clust_7="13000.00000" pt_clust_8="13000.00000" pt_clust_9="102.33146"></scales>
<clustering>
<clus scale="   91.408">  5  6 -1 -1</clus>
<clus scale="   92.619">  7  8 -1 -1</clus>
<clus scale="  102.331">  2  9  1 -1</clus>
<clus scale="  130.161">  1  5  2 -1</clus>
<clus scale="  102.331">  2  5  1 -1</clus>
</clustering>
</event>
<event>
 9    1  0.1315259E-005  0.1566459E+03  0.7546771E-02  0.1216028E+00
         21   -1    0    0  501  502  0.00000000000E+00  0.00000000000E+00  0.18664636149E+03  0.18664636149E+03  0.00000000000E+00 0. -1.
         -1   -1    0    0    0  501 -0.00000000000E+00 -0.00000000000E+00 -0.28615082134E+03  0.28615082134E+03  0.00000000000E+00 0.  1.
         23    2    1    2    0    0 -0.15025641121E+02  0.17168409591E+02 -0.10481742822E+03  0.14105345492E+03  0.91590718467E+02 0.  0.
         23    2    1    2    0    0  0.10214325448E+03 -0.93435034824E+02  0.92582031723E+02  0.18675419000E+03  0.84512393872E+02 0.  0.
        -11    1    4    4    0    0  0.26142838241E+02 -0.69562017522E+02  0.15514200200E+02  0.75914509027E+02  0.00000000000E+00 0.  1.
         11    1    4    4    0    0  0.76000416236E+02 -0.23873017302E+02  0.77067831523E+02  0.11083968098E+03  0.00000000000E+00 0. -1.
        -13    1    3    3    0    0 -0.10417372606E+01  0.54306084394E+02 -0.66829075846E+02  0.86118298852E+02  0.00000000000E+00 0.  1.
         13    1    3    3    0    0 -0.13983903860E+02 -0.37137674803E+02 -0.37988352370E+02  0.54935156073E+02  0.00000000000E+00 0. -1.
         -1    1    1    2    0  502 -0.87117613356E+02  0.76266625233E+02 -0.87269063365E+02  0.14498953790E+03  0.00000000000E+00 0.  1.
<scales pt_clust_5="13000.00000" pt_clust_6="13000.00000" pt_clust_7="13000.00000" pt_clust_8="13000.00000" pt_clust_9="131.89240"></scales>
<clustering>
<clus scale="   84.512">  5  6 -1 -1</clus>
<clus scale="   91.591">  7  8 -1 -1</clus>
<clus scale="   94.390">  2  7  1 -1</clus>
<clus scale="  131.892">  1  9  2 -1</clus>
<clus scale="  131.892">  1  5  2 -1</clus>
</clustering>
</event>
<event>
 9    1  0.1315259E-005  0.1814733E+03  0.7546771E-02  0.1166437E+00
         21   -1    0    0  501  502  0.00000000000E+00  0.00000000000E+00  0.79987514031E+03  0.79987514031E+03  0.00000000000E+00 0. -1.
          2   -1    0    0  502    0 -0.00000000000E+00 -0.00000000000E+00 -0.73339887036E+02  0.73339887036E+02  0.00000000000E+00 0. -1.
         23    2    1    2    0    0  0.12836089079E+03  0.56359668706E+02  0.19123128619E+03  0.25433444162E+03  0.91998221895E+02 0.  0.
         23    2    1    2    0    0 -0.18727106354E+03  0.19417455499E+01  0.27112101738E+03  0.34200138053E+03  0.91564821880E+02 0.  0.
        -11    1    4    4    0    0 -0.13824083319E+03 -0.28501410592E+02  0.23433712624E+03  0.27356305873E+03  0.00000000000E+00 0.  1.
         11    1    4    4    0    0 -0.49030230347E+02  0.30443156142E+02  0.36783891141E+02  0.68438321803E+02  0.00000000000E+00 0. -1.
        -13    1    3    3    0    0  0.24086863249E+02 -0.19910914264E+02  0.72178355272E+02  0.78653267305E+02  0.00000000000E+00 0.  1.
         13    1    3    3    0    0  0.10427402754E+03  0.76270582970E+02  0.11905293092E+03  0.17568117431E+03  0.00000000000E+00 0. -1.
          2    1    1    2  501    0  0.58910172750E+02 -0.58301414256E+02  0.26418294971E+03  0.27687920520E+03  0.00000000000E+00 0. -1.
<scales pt_clust_5="13000.00000" pt_clust_6="13000.00000" pt_clust_7="13000.00000" pt_clust_8="13000.00000" pt_clust_9="82.88223"></scales>
<clustering>
<clus scale="   82.882">  1  9  2 -1</clus>
<clus scale="   91.565">  5  6 -1 -1</clus>
<clus scale="   91.998">  7  8 -1 -1</clus>
<clus scale="  181.254">  1  5  2 -1</clus>
<clus scale="   82.882">  1  5  2 -1</clus>
</clustering>
</event>
<event>
 9    1  0.1315259E-005  0.9746302E+02  0.7546771E-02  0.1285831E+00
         21   -1    0    0  501  502  0.00000000000E+00  0.00000000000E+00  0.26579681472E+03  0.26579681472E+03  0.00000000000E+00 0.  1.
         -3   -1    0    0    0  501 -0.00000000000E+00 -0.00000000000E+00 -0.70393562419E+02  0.70393562419E+02  0.00000000000E+00 0.  1.
         23    2    1    2    0    0  0.19141423281E+02  0.26480335248E+02  0.18556205983E+02  0.98161780519E+02  0.90685170420E+02 0.  0.
         23    2    1    2    0    0  0.56017519717E+01 -0.46901332688E+02  0.63439073108E+02  0.12017016355E+03  0.90472302821E+02 0.  0.
        -11    1    3    3    0    0 -0.13753075390E+02 -0.17801168799E+02  0.34099747550E+02  0.40851211442E+02  0.00000000000E+00 0. -1.
         11    1    3    3    0    0  0.32894498671E+02  0.44281504047E+02 -0.15543541567E+02  0.57310569077E+02  0.00000000000E+00 0.  1.
        -13    1    4    4    0    0 -0.25087967694E+02 -0.13100378289E+02 -0.12991819048E+02  0.31141827122E+02  0.00000000000E+00 0. -1.
         13    1    4    4    0    0  0.30689719665E+02 -0.33800954398E+02  0.76430892156E+02  0.89028336428E+02  0.00000000000E+00 0.  1.
         -3    1    1    2    0  502 -0.24743175253E+02  0.20420997439E+02  0.11340797321E+03  0.11785843307E+03  0.00000000000E+00 0.  1.
<scales pt_clust_5="13000.00000" pt_clust_6="13000.00000" pt_clust_7="13000.00000" pt_clust_8="13000.00000" pt_clust_9="32.08180"></scales>
<clustering>
<clus scale="   32.082">  1  9  2 -1</clus>
<clus scale="   90.472">  7  8 -1 -1</clus>
<clus scale="   90.685">  5  6 -1 -1</clus>
<clus scale="   97.265">  1  7  2 -1</clus>
<clus scale="   32.082">  1  5  2 -1</clus>
</clustering>
</event>
<event>
 9    1  0.1315259E-005  0.9187374E+02  0.7546771E-02  0.1299636E+00
          2   -1    0    0  502    0 -0.00000000000E+00  0.00000000000E+00  0.29323799208E+03  0.29323799208E+03  0.00000000000E+00 0. -1.
         21   -1    0    0  501  502  0.00000000000E+00 -0.00000000000E+00 -0.10893082777E+03  0.10893082777E+03  0.00000000000E+00 0. -1.
         23    2    1    2    0    0 -0.64197338476E+01 -0.16247472453E+02  0.16433743579E+03  0.18753802929E+03  0.88648329289E+02 0.  0.
         23    2    1    2    0    0  0.17542076114E+02 -0.21090055086E+01  0.97378720141E+02  0.13430135160E+03  0.90785822503E+02 0.  0.
        -11    1    3    3    0    0  0.19218280894E+02 -0.46388929677E+02  0.81336979024E+02  0.95587547693E+02  0.00000000000E+00 0. -1.
         11    1    3    3    0    0 -0.25638014742E+02  0.30141457224E+02  0.83000456764E+02  0.91950481600E+02  0.00000000000E+00 0.  1.
        -13    1    4    4    0    0  0.61203288709E+01  0.26305243256E+02 -0.49769921258E+01  0.27462605464E+02  0.00000000000E+00 0.  1.
         13    1    4    4    0    0  0.11421747243E+02 -0.28414248765E+02  0.10235571227E+03  0.10683874614E+03  0.00000000000E+00 0. -1.
          2    1    1    2  501    0 -0.11122342266E+02  0.18356477962E+02 -0.77408991617E+02  0.80329438961E+02  0.00000000000E+00 0. -1.
<scales pt_clust_5="13000.00000" pt_clust_6="13000.00000" pt_clust_7="13000.00000" pt_clust_8="13000.00000" pt_clust_9="21.46315"></scales>
<clustering>
<clus scale="   21.463">  2  9  1 -1</clus>
<clus scale="   88.648">  5  6 -1 -1</clus>
<clus scale="   89.762">  1  5  2 -1</clus>
<clus scale="   90.786">  7  8 -1 -1</clus>
<clus scale="   21.463">  2  5  1 -1</clus>
</clustering>
</event>
<event>
 9    1  0.1315259E-005  0.9766238E+02  0.7546771E-02  0.1288707E+00
          1   -1    0    0  502    0 -0.00000000000E+00  0.00000000000E+00  0.49148381907E+03  0.49148381907E+03  0.00000000000E+00 0. -1.
         21   -1    0    0  501  502  0.00000000000E+00 -0.00000000000E+00 -0.16590821218E+03  0.16590821218E+03  0.00000000000E+00 0. -1.
         23    2    1    2    0    0 -0.29373695188E+02 -0.35435263196E+02  0.24537044555E+03  0.26562066615E+03  0.90714998172E+02 0.  0.
         23    2    1    2    0    0 -0.10382888517E+02 -0.53768739214E+02  0.20604247291E+03  0.23248241703E+03  0.92712954296E+02 0.  0.
        -13    1    4    4    0    0  0.18270688368E+02 -0.20749924459E+02  0.67612210147E+01  0.28462106881E+02  0.00000000000E+00 0.  1.
         13    1    4    4    0    0 -0.28653576884E+02 -0.33018814756E+02  0.19928125190E+03  0.20402031015E+03  0.00000000000E+00 0. -1.
        -13    1    3    3    0    0  0.25387011325E+02 -0.39339373123E+02  0.11413445358E+03  0.12336433892E+03  0.00000000000E+00 0.  1.
         13    1    3    3    0    0 -0.54760706514E+02  0.39041099265E+01  0.13123599196E+03  0.14225632724E+03  0.00000000000E+00 0. -1.
          1    1    1    2  501    0  0.39756583705E+02  0.89204002410E+02 -0.12583731157E+03  0.15928894807E+03  0.00000000000E+00 0. -1.
<scales pt_clust_5="13000.00000" pt_clust_6="13000.00000" pt_clust_7="13000.00000" pt_clust_8="13000.00000" pt_clust_9="97.66238"></scales>
<clustering>
<clus scale="   90.715">  7  8 -1 -1</clus>
<clus scale="   92.713">  5  6 -1 -1</clus>
<clus scale="   97.662">  2  9  1 -1</clus>
<clus scale="   91.580">  1  7  2 -1</clus>
<clus scale="   97.662">  2  5  1 -1</clus>
</clustering>
</event>
<event>
 9    1  0.1315259E-005  0.1255898E+03  0.7546771E-02  0.1234326E+00
         21   -1    0    0  501  502  0.00000000000E+00  0.00000000000E+00  0.41648641876E+02  0.41648641876E+02  0.00000000000E+00 0.  1.
          2   -1    0    0  502    0 -0.00000000000E+00 -0.00000000000E+00 -0.82634874268E+03  0.82634874268E+03  0.00000000000E+00 0. -1.
         23    2    1    2    0    0  0.38179393241E+02 -0.70486098326E+02 -0.55901785440E+03  0.57209311796E+03  0.91452818146E+02 0.  0.
         23    2    1    2    0    0 -0.19053455990E+02  0.11113477440E+03 -0.18782982652E+03  0.23715971763E+03  0.90833450186E+02 0.  0.
        -11    1    4    4    0    0  0.20652135283E+02  0.38064082876E+02 -0.15826008901E+02  0.46106915475E+02  0.00000000000E+00 0. -1.
         11    1    4    4    0    0 -0.39705591272E+02  0.73070691522E+02 -0.17200381762E+03  0.19105280216E+03  0.00000000000E+00 0.  1.
        -11    1    3    3    0    0  0.25621616274E+02  0.17758688390E+02 -0.11099550889E+03  0.11529024775E+03  0.00000000000E+00 0.  1.
         11    1    3    3    0    0  0.12557776967E+02 -0.88244786716E+02 -0.44802234551E+03  0.45680287020E+03  0.00000000000E+00 0. -1.
          2    1    1    2  501    0 -0.19125937251E+02 -0.40648676071E+02 -0.37852419882E+02  0.58744548964E+02  0.00000000000E+00 0. -1.
<scales pt_clust_5="13000.00000" pt_clust_6="13000.00000" pt_clust_7="13000.00000" pt_clust_8="13000.00000" pt_clust_9="44.92345"></scales>
<clustering>
<clus scale="   44.923">  1  9  2 -1</clus>
<clus scale="   90.833">  5  6 -1 -1</clus>
<clus scale="   91.453">  7  8 -1 -1</clus>
<clus scale="  125.140">  1  5  2 -1</clus>
<clus scale="   44.923">  1  5  2 -1</clus>
</clustering>
</event>
<event>
 9    1  0.1315259E-005  0.1058974E+03  0.7546771E-02  0.1270335E+00
          1   -1    0    0  502    0 -0.00000000000E+00  0.00000000000E+00  0.34712431247E+03  0.34712431247E+03  0.00000000000E+00 0. -1.
         21   -1    0    0  501  502  0.00000000000E+00 -0.00000000000E+00 -0.11545529766E+03  0.11545529766E+03  0.00000000000E+00 0. -1.
         23    2    1    2    0    0  0.57121655271E+02 -0.27296704223E+02  0.25495522028E+03  0.27576177864E+03  0.83871333894E+02 0.  0.
         23    2    1    2    0    0 -0.35076542239E+02  0.24381059845E+02  0.49893164537E+02  0.11033444646E+03  0.88654172561E+02 0.  0.
        -11    1    4    4    0    0 -0.18333815090E+02  0.57860919631E+02  0.34869164722E+02  0.69999096027E+02  0.00000000000E+00 0.  1.
         11    1    4    4    0    0 -0.16742727149E+02 -0.33479859786E+02  0.15023999816E+02  0.40335350428E+02  0.00000000000E+00 0. -1.
        -11    1    3    3    0    0  0.78262925110E+02 -0.29855374946E+02  0.20091646113E+03  0.21767832509E+03  0.00000000000E+00 0. -1.
         11    1    3    3    0    0 -0.21141269839E+02  0.25586707235E+01  0.54038759150E+02  0.58083453554E+02  0.00000000000E+00 0.  1.
          1    1    1    2  501    0 -0.22045113032E+02  0.29156443779E+01 -0.73179370011E+02  0.76483385032E+02  0.00000000000E+00 0. -1.
<scales pt_clust_5="13000.00000" pt_clust_6="13000.00000" pt_clust_7="13000.00000" pt_clust_8="13000.00000" pt_clust_9="22.23709"></scales>
<clustering>
<clus scale="   22.237">  2  9  1 -1</clus>
<clus scale="   83.871">  7  8 -1 -1</clus>
<clus scale="   88.654">  5  6 -1 -1</clus>
<clus scale="  101.927">  1  7  2 -1</clus>
<clus scale="   22.237">  2  5  1 -1</clus>
</clustering>
</event>
<event>
 9    1  0.1315259E-005  0.9732472E+02  0.7546771E-02  0.1287941E+00
          1   -1    0    0  502    0 -0.00000000000E+00  0.00000000000E+00  0.33745573376E+03  0.33745573376E+03  0.00000000000E+00 0. -1.
         21   -1    0    0  501  502  0.00000000000E+00 -0.00000000000E+00 -0.94618705666E+02  0.94618705666E+02  0.00000000000E+00 0. -1.
         23    2    1    2    0    0  0.28916379456E+02 -0.18136412597E+02  0.14895064566E+03  0.17614862694E+03  0.87618248486E+02 0.  0.
         23    2    1    2    0    0 -0.86475368283E+01  0.37999215593E+02  0.15755369488E+03  0.18622011975E+03  0.91301949319E+02 0.  0.
        -11    1    3    3    0    0  0.29680523200E+02 -0.46187310248E+02  0.53497702194E+02  0.76656410205E+02  0.00000000000E+00 0.  1.
         11    1    3    3    0    0 -0.76414374434E+00  0.28050897652E+02  0.95452943464E+02  0.99492216734E+02  0.00000000000E+00 0. -1.
        -13    1    4    4    0    0 -0.18984401177E+02  0.11410012525E+02 -0.37052977333E+01  0.22457183821E+02  0.00000000000E+00 0.  1.
         13    1    4    4    0    0  0.10336864349E+02  0.26589203068E+02  0.16125899262E+03  0.16376293593E+03  0.00000000000E+00 0. -1.
          1    1    1    2  501    0 -0.20268842628E+02 -0.19862802996E+02 -0.63667312452E+02  0.69705692732E+02  0.00000000000E+00 0. -1.
<scales pt_clust_5="13000.00000" pt_clust_6="13000.00000" pt_clust_7="13000.00000" pt_clust_8="13000.00000" pt_clust_9="28.37881"></scales>
<clustering>
<clus scale="   28.379">  2  9  1 -1</clus>
<clus scale="   87.618">  5  6 -1 -1</clus>
<clus scale="   91.302">  7  8 -1 -1</clus>
<clus scale="   93.878">  1  5  2 -1</clus>
<clus scale="   28.379">  2  5  1 -1</clus>
</clustering>
</event>
<event>
 9    1  0.1315259E-005  0.9531767E+02  0.7546771E-02  0.1291993E+00
         21   -1    0    0  501  502  0.00000000000E+00  0.00000000000E+00  0.55011973183E+02  0.55011973183E+02  0.00000000000E+00 0.  1.
         -1   -1    0    0    0  501 -0.00000000000E+00 -0.00000000000E+00 -0.32555456549E+03  0.32555456549E+03  0.00000000000E+00 0.  1.
         23    2    1    2    0    0 -0.44996890556E+01  0.18697813688E+02 -0.12751344262E+03  0.15587413865E+03  0.87562626796E+02 0.  0.
         23    2    1    2    0    0  0.49070365195E+02 -0.14705276113E+02 -0.14672472497E+03  0.17979092116E+03  0.90401794936E+02 0.  0.
        -13    1    4    4    0    0 -0.22045375722E+02  0.11802866593E+02 -0.57184824940E+02  0.62413223391E+02  0.00000000000E+00 0.  1.
         13    1    4    4    0    0  0.71115740917E+02 -0.26508142706E+02 -0.89539900028E+02  0.11737769777E+03  0.00000000000E+00 0. -1.
        -13    1    3    3    0    0  0.24269083097E+02  0.42811639068E+02 -0.52296961500E+02  0.71810841912E+02  0.00000000000E+00 0. -1.
         13    1    3    3    0    0 -0.28768772153E+02 -0.24113825380E+02 -0.75216481122E+02  0.84063296735E+02  0.00000000000E+00 0.  1.
         -1    1    1    2    0  502 -0.44570676139E+02 -0.39925375755E+01  0.36955752836E+01  0.44901478868E+02  0.00000000000E+00 0.  1.
<scales pt_clust_5="13000.00000" pt_clust_6="13000.00000" pt_clust_7="13000.00000" pt_clust_8="13000.00000" pt_clust_9="44.74914"></scales>
<clustering>
<clus scale="   44.749">  1  9  2 -1</clus>
<clus scale="   87.563">  7  8 -1 -1</clus>
<clus scale="   90.402">  5  6 -1 -1</clus>
<clus scale="   92.629">  2  7  1 -1</clus>
<clus scale="   44.749">  1  5  2 -1</clus>
</clustering>
</event>
<event>
 9    1  0.1315259E-005  0.9868062E+02  0.7546771E-02  0.1283348E+00
          2   -1    0    0  502    0 -0.00000000000E+00  0.00000000000E+00  0.69639324609E+02  0.69639324609E+02  0.00000000000E+00 0. -1.
         21   -1    0    0  501  502  0.00000000000E+00 -0.00000000000E+00 -0.29684923313E+03  0.29684923313E+03  0.00000000000E+00 0. -1.
         23    2    1    2    0    0  0.40465086594E+02 -0.11112232524E+02  0.19019384644E+01  0.10075107107E+03  0.91576503576E+02 0.  0.
         23    2    1    2    0    0 -0.35733968412E+01  0.23221669343E+02 -0.17497517761E+03  0.19911606216E+03  0.92080825024E+02 0.  0.
        -13    1    3    3    0    0  0.24464526973E+02  0.32993467145E+02  0.25383643447E+02  0.48284690212E+02  0.00000000000E+00 0. -1.
         13    1    3    3    0    0  0.16000559621E+02 -0.44105699669E+02 -0.23481704983E+02  0.52466380858E+02  0.00000000000E+00 0.  1.
        -13    1    4    4    0    0 -0.11715861082E+02 -0.30329375451E+02 -0.10904181661E+03  0.11378598413E+03  0.00000000000E+00 0.  1.
         13    1    4    4    0    0  0.81424642408E+01  0.53551044794E+02 -0.65933361007E+02  0.85330078027E+02  0.00000000000E+00 0. -1.
          2    1    1    2  501    0 -0.36891689752E+02 -0.12109436819E+02 -0.54136669368E+02  0.66621424505E+02  0.00000000000E+00 0. -1.
<scales pt_clust_5="13000.00000" pt_clust_6="13000.00000" pt_clust_7="13000.00000" pt_clust_8="13000.00000" pt_clust_9="38.82828"></scales>
<clustering>
<clus scale="   38.828">  2  9  1 -1</clus>
<clus scale="   91.577">  5  6 -1 -1</clus>
<clus scale="   92.081">  7  8 -1 -1</clus>
<clus scale="   98.210">  1  5  2 -1</clus>
<clus scale="   38.828">  2  5  1 -1</clus>
</clustering>
</event>
<event>
 9    1  0.1315259E-005  0.1798732E+03  0.7546771E-02  0.1168281E+00
          2   -1    0    0  502    0 -0.00000000000E+00  0.00000000000E+00  0.91324633972E+03  0.91324633972E+03  0.00000000000E+00 0. -1.
         21   -1    0    0  501  502  0.00000000000E+00 -0.00000000000E+00 -0.55898997984E+02  0.55898997984E+02  0.00000000000E+00 0.  1.
         23    2    1    2    0    0  0.14561263460E+03  0.44528585307E+02  0.55944984472E+03  0.58738088115E+03  0.94054965401E+02 0.  0.
         23    2    1    2    0    0 -0.13590327017E+03 -0.81137118640E+02  0.29050660712E+03  0.34317583487E+03  0.91228471407E+02 0.  0.
        -11    1    4    4    0    0 -0.92047922111E+02 -0.95357693711E+02  0.18079710428E+03  0.22417293019E+03  0.00000000000E+00 0.  1.
         11    1    4    4    0    0 -0.43855348061E+02  0.14220575071E+02  0.10970950284E+03  0.11900290468E+03  0.00000000000E+00 0. -1.
        -13    1    3    3    0    0  0.88498450373E+02 -0.17263223555E+02  0.22231546012E+03  0.23990447769E+03  0.00000000000E+00 0.  1.
         13    1    3    3    0    0  0.57114184222E+02  0.61791808862E+02  0.33713438460E+03  0.34747640346E+03  0.00000000000E+00 0. -1.
          2    1    1    2  501    0 -0.97093644232E+01  0.36608533333E+02  0.73908899017E+01  0.38588621689E+02  0.00000000000E+00 0. -1.
<scales pt_clust_5="13000.00000" pt_clust_6="13000.00000" pt_clust_7="13000.00000" pt_clust_8="13000.00000" pt_clust_9="37.87422"></scales>
<clustering>
<clus scale="   37.874">  2  9  1 -1</clus>
<clus scale="   91.228">  5  6 -1 -1</clus>
<clus scale="   94.055">  7  8 -1 -1</clus>
<clus scale="  178.411">  2  5  1 -1</clus>
<clus scale="   37.874">  2  5  1 -1</clus>
</clustering>
</event>
<event>
 9    1  0.1315259E-005  0.9587609E+02  0.7546771E-02  0.1291471E+00
         -3   -1    0    0    0  501 -0.00000000000E+00  0.00000000000E+00  0.93766071825E+02  0.93766071825E+02  0.00000000000E+00 0.  1.
         21   -1    0    0  501  502  0.00000000000E+00 -0.00000000000E+00 -0.19726435662E+03  0.19726435662E+03  0.00000000000E+00 0.  1.
         23    2    1    2    0    0  0.12465416806E+02 -0.38768335920E+02  0.36321104841E+02  0.10149974281E+03  0.85583904139E+02 0.  0.
         23    2    1    2    0    0  0.11165437592E+00  0.13420612524E+02 -0.71528572931E+02  0.11560960984E+03  0.89828279698E+02 0.  0.
        -11    1    3    3    0    0 -0.16939268790E+02  0.15940035663E+02 -0.86522102025E+01  0.24817016449E+02  0.00000000000E+00 0. -1.
         11    1    3    3    0    0  0.29404685596E+02 -0.54708371583E+02  0.44973315044E+02  0.76682726362E+02  0.00000000000E+00 0.  1.
        -11    1    4    4    0    0 -0.43759003481E+01 -0.38468019964E+02 -0.31894695536E+02  0.50161824799E+02  0.00000000000E+00 0.  1.
         11    1    4    4    0    0  0.44875547240E+01  0.51888632488E+02 -0.39633877395E+02  0.65447785037E+02  0.00000000000E+00 0. -1.
         -3    1    1    2    0  502 -0.12577071182E+02  0.25347723397E+02 -0.68290816705E+02  0.73921075798E+02  0.00000000000E+00 0.  1.
<scales pt_clust_5="13000.00000" pt_clust_6="13000.00000" pt_clust_7="13000.00000" pt_clust_8="13000.00000" pt_clust_9="28.29646"></scales>
<clustering>
<clus scale="   28.296">  2  9  1 -1</clus>
<clus scale="   85.584">  5  6 -1 -1</clus>
<clus scale="   89.828">  7  8 -1 -1</clus>
<clus scale="   91.911">  1  5  2 -1</clus>
<clus scale="   28.296">  2  5  1 -1</clus>
</clustering>
</event>
<event>
 9    1  0.1966495E-005  0.1629299E+03  0.7546771E-02  0.1206657E+00
         21   -1    0    0  501  502  0.00000000000E+00  0.00000000000E+00  0.36962753020E+03  0.36962753020E+03  0.00000000000E+00 0.  1.
         -2   -1    0    0    0  501 -0.00000000000E+00 -0.00000000000E+00 -0.34172715403E+03  0.34172715403E+03  0.00000000000E+00 0.  1.
         23    2    1    2    0    0 -0.12333061055E+02 -0.48324152969E+02 -0.24525506456E+03  0.26578175062E+03  0.89457051806E+02 0.  0.
         23    2    1    2    0    0 -0.50789229918E+02  0.13641254639E+03  0.28865629808E+03  0.33610026463E+03  0.91940202179E+02 0.  0.
        -11    1    4    4    0    0 -0.18761329222E+02  0.12651639519E+03  0.26738158570E+03  0.29639719651E+03  0.00000000000E+00 0.  1.
         11    1    4    4    0    0 -0.32027900697E+02  0.98961512005E+01  0.21274712376E+02  0.39703068122E+02  0.00000000000E+00 0. -1.
        -13    1    3    3    0    0 -0.28063965378E+02  0.16347974618E+02 -0.11511974424E+03  0.11961353578E+03  0.00000000000E+00 0. -1.
         13    1    3    3    0    0  0.15730904323E+02 -0.64672127587E+02 -0.13013532032E+03  0.14616821485E+03  0.00000000000E+00 0.  1.
         -2    1    1    2    0  502  0.63122290974E+02 -0.88088393423E+02 -0.15500857352E+02  0.10947266897E+03  0.00000000000E+00 0.  1.
<scales pt_clust_5="13000.00000" pt_clust_6="13000.00000" pt_clust_7="13000.00000" pt_clust_8="13000.00000" pt_clust_9="134.51084"></scales>
<clustering>
<clus scale="   89.457">  7  8 -1 -1</clus>
<clus scale="   91.940">  5  6 -1 -1</clus>
<clus scale="  102.420">  2  7  1 -1</clus>
<clus scale="  134.511">  1  9  2 -1</clus>
<clus scale="  134.511">  1  5  2 -1</clus>
</clustering>
</event>
<event>
 9    1  0.1315259E-005  0.2088164E+03  0.7546771E-02  0.1143309E+00
         21   -1    0    0  501  502  0.00000000000E+00  0.00000000000E+00  0.12017008515E+03  0.12017008515E+03  0.00000000000E+00 0. -1.
         -1   -1    0    0    0  501 -0.00000000000E+00 -0.00000000000E+00 -0.67106198084E+03  0.67106198084E+03  0.00000000000E+00 0.  1.
         23    2    1    2    0    0 -0.94253615287E+02  0.12396811284E+03 -0.27889097921E+03  0.33527823478E+03  0.10187973025E+03 0.  0.
         23    2    1    2    0    0  0.14826294057E+03 -0.16682396722E+03 -0.29657828122E+03  0.38275766786E+03  0.93448487565E+02 0.  0.
        -11    1    3    3    0    0 -0.78115755575E+02  0.94370251900E+02 -0.11523821634E+03  0.16818936416E+03  0.00000000000E+00 0. -1.
         11    1    3    3    0    0 -0.16137859712E+02  0.29597860936E+02 -0.16365276287E+03  0.16708887061E+03  0.00000000000E+00 0.  1.
        -11    1    4    4    0    0  0.10807959967E+03 -0.16616617486E+03 -0.21899474216E+03  0.29538296265E+03  0.00000000000E+00 0.  1.
         11    1    4    4    0    0  0.40183340903E+02 -0.65779236209E+00 -0.77583539064E+02  0.87374705210E+02  0.00000000000E+00 0. -1.
         -1    1    1    2    0  502 -0.54009325284E+02  0.42855854386E+02  0.24577364735E+02  0.73196163357E+02  0.00000000000E+00 0.  1.
<scales pt_clust_5="13000.00000" pt_clust_6="13000.00000" pt_clust_7="13000.00000" pt_clust_8="13000.00000" pt_clust_9="68.94658"></scales>
<clustering>
<clus scale="   68.947">  1  9  2 -1</clus>
<clus scale="   93.448">  7  8 -1 -1</clus>
<clus scale="  101.880">  5  6 -1 -1</clus>
<clus scale="  204.835">  1  7  2 -1</clus>
<clus scale="   68.947">  1  5  2 -1</clus>
</clustering>
</event>
<event>
 9    1  0.1315259E-005  0.1286907E+03  0.7546771E-02  0.1230222E+00
         21   -1    0    0  501  502  0.00000000000E+00  0.00000000000E+00  0.22011677407E+03  0.22011677407E+03  0.00000000000E+00 0. -1.
          3   -1    0    0  502    0 -0.00000000000E+00 -0.00000000000E+00 -0.13051316736E+03  0.13051316736E+03  0.00000000000E+00 0. -1.
         23    2    1    2    0    0  0.99158871610E+02 -0.22221468466E+02 -0.32433177271E+02  0.14056367341E+03  0.91542120446E+02 0.  0.
         23    2    1    2    0    0 -0.73394367821E+02 -0.22199803515E+02  0.67545623485E+02  0.13519073374E+03  0.88513042737E+02 0.  0.
        -11    1    4    4    0    0 -0.45641908499E+02 -0.49931783539E+02  0.68050096904E+02  0.95954064570E+02  0.00000000000E+00 0. -1.
         11    1    4    4    0    0 -0.27752459322E+02  0.27731980024E+02 -0.50447341914E+00  0.39236669175E+02  0.00000000000E+00 0.  1.
        -11    1    3    3    0    0  0.37057398582E+02  0.19822466796E+01  0.31147985894E+02  0.48449738048E+02  0.00000000000E+00 0.  1.
         11    1    3    3    0    0  0.62101473028E+02 -0.24203715145E+02 -0.63581163166E+02  0.92113935366E+02  0.00000000000E+00 0. -1.
          3    1    1    2  501    0 -0.25764503789E+02  0.44421271980E+02  0.54491160499E+02  0.74875534271E+02  0.00000000000E+00 0. -1.
<scales pt_clust_5="13000.00000" pt_clust_6="13000.00000" pt_clust_7="13000.00000" pt_clust_8="13000.00000" pt_clust_9="51.35230"></scales>
<clustering>
<clus scale="   51.352">  1  9  2 -1</clus>
<clus scale="   88.513">  5  6 -1 -1</clus>
<clus scale="   91.542">  7  8 -1 -1</clus>
<clus scale="  126.554">  1  5  2 -1</clus>
<clus scale="   51.352">  1  5  2 -1</clus>
</clustering>
</event>
<event>
 9    1  0.1315259E-005  0.1141096E+03  0.7546771E-02  0.1254100E+00
         21   -1    0    0  501  502  0.00000000000E+00  0.00000000000E+00  0.70745002885E+03  0.70745002885E+03  0.00000000000E+00 0.  1.
          1   -1    0    0  502    0 -0.00000000000E+00 -0.00000000000E+00 -0.38819181166E+03  0.38819181166E+03  0.00000000000E+00 0. -1.
         23    2    1    2    0    0 -0.46365835368E+02  0.45147897174E+02 -0.35526461693E+03  0.37285960460E+03  0.92861258823E+02 0.  0.
         23    2    1    2    0    0  0.11289741692E+03 -0.97880015917E+02  0.43887567446E+03  0.47230926024E+03  0.90210062685E+02 0.  0.
        -13    1    3    3    0    0 -0.72167734983E+02  0.48300271303E+02 -0.26040122802E+03  0.27449935835E+03  0.00000000000E+00 0. -1.
         13    1    3    3    0    0  0.25801899616E+02 -0.31523741285E+01 -0.94863388904E+02  0.98360246242E+02  0.00000000000E+00 0.  1.
        -13    1    4    4    0    0  0.75919530885E+02 -0.68468723636E+02  0.16293448576E+03  0.19235224962E+03  0.00000000000E+00 0. -1.
         13    1    4    4    0    0  0.36977886036E+02 -0.29411292282E+02  0.27594118870E+03  0.27995701061E+03  0.00000000000E+00 0.  1.
          1    1    1    2  501    0 -0.66531581553E+02  0.52732118743E+02  0.23564715965E+03  0.25047297568E+03  0.00000000000E+00 0. -1.
<scales pt_clust_5="13000.00000" pt_clust_6="13000.00000" pt_clust_7="13000.00000" pt_clust_8="13000.00000" pt_clust_9="84.89480"></scales>
<clustering>
<clus scale="   84.895">  1  9  2 -1</clus>
<clus scale="   90.210">  7  8 -1 -1</clus>
<clus scale="   92.861">  5  6 -1 -1</clus>
<clus scale="  111.963">  1  7  2 -1</clus>
<clus scale="   84.895">  1  5  2 -1</clus>
</clustering>
</event>
<event>
 9    1  0.1315259E-005  0.1660568E+03  0.7546771E-02  0.1182219E+00
          1   -1    0    0  502    0 -0.00000000000E+00  0.00000000000E+00  0.25459094191E+03  0.25459094191E+03  0.00000000000E+00 0. -1.
         21   -1    0    0  501  502  0.00000000000E+00 -0.00000000000E+00 -0.21372352035E+03  0.21372352035E+03  0.00000000000E+00 0. -1.
         23    2    1    2    0    0  0.14129230244E+03 -0.79869708824E+01  0.10454187986E+03  0.19741136522E+03  0.89526175187E+02 0.  0.
         23    2    1    2    0    0 -0.13357208514E+03  0.26947119500E+02  0.37218952239E+02  0.16795374406E+03  0.90860115339E+02 0.  0.
        -11    1    4    4    0    0 -0.99323920195E+01 -0.26276572272E+02  0.13892769768E+02  0.31338789278E+02  0.00000000000E+00 0.  1.
         11    1    4    4    0    0 -0.12363969312E+03  0.53223691772E+02  0.23326182472E+02  0.13661495478E+03  0.00000000000E+00 0. -1.
        -11    1    3    3    0    0  0.99521836680E+01 -0.22038448449E+02  0.47963741425E+02  0.53714613108E+02  0.00000000000E+00 0.  1.
         11    1    3    3    0    0  0.13134011877E+03  0.14051477567E+02  0.56578138430E+02  0.14369675212E+03  0.00000000000E+00 0. -1.
          1    1    1    2  501    0 -0.77202172976E+01 -0.18960148617E+02 -0.10089341053E+03  0.10294935298E+03  0.00000000000E+00 0. -1.
<scales pt_clust_5="13000.00000" pt_clust_6="13000.00000" pt_clust_7="13000.00000" pt_clust_8="13000.00000" pt_clust_9="20.47166"></scales>
<clustering>
<clus scale="   20.472">  2  9  1 -1</clus>
<clus scale="   89.526">  7  8 -1 -1</clus>
<clus scale="   90.860">  5  6 -1 -1</clus>
<clus scale="  165.331">  1  7  2 -1</clus>
<clus scale="   20.472">  2  5  1 -1</clus>
</clustering>
</event>
<event>
 9    1  0.1315259E-005  0.9938301E+02  0.7546771E-02  0.1283345E+00
          3   -1    0    0  502    0 -0.00000000000E+00  0.00000000000E+00  0.22706204730E+03  0.22706204730E+03  0.00000000000E+00 0. -1.
         21   -1    0    0  501  502  0.00000000000E+00 -0.00000000000E+00 -0.12673111142E+03  0.12673111142E+03  0.00000000000E+00 0.  1.
         23    2    1    2    0    0  0.59417727172E+02  0.32718997414E+02  0.93525618071E+02  0.14724027404E+03  0.91277916108E+02 0.  0.
         23    2    1    2    0    0  0.11714501913E+02  0.36686966900E+02  0.28816019233E+02  0.10476166269E+03  0.93067072102E+02 0.  0.
        -11    1    3    3    0    0  0.62638710851E+02  0.11725463481E+02  0.10520566246E+03  0.12300132522E+03  0.00000000000E+00 0. -1.
         11    1    3    3    0    0 -0.32209836790E+01  0.20993533933E+02 -0.11680044393E+02  0.24238948819E+02  0.00000000000E+00 0.  1.
        -13    1    4    4    0    0  0.23805976829E+02  0.64975933159E+02  0.13943027638E+02  0.70590399081E+02  0.00000000000E+00 0.  1.
         13    1    4    4    0    0 -0.12091474916E+02 -0.28288966259E+02  0.14872991595E+02  0.34171263609E+02  0.00000000000E+00 0. -1.
          3    1    1    2  501    0 -0.71132229085E+02 -0.69405964314E+02 -0.22010701430E+02  0.10179122199E+03  0.00000000000E+00 0. -1.
<scales pt_clust_5="13000.00000" pt_clust_6="13000.00000" pt_clust_7="13000.00000" pt_clust_8="13000.00000" pt_clust_9="99.38301"></scales>
<clustering>
<clus scale="   91.278">  5  6 -1 -1</clus>
<clus scale="   93.067">  7  8 -1 -1</clus>
<clus scale="   99.383">  2  9  1 -1</clus>
<clus scale="   96.148">  1  5  2 -1</clus>
<clus scale="   99.383">  2  5  1 -1</clus>
</clustering>
</event>
<event>
 9    1  0.1315259E-005  0.2673104E+03  0.7546771E-02  0.1103335E+00
         21   -1    0    0  501  502  0.00000000000E+00  0.00000000000E+00  0.31537653557E+03  0.31537653557E+03  0.00000000000E+00 0. -1.
          2   -1    0    0  502    0 -0.00000000000E+00 -0.00000000000E+00 -0.36349485588E+03  0.36349485588E+03  0.00000000000E+00 0. -1.
         23    2    1    2    0    0  0.22669495333E+03  0.92611692909E+02 -0.13171065930E+03  0.29289038164E+03  0.92030160013E+02 0.  0.
         23    2    1    2    0    0 -0.19702173123E+03 -0.17023270286E+03  0.17900649470E+02  0.28005216875E+03  0.10154825587E+03 0.  0.
        -11    1    3    3    0    0  0.20192435988E+03  0.46454080624E+02 -0.11917388251E+03  0.23902686667E+03  0.00000000000E+00 0.  1.
         11    1    3    3    0    0  0.24770593454E+02  0.46157612286E+02 -0.12536776790E+02  0.53863514964E+02  0.00000000000E+00 0. -1.
        -13    1    4    4    0    0  0.63206154712E+01 -0.19983618305E+02  0.17370464409E+02  0.27221833412E+02  0.00000000000E+00 0.  1.
         13    1    4    4    0    0 -0.20334234670E+03 -0.15024908456E+03  0.53018506124E+00  0.25283033534E+03  0.00000000000E+00 0. -1.
          2    1    1    2  501    0 -0.29673222105E+02  0.77621009953E+02  0.65691689522E+02  0.10592884106E+03  0.00000000000E+00 0. -1.
<scales pt_clust_5="13000.00000" pt_clust_6="13000.00000" pt_clust_7="13000.00000" pt_clust_8="13000.00000" pt_clust_9="83.09947"></scales>
<clustering>
<clus scale="   83.099">  1  9  2 -1</clus>
<clus scale="   92.030">  5  6 -1 -1</clus>
<clus scale="  101.548">  7  8 -1 -1</clus>
<clus scale="  263.842">  2  5  1 -1</clus>
<clus scale="   83.099">  1  5  2 -1</clus>
</clustering>
</event>
<event>
 9    1  0.1315259E-005  0.9904233E+02  0.7546771E-02  0.1282958E+00
          1   -1    0    0  502    0 -0.00000000000E+00  0.00000000000E+00  0.59136590157E+03  0.59136590157E+03  0.00000000000E+00 0. -1.
         21   -1    0    0  501  502  0.00000000000E+00 -0.00000000000E+00 -0.40806110208E+02  0.40806110208E+02  0.00000000000E+00 0. -1.
         23    2    1    2    0    0  0.42321367126E+02 -0.26550874385E+02  0.41985800464E+03  0.43245481369E+03  0.90776510043E+02 0.  0.
         23    2    1    2    0    0 -0.22479600741E+02 -0.13549802049E+02  0.12294332506E+03  0.15430845806E+03  0.89482453399E+02 0.  0.
        -11    1    3    3    0    0 -0.23380054704E+02  0.86068143504E+01  0.60078112162E+02  0.65039094183E+02  0.00000000000E+00 0.  1.
         11    1    3    3    0    0  0.65701421830E+02 -0.35157688735E+02  0.35977989248E+03  0.36741571951E+03  0.00000000000E+00 0. -1.
        -13    1    4    4    0    0  0.73916611996E+01 -0.46563003010E+02  0.49013273901E+02  0.68007726937E+02  0.00000000000E+00 0. -1.
         13    1    4    4    0    0 -0.29871261940E+02  0.33013200962E+02  0.73930051159E+02  0.86300731121E+02  0.00000000000E+00 0.  1.
          1    1    1    2  501    0 -0.19841766386E+02  0.40100676434E+02  0.77584616577E+01  0.45408740029E+02  0.00000000000E+00 0. -1.
<scales pt_clust_5="13000.00000" pt_clust_6="13000.00000" pt_clust_7="13000.00000" pt_clust_8="13000.00000" pt_clust_9="44.74103"></scales>
<clustering>
<clus scale="   44.741">  2  9  1 -1</clus>
<clus scale="   89.482">  7  8 -1 -1</clus>
<clus scale="   90.777">  5  6 -1 -1</clus>
<clus scale="   97.858">  2  7  1 -1</clus>
<clus scale="   44.741">  2  5  1 -1</clus>
</clustering>
</event>
<event>
 9    1  0.1315259E-005  0.9801787E+02  0.7546771E-02  0.1288200E+00
          1   -1    0    0  502    0 -0.00000000000E+00  0.00000000000E+00  0.42517200860E+03  0.42517200860E+03  0.00000000000E+00 0. -1.
         21   -1    0    0  501  502  0.00000000000E+00 -0.00000000000E+00 -0.13868036149E+03  0.13868036149E+03  0.00000000000E+00 0. -1.
         23    2    1    2    0    0 -0.29223197275E+02  0.33293301423E+02  0.25295323832E+03  0.27282244660E+03  0.92110300256E+02 0.  0.
         23    2    1    2    0    0  0.27835889348E+02  0.25934572062E+01  0.14693569789E+03  0.17208149247E+03  0.85090410625E+02 0.  0.
        -11    1    4    4    0    0 -0.21150737312E+02  0.25213465695E+02  0.77097020677E+02  0.83827341235E+02  0.00000000000E+00 0.  1.
         11    1    4    4    0    0  0.48986626659E+02 -0.22620008488E+02  0.69838677208E+02  0.88254151232E+02  0.00000000000E+00 0. -1.
        -11    1    3    3    0    0  0.32685756632E+02  0.18321396337E+02  0.11316706857E+03  0.11920913413E+03  0.00000000000E+00 0. -1.
         11    1    3    3    0    0 -0.61908953907E+02  0.14971905085E+02  0.13978616975E+03  0.15361331248E+03  0.00000000000E+00 0.  1.
          1    1    1    2  501    0  0.13873079272E+01 -0.35886758629E+02 -0.11339728910E+03  0.11894843102E+03  0.00000000000E+00 0. -1.
<scales pt_clust_5="13000.00000" pt_clust_6="13000.00000" pt_clust_7="13000.00000" pt_clust_8="13000.00000" pt_clust_9="35.91356"></scales>
<clustering>
<clus scale="   35.914">  2  9  1 -1</clus>
<clus scale="   85.090">  5  6 -1 -1</clus>
<clus scale="   91.453">  2  5  1 -1</clus>
<clus scale="   92.110">  7  8 -1 -1</clus>
<clus scale="   35.914">  2  5  1 -1</clus>
</clustering>
</event>
<event>
 9    1  0.1315259E-005  0.1468165E+03  0.7546771E-02  0.1205013E+00
         21   -1    0    0  501  502  0.00000000000E+00  0.00000000000E+00  0.77016015113E+03  0.77016015113E+03  0.00000000000E+00 0.  1.
          4   -1    0    0  502    0 -0.00000000000E+00 -0.00000000000E+00 -0.48539361398E+02  0.48539361398E+02  0.00000000000E+00 0. -1.
         23    2    1    2    0    0  0.10628660784E+03  0.26055107771E+02  0.10955825273E+03  0.17889415335E+03  0.89578991479E+02 0.  0.
         23    2    1    2    0    0 -0.12382924426E+03 -0.44446648648E+02  0.51980751732E+03  0.54411324078E+03  0.92467169371E+02 0.  0.
        -11    1    3    3    0    0  0.13196667954E+01  0.27624358381E+02  0.70142219306E+00  0.27664755366E+02  0.00000000000E+00 0.  1.
         11    1    3    3    0    0  0.10496694105E+03 -0.15692506092E+01  0.10885683054E+03  0.15122939799E+03  0.00000000000E+00 0. -1.
        -11    1    4    4    0    0 -0.37306664233E+02  0.25559361549E+02  0.99057544572E+02  0.10889198912E+03  0.00000000000E+00 0. -1.
         11    1    4    4    0    0 -0.86522580027E+02 -0.70006010196E+02  0.42074997275E+03  0.43522125165E+03  0.00000000000E+00 0.  1.
          4    1    1    2  501    0  0.17542636417E+02  0.18391540876E+02  0.92255019675E+02  0.95692118398E+02  0.00000000000E+00 0. -1.
<scales pt_clust_5="13000.00000" pt_clust_6="13000.00000" pt_clust_7="13000.00000" pt_clust_8="13000.00000" pt_clust_9="25.41639"></scales>
<clustering>
<clus scale="   25.416">  1  9  2 -1</clus>
<clus scale="   89.579">  5  6 -1 -1</clus>
<clus scale="   92.467">  7  8 -1 -1</clus>
<clus scale="  145.015">  2  5  1 -1</clus>
<clus scale="   25.416">  1  5  2 -1</clus>
</clustering>
</event>
<event>
 9    1  0.1315259E-005  0.1491420E+03  0.7546771E-02  0.1203423E+00
         21   -1    0    0  501  502  0.00000000000E+00  0.00000000000E+00  0.11308537131E+03  0.11308537131E+03  0.00000000000E+00 0. -1.
          1   -1    0    0  502    0 -0.00000000000E+00 -0.00000000000E+00 -0.57232171884E+03  0.57232171884E+03  0.00000000000E+00 0. -1.
         23    2    1    2    0    0  0.11569973686E+03 -0.29874995860E+02 -0.31857189677E+03  0.35280899400E+03  0.93312316194E+02 0.  0.
         23    2    1    2    0    0 -0.98178433313E+02 -0.40741029279E+02 -0.19304987923E+03  0.24294402653E+03  0.10224826611E+03 0.  0.
        -13    1    3    3    0    0  0.45757087953E+02 -0.59739908551E+02 -0.14717263260E+03  0.16529474147E+03  0.00000000000E+00 0. -1.
         13    1    3    3    0    0  0.69942648904E+02  0.29864912691E+02 -0.17139926417E+03  0.18751425253E+03  0.00000000000E+00 0.  1.
        -13    1    4    4    0    0  0.21424064339E+02 -0.39166433899E+01 -0.21538103246E+02  0.30630385562E+02  0.00000000000E+00 0.  1.
         13    1    4    4    0    0 -0.11960249765E+03 -0.36824385890E+02 -0.17151177598E+03  0.21231364097E+03  0.00000000000E+00 0. -1.
          1    1    1    2  501    0 -0.17521303544E+02  0.70616025139E+02  0.52385428461E+02  0.89654069620E+02  0.00000000000E+00 0. -1.
<scales pt_clust_5="13000.00000" pt_clust_6="13000.00000" pt_clust_7="13000.00000" pt_clust_8="13000.00000" pt_clust_9="72.75726"></scales>
<clustering>
<clus scale="   72.757">  1  9  2 -1</clus>
<clus scale="   93.312">  5  6 -1 -1</clus>
<clus scale="  102.248">  7  8 -1 -1</clus>
<clus scale="  143.164">  2  5  1 -1</clus>
<clus scale="   72.757">  1  5  2 -1</clus>
</clustering>
</event>
<event>
 9    1  0.1315259E-005  0.1386848E+03  0.7546771E-02  0.1229920E+00
         21   -1    0    0  501  502  0.00000000000E+00  0.00000000000E+00  0.26914269879E+03  0.26914269879E+03  0.00000000000E+00 0.  1.
         -2   -1    0    0    0  501 -0.00000000000E+00 -0.00000000000E+00 -0.18289424688E+03  0.18289424688E+03  0.00000000000E+00 0.  1.
         23    2    1    2    0    0  0.29014355735E+02  0.33519555308E+02 -0.15277041419E+02  0.10289167986E+03  0.91585568529E+02 0.  0.
         23    2    1    2    0    0  0.14444408478E+02  0.61267823784E+02  0.17537541403E+03  0.22136763785E+03  0.11951865157E+03 0.  0.
        -11    1    4    4    0    0 -0.45977281130E+02  0.58670141046E+02  0.10022814534E+03  0.12490707325E+03  0.00000000000E+00 0.  1.
         11    1    4    4    0    0  0.60421689608E+02  0.25976827381E+01  0.75147268691E+02  0.96460564598E+02  0.00000000000E+00 0. -1.
        -13    1    3    3    0    0 -0.17449948340E+02 -0.13560421000E+02 -0.27857479217E+02  0.35558752271E+02  0.00000000000E+00 0. -1.
         13    1    3    3    0    0  0.46464304075E+02  0.47079976308E+02  0.12580437797E+02  0.67332927588E+02  0.00000000000E+00 0.  1.
         -2    1    1    2    0  502 -0.43458764213E+02 -0.94787379092E+02 -0.73849920699E+02  0.12777762797E+03  0.00000000000E+00 0.  1.
<scales pt_clust_5="13000.00000" pt_clust_6="13000.00000" pt_clust_7="13000.00000" pt_clust_8="13000.00000" pt_clust_9="70.34745"></scales>
<clustering>
<clus scale="   91.586">  7  8 -1 -1</clus>
<clus scale="  101.751">  2  7  1 -1</clus>
<clus scale="   70.347">  1  9  2 -1</clus>
<clus scale="  119.519">  5  6 -1 -1</clus>
<clus scale="   70.347">  1  5  2 -1</clus>
</clustering>
</event>
<event>
 9    1  0.1315259E-005  0.1068992E+03  0.7546771E-02  0.1267586E+00
          1   -1    0    0  502    0 -0.00000000000E+00  0.00000000000E+00  0.25785166449E+03  0.25785166449E+03  0.00000000000E+00 0. -1.
         21   -1    0    0  501  502  0.00000000000E+00 -0.00000000000E+00 -0.13858227066E+03  0.13858227066E+03  0.00000000000E+00 0.  1.
         23    2    1    2    0    0 -0.13032144320E+02 -0.43357200398E+02  0.92550551318E+02  0.13491667839E+03  0.87104660878E+02 0.  0.
         23    2    1    2    0    0 -0.97769418175E+01  0.12073340555E+03 -0.40825808948E+02  0.15630503563E+03  0.89957621568E+02 0.  0.
        -11    1    4    4    0    0  0.28990876524E+02  0.10485199746E+03 -0.25859669807E+02  0.11181741732E+03  0.00000000000E+00 0.  1.
         11    1    4    4    0    0 -0.38767818342E+02  0.15881408094E+02 -0.14966139141E+02  0.44487618309E+02  0.00000000000E+00 0. -1.
        -11    1    3    3    0    0 -0.32253356087E+02  0.16612245527E+01  0.24638400867E+01  0.32389954521E+02  0.00000000000E+00 0.  1.
         11    1    3    3    0    0  0.19221211767E+02 -0.45018424950E+02  0.90086711231E+02  0.10252672387E+03  0.00000000000E+00 0. -1.
          1    1    1    2  501    0  0.22809086138E+02 -0.77376205157E+02  0.67544651458E+02  0.10521222113E+03  0.00000000000E+00 0. -1.
<scales pt_clust_5="13000.00000" pt_clust_6="13000.00000" pt_clust_7="13000.00000" pt_clust_8="13000.00000" pt_clust_9="80.66807"></scales>
<clustering>
<clus scale="   80.668">  2  9  1 -1</clus>
<clus scale="   87.105">  7  8 -1 -1</clus>
<clus scale="   89.958">  5  6 -1 -1</clus>
<clus scale="  104.510">  1  7  2 -1</clus>
<clus scale="   80.668">  2  5  1 -1</clus>
</clustering>
</event>
<event>
 9    1  0.1315259E-005  0.9317282E+02  0.7546771E-02  0.1296766E+00
         21   -1    0    0  501  502  0.00000000000E+00  0.00000000000E+00  0.51920609976E+02  0.51920609976E+02  0.00000000000E+00 0. -1.
         -2   -1    0    0    0  501 -0.00000000000E+00 -0.00000000000E+00 -0.22850156700E+03  0.22850156700E+03  0.00000000000E+00 0.  1.
         23    2    1    2    0    0 -0.70504710956E+01  0.33622004539E+01 -0.10740420245E+03  0.14142009485E+03  0.91667698721E+02 0.  0.
         23    2    1    2    0    0  0.31747940979E+02  0.35309097827E+01 -0.57449909062E+02  0.11080635740E+03  0.89202901906E+02 0.  0.
        -11    1    4    4    0    0  0.64946484183E+01  0.28659470631E+02 -0.67643811324E+02  0.73751141858E+02  0.00000000000E+00 0.  1.
         11    1    4    4    0    0  0.25253292560E+02 -0.25128560848E+02  0.10193902262E+02  0.37055215541E+02  0.00000000000E+00 0. -1.
        -11    1    3    3    0    0 -0.32315560419E+02 -0.21355721865E+02 -0.97196157355E+02  0.10463008796E+03  0.00000000000E+00 0.  1.
         11    1    3    3    0    0  0.25265089323E+02  0.24717922318E+02 -0.10208045090E+02  0.36790006888E+02  0.00000000000E+00 0. -1.
         -2    1    1    2    0  502 -0.24697469883E+02 -0.68931102366E+01 -0.11726845515E+02  0.28195724731E+02  0.00000000000E+00 0.  1.
<scales pt_clust_5="13000.00000" pt_clust_6="13000.00000" pt_clust_7="13000.00000" pt_clust_8="13000.00000" pt_clust_9="25.64137"></scales>
<clustering>
<clus scale="   25.641">  1  9  2 -1</clus>
<clus scale="   89.203">  5  6 -1 -1</clus>
<clus scale="   90.749">  1  5  2 -1</clus>
<clus scale="   91.668">  7  8 -1 -1</clus>
<clus scale="   25.641">  1  5  2 -1</clus>
</clustering>
</event>
<event>
 9    1  0.1315259E-005  0.1040107E+03  0.7546771E-02  0.1275313E+00
          2   -1    0    0  502    0 -0.00000000000E+00  0.00000000000E+00  0.32674073837E+03  0.32674073837E+03  0.00000000000E+00 0. -1.
         21   -1    0    0  501  502  0.00000000000E+00 -0.00000000000E+00 -0.64611351712E+02  0.64611351712E+02  0.00000000000E+00 0.  1.
         23    2    1    2    0    0 -0.29043226669E+01  0.39350183592E+02  0.23460076239E+03  0.25609151751E+03  0.94807571365E+02 0.  0.
         23    2    1    2    0    0  0.22708588287E+02 -0.51868439982E+02  0.35656542155E+02  0.11046180790E+03  0.87888605392E+02 0.  0.
        -11    1    4    4    0    0  0.21841640457E+02  0.20289555503E+02  0.21920005916E+02  0.37002837455E+02  0.00000000000E+00 0. -1.
         11    1    4    4    0    0  0.86694783061E+00 -0.72157995485E+02  0.13736536239E+02  0.73458970444E+02  0.00000000000E+00 0.  1.
        -11    1    3    3    0    0 -0.35418517669E+02  0.44063431892E+02  0.20217615435E+03  0.20993154792E+03  0.00000000000E+00 0. -1.
         11    1    3    3    0    0  0.32514195002E+02 -0.47132483000E+01  0.32424608039E+02  0.46159969591E+02  0.00000000000E+00 0.  1.
          2    1    1    2  501    0 -0.19804265620E+02  0.12518256389E+02 -0.81279178914E+01  0.24798764668E+02  0.00000000000E+00 0. -1.
<scales pt_clust_5="13000.00000" pt_clust_6="13000.00000" pt_clust_7="13000.00000" pt_clust_8="13000.00000" pt_clust_9="23.42895"></scales>
<clustering>
<clus scale="   23.429">  2  9  1 -1</clus>
<clus scale="   87.889">  5  6 -1 -1</clus>
<clus scale="   94.808">  7  8 -1 -1</clus>
<clus scale="   97.745">  2  5  1 -1</clus>
<clus scale="   23.429">  2  5  1 -1</clus>
</clustering>
</event>
<event>
 9    1  0.1315259E-005  0.1034623E+03  0.7546771E-02  0.1276876E+00
         21   -1    0    0  501  502  0.00000000000E+00  0.00000000000E+00  0.45617687720E+02  0.45617687720E+02  0.00000000000E+00 0. -1.
          1   -1    0    0  502    0 -0.00000000000E+00 -0.00000000000E+00 -0.52317751051E+03  0.52317751051E+03  0.00000000000E+00 0. -1.
         23    2    1    2    0    0  0.28654041400E+02  0.93554077041E+01 -0.23244089612E+03  0.25150756702E+03  0.91206953325E+02 0.  0.
         23    2    1    2    0    0 -0.97202905629E+02 -0.21955319088E+02 -0.13731785972E+03  0.18891795181E+03  0.83086443060E+02 0.  0.
        -11    1    3    3    0    0  0.25014250852E+02  0.39826147924E+02 -0.20504890170E+03  0.21037320859E+03  0.00000000000E+00 0.  1.
         11    1    3    3    0    0  0.36397905478E+01 -0.30470740220E+02 -0.27391994424E+02  0.41134358428E+02  0.00000000000E+00 0. -1.
        -13    1    4    4    0    0 -0.42695453099E+02  0.31216950756E+02 -0.46725834977E+02  0.70574098536E+02  0.00000000000E+00 0.  1.
         13    1    4    4    0    0 -0.54507452530E+02 -0.53172269844E+02 -0.90592024740E+02  0.11834385328E+03  0.00000000000E+00 0. -1.
          1    1    1    2  501    0  0.68548864229E+02  0.12599911384E+02 -0.10780106695E+03  0.12836967940E+03  0.00000000000E+00 0. -1.
<scales pt_clust_5="13000.00000" pt_clust_6="13000.00000" pt_clust_7="13000.00000" pt_clust_8="13000.00000" pt_clust_9="69.69727"></scales>
<clustering>
<clus scale="   69.697">  1  9  2 -1</clus>
<clus scale="   83.086">  7  8 -1 -1</clus>
<clus scale="   91.207">  5  6 -1 -1</clus>
<clus scale="   96.380">  1  7  2 -1</clus>
<clus scale="   69.697">  1  5  2 -1</clus>
</clustering>
</event>
<event>
 9    1  0.1315259E-005  0.1503581E+03  0.7546771E-02  0.1200542E+00
         21   -1    0    0  501  502  0.00000000000E+00  0.00000000000E+00  0.11239456364E+03  0.11239456364E+03  0.00000000000E+00 0. -1.
          2   -1    0    0  502    0 -0.00000000000E+00 -0.00000000000E+00 -0.10300418313E+04  0.10300418313E+04  0.00000000000E+00 0. -1.
         23    2    1    2    0    0  0.13366464556E+03  0.11918376796E+01 -0.58468665919E+03  0.60671569121E+03  0.91530227697E+02 0.  0.
         23    2    1    2    0    0 -0.89202869874E+02 -0.79117217551E+02 -0.39803250338E+03  0.42488945437E+03  0.88794642766E+02 0.  0.
        -11    1    4    4    0    0 -0.56384914709E+02 -0.74141387110E+02 -0.36968503377E+03  0.38123906946E+03  0.00000000000E+00 0.  1.
         11    1    4    4    0    0 -0.32817955165E+02 -0.49758304410E+01 -0.28347469610E+02  0.43650384914E+02  0.00000000000E+00 0. -1.
        -11    1    3    3    0    0  0.50545432797E+02 -0.24605713029E+02 -0.10407106584E+03  0.11828384774E+03  0.00000000000E+00 0.  1.
         11    1    3    3    0    0  0.83119212763E+02  0.25797550708E+02 -0.48061559335E+03  0.48843184348E+03  0.00000000000E+00 0. -1.
          2    1    1    2  501    0 -0.44461775687E+02  0.77925379871E+02  0.65071894913E+02  0.11083124935E+03  0.00000000000E+00 0. -1.
<scales pt_clust_5="13000.00000" pt_clust_6="13000.00000" pt_clust_7="13000.00000" pt_clust_8="13000.00000" pt_clust_9="89.71741"></scales>
<clustering>
<clus scale="   88.795">  5  6 -1 -1</clus>
<clus scale="   89.717">  1  9  2 -1</clus>
<clus scale="   91.530">  7  8 -1 -1</clus>
<clus scale="  148.709">  1  5  2 -1</clus>
<clus scale="   89.717">  1  5  2 -1</clus>
</clustering>
</event>
<event>
 9    1  0.1315259E-005  0.9889868E+02  0.7546771E-02  0.1283816E+00
         21   -1    0    0  501  502  0.00000000000E+00  0.00000000000E+00  0.50328810467E+02  0.50328810467E+02  0.00000000000E+00 0. -1.
          1   -1    0    0  502    0 -0.00000000000E+00 -0.00000000000E+00 -0.32293452041E+03  0.32293452041E+03  0.00000000000E+00 0. -1.
         23    2    1    2    0    0 -0.33070185834E+01  0.24165409729E+02 -0.14293798369E+03  0.17272843799E+03  0.93855967898E+02 0.  0.
         23    2    1    2    0    0 -0.37482347482E+02 -0.32426132541E+02 -0.11791873543E+03  0.15729080993E+03  0.91537917159E+02 0.  0.
        -11    1    3    3    0    0  0.18147607096E+02 -0.88099373510E+01  0.40425395025E+01  0.20574079932E+02  0.00000000000E+00 0.  1.
         11    1    3    3    0    0 -0.21454625679E+02  0.32975347080E+02 -0.14698052320E+03  0.15215435806E+03  0.00000000000E+00 0. -1.
        -13    1    4    4    0    0  0.24871356741E+02 -0.27478941935E+02 -0.67277414543E+02  0.76810983222E+02  0.00000000000E+00 0. -1.
         13    1    4    4    0    0 -0.62353704223E+02 -0.49471906060E+01 -0.50641320884E+02  0.80479826703E+02  0.00000000000E+00 0.  1.
          1    1    1    2  501    0  0.40789366066E+02  0.82607228122E+01 -0.11748990821E+02  0.43244082957E+02  0.00000000000E+00 0. -1.
<scales pt_clust_5="13000.00000" pt_clust_6="13000.00000" pt_clust_7="13000.00000" pt_clust_8="13000.00000" pt_clust_9="41.61745"></scales>
<clustering>
<clus scale="   41.617">  1  9  2 -1</clus>
<clus scale="   91.538">  7  8 -1 -1</clus>
<clus scale="   93.856">  5  6 -1 -1</clus>
<clus scale="   96.702">  1  7  2 -1</clus>
<clus scale="   41.617">  1  5  2 -1</clus>
</clustering>
</event>
<event>
 9    1  0.1315259E-005  0.1074843E+03  0.7546771E-02  0.1267318E+00
          1   -1    0    0  502    0 -0.00000000000E+00  0.00000000000E+00  0.70421818672E+03  0.70421818672E+03  0.00000000000E+00 0. -1.
         21   -1    0    0  501  502  0.00000000000E+00 -0.00000000000E+00 -0.44418947230E+02  0.44418947230E+02  0.00000000000E+00 0. -1.
         23    2    1    2    0    0  0.42610323275E+02  0.41707198323E+02  0.54647270005E+03  0.55799603774E+03  0.95770748113E+02 0.  0.
         23    2    1    2    0    0 -0.19930976592E+02 -0.37739210635E+01  0.11284484005E+03  0.14644247265E+03  0.91104080940E+02 0.  0.
        -13    1    4    4    0    0 -0.34134953814E+02  0.36315061170E+02  0.71262628960E+02  0.86961721614E+02  0.00000000000E+00 0. -1.
         13    1    4    4    0    0  0.14203977222E+02 -0.40088982234E+02  0.41582211086E+02  0.59480751040E+02  0.00000000000E+00 0.  1.
        -13    1    3    3    0    0 -0.20452472782E+02 -0.11518856802E+02  0.57465863624E+02  0.62075060910E+02  0.00000000000E+00 0.  1.
         13    1    3    3    0    0  0.63062796057E+02  0.53226055125E+02  0.48900683643E+03  0.49592097683E+03  0.00000000000E+00 0. -1.
          1    1    1    2  501    0 -0.22679346683E+02 -0.37933277259E+02  0.48169939229E+00  0.44198623552E+02  0.00000000000E+00 0. -1.
<scales pt_clust_5="13000.00000" pt_clust_6="13000.00000" pt_clust_7="13000.00000" pt_clust_8="13000.00000" pt_clust_9="44.19600"></scales>
<clustering>
<clus scale="   44.196">  2  9  1 -1</clus>
<clus scale="   91.104">  5  6 -1 -1</clus>
<clus scale="   95.771">  7  8 -1 -1</clus>
<clus scale="  103.348">  2  5  1 -1</clus>
<clus scale="   44.196">  2  5  1 -1</clus>
</clustering>
</event>
<event>
 9    1  0.1315259E-005  0.1117363E+03  0.7546771E-02  0.1261015E+00
          4   -1    0    0  502    0 -0.00000000000E+00  0.00000000000E+00  0.24613013335E+03  0.24613013335E+03  0.00000000000E+00 0. -1.
         21   -1    0    0  501  502  0.00000000000E+00 -0.00000000000E+00 -0.12031457470E+03  0.12031457470E+03  0.00000000000E+00 0. -1.
         23    2    1    2    0    0  0.43859038785E+02 -0.30731523882E+02  0.14898131623E+03  0.18321881082E+03  0.92226125413E+02 0.  0.
         23    2    1    2    0    0 -0.11340986277E+02  0.41616741299E+02  0.35501698632E+02  0.11527163234E+03  0.10082959630E+03 0.  0.
        -11    1    3    3    0    0  0.20202651154E+02 -0.47139678745E+02  0.27144861237E+02  0.58027061941E+02  0.00000000000E+00 0.  1.
         11    1    3    3    0    0  0.23656387630E+02  0.16408154863E+02  0.12183645500E+03  0.12519174888E+03  0.00000000000E+00 0. -1.
        -13    1    4    4    0    0 -0.41772861521E+02 -0.20486812466E+01  0.44748854817E+02  0.61250543360E+02  0.00000000000E+00 0.  1.
         13    1    4    4    0    0  0.30431875243E+02  0.43665422545E+02 -0.92471561847E+01  0.54021088978E+02  0.00000000000E+00 0. -1.
          4    1    1    2  501    0 -0.32518052507E+02 -0.10885217417E+02 -0.58667456218E+02  0.67954264886E+02  0.00000000000E+00 0. -1.
<scales pt_clust_5="13000.00000" pt_clust_6="13000.00000" pt_clust_7="13000.00000" pt_clust_8="13000.00000" pt_clust_9="34.29157"></scales>
<clustering>
<clus scale="   34.292">  2  9  1 -1</clus>
<clus scale="   92.226">  5  6 -1 -1</clus>
<clus scale="  100.830">  7  8 -1 -1</clus>
<clus scale="  104.039">  1  5  2 -1</clus>
<clus scale="   34.292">  2  5  1 -1</clus>
</clustering>
</event>
<event>
 9    1  0.1315259E-005  0.9839702E+02  0.7546771E-02  0.1284431E+00
         21   -1    0    0  501  502  0.00000000000E+00  0.00000000000E+00  0.17514404863E+03  0.17514404863E+03  0.00000000000E+00 0. -1.
         -1   -1    0    0    0  501 -0.00000000000E+00 -0.00000000000E+00 -0.13763026768E+03  0.13763026768E+03  0.00000000000E+00 0.  1.
         23    2    1    2    0    0  0.32674104482E+02 -0.32226148074E+02 -0.49331478294E+02  0.11430004263E+03  0.92329752908E+02 0.  0.
         23    2    1    2    0    0 -0.94366981398E+01  0.17657938838E+02 -0.13860180049E+02  0.94100928054E+02  0.90895687433E+02 0.  0.
        -11    1    3    3    0    0  0.20250923509E+02  0.29374319390E+02 -0.34718262086E+02  0.49782610065E+02  0.00000000000E+00 0.  1.
         11    1    3    3    0    0  0.12423180973E+02 -0.61600467464E+02 -0.14613216208E+02  0.64517432569E+02  0.00000000000E+00 0. -1.
        -13    1    4    4    0    0 -0.46329753983E+00  0.50702353757E+02  0.10878211140E+02  0.51858256804E+02  0.00000000000E+00 0.  1.
         13    1    4    4    0    0 -0.89734005999E+01 -0.33044414920E+02 -0.24738391190E+02  0.42242671250E+02  0.00000000000E+00 0. -1.
         -1    1    1    2    0  502 -0.23237406343E+02  0.14568209236E+02  0.10070543930E+03  0.10437334563E+03  0.00000000000E+00 0.  1.
<scales pt_clust_5="13000.00000" pt_clust_6="13000.00000" pt_clust_7="13000.00000" pt_clust_8="13000.00000" pt_clust_9="27.42644"></scales>
<clustering>
<clus scale="   27.426">  1  9  2 -1</clus>
<clus scale="   90.896">  7  8 -1 -1</clus>
<clus scale="   92.330">  5  6 -1 -1</clus>
<clus scale="   97.053">  1  7  2 -1</clus>
<clus scale="   27.426">  1  5  2 -1</clus>
</clustering>
</event>
<event>
 9    1  0.1315259E-005  0.1131260E+03  0.7546771E-02  0.1255966E+00
         -2   -1    0    0    0  501 -0.00000000000E+00  0.00000000000E+00  0.22413673475E+03  0.22413673475E+03  0.00000000000E+00 0.  1.
         21   -1    0    0  501  502  0.00000000000E+00 -0.00000000000E+00 -0.15305266860E+03  0.15305266860E+03  0.00000000000E+00 0. -1.
         23    2    1    2    0    0  0.53647222528E+02 -0.71333000851E+02  0.14334504452E+03  0.18959511989E+03  0.86209548201E+02 0.  0.
         23    2    1    2    0    0  0.10082904085E+02  0.26823361145E+02 -0.26614742432E+02  0.97448757115E+02  0.89256697735E+02 0.  0.
        -13    1    3    3    0    0  0.25197945810E+02  0.83497387054E+01  0.78876780667E+02  0.83223801511E+02  0.00000000000E+00 0.  1.
         13    1    3    3    0    0  0.28449276718E+02 -0.79682739556E+02  0.64468263857E+02  0.10637131838E+03  0.00000000000E+00 0. -1.
        -13    1    4    4    0    0  0.47590630011E+02  0.21668256327E+02 -0.20777225216E+01  0.52332574253E+02  0.00000000000E+00 0.  1.
         13    1    4    4    0    0 -0.37507725927E+02  0.51551048184E+01 -0.24537019911E+02  0.45116182861E+02  0.00000000000E+00 0. -1.
         -2    1    1    2    0  502 -0.63730126613E+02  0.44509639706E+02 -0.45646235946E+02  0.90145526350E+02  0.00000000000E+00 0.  1.
<scales pt_clust_5="13000.00000" pt_clust_6="13000.00000" pt_clust_7="13000.00000" pt_clust_8="13000.00000" pt_clust_9="77.73440"></scales>
<clustering>
<clus scale="   77.734">  2  9  1 -1</clus>
<clus scale="   86.210">  5  6 -1 -1</clus>
<clus scale="   89.257">  7  8 -1 -1</clus>
<clus scale="  110.738">  1  5  2 -1</clus>
<clus scale="   77.734">  2  5  1 -1</clus>
</clustering>
</event>
<event>
 9    1  0.1315259E-005  0.9494681E+02  0.7546771E-02  0.1304295E+00
         21   -1    0    0  501  502  0.00000000000E+00  0.00000000000E+00  0.30267887148E+03  0.30267887148E+03  0.00000000000E+00 0.  1.
          2   -1    0    0  502    0 -0.00000000000E+00 -0.00000000000E+00 -0.65890368129E+02  0.65890368129E+02  0.00000000000E+00 0. -1.
         23    2    1    2    0    0 -0.88577699361E+01 -0.30772290996E+02 -0.74966643255E+01  0.96399020284E+02  0.90615545875E+02 0.  0.
         23    2    1    2    0    0  0.35088719923E+02 -0.79939499565E+00  0.17914021964E+03  0.19517217813E+03  0.69058696224E+02 0.  0.
        -11    1    3    3    0    0  0.16057772490E+02  0.24528440139E+02  0.13415476332E+02  0.32240834949E+02  0.00000000000E+00 0.  1.
         11    1    3    3    0    0 -0.24915542426E+02 -0.55300731135E+02 -0.20912140657E+02  0.64158185334E+02  0.00000000000E+00 0. -1.
        -13    1    4    4    0    0  0.25240579713E+02 -0.31013479727E+02  0.13489830614E+03  0.14069994950E+03  0.00000000000E+00 0.  1.
         13    1    4    4    0    0  0.98481402101E+01  0.30214084732E+02  0.44241913499E+02  0.54472228629E+02  0.00000000000E+00 0. -1.
          2    1    1    2  501    0 -0.26230949987E+02  0.31571685992E+02  0.65144948031E+02  0.76998041193E+02  0.00000000000E+00 0. -1.
<scales pt_clust_5="13000.00000" pt_clust_6="13000.00000" pt_clust_7="13000.00000" pt_clust_8="13000.00000" pt_clust_9="41.04673"></scales>
<clustering>
<clus scale="   41.047">  1  9  2 -1</clus>
<clus scale="   69.059">  7  8 -1 -1</clus>
<clus scale="   74.651">  1  7  2 -1</clus>
<clus scale="   90.616">  5  6 -1 -1</clus>
<clus scale="   41.047">  1  5  2 -1</clus>
</clustering>
</event>
<event>
 9    1  0.1315259E-005  0.1558139E+03  0.7546771E-02  0.1217637E+00
          1   -1    0    0  502    0 -0.00000000000E+00  0.00000000000E+00  0.11067643107E+04  0.11067643107E+04  0.00000000000E+00 0. -1.
         21   -1    0    0  501  502  0.00000000000E+00 -0.00000000000E+00 -0.43826506787E+02  0.43826506787E+02  0.00000000000E+00 0. -1.
         23    2    1    2    0    0 -0.73551053755E+01  0.17558621253E+02  0.24599753867E+03  0.26288638364E+03  0.90730694446E+02 0.  0.
         23    2    1    2    0    0 -0.13356622280E+02  0.11122629022E+03  0.69307359997E+03  0.70782258415E+03  0.90067245179E+02 0.  0.
        -11    1    3    3    0    0 -0.31543953824E+02 -0.23938790752E+02  0.15513577827E+03  0.16010995105E+03  0.00000000000E+00 0. -1.
         11    1    3    3    0    0  0.24188848448E+02  0.41497412006E+02  0.90861760396E+02  0.10277643258E+03  0.00000000000E+00 0.  1.
        -13    1    4    4    0    0  0.11348891494E+02  0.10914586916E+03  0.63876778342E+03  0.64812491021E+03  0.00000000000E+00 0. -1.
         13    1    4    4    0    0 -0.24705513774E+02  0.20804210635E+01  0.54305816551E+02  0.59697673941E+02  0.00000000000E+00 0.  1.
          1    1    1    2  501    0  0.20711727656E+02 -0.12878491148E+03  0.12386666526E+03  0.17988184969E+03  0.00000000000E+00 0. -1.
<scales pt_clust_5="13000.00000" pt_clust_6="13000.00000" pt_clust_7="13000.00000" pt_clust_8="13000.00000" pt_clust_9="127.14509"></scales>
<clustering>
<clus scale="   90.067">  7  8 -1 -1</clus>
<clus scale="   90.731">  5  6 -1 -1</clus>
<clus scale="   92.706">  1  5  2 -1</clus>
<clus scale="  127.145">  2  9  1 -1</clus>
<clus scale="  127.145">  2  5  1 -1</clus>
</clustering>
</event>
<event>
 9    1  0.1315259E-005  0.9922772E+02  0.7546771E-02  0.1284025E+00
          1   -1    0    0  502    0 -0.00000000000E+00  0.00000000000E+00  0.44815662240E+03  0.44815662240E+03  0.00000000000E+00 0. -1.
         21   -1    0    0  501  502  0.00000000000E+00 -0.00000000000E+00 -0.14323133227E+03  0.14323133227E+03  0.00000000000E+00 0.  1.
         23    2    1    2    0    0 -0.16586106624E+02 -0.32801346257E+02  0.41333412003E+03  0.42425965348E+03  0.88318353335E+02 0.  0.
         23    2    1    2    0    0 -0.11165927908E+02  0.27164810130E+02 -0.95013897917E+02  0.13580147302E+03  0.92475912661E+02 0.  0.
        -13    1    4    4    0    0 -0.37258279559E+02  0.40752647394E+02 -0.90533721652E+02  0.10604391742E+03  0.00000000000E+00 0.  1.
         13    1    4    4    0    0  0.26092351652E+02 -0.13587837264E+02 -0.44801762656E+01  0.29757555605E+02  0.00000000000E+00 0. -1.
        -13    1    3    3    0    0  0.33662976401E+02 -0.20914084649E+02  0.11886581186E+03  0.12529834854E+03  0.00000000000E+00 0.  1.
         13    1    3    3    0    0 -0.50249083025E+02 -0.11887261609E+02  0.29446830817E+03  0.29896130494E+03  0.00000000000E+00 0. -1.
          1    1    1    2  501    0  0.27752034531E+02  0.56365361275E+01 -0.13394931985E+02  0.31326828168E+02  0.00000000000E+00 0. -1.
<scales pt_clust_5="13000.00000" pt_clust_6="13000.00000" pt_clust_7="13000.00000" pt_clust_8="13000.00000" pt_clust_9="28.31865"></scales>
<clustering>
<clus scale="   28.319">  2  9  1 -1</clus>
<clus scale="   88.318">  7  8 -1 -1</clus>
<clus scale="   92.476">  5  6 -1 -1</clus>
<clus scale="   95.365">  1  7  2 -1</clus>
<clus scale="   28.319">  2  5  1 -1</clus>
</clustering>
</event>
<event>
 9    1  0.1315259E-005  0.1110478E+03  0.7546771E-02  0.1258938E+00
          3   -1    0    0  502    0 -0.00000000000E+00  0.00000000000E+00  0.45796641972E+03  0.45796641972E+03  0.00000000000E+00 0. -1.
         21   -1    0    0  501  502  0.00000000000E+00 -0.00000000000E+00 -0.55893891113E+02  0.55893891113E+02  0.00000000000E+00 0. -1.
         23    2    1    2    0    0  0.40907337778E+02 -0.22049036077E+01  0.19352102465E+03  0.21814175298E+03  0.91962848641E+02 0.  0.
         23    2    1    2    0    0 -0.94420903008E+02 -0.20528300356E+02  0.19407561693E+03  0.23580151911E+03  0.92737766232E+02 0.  0.
        -11    1    3    3    0    0  0.45996586224E+01 -0.44609704035E+02  0.87156390157E+02  0.98017441809E+02  0.00000000000E+00 0.  1.
         11    1    3    3    0    0  0.36307679156E+02  0.42404800427E+02  0.10636463449E+03  0.12012431118E+03  0.00000000000E+00 0. -1.
        -13    1    4    4    0    0 -0.26698554572E+02  0.35490326168E+02  0.83260327208E+02  0.94364496261E+02  0.00000000000E+00 0. -1.
         13    1    4    4    0    0 -0.67722348436E+02 -0.56018626523E+02  0.11081528972E+03  0.14143702285E+03  0.00000000000E+00 0.  1.
          3    1    1    2  501    0  0.53513565229E+02  0.22733203964E+02  0.14475887024E+02  0.59917038738E+02  0.00000000000E+00 0. -1.
<scales pt_clust_5="13000.00000" pt_clust_6="13000.00000" pt_clust_7="13000.00000" pt_clust_8="13000.00000" pt_clust_9="58.14207"></scales>
<clustering>
<clus scale="   58.142">  2  9  1 -1</clus>
<clus scale="   91.963">  5  6 -1 -1</clus>
<clus scale="   92.738">  7  8 -1 -1</clus>
<clus scale="  110.401">  1  5  2 -1</clus>
<clus scale="   58.142">  2  5  1 -1</clus>
</clustering>
</event>
<event>
 9    1  0.1315259E-005  0.9964056E+02  0.7546771E-02  0.1281213E+00
         21   -1    0    0  501  502  0.00000000000E+00  0.00000000000E+00  0.75538700018E+02  0.75538700018E+02  0.00000000000E+00 0.  1.
          2   -1    0    0  502    0 -0.00000000000E+00 -0.00000000000E+00 -0.25183937677E+03  0.25183937677E+03  0.00000000000E+00 0. -1.
         23    2    1    2    0    0 -0.49853715628E+02  0.96162177214E+01 -0.11127975416E+03  0.14970892472E+03  0.86323310003E+02 0.  0.
         23    2    1    2    0    0  0.45150117899E+02  0.46890824242E+02 -0.38031551828E+02  0.11487109670E+03  0.86669991225E+02 0.  0.
        -11    1    3    3    0    0 -0.46314270107E+01  0.34892479478E+02 -0.11067657914E+02  0.36897537750E+02  0.00000000000E+00 0.  1.
         11    1    3    3    0    0 -0.45222288617E+02 -0.25276261757E+02 -0.10021209625E+03  0.11281138697E+03  0.00000000000E+00 0. -1.
        -11    1    4    4    0    0  0.23348255062E+02 -0.85861357168E+01 -0.48352765852E+02  0.54376950140E+02  0.00000000000E+00 0. -1.
         11    1    4    4    0    0  0.21801862837E+02  0.55476959959E+02  0.10321214024E+02  0.60494146563E+02  0.00000000000E+00 0.  1.
          2    1    1    2  501    0  0.47035977283E+01 -0.56507041963E+02 -0.26989370760E+02  0.62798055360E+02  0.00000000000E+00 0. -1.
<scales pt_clust_5="13000.00000" pt_clust_6="13000.00000" pt_clust_7="13000.00000" pt_clust_8="13000.00000" pt_clust_9="56.70247"></scales>
<clustering>
<clus scale="   56.702">  1  9  2 -1</clus>
<clus scale="   86.323">  5  6 -1 -1</clus>
<clus scale="   86.670">  7  8 -1 -1</clus>
<clus scale="   99.339">  2  5  1 -1</clus>
<clus scale="   56.702">  1  5  2 -1</clus>
</clustering>
</event>
<event>
 9    1  0.1315259E-005  0.9266534E+02  0.7546771E-02  0.1297028E+00
          1   -1    0    0  502    0 -0.00000000000E+00  0.00000000000E+00  0.22749652008E+03  0.22749652008E+03  0.00000000000E+00 0. -1.
         21   -1    0    0  501  502  0.00000000000E+00 -0.00000000000E+00 -0.51413785769E+02  0.51413785769E+02  0.00000000000E+00 0.  1.
         23    2    1    2    0    0 -0.10899455627E+02  0.24092896965E+02  0.93021718392E+02  0.13212307146E+03  0.90023330878E+02 0.  0.
         23    2    1    2    0    0  0.17137349253E+02  0.33252292969E+01  0.68258548238E+02  0.11501022990E+03  0.90903122528E+02 0.  0.
        -11    1    4    4    0    0  0.12602111677E+02 -0.43256779700E+02  0.26398496765E+02  0.52219180769E+02  0.00000000000E+00 0. -1.
         11    1    4    4    0    0  0.45352375755E+01  0.46582008997E+02  0.41860051473E+02  0.62791049134E+02  0.00000000000E+00 0.  1.
        -13    1    3    3    0    0 -0.15815332337E+02 -0.17129708538E+02 -0.65723730686E+01  0.24222876363E+02  0.00000000000E+00 0.  1.
         13    1    3    3    0    0  0.49158767103E+01  0.41222605503E+02  0.99594091461E+02  0.10790019510E+03  0.00000000000E+00 0. -1.
          1    1    1    2  501    0 -0.62378936260E+01 -0.27418126262E+02  0.14802467678E+02  0.31777004484E+02  0.00000000000E+00 0. -1.
<scales pt_clust_5="13000.00000" pt_clust_6="13000.00000" pt_clust_7="13000.00000" pt_clust_8="13000.00000" pt_clust_9="28.11877"></scales>
<clustering>
<clus scale="   28.119">  2  9  1 -1</clus>
<clus scale="   90.023">  7  8 -1 -1</clus>
<clus scale="   90.903">  5  6 -1 -1</clus>
<clus scale="   91.802">  1  7  2 -1</clus>
<clus scale="   28.119">  2  5  1 -1</clus>
</clustering>
</event>
<event>
 9    1  0.1315259E-005  0.1133694E+03  0.7546771E-02  0.1254528E+00
         21   -1    0    0  501  502  0.00000000000E+00  0.00000000000E+00  0.14380783188E+03  0.14380783188E+03  0.00000000000E+00 0.  1.
          1   -1    0    0  502    0 -0.00000000000E+00 -0.00000000000E+00 -0.15572799299E+03  0.15572799299E+03  0.00000000000E+00 0. -1.
         23    2    1    2    0    0  0.59901713099E+02 -0.39214617309E+02 -0.69232977486E+02  0.13442063181E+03  0.90275686884E+02 0.  0.
         23    2    1    2    0    0 -0.30490527324E+02  0.56855278629E+02  0.66635455842E+02  0.12957475993E+03  0.90482813125E+02 0.  0.
        -11    1    4    4    0    0 -0.61196001634E+01 -0.24225383064E+02  0.67821696136E+01  0.25890471518E+02  0.00000000000E+00 0. -1.
         11    1    4    4    0    0 -0.24370927161E+02  0.81080661692E+02  0.59853286228E+02  0.10368428841E+03  0.00000000000E+00 0.  1.
        -13    1    3    3    0    0  0.41621965653E+02 -0.13575997148E+02  0.13568192344E+02  0.45834392838E+02  0.00000000000E+00 0.  1.
         13    1    3    3    0    0  0.18279747446E+02 -0.25638620161E+02 -0.82801169830E+02  0.88586238974E+02  0.00000000000E+00 0. -1.
          1    1    1    2  501    0 -0.29411185775E+02 -0.17640661319E+02 -0.93226394603E+01  0.35540433129E+02  0.00000000000E+00 0. -1.
<scales pt_clust_5="13000.00000" pt_clust_6="13000.00000" pt_clust_7="13000.00000" pt_clust_8="13000.00000" pt_clust_9="34.29595"></scales>
<clustering>
<clus scale="   34.296">  1  9  2 -1</clus>
<clus scale="   90.276">  7  8 -1 -1</clus>
<clus scale="   90.483">  5  6 -1 -1</clus>
<clus scale="  113.204">  2  7  1 -1</clus>
<clus scale="   34.296">  1  5  2 -1</clus>
</clustering>
</event>
<event>
 9    1  0.1315259E-005  0.9917156E+02  0.7546771E-02  0.1283001E+00
          2   -1    0    0  502    0 -0.00000000000E+00  0.00000000000E+00  0.36051067200E+03  0.36051067200E+03  0.00000000000E+00 0. -1.
         21   -1    0    0  501  502  0.00000000000E+00 -0.00000000000E+00 -0.43737759214E+02  0.43737759214E+02  0.00000000000E+00 0. -1.
         23    2    1    2    0    0  0.27142183931E+02 -0.83927063400E+01  0.15557639251E+03  0.18297949424E+03  0.92034481239E+02 0.  0.
         23    2    1    2    0    0 -0.46803350296E+02 -0.29780988961E+01  0.16905791566E+03  0.19723441572E+03  0.90118883833E+02 0.  0.
        -11    1    3    3    0    0  0.39406544973E+02  0.33279803709E+02  0.69342121099E+02  0.86421935179E+02  0.00000000000E+00 0.  1.
         11    1    3    3    0    0 -0.12264361042E+02 -0.41672510049E+02  0.86234271413E+02  0.96557559060E+02  0.00000000000E+00 0. -1.
        -13    1    4    4    0    0  0.14354017630E+02  0.18785337343E+02  0.10433805199E+02  0.25841652659E+02  0.00000000000E+00 0.  1.
         13    1    4    4    0    0 -0.61157367926E+02 -0.21763436239E+02  0.15862411046E+03  0.17139276306E+03  0.00000000000E+00 0. -1.
          2    1    1    2  501    0  0.19661166365E+02  0.11370805236E+02 -0.78613953889E+01  0.24034521256E+02  0.00000000000E+00 0. -1.
<scales pt_clust_5="13000.00000" pt_clust_6="13000.00000" pt_clust_7="13000.00000" pt_clust_8="13000.00000" pt_clust_9="22.71248"></scales>
<clustering>
<clus scale="   22.712">  2  9  1 -1</clus>
<clus scale="   90.119">  7  8 -1 -1</clus>
<clus scale="   92.034">  5  6 -1 -1</clus>
<clus scale="   97.396">  2  7  1 -1</clus>
<clus scale="   22.712">  2  5  1 -1</clus>
</clustering>
</event>
<event>
 9    1  0.1315259E-005  0.1046288E+03  0.7546771E-02  0.1271264E+00
         21   -1    0    0  501  502  0.00000000000E+00  0.00000000000E+00  0.10088574345E+04  0.10088574345E+04  0.00000000000E+00 0. -1.
          1   -1    0    0  502    0 -0.00000000000E+00 -0.00000000000E+00 -0.29183487754E+02  0.29183487754E+02  0.00000000000E+00 0. -1.
         23    2    1    2    0    0  0.16107370059E+02 -0.17384164150E+02  0.20423446515E+03  0.22433399242E+03  0.89734981297E+02 0.  0.
         23    2    1    2    0    0 -0.63338733758E+00  0.91026500799E+02  0.23308923140E+03  0.26616110364E+03  0.90691335141E+02 0.  0.
        -13    1    3    3    0    0  0.72408243924E+01  0.36979404452E+02  0.79430241852E+02  0.87915125048E+02  0.00000000000E+00 0. -1.
         13    1    3    3    0    0  0.88665456662E+01 -0.54363568602E+02  0.12480422330E+03  0.13641886737E+03  0.00000000000E+00 0.  1.
        -13    1    4    4    0    0 -0.28816910805E+02  0.17796789513E+02  0.14177792171E+03  0.14576734597E+03  0.00000000000E+00 0.  1.
         13    1    4    4    0    0  0.28183523468E+02  0.73229711286E+02  0.91311309690E+02  0.12039375768E+03  0.00000000000E+00 0. -1.
          1    1    1    2  501    0 -0.15473982721E+02 -0.73642336648E+02  0.54235025015E+03  0.54754582614E+03  0.00000000000E+00 0. -1.
<scales pt_clust_5="13000.00000" pt_clust_6="13000.00000" pt_clust_7="13000.00000" pt_clust_8="13000.00000" pt_clust_9="75.25050"></scales>
<clustering>
<clus scale="   75.251">  1  9  2 -1</clus>
<clus scale="   89.735">  5  6 -1 -1</clus>
<clus scale="   90.691">  7  8 -1 -1</clus>
<clus scale="  103.801">  2  5  1 -1</clus>
<clus scale="   75.251">  1  5  2 -1</clus>
</clustering>
</event>
<event>
 9    1  0.1315259E-005  0.1172061E+03  0.7546771E-02  0.1247995E+00
         21   -1    0    0  501  502  0.00000000000E+00  0.00000000000E+00  0.13415696760E+03  0.13415696760E+03  0.00000000000E+00 0.  1.
          4   -1    0    0  502    0 -0.00000000000E+00 -0.00000000000E+00 -0.21376620348E+03  0.21376620348E+03  0.00000000000E+00 0. -1.
         23    2    1    2    0    0  0.70169784143E+02  0.96126529225E+01 -0.10913573947E+03  0.15927826750E+03  0.91884466408E+02 0.  0.
         23    2    1    2    0    0 -0.78017496332E+02  0.29248161950E+02 -0.20043388854E+02  0.12517109988E+03  0.91235311674E+02 0.  0.
        -13    1    3    3    0    0 -0.98472790597E+01 -0.26376254836E+02 -0.23459029699E+02  0.36646988941E+02  0.00000000000E+00 0. -1.
         13    1    3    3    0    0  0.80017063202E+02  0.35988907758E+02 -0.85676709770E+02  0.12263127856E+03  0.00000000000E+00 0.  1.
        -13    1    4    4    0    0 -0.73850758711E+02 -0.12710005028E+02 -0.31790186401E+02  0.81400827646E+02  0.00000000000E+00 0. -1.
         13    1    4    4    0    0 -0.41667376205E+01  0.41958166978E+02  0.11746797547E+02  0.43770272231E+02  0.00000000000E+00 0.  1.
          4    1    1    2  501    0  0.78477121891E+01 -0.38860814872E+02  0.49569892440E+02  0.63473803697E+02  0.00000000000E+00 0. -1.
<scales pt_clust_5="13000.00000" pt_clust_6="13000.00000" pt_clust_7="13000.00000" pt_clust_8="13000.00000" pt_clust_9="39.64530"></scales>
<clustering>
<clus scale="   39.645">  1  9  2 -1</clus>
<clus scale="   91.235">  7  8 -1 -1</clus>
<clus scale="   91.884">  5  6 -1 -1</clus>
<clus scale="  116.698">  1  7  2 -1</clus>
<clus scale="   39.645">  1  5  2 -1</clus>
</clustering>
</event>
<event>
 9    1  0.1315259E-005  0.9668566E+02  0.7546771E-02  0.1288444E+00
         -3   -1    0    0    0  501 -0.00000000000E+00  0.00000000000E+00  0.66446832696E+02  0.66446832696E+02  0.00000000000E+00 0.  1.
         21   -1    0    0  501  502  0.00000000000E+00 -0.00000000000E+00 -0.43155663289E+03  0.43155663289E+03  0.00000000000E+00 0.  1.
         23    2    1    2    0    0  0.26173722661E+02  0.30398179157E+01 -0.49480376735E+01  0.92364415246E+02  0.88387769946E+02 0.  0.
         23    2    1    2    0    0 -0.77144770607E+02  0.34006402195E+02 -0.24188521960E+03  0.27162483185E+03  0.90353963905E+02 0.  0.
        -13    1    4    4    0    0  0.20813721435E+02  0.71032236437E+01 -0.42867689547E+02  0.48179929360E+02  0.00000000000E+00 0. -1.
         13    1    4    4    0    0 -0.97958492042E+02  0.26903178551E+02 -0.19901753005E+03  0.22344490249E+03  0.00000000000E+00 0.  1.
        -13    1    3    3    0    0  0.32782046336E+02  0.41258000381E+02  0.29674344474E+01  0.52779644037E+02  0.00000000000E+00 0.  1.
         13    1    3    3    0    0 -0.66083236757E+01 -0.38218182465E+02 -0.79154721209E+01  0.39584771209E+02  0.00000000000E+00 0. -1.
         -3    1    1    2    0  502  0.50971047946E+02 -0.37046220110E+02 -0.11827654293E+03  0.13401421850E+03  0.00000000000E+00 0.  1.
<scales pt_clust_5="13000.00000" pt_clust_6="13000.00000" pt_clust_7="13000.00000" pt_clust_8="13000.00000" pt_clust_9="63.01167"></scales>
<clustering>
<clus scale="   63.012">  2  9  1 -1</clus>
<clus scale="   88.388">  7  8 -1 -1</clus>
<clus scale="   90.354">  5  6 -1 -1</clus>
<clus scale="   94.851">  1  7  2 -1</clus>
<clus scale="   63.012">  2  5  1 -1</clus>
</clustering>
</event>
<event>
 9    1  0.1315259E-005  0.2491907E+03  0.7546771E-02  0.1113884E+00
          1   -1    0    0  502    0 -0.00000000000E+00  0.00000000000E+00  0.91955424654E+03  0.91955424654E+03  0.00000000000E+00 0. -1.
         21   -1    0    0  501  502  0.00000000000E+00 -0.00000000000E+00 -0.19534357178E+03  0.19534357178E+03  0.00000000000E+00 0. -1.
         23    2    1    2    0    0  0.18872023137E+03  0.13910489402E+03  0.73882429130E+03  0.78022606369E+03  0.89027410235E+02 0.  0.
         23    2    1    2    0    0 -0.21599963486E+03 -0.69567788576E+02 -0.54198852659E+02  0.25013439125E+03  0.90189681176E+02 0.  0.
        -13    1    3    3    0    0  0.56272311558E+02  0.84119093398E+02  0.22401437693E+03  0.24581504428E+03  0.00000000000E+00 0.  1.
         13    1    3    3    0    0  0.13244791981E+03  0.54985800627E+02  0.51480991437E+03  0.53441101941E+03  0.00000000000E+00 0. -1.
        -13    1    4    4    0    0 -0.31268864420E+02 -0.15486748605E+02 -0.45652136086E+02  0.57460410664E+02  0.00000000000E+00 0.  1.
         13    1    4    4    0    0 -0.18473077044E+03 -0.54081039970E+02 -0.85467165734E+01  0.19267398059E+03  0.00000000000E+00 0. -1.
          1    1    1    2  501    0  0.27279403490E+02 -0.69537105449E+02  0.39585236122E+02  0.84537363383E+02  0.00000000000E+00 0. -1.
<scales pt_clust_5="13000.00000" pt_clust_6="13000.00000" pt_clust_7="13000.00000" pt_clust_8="13000.00000" pt_clust_9="74.69655"></scales>
<clustering>
<clus scale="   74.697">  2  9  1 -1</clus>
<clus scale="   89.027">  5  6 -1 -1</clus>
<clus scale="   90.190">  7  8 -1 -1</clus>
<clus scale="  248.772">  1  5  2 -1</clus>
<clus scale="   74.697">  2  5  1 -1</clus>
</clustering>
</event>
<event>
 9    1  0.1315259E-005  0.9806779E+02  0.7546771E-02  0.1284724E+00
          1   -1    0    0  502    0 -0.00000000000E+00  0.00000000000E+00  0.49747056970E+03  0.49747056970E+03  0.00000000000E+00 0. -1.
         21   -1    0    0  501  502  0.00000000000E+00 -0.00000000000E+00 -0.51132155520E+02  0.51132155520E+02  0.00000000000E+00 0.  1.
         23    2    1    2    0    0 -0.62611425857E+01  0.41985999766E+02  0.29072177625E+03  0.30786669360E+03  0.91982192628E+02 0.  0.
         23    2    1    2    0    0 -0.14269548110E+02 -0.22805355108E+02  0.17992714113E+03  0.20358220335E+03  0.91368666286E+02 0.  0.
        -11    1    4    4    0    0 -0.58973924240E+01  0.25489229887E+02  0.12250942010E+02  0.28888850060E+02  0.00000000000E+00 0.  1.
         11    1    4    4    0    0 -0.83721556862E+01 -0.48294584995E+02  0.16767619912E+03  0.17469335329E+03  0.00000000000E+00 0. -1.
        -13    1    3    3    0    0  0.35280802631E+02  0.93568754686E+01  0.19637590381E+03  0.19973928444E+03  0.00000000000E+00 0.  1.
         13    1    3    3    0    0 -0.41541945216E+02  0.32629124298E+02  0.94345872435E+02  0.10812740915E+03  0.00000000000E+00 0. -1.
          1    1    1    2  501    0  0.20530690696E+02 -0.19180644658E+02 -0.24310503196E+02  0.37153828277E+02  0.00000000000E+00 0. -1.
<scales pt_clust_5="13000.00000" pt_clust_6="13000.00000" pt_clust_7="13000.00000" pt_clust_8="13000.00000" pt_clust_9="28.09638"></scales>
<clustering>
<clus scale="   28.096">  2  9  1 -1</clus>
<clus scale="   91.369">  5  6 -1 -1</clus>
<clus scale="   91.982">  7  8 -1 -1</clus>
<clus scale="   97.493">  2  5  1 -1</clus>
<clus scale="   28.096">  2  5  1 -1</clus>
</clustering>
</event>
<event>
 9    1  0.1315259E-005  0.1899934E+03  0.7546771E-02  0.1160559E+00
          2   -1    0    0  502    0 -0.00000000000E+00  0.00000000000E+00  0.10373222136E+04  0.10373222136E+04  0.00000000000E+00 0. -1.
         21   -1    0    0  501  502  0.00000000000E+00 -0.00000000000E+00 -0.95204395582E+02  0.95204395582E+02  0.00000000000E+00 0. -1.
         23    2    1    2    0    0 -0.13006725071E+03  0.13379536870E+03  0.58777500224E+03  0.62056240311E+03  0.69278802637E+02 0.  0.
         23    2    1    2    0    0  0.21101184530E+02 -0.15912138486E+03  0.35518359969E+03  0.40009053809E+03  0.90289390700E+02 0.  0.
        -11    1    3    3    0    0 -0.11218864609E+03  0.71750025532E+02  0.42778696488E+03  0.44803576397E+03  0.00000000000E+00 0. -1.
         11    1    3    3    0    0 -0.17878604616E+02  0.62045343171E+02  0.15998803736E+03  0.17252663914E+03  0.00000000000E+00 0.  1.
        -11    1    4    4    0    0  0.21204025439E+02  0.93650386494E-01  0.20633254120E+02  0.29586325233E+02  0.00000000000E+00 0.  1.
         11    1    4    4    0    0 -0.10284090914E+00 -0.15921503524E+03  0.33455034557E+03  0.37050421286E+03  0.00000000000E+00 0. -1.
          2    1    1    2  501    0  0.10896606618E+03  0.25326016154E+02 -0.84078390823E+00  0.11187366799E+03  0.00000000000E+00 0. -1.
<scales pt_clust_5="13000.00000" pt_clust_6="13000.00000" pt_clust_7="13000.00000" pt_clust_8="13000.00000" pt_clust_9="111.87051"></scales>
<clustering>
<clus scale="   69.279">  5  6 -1 -1</clus>
<clus scale="   90.289">  7  8 -1 -1</clus>
<clus scale="  111.871">  2  9  1 -1</clus>
<clus scale="  180.955">  1  5  2 -1</clus>
<clus scale="  111.871">  2  5  1 -1</clus>
</clustering>
</event>
<event>
 9    1  0.1315259E-005  0.1110395E+03  0.7546771E-02  0.1258968E+00
          1   -1    0    0  502    0 -0.00000000000E+00  0.00000000000E+00  0.65780278507E+03  0.65780278507E+03  0.00000000000E+00 0. -1.
         21   -1    0    0  501  502  0.00000000000E+00 -0.00000000000E+00 -0.48019588848E+02  0.48019588848E+02  0.00000000000E+00 0. -1.
         23    2    1    2    0    0 -0.31727142898E+02  0.94086853671E+01  0.21784368250E+03  0.23867410721E+03  0.91729627117E+02 0.  0.
         23    2    1    2    0    0  0.70011011763E+02 -0.73487613107E+02  0.36187384912E+03  0.38667648418E+03  0.90906818751E+02 0.  0.
        -13    1    3    3    0    0 -0.58810299926E+02 -0.10567620697E+02  0.16987764294E+03  0.18007981440E+03  0.00000000000E+00 0.  1.
         13    1    3    3    0    0  0.27083157028E+02  0.19976306064E+02  0.47966039558E+02  0.58594292806E+02  0.00000000000E+00 0. -1.
        -13    1    4    4    0    0 -0.93532440116E+00 -0.63386661477E+02  0.19562928422E+03  0.20564425722E+03  0.00000000000E+00 0. -1.
         13    1    4    4    0    0  0.70946336164E+02 -0.10100951629E+02  0.16624456490E+03  0.18103222696E+03  0.00000000000E+00 0.  1.
          1    1    1    2  501    0 -0.38283868865E+02  0.64078927739E+02  0.30065664612E+02  0.80471782533E+02  0.00000000000E+00 0. -1.
<scales pt_clust_5="13000.00000" pt_clust_6="13000.00000" pt_clust_7="13000.00000" pt_clust_8="13000.00000" pt_clust_9="74.64425"></scales>
<clustering>
<clus scale="   74.644">  2  9  1 -1</clus>
<clus scale="   90.907">  7  8 -1 -1</clus>
<clus scale="   91.730">  5  6 -1 -1</clus>
<clus scale="  110.361">  2  7  1 -1</clus>
<clus scale="   74.644">  2  5  1 -1</clus>
</clustering>
</event>
<event>
 9    1  0.1315259E-005  0.1013604E+03  0.7546771E-02  0.1277908E+00
         21   -1    0    0  501  502  0.00000000000E+00  0.00000000000E+00  0.10386768423E+03  0.10386768423E+03  0.00000000000E+00 0. -1.
          2   -1    0    0  502    0 -0.00000000000E+00 -0.00000000000E+00 -0.17841826829E+03  0.17841826829E+03  0.00000000000E+00 0. -1.
         23    2    1    2    0    0  0.10124964416E+02  0.28820540918E+02 -0.29003242825E+01  0.97490305769E+02  0.92535449179E+02 0.  0.
         23    2    1    2    0    0 -0.23054279774E+02 -0.48827659719E+02  0.30736812079E+01  0.10636657462E+03  0.91590176936E+02 0.  0.
        -11    1    4    4    0    0  0.21048797062E+02 -0.24037504408E+02 -0.31674354727E+02  0.44990201414E+02  0.00000000000E+00 0.  1.
         11    1    4    4    0    0 -0.44103076836E+02 -0.24790155311E+02  0.34748035935E+02  0.61376373208E+02  0.00000000000E+00 0. -1.
        -11    1    3    3    0    0  0.43383320216E+02  0.42439219332E+02  0.42847952870E+01  0.60840441165E+02  0.00000000000E+00 0.  1.
         11    1    3    3    0    0 -0.33258355800E+02 -0.13618678414E+02 -0.71851195695E+01  0.36649864604E+02  0.00000000000E+00 0. -1.
          2    1    1    2  501    0  0.12929315358E+02  0.20007118801E+02 -0.74723940987E+02  0.78429072128E+02  0.00000000000E+00 0. -1.
<scales pt_clust_5="13000.00000" pt_clust_6="13000.00000" pt_clust_7="13000.00000" pt_clust_8="13000.00000" pt_clust_9="23.82126"></scales>
<clustering>
<clus scale="   23.821">  1  9  2 -1</clus>
<clus scale="   91.590">  5  6 -1 -1</clus>
<clus scale="   92.535">  7  8 -1 -1</clus>
<clus scale="  100.498">  1  5  2 -1</clus>
<clus scale="   23.821">  1  5  2 -1</clus>
</clustering>
</event>
<event>
 9    1  0.1315259E-005  0.1614512E+03  0.7546771E-02  0.1207190E+00
          1   -1    0    0  502    0 -0.00000000000E+00  0.00000000000E+00  0.80030615502E+03  0.80030615502E+03  0.00000000000E+00 0. -1.
         21   -1    0    0  501  502  0.00000000000E+00 -0.00000000000E+00 -0.54952701994E+02  0.54952701994E+02  0.00000000000E+00 0.  1.
         23    2    1    2    0    0  0.41106081523E+02  0.25445656589E+02  0.15002988403E+03  0.18258638771E+03  0.92150048821E+02 0.  0.
         23    2    1    2    0    0 -0.13794321019E+03 -0.96233750634E+02  0.41128055116E+03  0.45299038955E+03  0.88087100478E+02 0.  0.
        -11    1    4    4    0    0 -0.78224644681E+02 -0.12427746167E+02  0.24457808011E+03  0.25708360738E+03  0.00000000000E+00 0. -1.
         11    1    4    4    0    0 -0.59718565510E+02 -0.83806004467E+02  0.16670247104E+03  0.19590678218E+03  0.00000000000E+00 0.  1.
        -11    1    3    3    0    0 -0.14839440574E+02  0.41889674140E+02  0.79447049076E+02  0.91031793364E+02  0.00000000000E+00 0. -1.
         11    1    3    3    0    0  0.55945522097E+02 -0.16444017551E+02  0.70582834949E+02  0.91554594343E+02  0.00000000000E+00 0.  1.
          1    1    1    2  501    0  0.96837128668E+02  0.70788094045E+02  0.18404301784E+03  0.21968207975E+03  0.00000000000E+00 0. -1.
<scales pt_clust_5="13000.00000" pt_clust_6="13000.00000" pt_clust_7="13000.00000" pt_clust_8="13000.00000" pt_clust_9="135.30393"></scales>
<clustering>
<clus scale="   88.087">  5  6 -1 -1</clus>
<clus scale="   92.150">  7  8 -1 -1</clus>
<clus scale="  104.062">  1  7  2 -1</clus>
<clus scale="  135.304">  2  9  1 -1</clus>
<clus scale="  135.304">  2  5  1 -1</clus>
</clustering>
</event>
<event>
 9    1  0.1315259E-005  0.1059681E+03  0.7546771E-02  0.1273509E+00
         21   -1    0    0  501  502  0.00000000000E+00  0.00000000000E+00  0.18108179508E+03  0.18108179508E+03  0.00000000000E+00 0.  1.
          1   -1    0    0  502    0 -0.00000000000E+00 -0.00000000000E+00 -0.21222969427E+03  0.21222969427E+03  0.00000000000E+00 0. -1.
         23    2    1    2    0    0 -0.23629084552E+02  0.13245488218E+02 -0.16325179829E+03  0.19489082887E+03  0.10294420304E+03 0.  0.
         23    2    1    2    0    0  0.22417042009E+02  0.94162891112E+01  0.39918265981E+02  0.10348270098E+03  0.92325571595E+02 0.  0.
        -13    1    3    3    0    0  0.31129910986E+02  0.56674152282E+01 -0.11978383847E+02  0.33833010994E+02  0.00000000000E+00 0.  1.
         13    1    3    3    0    0 -0.54758995539E+02  0.75780729900E+01 -0.15127341444E+03  0.16105781788E+03  0.00000000000E+00 0. -1.
        -13    1    4    4    0    0  0.26545597743E+02 -0.14428322675E+02  0.63106949894E+02  0.69966651911E+02  0.00000000000E+00 0.  1.
         13    1    4    4    0    0 -0.41285557339E+01  0.23844611786E+02 -0.23188683913E+02  0.33516049070E+02  0.00000000000E+00 0. -1.
          1    1    1    2  501    0  0.12120425433E+01 -0.22661777329E+02  0.92185633116E+02  0.94937959488E+02  0.00000000000E+00 0. -1.
<scales pt_clust_5="13000.00000" pt_clust_6="13000.00000" pt_clust_7="13000.00000" pt_clust_8="13000.00000" pt_clust_9="22.69417"></scales>
<clustering>
<clus scale="   22.694">  1  9  2 -1</clus>
<clus scale="   92.326">  7  8 -1 -1</clus>
<clus scale="   95.686">  1  7  2 -1</clus>
<clus scale="  102.944">  5  6 -1 -1</clus>
<clus scale="   22.694">  1  5  2 -1</clus>
</clustering>
</event>
<event>
 9    1  0.1315259E-005  0.1240693E+03  0.7546771E-02  0.1237243E+00
         21   -1    0    0  501  502  0.00000000000E+00  0.00000000000E+00  0.24979517725E+03  0.24979517725E+03  0.00000000000E+00 0.  1.
          3   -1    0    0  502    0 -0.00000000000E+00 -0.00000000000E+00 -0.10826814394E+03  0.10826814394E+03  0.00000000000E+00 0. -1.
         23    2    1    2    0    0 -0.85903317275E+02  0.23239127871E+02 -0.32194282068E+02  0.13151392482E+03  0.91323620384E+02 0.  0.
         23    2    1    2    0    0  0.70840975973E+02  0.45414182450E+01  0.13876457189E+03  0.17942608173E+03  0.88876566289E+02 0.  0.
        -11    1    4    4    0    0  0.85699853789E+02 -0.12991649323E+02  0.12657939285E+03  0.15341313694E+03  0.00000000000E+00 0.  1.
         11    1    4    4    0    0 -0.14858877815E+02  0.17533067568E+02  0.12185179042E+02  0.26012944788E+02  0.00000000000E+00 0. -1.
        -13    1    3    3    0    0 -0.46638273160E+02 -0.25067544512E+02  0.13079742776E+02  0.54539801817E+02  0.00000000000E+00 0.  1.
         13    1    3    3    0    0 -0.39265044115E+02  0.48306672384E+02 -0.45274024844E+02  0.76974123001E+02  0.00000000000E+00 0. -1.
          3    1    1    2  501    0  0.15062341302E+02 -0.27780546117E+02  0.34956743489E+02  0.47123314648E+02  0.00000000000E+00 0. -1.
<scales pt_clust_5="13000.00000" pt_clust_6="13000.00000" pt_clust_7="13000.00000" pt_clust_8="13000.00000" pt_clust_9="31.60115"></scales>
<clustering>
<clus scale="   31.601">  1  9  2 -1</clus>
<clus scale="   88.877">  5  6 -1 -1</clus>
<clus scale="   91.324">  7  8 -1 -1</clus>
<clus scale="  122.279">  1  5  2 -1</clus>
<clus scale="   31.601">  1  5  2 -1</clus>
</clustering>
</event>
<event>
 9    1  0.1315259E-005  0.1033608E+03  0.7546771E-02  0.1273931E+00
         21   -1    0    0  501  502  0.00000000000E+00  0.00000000000E+00  0.17653691869E+03  0.17653691869E+03  0.00000000000E+00 0. -1.
         -1   -1    0    0    0  501 -0.00000000000E+00 -0.00000000000E+00 -0.11875657320E+03  0.11875657320E+03  0.00000000000E+00 0.  1.
         23    2    1    2    0    0  0.34952577603E+02  0.40499117514E+02 -0.49572235298E+02  0.11636331337E+03  0.90670573982E+02 0.  0.
         23    2    1    2    0    0  0.25160280501E+01 -0.46579047767E+02  0.96149849599E+02  0.13935287255E+03  0.89434285490E+02 0.  0.
        -11    1    4    4    0    0 -0.28780972768E+02 -0.22835080635E+02  0.92939116840E+02  0.99937304046E+02  0.00000000000E+00 0.  1.
         11    1    4    4    0    0  0.31297000818E+02 -0.23743967132E+02  0.32107327588E+01  0.39415568500E+02  0.00000000000E+00 0. -1.
        -13    1    3    3    0    0 -0.19270685839E+02  0.15327497685E+02 -0.50926675268E+02  0.56566931788E+02  0.00000000000E+00 0.  1.
         13    1    3    3    0    0  0.54223263442E+02  0.25171619829E+02  0.13544399702E+01  0.59796381586E+02  0.00000000000E+00 0. -1.
         -1    1    1    2    0  502 -0.37468605653E+02  0.60799302533E+01  0.11202731185E+02  0.39577305965E+02  0.00000000000E+00 0.  1.
<scales pt_clust_5="13000.00000" pt_clust_6="13000.00000" pt_clust_7="13000.00000" pt_clust_8="13000.00000" pt_clust_9="37.95869"></scales>
<clustering>
<clus scale="   37.959">  1  9  2 -1</clus>
<clus scale="   89.434">  5  6 -1 -1</clus>
<clus scale="   90.671">  7  8 -1 -1</clus>
<clus scale="  102.278">  1  5  2 -1</clus>
<clus scale="   37.959">  1  5  2 -1</clus>
</clustering>
</event>
<event>
 9    1  0.1315259E-005  0.1203611E+03  0.7546771E-02  0.1252703E+00
         -3   -1    0    0    0  501 -0.00000000000E+00  0.00000000000E+00  0.61313977934E+03  0.61313977934E+03  0.00000000000E+00 0.  1.
         21   -1    0    0  501  502  0.00000000000E+00 -0.00000000000E+00 -0.27295135184E+02  0.27295135184E+02  0.00000000000E+00 0. -1.
         23    2    1    2    0    0  0.28456337252E+01  0.33434154441E+02  0.35010562001E+03  0.36949766539E+03  0.11326358308E+03 0.  0.
         23    2    1    2    0    0  0.20322124156E+02 -0.48501614881E+02  0.20444107496E+03  0.22918398587E+03  0.89239850266E+02 0.  0.
        -11    1    3    3    0    0 -0.44929379714E+02 -0.81522834653E+01  0.22128864053E+03  0.22595081615E+03  0.00000000000E+00 0.  1.
         11    1    3    3    0    0  0.47775013439E+02  0.41586437906E+02  0.12881697948E+03  0.14354684925E+03  0.00000000000E+00 0. -1.
        -11    1    4    4    0    0  0.48587443919E+02 -0.25234193489E+01  0.81498535883E+02  0.94916377421E+02  0.00000000000E+00 0.  1.
         11    1    4    4    0    0 -0.28265319762E+02 -0.45978195532E+02  0.12294253907E+03  0.13426760845E+03  0.00000000000E+00 0. -1.
         -3    1    1    2    0  502 -0.23167757882E+02  0.15067460440E+02  0.31297949189E+02  0.41753263259E+02  0.00000000000E+00 0.  1.
<scales pt_clust_5="13000.00000" pt_clust_6="13000.00000" pt_clust_7="13000.00000" pt_clust_8="13000.00000" pt_clust_9="27.63645"></scales>
<clustering>
<clus scale="   27.636">  2  9  1 -1</clus>
<clus scale="   89.240">  7  8 -1 -1</clus>
<clus scale="   98.091">  2  7  1 -1</clus>
<clus scale="  113.264">  5  6 -1 -1</clus>
<clus scale="   27.636">  2  5  1 -1</clus>
</clustering>
</event>
<event>
 9    1  0.1315259E-005  0.9715725E+02  0.7546771E-02  0.1287779E+00
         21   -1    0    0  501  502  0.00000000000E+00  0.00000000000E+00  0.16371313179E+03  0.16371313179E+03  0.00000000000E+00 0. -1.
          1   -1    0    0  502    0 -0.00000000000E+00 -0.00000000000E+00 -0.20730741255E+03  0.20730741255E+03  0.00000000000E+00 0. -1.
         23    2    1    2    0    0  0.21453008975E+02  0.29041961197E+00 -0.96729073826E+02  0.13185751976E+03  0.87003309463E+02 0.  0.
         23    2    1    2    0    0 -0.76189056500E+02 -0.54186255302E+02 -0.22317569017E+02  0.13148825991E+03  0.89722717371E+02 0.  0.
        -11    1    4    4    0    0 -0.47650584985E+02 -0.33731131057E+02 -0.57386239676E+02  0.81862982819E+02  0.00000000000E+00 0. -1.
         11    1    4    4    0    0 -0.28538471515E+02 -0.20455124246E+02  0.35068670659E+02  0.49625277089E+02  0.00000000000E+00 0.  1.
        -13    1    3    3    0    0  0.33744140621E+02 -0.26372479565E+02 -0.92839304998E+02  0.10224143611E+03  0.00000000000E+00 0. -1.
         13    1    3    3    0    0 -0.12291131646E+02  0.26662899177E+02 -0.38897688272E+01  0.29616083657E+02  0.00000000000E+00 0.  1.
          1    1    1    2  501    0  0.54736047526E+02  0.53895835691E+02  0.75452362084E+02  0.10767476467E+03  0.00000000000E+00 0. -1.
<scales pt_clust_5="13000.00000" pt_clust_6="13000.00000" pt_clust_7="13000.00000" pt_clust_8="13000.00000" pt_clust_9="76.81664"></scales>
<clustering>
<clus scale="   76.817">  1  9  2 -1</clus>
<clus scale="   87.003">  7  8 -1 -1</clus>
<clus scale="   89.723">  5  6 -1 -1</clus>
<clus scale="   94.652">  2  7  1 -1</clus>
<clus scale="   76.817">  1  5  2 -1</clus>
</clustering>
</event>
<event>
 9    1  0.1315259E-005  0.1519880E+03  0.7546771E-02  0.1211142E+00
         21   -1    0    0  501  502  0.00000000000E+00  0.00000000000E+00  0.32030945786E+02  0.32030945786E+02  0.00000000000E+00 0.  1.
         -1   -1    0    0    0  501 -0.00000000000E+00 -0.00000000000E+00 -0.12518253927E+04  0.12518253927E+04  0.00000000000E+00 0.  1.
         23    2    1    2    0    0 -0.41721565581E+02  0.59549555526E+02 -0.29099089744E+03  0.31275417139E+03  0.88615070566E+02 0.  0.
         23    2    1    2    0    0 -0.99325506050E+02 -0.22749056536E+02 -0.48064067961E+03  0.49982888007E+03  0.91817050322E+02 0.  0.
        -13    1    3    3    0    0 -0.59677115283E+02  0.41392820388E+02 -0.27030268869E+03  0.27988974112E+03  0.00000000000E+00 0.  1.
         13    1    3    3    0    0  0.17955549702E+02  0.18156735138E+02 -0.20688208745E+02  0.32864430272E+02  0.00000000000E+00 0. -1.
        -13    1    4    4    0    0 -0.99306308928E+02  0.11937590374E+02 -0.39412651186E+03  0.40662016232E+03  0.00000000000E+00 0.  1.
         13    1    4    4    0    0 -0.19197122698E-01 -0.34686646910E+02 -0.86514167751E+02  0.93208717747E+02  0.00000000000E+00 0. -1.
         -1    1    1    2    0  502  0.14104707163E+03 -0.36800498990E+02 -0.44816286991E+03  0.47127328707E+03  0.00000000000E+00 0.  1.
<scales pt_clust_5="13000.00000" pt_clust_6="13000.00000" pt_clust_7="13000.00000" pt_clust_8="13000.00000" pt_clust_9="121.11980"></scales>
<clustering>
<clus scale="   88.615">  5  6 -1 -1</clus>
<clus scale="   91.817">  7  8 -1 -1</clus>
<clus scale="  114.628">  2  5  1 -1</clus>
<clus scale="  121.120">  1  9  2 -1</clus>
<clus scale="  121.120">  1  5  2 -1</clus>
</clustering>
</event>
<event>
 9    1  0.1315259E-005  0.9655815E+02  0.7546771E-02  0.1289117E+00
         21   -1    0    0  501  502  0.00000000000E+00  0.00000000000E+00  0.28472086673E+02  0.28472086673E+02  0.00000000000E+00 0. -1.
          2   -1    0    0  502    0 -0.00000000000E+00 -0.00000000000E+00 -0.61358998929E+03  0.61358998929E+03  0.00000000000E+00 0. -1.
         23    2    1    2    0    0  0.24992096575E+02  0.14397705301E+02 -0.42549398632E+03  0.43643015395E+03  0.92705167483E+02 0.  0.
         23    2    1    2    0    0 -0.28420967826E+02  0.10025093243E+02 -0.15302056669E+03  0.18010087282E+03  0.90070953432E+02 0.  0.
        -11    1    3    3    0    0 -0.14064990302E+02 -0.31634021371E+02 -0.11402272498E+03  0.11916256574E+03  0.00000000000E+00 0.  1.
         11    1    3    3    0    0  0.39057086877E+02  0.46031726672E+02 -0.31147126133E+03  0.31726758822E+03  0.00000000000E+00 0. -1.
        -11    1    4    4    0    0  0.87964738658E+01 -0.25294589050E+02 -0.10978583328E+03  0.11300497058E+03  0.00000000000E+00 0.  1.
         11    1    4    4    0    0 -0.37217441692E+02  0.35319682293E+02 -0.43234733411E+02  0.67095902233E+02  0.00000000000E+00 0. -1.
          2    1    1    2  501    0  0.34288712513E+01 -0.24422798544E+02 -0.66033496062E+01  0.25531049191E+02  0.00000000000E+00 0. -1.
<scales pt_clust_5="13000.00000" pt_clust_6="13000.00000" pt_clust_7="13000.00000" pt_clust_8="13000.00000" pt_clust_9="24.66232"></scales>
<clustering>
<clus scale="   24.662">  1  9  2 -1</clus>
<clus scale="   90.071">  7  8 -1 -1</clus>
<clus scale="   92.705">  5  6 -1 -1</clus>
<clus scale="   94.032">  1  7  2 -1</clus>
<clus scale="   24.662">  1  5  2 -1</clus>
</clustering>
</event>
<event>
 9    1  0.1315259E-005  0.1050793E+03  0.7546771E-02  0.1270342E+00
          1   -1    0    0  502    0 -0.00000000000E+00  0.00000000000E+00  0.13994784254E+03  0.13994784254E+03  0.00000000000E+00 0. -1.
         21   -1    0    0  501  502  0.00000000000E+00 -0.00000000000E+00 -0.20082687300E+03  0.20082687300E+03  0.00000000000E+00 0. -1.
         23    2    1    2    0    0 -0.30893764018E+02 -0.46981318037E+02  0.38264989890E+02  0.11237379953E+03  0.89453856651E+02 0.  0.
         23    2    1    2    0    0 -0.55731097979E+01  0.57391665132E+02  0.14905969540E+02  0.10821103122E+03  0.90346978760E+02 0.  0.
        -11    1    4    4    0    0 -0.35708162159E+02 -0.63054409629E+01  0.37524968577E+00  0.36262546006E+02  0.00000000000E+00 0. -1.
         11    1    4    4    0    0  0.30135052361E+02  0.63697106095E+02  0.14530719854E+02  0.71948485218E+02  0.00000000000E+00 0.  1.
        -13    1    3    3    0    0  0.55767646043E+01 -0.24066430019E+02 -0.25448629124E+02  0.35467253652E+02  0.00000000000E+00 0.  1.
         13    1    3    3    0    0 -0.36470528622E+02 -0.22914888018E+02  0.63713619015E+02  0.76906545878E+02  0.00000000000E+00 0. -1.
          1    1    1    2  501    0  0.36466873816E+02 -0.10410347095E+02 -0.11404998989E+03  0.12018988479E+03  0.00000000000E+00 0. -1.
<scales pt_clust_5="13000.00000" pt_clust_6="13000.00000" pt_clust_7="13000.00000" pt_clust_8="13000.00000" pt_clust_9="37.92372"></scales>
<clustering>
<clus scale="   37.924">  2  9  1 -1</clus>
<clus scale="   89.454">  7  8 -1 -1</clus>
<clus scale="   90.347">  5  6 -1 -1</clus>
<clus scale="  104.312">  1  7  2 -1</clus>
<clus scale="   37.924">  2  5  1 -1</clus>
</clustering>
</event>
<event>
 9    1  0.1315259E-005  0.1391682E+03  0.7546771E-02  0.1215183E+00
          2   -1    0    0  502    0 -0.00000000000E+00  0.00000000000E+00  0.13005639245E+03  0.13005639245E+03  0.00000000000E+00 0. -1.
         21   -1    0    0  501  502  0.00000000000E+00 -0.00000000000E+00 -0.25162337367E+03  0.25162337367E+03  0.00000000000E+00 0.  1.
         23    2    1    2    0    0 -0.16122895314E+02  0.95725436927E+02  0.41483538296E+02  0.14164591017E+03  0.94442431614E+02 0.  0.
         23    2    1    2    0    0  0.25237911032E+02 -0.11554695490E+03 -0.11942779737E+03  0.19125970324E+03  0.91264584353E+02 0.  0.
        -11    1    4    4    0    0  0.42896607875E+02 -0.18210681382E+02 -0.59576827566E+02  0.75638259277E+02  0.00000000000E+00 0.  1.
         11    1    4    4    0    0 -0.17658696843E+02 -0.97336273518E+02 -0.59850969805E+02  0.11562144396E+03  0.00000000000E+00 0. -1.
        -13    1    3    3    0    0  0.34963010525E+02  0.53542330371E+02  0.90050953204E+00  0.63953140376E+02  0.00000000000E+00 0.  1.
         13    1    3    3    0    0 -0.51085905839E+02  0.42183106555E+02  0.40583028764E+02  0.77692769790E+02  0.00000000000E+00 0. -1.
          2    1    1    2  501    0 -0.91150157180E+01  0.19821517974E+02 -0.43622722143E+02  0.48774152719E+02  0.00000000000E+00 0. -1.
<scales pt_clust_5="13000.00000" pt_clust_6="13000.00000" pt_clust_7="13000.00000" pt_clust_8="13000.00000" pt_clust_9="21.81688"></scales>
<clustering>
<clus scale="   21.817">  2  9  1 -1</clus>
<clus scale="   91.265">  5  6 -1 -1</clus>
<clus scale="   94.442">  7  8 -1 -1</clus>
<clus scale="  137.032">  2  5  1 -1</clus>
<clus scale="   21.817">  2  5  1 -1</clus>
</clustering>
</event>
<event>
 9    1  0.1315259E-005  0.1254466E+03  0.7546771E-02  0.1235504E+00
         21   -1    0    0  501  502  0.00000000000E+00  0.00000000000E+00  0.40206965177E+02  0.40206965177E+02  0.00000000000E+00 0.  1.
          3   -1    0    0  502    0 -0.00000000000E+00 -0.00000000000E+00 -0.54811451324E+03  0.54811451324E+03  0.00000000000E+00 0. -1.
         23    2    1    2    0    0  0.56427978933E+02 -0.66730874548E+02 -0.36059788056E+03  0.38239198818E+03  0.92496890429E+02 0.  0.
         23    2    1    2    0    0 -0.36764951347E+02  0.71969859676E+02 -0.13996606672E+03  0.18429594934E+03  0.88561700306E+02 0.  0.
        -11    1    3    3    0    0 -0.15203621457E+01 -0.29389908069E+02 -0.21728197136E+02  0.36581316927E+02  0.00000000000E+00 0.  1.
         11    1    3    3    0    0  0.57948341078E+02 -0.37340966478E+02 -0.33886968342E+03  0.34581067125E+03  0.00000000000E+00 0. -1.
        -11    1    4    4    0    0 -0.51526862705E+02  0.42018783703E+02 -0.13507032285E+03  0.15054762662E+03  0.00000000000E+00 0.  1.
         11    1    4    4    0    0  0.14761911358E+02  0.29951075973E+02 -0.48957438703E+01  0.33748322727E+02  0.00000000000E+00 0. -1.
          3    1    1    2  501    0 -0.19663027586E+02 -0.52389851281E+01 -0.73436007787E+01  0.21633540889E+02  0.00000000000E+00 0. -1.
<scales pt_clust_5="13000.00000" pt_clust_6="13000.00000" pt_clust_7="13000.00000" pt_clust_8="13000.00000" pt_clust_9="20.34900"></scales>
<clustering>
<clus scale="   20.349">  1  9  2 -1</clus>
<clus scale="   88.562">  7  8 -1 -1</clus>
<clus scale="   92.497">  5  6 -1 -1</clus>
<clus scale="  122.574">  1  7  2 -1</clus>
<clus scale="   20.349">  1  5  2 -1</clus>
</clustering>
</event>
<event>
 9    1  0.1315259E-005  0.1042300E+03  0.7546771E-02  0.1272427E+00
          3   -1    0    0  502    0 -0.00000000000E+00  0.00000000000E+00  0.10405120942E+03  0.10405120942E+03  0.00000000000E+00 0. -1.
         21   -1    0    0  501  502  0.00000000000E+00 -0.00000000000E+00 -0.14397368073E+03  0.14397368073E+03  0.00000000000E+00 0. -1.
         23    2    1    2    0    0  0.28451020558E+02  0.33707050318E+02  0.23181944048E+02  0.10562041061E+03  0.93127025059E+02 0.  0.
         23    2    1    2    0    0 -0.17641532231E+02 -0.51698648236E+02 -0.49606709836E+02  0.11744990706E+03  0.91376589555E+02 0.  0.
        -11    1    4    4    0    0 -0.40474018913E+02 -0.51065426952E+02 -0.26282693389E+01  0.65212972915E+02  0.00000000000E+00 0.  1.
         11    1    4    4    0    0  0.22832486682E+02 -0.63322128447E+00 -0.46978440497E+02  0.52236934144E+02  0.00000000000E+00 0. -1.
        -11    1    3    3    0    0 -0.14160048860E+02  0.45744470179E+02  0.35558491988E+02  0.59644529406E+02  0.00000000000E+00 0.  1.
         11    1    3    3    0    0  0.42611069418E+02 -0.12037419861E+02 -0.12376547939E+02  0.45975881207E+02  0.00000000000E+00 0. -1.
          3    1    1    2  501    0 -0.10809488327E+02  0.17991597919E+02 -0.13497705523E+02  0.24954572486E+02  0.00000000000E+00 0. -1.
<scales pt_clust_5="13000.00000" pt_clust_6="13000.00000" pt_clust_7="13000.00000" pt_clust_8="13000.00000" pt_clust_9="20.98911"></scales>
<clustering>
<clus scale="   20.989">  2  9  1 -1</clus>
<clus scale="   91.377">  5  6 -1 -1</clus>
<clus scale="   93.127">  7  8 -1 -1</clus>
<clus scale="  102.669">  2  5  1 -1</clus>
<clus scale="   20.989">  2  5  1 -1</clus>
</clustering>
</event>
<event>
 9    1  0.1315259E-005  0.1701117E+03  0.7546771E-02  0.1180407E+00
          2   -1    0    0  502    0 -0.00000000000E+00  0.00000000000E+00  0.46542836691E+03  0.46542836691E+03  0.00000000000E+00 0. -1.
         21   -1    0    0  501  502  0.00000000000E+00 -0.00000000000E+00 -0.75406271994E+02  0.75406271994E+02  0.00000000000E+00 0. -1.
         23    2    1    2    0    0 -0.62379169383E+02  0.12378752765E+03  0.25016289510E+03  0.30574980027E+03  0.10810621400E+03 0.  0.
         23    2    1    2    0    0  0.28993588807E+02 -0.12026655131E+03  0.12521810510E+03  0.19846031244E+03  0.91663788983E+02 0.  0.
        -11    1    3    3    0    0  0.15048386697E+02  0.23314563277E+02  0.29653534880E+01  0.27907277264E+02  0.00000000000E+00 0.  1.
         11    1    3    3    0    0 -0.77427556080E+02  0.10047296437E+03  0.24719754161E+03  0.27784252301E+03  0.00000000000E+00 0. -1.
        -11    1    4    4    0    0  0.45691904932E+02 -0.74121226601E+02  0.12118249622E+03  0.14922098981E+03  0.00000000000E+00 0. -1.
         11    1    4    4    0    0 -0.16698316125E+02 -0.46145324708E+02  0.40356088838E+01  0.49239322628E+02  0.00000000000E+00 0.  1.
          2    1    1    2  501    0  0.33385580576E+02 -0.35209763401E+01  0.14641094707E+02  0.36624526195E+02  0.00000000000E+00 0. -1.
<scales pt_clust_5="13000.00000" pt_clust_6="13000.00000" pt_clust_7="13000.00000" pt_clust_8="13000.00000" pt_clust_9="33.57074"></scales>
<clustering>
<clus scale="   33.571">  2  9  1 -1</clus>
<clus scale="   91.664">  7  8 -1 -1</clus>
<clus scale="  108.106">  5  6 -1 -1</clus>
<clus scale="  160.166">  2  7  1 -1</clus>
<clus scale="   33.571">  2  5  1 -1</clus>
</clustering>
</event>
<event>
 9    1  0.1315259E-005  0.2727101E+03  0.7546771E-02  0.1138737E+00
          2   -1    0    0  502    0 -0.00000000000E+00  0.00000000000E+00  0.18289720744E+04  0.18289720744E+04  0.00000000000E+00 0. -1.
         21   -1    0    0  501  502  0.00000000000E+00 -0.00000000000E+00 -0.59310668267E+02  0.59310668267E+02  0.00000000000E+00 0. -1.
         23    2    1    2    0    0  0.32182611232E+02  0.25468695426E+02  0.25716907417E+03  0.27690274130E+03  0.94100055896E+02 0.  0.
         23    2    1    2    0    0 -0.15845131387E+02  0.23973803192E+03  0.10179775291E+04  0.10500009746E+04  0.92186792468E+02 0.  0.
        -13    1    3    3    0    0 -0.33344056017E+02  0.13164295615E+02  0.83134638632E+02  0.90534484542E+02  0.00000000000E+00 0. -1.
         13    1    3    3    0    0  0.65526667249E+02  0.12304399811E+02  0.17403443554E+03  0.18636825676E+03  0.00000000000E+00 0.  1.
        -13    1    4    4    0    0  0.31985094223E+02  0.62737162582E+02  0.21041810355E+03  0.22188910772E+03  0.00000000000E+00 0.  1.
         13    1    4    4    0    0 -0.47830225610E+02  0.17700086934E+03  0.80755942556E+03  0.82811186686E+03  0.00000000000E+00 0. -1.
          2    1    1    2  501    0 -0.16337479845E+02 -0.26520672734E+03  0.49451480287E+03  0.56137902680E+03  0.00000000000E+00 0. -1.
<scales pt_clust_5="13000.00000" pt_clust_6="13000.00000" pt_clust_7="13000.00000" pt_clust_8="13000.00000" pt_clust_9="256.65618"></scales>
<clustering>
<clus scale="   92.187">  7  8 -1 -1</clus>
<clus scale="   94.100">  5  6 -1 -1</clus>
<clus scale="  102.661">  1  5  2 -1</clus>
<clus scale="  256.656">  2  9  1 -1</clus>
<clus scale="  256.656">  2  5  1 -1</clus>
</clustering>
</event>
<event>
 9    1  0.1315259E-005  0.1523714E+03  0.7546771E-02  0.1198914E+00
         21   -1    0    0  501  502  0.00000000000E+00  0.00000000000E+00  0.37695821554E+03  0.37695821554E+03  0.00000000000E+00 0.  1.
          1   -1    0    0  502    0 -0.00000000000E+00 -0.00000000000E+00 -0.12233549257E+03  0.12233549257E+03  0.00000000000E+00 0. -1.
         23    2    1    2    0    0 -0.10443498852E+03  0.43229654786E+02 -0.31970859370E+02  0.15354646746E+03  0.98888381219E+02 0.  0.
         23    2    1    2    0    0  0.12836768133E+03 -0.27785572591E+02  0.26593276338E+03  0.31055970167E+03  0.92069506400E+02 0.  0.
        -11    1    3    3    0    0 -0.80352973076E+02  0.44906347136E+02  0.21808067468E+02  0.94597949777E+02  0.00000000000E+00 0.  1.
         11    1    3    3    0    0 -0.24082015445E+02 -0.16766923491E+01 -0.53778926838E+02  0.58948517683E+02  0.00000000000E+00 0. -1.
        -11    1    4    4    0    0  0.70985758791E+02 -0.23798828173E+02  0.23198872956E+03  0.24377065618E+03  0.00000000000E+00 0.  1.
         11    1    4    4    0    0  0.57381922537E+02 -0.39867444179E+01  0.33944033821E+02  0.66789045487E+02  0.00000000000E+00 0. -1.
          1    1    1    2  501    0 -0.23932692806E+02 -0.15444082195E+02  0.20660818964E+02  0.35187538989E+02  0.00000000000E+00 0. -1.
<scales pt_clust_5="13000.00000" pt_clust_6="13000.00000" pt_clust_7="13000.00000" pt_clust_8="13000.00000" pt_clust_9="28.48321"></scales>
<clustering>
<clus scale="   28.483">  1  9  2 -1</clus>
<clus scale="   92.070">  7  8 -1 -1</clus>
<clus scale="   98.888">  5  6 -1 -1</clus>
<clus scale="  148.037">  1  7  2 -1</clus>
<clus scale="   28.483">  1  5  2 -1</clus>
</clustering>
</event>
<event>
 9    1  0.1315259E-005  0.1662442E+03  0.7546771E-02  0.1200413E+00
         -4   -1    0    0    0  501 -0.00000000000E+00  0.00000000000E+00  0.59603850559E+02  0.59603850559E+02  0.00000000000E+00 0.  1.
         21   -1    0    0  501  502  0.00000000000E+00 -0.00000000000E+00 -0.87593740568E+03  0.87593740568E+03  0.00000000000E+00 0.  1.
         23    2    1    2    0    0  0.98102054508E+00  0.61652584106E+02 -0.25581944884E+03  0.27859662696E+03  0.91490363545E+02 0.  0.
         23    2    1    2    0    0  0.43767524619E+02  0.85755373516E+02 -0.85715110389E+02  0.15777970186E+03  0.90982272291E+02 0.  0.
        -11    1    3    3    0    0  0.26456773057E+02  0.60876140158E+02 -0.23903266337E+03  0.24807756738E+03  0.00000000000E+00 0.  1.
         11    1    3    3    0    0 -0.25475752512E+02  0.77644394792E+00 -0.16786785473E+02  0.30519059582E+02  0.00000000000E+00 0. -1.
        -13    1    4    4    0    0 -0.23868674984E+02  0.42293701762E+02 -0.15329598597E+02  0.50926097901E+02  0.00000000000E+00 0.  1.
         13    1    4    4    0    0  0.67636199604E+02  0.43461671754E+02 -0.70385511792E+02  0.10685360396E+03  0.00000000000E+00 0. -1.
         -4    1    1    2    0  502 -0.44748545164E+02 -0.14740795762E+03 -0.47479899589E+03  0.49916492742E+03  0.00000000000E+00 0.  1.
<scales pt_clust_5="13000.00000" pt_clust_6="13000.00000" pt_clust_7="13000.00000" pt_clust_8="13000.00000" pt_clust_9="139.13795"></scales>
<clustering>
<clus scale="   90.982">  7  8 -1 -1</clus>
<clus scale="   91.490">  5  6 -1 -1</clus>
<clus scale="  110.329">  1  5  2 -1</clus>
<clus scale="  139.138">  2  9  1 -1</clus>
<clus scale="  139.138">  2  5  1 -1</clus>
</clustering>
</event>
<event>
 9    1  0.1315259E-005  0.1870685E+03  0.7546771E-02  0.1174872E+00
         21   -1    0    0  501  502  0.00000000000E+00  0.00000000000E+00  0.14396595910E+03  0.14396595910E+03  0.00000000000E+00 0. -1.
          1   -1    0    0  502    0 -0.00000000000E+00 -0.00000000000E+00 -0.46670478775E+03  0.46670478775E+03  0.00000000000E+00 0. -1.
         23    2    1    2    0    0  0.92959655535E+02 -0.37294094168E+02 -0.12059080607E+03  0.18211407829E+03  0.92687906363E+02 0.  0.
         23    2    1    2    0    0  0.10245934228E+03  0.99996562532E+02 -0.66091174439E+02  0.18232171943E+03  0.91520143673E+02 0.  0.
        -11    1    3    3    0    0  0.78932095140E+02  0.15061273113E+02 -0.86586734796E+02  0.11812865966E+03  0.00000000000E+00 0. -1.
         11    1    3    3    0    0  0.14027560395E+02 -0.52355367281E+02 -0.34004071274E+02  0.63985418628E+02  0.00000000000E+00 0.  1.
        -13    1    4    4    0    0  0.11303367198E+03  0.63025744263E+02 -0.38597017780E+02  0.13505030627E+03  0.00000000000E+00 0. -1.
         13    1    4    4    0    0 -0.10574329698E+02  0.36970818269E+02 -0.27494156658E+02  0.47271413163E+02  0.00000000000E+00 0.  1.
          1    1    1    2  501    0 -0.19541899782E+03 -0.62702468364E+02 -0.13605684815E+03  0.24623494913E+03  0.00000000000E+00 0. -1.
<scales pt_clust_5="13000.00000" pt_clust_6="13000.00000" pt_clust_7="13000.00000" pt_clust_8="13000.00000" pt_clust_9="163.15244"></scales>
<clustering>
<clus scale="   91.520">  7  8 -1 -1</clus>
<clus scale="   92.688">  5  6 -1 -1</clus>
<clus scale="  136.468">  2  5  1 -1</clus>
<clus scale="  163.152">  1  9  2 -1</clus>
<clus scale="  163.152">  1  5  2 -1</clus>
</clustering>
</event>
<event>
 9    1  0.1315259E-005  0.9769291E+02  0.7546771E-02  0.1287632E+00
         21   -1    0    0  501  502  0.00000000000E+00  0.00000000000E+00  0.19039437683E+03  0.19039437683E+03  0.00000000000E+00 0. -1.
          2   -1    0    0  502    0 -0.00000000000E+00 -0.00000000000E+00 -0.83226898396E+02  0.83226898396E+02  0.00000000000E+00 0.  1.
         23    2    1    2    0    0 -0.95203102254E+01 -0.28117907874E+02  0.19044348587E+02  0.10092459948E+03  0.94561273871E+02 0.  0.
         23    2    1    2    0    0 -0.36572449627E+02  0.14342812388E+02  0.44976406294E+02  0.10807519697E+03  0.90078358876E+02 0.  0.
        -11    1    3    3    0    0  0.19874457465E+02  0.89643660907E+01 -0.27132958852E+02  0.34807346566E+02  0.00000000000E+00 0. -1.
         11    1    3    3    0    0 -0.29394767690E+02 -0.37082273965E+02  0.46177307438E+02  0.66117252909E+02  0.00000000000E+00 0.  1.
        -13    1    4    4    0    0 -0.59981219625E+02 -0.13868172249E+02  0.29852941285E+02  0.68419814474E+02  0.00000000000E+00 0.  1.
         13    1    4    4    0    0  0.23408769998E+02  0.28210984637E+02  0.15123465008E+02  0.39655382495E+02  0.00000000000E+00 0. -1.
          2    1    1    2  501    0  0.46092759853E+02  0.13775095487E+02  0.43146723554E+02  0.64621478782E+02  0.00000000000E+00 0.  1.
<scales pt_clust_5="13000.00000" pt_clust_6="13000.00000" pt_clust_7="13000.00000" pt_clust_8="13000.00000" pt_clust_9="48.10713"></scales>
<clustering>
<clus scale="   48.107">  1  9  2 -1</clus>
<clus scale="   90.078">  7  8 -1 -1</clus>
<clus scale="   93.360">  1  7  2 -1</clus>
<clus scale="   94.561">  5  6 -1 -1</clus>
<clus scale="   48.107">  1  5  2 -1</clus>
</clustering>
</event>
<event>
 9    1  0.1315259E-005  0.1148410E+03  0.7546771E-02  0.1252831E+00
         21   -1    0    0  501  502  0.00000000000E+00  0.00000000000E+00  0.34798294103E+02  0.34798294103E+02  0.00000000000E+00 0.  1.
          1   -1    0    0  502    0 -0.00000000000E+00 -0.00000000000E+00 -0.62964127725E+03  0.62964127725E+03  0.00000000000E+00 0. -1.
         23    2    1    2    0    0  0.42417031604E+02  0.17232448945E+01 -0.20326981978E+03  0.22696378421E+03  0.91606580379E+02 0.  0.
         23    2    1    2    0    0 -0.94623762073E+02 -0.28038222431E+02 -0.26716870727E+03  0.30001855944E+03  0.94298566261E+02 0.  0.
        -13    1    4    4    0    0  0.11160159847E+02  0.17942990779E+02 -0.43408196520E+02  0.48278065527E+02  0.00000000000E+00 0. -1.
         13    1    4    4    0    0 -0.10578392192E+03 -0.45981213209E+02 -0.22376051075E+03  0.25174049391E+03  0.00000000000E+00 0.  1.
        -13    1    3    3    0    0  0.63994791723E+02 -0.21534902892E+02 -0.15654577565E+03  0.17048655455E+03  0.00000000000E+00 0. -1.
         13    1    3    3    0    0 -0.21577760119E+02  0.23258147786E+02 -0.46724044130E+02  0.56477229660E+02  0.00000000000E+00 0.  1.
          1    1    1    2  501    0  0.52206730469E+02  0.26314977536E+02 -0.12440445610E+03  0.13745722770E+03  0.00000000000E+00 0. -1.
<scales pt_clust_5="13000.00000" pt_clust_6="13000.00000" pt_clust_7="13000.00000" pt_clust_8="13000.00000" pt_clust_9="58.46387"></scales>
<clustering>
<clus scale="   58.464">  1  9  2 -1</clus>
<clus scale="   91.607">  7  8 -1 -1</clus>
<clus scale="   94.299">  5  6 -1 -1</clus>
<clus scale="  112.641">  2  7  1 -1</clus>
<clus scale="   58.464">  1  5  2 -1</clus>
</clustering>
</event>
<event>
 9    1  0.1315259E-005  0.1454567E+03  0.7546771E-02  0.1224817E+00
         21   -1    0    0  501  502  0.00000000000E+00  0.00000000000E+00  0.18114897123E+03  0.18114897123E+03  0.00000000000E+00 0. -1.
          1   -1    0    0  502    0 -0.00000000000E+00 -0.00000000000E+00 -0.39937292346E+03  0.39937292346E+03  0.00000000000E+00 0. -1.
         23    2    1    2    0    0 -0.25737236481E+01 -0.36869669627E+02 -0.46139329046E+02  0.10835138985E+03  0.90803025306E+02 0.  0.
         23    2    1    2    0    0 -0.10737779631E+03  0.62702846081E+02 -0.27765969267E+03  0.31756524930E+03  0.91055722397E+02 0.  0.
        -11    1    4    4    0    0 -0.77711970505E+02  0.84571689049E+02 -0.23211499488E+03  0.25897662403E+03  0.00000000000E+00 0. -1.
         11    1    4    4    0    0 -0.29665825809E+02 -0.21868842967E+02 -0.45544697792E+02  0.58588625267E+02  0.00000000000E+00 0.  1.
        -13    1    3    3    0    0  0.10635285062E+02  0.21644828153E+02  0.10079679634E+02  0.26138244311E+02  0.00000000000E+00 0.  1.
         13    1    3    3    0    0 -0.13209008710E+02 -0.58514497781E+02 -0.56219008680E+02  0.82213145534E+02  0.00000000000E+00 0. -1.
          1    1    1    2  501    0  0.10995151996E+03 -0.25833176454E+02  0.10557506949E+03  0.15460525555E+03  0.00000000000E+00 0. -1.
<scales pt_clust_5="13000.00000" pt_clust_6="13000.00000" pt_clust_7="13000.00000" pt_clust_8="13000.00000" pt_clust_9="113.43060"></scales>
<clustering>
<clus scale="   90.803">  7  8 -1 -1</clus>
<clus scale="   91.056">  5  6 -1 -1</clus>
<clus scale="   98.037">  2  7  1 -1</clus>
<clus scale="  113.431">  1  9  2 -1</clus>
<clus scale="  113.431">  1  5  2 -1</clus>
</clustering>
</event>
<event>
 9    1  0.1315259E-005  0.1064406E+03  0.7546771E-02  0.1272955E+00
         21   -1    0    0  501  502  0.00000000000E+00  0.00000000000E+00  0.22568573228E+03  0.22568573228E+03  0.00000000000E+00 0. -1.
          1   -1    0    0  502    0 -0.00000000000E+00 -0.00000000000E+00 -0.11095876920E+03  0.11095876920E+03  0.00000000000E+00 0. -1.
         23    2    1    2    0    0  0.40052752558E+02 -0.69356545399E+02 -0.32113397312E+02  0.11465794341E+03  0.75502452431E+02 0.  0.
         23    2    1    2    0    0 -0.12898215979E+02  0.17532670032E+02  0.39607201025E+02  0.99830783008E+02  0.89015146852E+02 0.  0.
        -11    1    3    3    0    0  0.11999702137E+01 -0.64333775611E+02 -0.54768367037E+00  0.64347296526E+02  0.00000000000E+00 0. -1.
         11    1    3    3    0    0  0.38852782345E+02 -0.50227697883E+01 -0.31565713641E+02  0.50310646884E+02  0.00000000000E+00 0.  1.
        -11    1    4    4    0    0  0.31273595446E+02  0.31088015139E+02  0.10863953331E+02  0.45415062913E+02  0.00000000000E+00 0.  1.
         11    1    4    4    0    0 -0.44171811425E+02 -0.13555345106E+02  0.28743247694E+02  0.54415720096E+02  0.00000000000E+00 0. -1.
          1    1    1    2  501    0 -0.27154536579E+02  0.51823875367E+02  0.10723315937E+03  0.12215577507E+03  0.00000000000E+00 0. -1.
<scales pt_clust_5="13000.00000" pt_clust_6="13000.00000" pt_clust_7="13000.00000" pt_clust_8="13000.00000" pt_clust_9="58.50712"></scales>
<clustering>
<clus scale="   58.507">  1  9  2 -1</clus>
<clus scale="   75.502">  5  6 -1 -1</clus>
<clus scale="   89.015">  7  8 -1 -1</clus>
<clus scale="   95.428">  2  5  1 -1</clus>
<clus scale="   58.507">  1  5  2 -1</clus>
</clustering>
</event>
<event>
 9    1  0.1315259E-005  0.1512572E+03  0.7546771E-02  0.1199032E+00
         21   -1    0    0  501  502  0.00000000000E+00  0.00000000000E+00  0.68126572397E+03  0.68126572397E+03  0.00000000000E+00 0. -1.
          1   -1    0    0  502    0 -0.00000000000E+00 -0.00000000000E+00 -0.76102305250E+02  0.76102305250E+02  0.00000000000E+00 0. -1.
         23    2    1    2    0    0 -0.88980083033E+02 -0.88442592115E+02  0.80539227949E+02  0.17491593465E+03  0.91484805733E+02 0.  0.
         23    2    1    2    0    0  0.12458318711E+03  0.20862348023E+02  0.22744224856E+03  0.27561047877E+03  0.90966760419E+02 0.  0.
        -13    1    3    3    0    0 -0.55344661204E+02 -0.25619036298E+00  0.52920893829E+02  0.76574918616E+02  0.00000000000E+00 0.  1.
         13    1    3    3    0    0 -0.33635421829E+02 -0.88186401752E+02  0.27618334120E+02  0.98341016037E+02  0.00000000000E+00 0. -1.
        -13    1    4    4    0    0  0.64545970118E+02  0.52120055297E+02  0.15905017649E+03  0.17938684752E+03  0.00000000000E+00 0.  1.
         13    1    4    4    0    0  0.60037216990E+02 -0.31257707274E+02  0.68392072075E+02  0.96223631249E+02  0.00000000000E+00 0. -1.
          1    1    1    2  501    0 -0.35603104075E+02  0.67580244092E+02  0.29718194221E+03  0.30684161580E+03  0.00000000000E+00 0. -1.
<scales pt_clust_5="13000.00000" pt_clust_6="13000.00000" pt_clust_7="13000.00000" pt_clust_8="13000.00000" pt_clust_9="76.38501"></scales>
<clustering>
<clus scale="   76.385">  1  9  2 -1</clus>
<clus scale="   90.967">  7  8 -1 -1</clus>
<clus scale="   91.485">  5  6 -1 -1</clus>
<clus scale="  150.944">  1  7  2 -1</clus>
<clus scale="   76.385">  1  5  2 -1</clus>
</clustering>
</event>
<event>
 9    1  0.1315259E-005  0.9998865E+02  0.7546771E-02  0.1283317E+00
         -1   -1    0    0    0  501 -0.00000000000E+00  0.00000000000E+00  0.64845603403E+03  0.64845603403E+03  0.00000000000E+00 0.  1.
         21   -1    0    0  501  502  0.00000000000E+00 -0.00000000000E+00 -0.45980985730E+02  0.45980985730E+02  0.00000000000E+00 0.  1.
         23    2    1    2    0    0 -0.11725311222E+02 -0.47236211894E+02  0.44805838531E+03  0.45904319838E+03  0.87152731993E+02 0.  0.
         23    2    1    2    0    0  0.12743925612E+02  0.54888716647E+01  0.16706146290E+03  0.19176162047E+03  0.93115258411E+02 0.  0.
        -13    1    3    3    0    0  0.18905332991E+02 -0.62704515473E+02  0.29030645876E+03  0.29760226456E+03  0.00000000000E+00 0.  1.
         13    1    3    3    0    0 -0.30630644214E+02  0.15468303579E+02  0.15775192655E+03  0.16144093382E+03  0.00000000000E+00 0. -1.
        -13    1    4    4    0    0 -0.37880578655E+01 -0.35847309554E+02  0.12649850462E+03  0.13153421857E+03  0.00000000000E+00 0.  1.
         13    1    4    4    0    0  0.16531983477E+02  0.41336181219E+02  0.40562958278E+02  0.60227401901E+02  0.00000000000E+00 0. -1.
         -1    1    1    2    0  502 -0.10186143890E+01  0.41747340230E+02 -0.12644799907E+02  0.43632200909E+02  0.00000000000E+00 0.  1.
<scales pt_clust_5="13000.00000" pt_clust_6="13000.00000" pt_clust_7="13000.00000" pt_clust_8="13000.00000" pt_clust_9="41.75977"></scales>
<clustering>
<clus scale="   41.760">  2  9  1 -1</clus>
<clus scale="   87.153">  5  6 -1 -1</clus>
<clus scale="   93.115">  7  8 -1 -1</clus>
<clus scale="   94.461">  1  5  2 -1</clus>
<clus scale="   41.760">  2  5  1 -1</clus>
</clustering>
</event>
<event>
 9    1  0.1315259E-005  0.1203627E+03  0.7546771E-02  0.1245457E+00
         21   -1    0    0  501  502  0.00000000000E+00  0.00000000000E+00  0.56151464507E+02  0.56151464507E+02  0.00000000000E+00 0. -1.
          1   -1    0    0  502    0 -0.00000000000E+00 -0.00000000000E+00 -0.67981034204E+03  0.67981034204E+03  0.00000000000E+00 0. -1.
         23    2    1    2    0    0  0.85183716527E+02  0.76842080423E+00 -0.36554540876E+03  0.38639013242E+03  0.91744386911E+02 0.  0.
         23    2    1    2    0    0 -0.11560455335E+01 -0.56793416605E+02 -0.66634625021E+02  0.13309165831E+03  0.10023166989E+03 0.  0.
        -11    1    4    4    0    0 -0.26748318472E+02 -0.43741770935E+01 -0.69592038925E+02  0.74683718762E+02  0.00000000000E+00 0.  1.
         11    1    4    4    0    0  0.25592272938E+02 -0.52419239512E+02  0.29574139044E+01  0.58407939547E+02  0.00000000000E+00 0. -1.
        -13    1    3    3    0    0  0.47452395869E+02 -0.35646857007E+02 -0.10493154067E+03  0.12055312735E+03  0.00000000000E+00 0.  1.
         13    1    3    3    0    0  0.37731320658E+02  0.36415277811E+02 -0.26061386810E+03  0.26583700506E+03  0.00000000000E+00 0. -1.
          1    1    1    2  501    0 -0.84027670993E+02  0.56024995801E+02 -0.19147884375E+03  0.21648001583E+03  0.00000000000E+00 0. -1.
<scales pt_clust_5="13000.00000" pt_clust_6="13000.00000" pt_clust_7="13000.00000" pt_clust_8="13000.00000" pt_clust_9="100.99238"></scales>
<clustering>
<clus scale="   91.744">  7  8 -1 -1</clus>
<clus scale="  100.232">  5  6 -1 -1</clus>
<clus scale="  100.992">  1  9  2 -1</clus>
<clus scale="  113.392">  2  7  1 -1</clus>
<clus scale="  100.992">  1  5  2 -1</clus>
</clustering>
</event>
<event>
 9    1  0.1315259E-005  0.1389001E+03  0.7546771E-02  0.1218707E+00
          4   -1    0    0  502    0 -0.00000000000E+00  0.00000000000E+00  0.87138239268E+03  0.87138239268E+03  0.00000000000E+00 0.  1.
         21   -1    0    0  501  502  0.00000000000E+00 -0.00000000000E+00 -0.70439226501E+02  0.70439226501E+02  0.00000000000E+00 0.  1.
         23    2    1    2    0    0  0.51074586417E+02 -0.84648325551E+02  0.69159376622E+03  0.70451263595E+03  0.90896448471E+02 0.  0.
         23    2    1    2    0    0 -0.15913807947E+01  0.63676442102E+02  0.13041592743E+03  0.17958371914E+03  0.10575810267E+03 0.  0.
        -11    1    3    3    0    0  0.88781504411E+01 -0.90799829897E+02  0.44446193529E+03  0.45372882054E+03  0.00000000000E+00 0.  1.
         11    1    3    3    0    0  0.42196435976E+02  0.61515043462E+01  0.24713183092E+03  0.25078381541E+03  0.00000000000E+00 0. -1.
        -13    1    4    4    0    0 -0.35915048128E+02  0.78062924514E+02  0.96744756469E+02  0.12939574479E+03  0.00000000000E+00 0. -1.
         13    1    4    4    0    0  0.34323667333E+02 -0.14386482412E+02  0.33671170962E+02  0.50187974350E+02  0.00000000000E+00 0.  1.
          4    1    1    2  501    0 -0.49483205622E+02  0.20971883449E+02 -0.21066527474E+02  0.57725264086E+02  0.00000000000E+00 0.  1.
<scales pt_clust_5="13000.00000" pt_clust_6="13000.00000" pt_clust_7="13000.00000" pt_clust_8="13000.00000" pt_clust_9="53.74391"></scales>
<clustering>
<clus scale="   53.744">  2  9  1 -1</clus>
<clus scale="   90.896">  5  6 -1 -1</clus>
<clus scale="  105.758">  7  8 -1 -1</clus>
<clus scale="  127.948">  1  5  2 -1</clus>
<clus scale="   53.744">  2  5  1 -1</clus>
</clustering>
</event>
<event>
 9    1  0.1315259E-005  0.1597113E+03  0.7546771E-02  0.1202865E+00
          4   -1    0    0  502    0 -0.00000000000E+00  0.00000000000E+00  0.50353454577E+03  0.50353454577E+03  0.00000000000E+00 0. -1.
         21   -1    0    0  501  502  0.00000000000E+00 -0.00000000000E+00 -0.14938035640E+03  0.14938035640E+03  0.00000000000E+00 0. -1.
         23    2    1    2    0    0  0.46409102477E+02  0.57929688873E+02  0.21558709748E+03  0.24576483235E+03  0.91721876207E+02 0.  0.
         23    2    1    2    0    0  0.75219562886E+02 -0.11205880813E+03  0.20198172891E+03  0.25968851558E+03  0.91795137081E+02 0.  0.
        -11    1    4    4    0    0  0.60658397136E+02 -0.57707628556E+02  0.18137467614E+03  0.19976582461E+03  0.00000000000E+00 0. -1.
         11    1    4    4    0    0  0.14561165750E+02 -0.54351179578E+02  0.20607052764E+02  0.59922690971E+02  0.00000000000E+00 0.  1.
        -13    1    3    3    0    0  0.68720201988E+02  0.18374196178E+02  0.14971872065E+03  0.16575817494E+03  0.00000000000E+00 0. -1.
         13    1    3    3    0    0 -0.22311099511E+02  0.39555492696E+02  0.65868376828E+02  0.80006657409E+02  0.00000000000E+00 0.  1.
          4    1    1    2  501    0 -0.12162866536E+03  0.54129119261E+02 -0.63414637012E+02  0.14746155423E+03  0.00000000000E+00 0. -1.
<scales pt_clust_5="13000.00000" pt_clust_6="13000.00000" pt_clust_7="13000.00000" pt_clust_8="13000.00000" pt_clust_9="130.69564"></scales>
<clustering>
<clus scale="   91.722">  7  8 -1 -1</clus>
<clus scale="   91.795">  5  6 -1 -1</clus>
<clus scale="  117.994">  1  7  2 -1</clus>
<clus scale="  130.696">  2  9  1 -1</clus>
<clus scale="  130.696">  2  5  1 -1</clus>
</clustering>
</event>
<event>
 9    1  0.1315259E-005  0.9498724E+02  0.7546771E-02  0.1293785E+00
         21   -1    0    0  501  502  0.00000000000E+00  0.00000000000E+00  0.11182160237E+03  0.11182160237E+03  0.00000000000E+00 0. -1.
          2   -1    0    0  502    0 -0.00000000000E+00 -0.00000000000E+00 -0.34734875290E+03  0.34734875290E+03  0.00000000000E+00 0. -1.
         23    2    1    2    0    0 -0.63830760705E+01  0.23362973446E+02 -0.25298431114E+03  0.26845713391E+03  0.86496236209E+02 0.  0.
         23    2    1    2    0    0  0.56248287854E+02 -0.16636491212E+02 -0.38895635688E+02  0.11516573590E+03  0.91157191289E+02 0.  0.
        -11    1    3    3    0    0 -0.14087330824E+02  0.55192676310E+02 -0.15409355726E+03  0.16428484044E+03  0.00000000000E+00 0. -1.
         11    1    3    3    0    0  0.77042547536E+01 -0.31829702864E+02 -0.98890753874E+02  0.10417229347E+03  0.00000000000E+00 0.  1.
        -13    1    4    4    0    0  0.48180050109E+02 -0.52138131693E+02 -0.32994375404E+02  0.78283656106E+02  0.00000000000E+00 0. -1.
         13    1    4    4    0    0  0.80682377452E+01  0.35501640481E+02 -0.59012602836E+01  0.36882079796E+02  0.00000000000E+00 0.  1.
          2    1    1    2  501    0 -0.49865211784E+02 -0.67264822337E+01  0.56352796289E+02  0.75547485459E+02  0.00000000000E+00 0. -1.
<scales pt_clust_5="13000.00000" pt_clust_6="13000.00000" pt_clust_7="13000.00000" pt_clust_8="13000.00000" pt_clust_9="50.31685"></scales>
<clustering>
<clus scale="   50.317">  1  9  2 -1</clus>
<clus scale="   86.496">  5  6 -1 -1</clus>
<clus scale="   90.524">  2  5  1 -1</clus>
<clus scale="   91.157">  7  8 -1 -1</clus>
<clus scale="   50.317">  1  5  2 -1</clus>
</clustering>
</event>
<event>
 9    1  0.1315259E-005  0.1010031E+03  0.7546771E-02  0.1278583E+00
         21   -1    0    0  501  502  0.00000000000E+00  0.00000000000E+00  0.71395683363E+02  0.71395683363E+02  0.00000000000E+00 0.  1.
          2   -1    0    0  502    0 -0.00000000000E+00 -0.00000000000E+00 -0.26379399016E+03  0.26379399016E+03  0.00000000000E+00 0. -1.
         23    2    1    2    0    0 -0.34555288299E+02  0.37969637572E+02 -0.16425037691E+03  0.19464630987E+03  0.90957343328E+02 0.  0.
         23    2    1    2    0    0 -0.51594304082E+01 -0.25923602056E+02 -0.13065708385E+02  0.96386379389E+02  0.91765835312E+02 0.  0.
        -13    1    3    3    0    0 -0.58188768451E+01  0.27335997725E+02 -0.39560586594E+00  0.27951254057E+02  0.00000000000E+00 0.  1.
         13    1    3    3    0    0 -0.28736411454E+02  0.10633639847E+02 -0.16385477104E+03  0.16669505581E+03  0.00000000000E+00 0. -1.
        -13    1    4    4    0    0  0.32779771175E+02 -0.33163201737E+02 -0.28660306863E+02  0.54733212379E+02  0.00000000000E+00 0. -1.
         13    1    4    4    0    0 -0.37939201584E+02  0.72395996808E+01  0.15594598478E+02  0.41653167011E+02  0.00000000000E+00 0.  1.
          2    1    1    2  501    0  0.39714718707E+02 -0.12046035515E+02 -0.15082221502E+02  0.44156984262E+02  0.00000000000E+00 0. -1.
<scales pt_clust_5="13000.00000" pt_clust_6="13000.00000" pt_clust_7="13000.00000" pt_clust_8="13000.00000" pt_clust_9="41.50140"></scales>
<clustering>
<clus scale="   41.501">  1  9  2 -1</clus>
<clus scale="   90.957">  5  6 -1 -1</clus>
<clus scale="   91.766">  7  8 -1 -1</clus>
<clus scale="  100.269">  2  5  1 -1</clus>
<clus scale="   41.501">  1  5  2 -1</clus>
</clustering>
</event>
<event>
 9    1  0.1315259E-005  0.1303564E+03  0.7546771E-02  0.1227614E+00
         -1   -1    0    0    0  501 -0.00000000000E+00  0.00000000000E+00  0.13536886910E+04  0.13536886910E+04  0.00000000000E+00 0.  1.
         21   -1    0    0  501  502  0.00000000000E+00 -0.00000000000E+00 -0.28868841648E+02  0.28868841648E+02  0.00000000000E+00 0.  1.
         23    2    1    2    0    0 -0.36571509837E+02 -0.62853363749E+02  0.53613270389E+03  0.54892949353E+03  0.92721583372E+02 0.  0.
         23    2    1    2    0    0  0.98908955809E+02  0.57354216858E+02  0.73868222832E+03  0.75352379751E+03  0.95258549473E+02 0.  0.
        -11    1    4    4    0    0  0.95029057472E+02  0.80070643009E+01  0.56220608146E+03  0.57023706726E+03  0.00000000000E+00 0.  1.
         11    1    4    4    0    0  0.38798983374E+01  0.49347152557E+02  0.17647614686E+03  0.18328673026E+03  0.00000000000E+00 0. -1.
        -11    1    3    3    0    0 -0.60710270676E+02 -0.15371481148E+02  0.33850766800E+03  0.34425203077E+03  0.00000000000E+00 0. -1.
         11    1    3    3    0    0  0.24138760838E+02 -0.47481882601E+02  0.19762503589E+03  0.20467746276E+03  0.00000000000E+00 0.  1.
         -1    1    1    2    0  502 -0.62337445972E+02  0.54991468914E+01  0.50004917175E+02  0.80104241639E+02  0.00000000000E+00 0.  1.
<scales pt_clust_5="13000.00000" pt_clust_6="13000.00000" pt_clust_7="13000.00000" pt_clust_8="13000.00000" pt_clust_9="62.57953"></scales>
<clustering>
<clus scale="   62.580">  2  9  1 -1</clus>
<clus scale="   92.722">  7  8 -1 -1</clus>
<clus scale="   95.259">  5  6 -1 -1</clus>
<clus scale="  128.514">  1  7  2 -1</clus>
<clus scale="   62.580">  2  5  1 -1</clus>
</clustering>
</event>
<event>
 9    1  0.1315259E-005  0.1196662E+03  0.7546771E-02  0.1244152E+00
         -2   -1    0    0    0  501 -0.00000000000E+00  0.00000000000E+00  0.16713124061E+03  0.16713124061E+03  0.00000000000E+00 0.  1.
         21   -1    0    0  501  502  0.00000000000E+00 -0.00000000000E+00 -0.16573498430E+03  0.16573498430E+03  0.00000000000E+00 0.  1.
         23    2    1    2    0    0 -0.65078410352E+02 -0.70729267105E+02  0.44283637710E+02  0.13922122726E+03  0.90463698972E+02 0.  0.
         23    2    1    2    0    0  0.45293201708E+02  0.66127419614E+01 -0.66593090076E+02  0.12248079385E+03  0.92041853198E+02 0.  0.
        -11    1    4    4    0    0  0.31596949251E+02 -0.32159861777E+02 -0.10384321358E+01  0.45096588039E+02  0.00000000000E+00 0.  1.
         11    1    4    4    0    0  0.13696252457E+02  0.38772603738E+02 -0.65554657940E+02  0.77384205816E+02  0.00000000000E+00 0. -1.
        -13    1    3    3    0    0 -0.77631588214E+02 -0.46142511859E+02  0.59062528039E+02  0.10790818833E+03  0.00000000000E+00 0.  1.
         13    1    3    3    0    0  0.12553177862E+02 -0.24586755246E+02 -0.14778890329E+02  0.31313038934E+02  0.00000000000E+00 0. -1.
         -2    1    1    2    0  502  0.19785208644E+02  0.64116525143E+02  0.23705708680E+02  0.71164203794E+02  0.00000000000E+00 0.  1.
<scales pt_clust_5="13000.00000" pt_clust_6="13000.00000" pt_clust_7="13000.00000" pt_clust_8="13000.00000" pt_clust_9="67.09983"></scales>
<clustering>
<clus scale="   67.100">  2  9  1 -1</clus>
<clus scale="   90.464">  7  8 -1 -1</clus>
<clus scale="   92.042">  5  6 -1 -1</clus>
<clus scale="  118.457">  1  7  2 -1</clus>
<clus scale="   67.100">  2  5  1 -1</clus>
</clustering>
</event>
<event>
 9    1  0.1315259E-005  0.2195116E+03  0.7546771E-02  0.1157662E+00
          1   -1    0    0  502    0 -0.00000000000E+00  0.00000000000E+00  0.18992135814E+03  0.18992135814E+03  0.00000000000E+00 0. -1.
         21   -1    0    0  501  502  0.00000000000E+00 -0.00000000000E+00 -0.41096698143E+03  0.41096698143E+03  0.00000000000E+00 0. -1.
         23    2    1    2    0    0 -0.14732269913E+02 -0.84966821540E+02 -0.27830033282E+02  0.12857973385E+03  0.91224101341E+02 0.  0.
         23    2    1    2    0    0  0.12320686674E+03  0.21261741667E+03 -0.12360189370E+03  0.29090441805E+03  0.94667071512E+02 0.  0.
        -11    1    3    3    0    0 -0.39009909065E+02 -0.22514545175E+01 -0.49247144723E+01  0.39383941719E+02  0.00000000000E+00 0.  1.
         11    1    3    3    0    0  0.24277639152E+02 -0.82715367023E+02 -0.22905318810E+02  0.89195792133E+02  0.00000000000E+00 0. -1.
        -13    1    4    4    0    0 -0.89394815444E+01  0.32151916114E+02  0.36410287923E+01  0.33569586395E+02  0.00000000000E+00 0.  1.
         13    1    4    4    0    0  0.13214634828E+03  0.18046550056E+03 -0.12724292250E+03  0.25733483165E+03  0.00000000000E+00 0. -1.
          1    1    1    2  501    0 -0.10847459683E+03 -0.12765059513E+03 -0.69613696305E+02  0.18140418768E+03  0.00000000000E+00 0. -1.
<scales pt_clust_5="13000.00000" pt_clust_6="13000.00000" pt_clust_7="13000.00000" pt_clust_8="13000.00000" pt_clust_9="198.04921"></scales>
<clustering>
<clus scale="   91.224">  5  6 -1 -1</clus>
<clus scale="   94.667">  7  8 -1 -1</clus>
<clus scale="  125.532">  1  5  2 -1</clus>
<clus scale="  198.049">  2  9  1 -1</clus>
<clus scale="  198.049">  2  5  1 -1</clus>
</clustering>
</event>
<event>
 9    1  0.1315259E-005  0.1154154E+03  0.7546771E-02  0.1251112E+00
          2   -1    0    0  502    0 -0.00000000000E+00  0.00000000000E+00  0.24463796629E+03  0.24463796629E+03  0.00000000000E+00 0. -1.
         21   -1    0    0  501  502  0.00000000000E+00 -0.00000000000E+00 -0.12748301888E+03  0.12748301888E+03  0.00000000000E+00 0.  1.
         23    2    1    2    0    0 -0.64063579898E+02  0.39627709265E+02  0.17466666402E+03  0.21010166810E+03  0.89217542047E+02 0.  0.
         23    2    1    2    0    0  0.32543064930E+02 -0.51920234727E+02 -0.65788954382E+02  0.12718884605E+03  0.89966961662E+02 0.  0.
        -13    1    4    4    0    0  0.39515276173E+02  0.14209201149E+02 -0.30576975135E+02  0.51945258270E+02  0.00000000000E+00 0.  1.
         13    1    4    4    0    0 -0.69722112431E+01 -0.66129435876E+02 -0.35211979247E+02  0.75243587776E+02  0.00000000000E+00 0. -1.
        -13    1    3    3    0    0 -0.43329561852E+02 -0.43774722414E+01  0.14872800171E+03  0.15497300309E+03  0.00000000000E+00 0. -1.
         13    1    3    3    0    0 -0.20734018046E+02  0.44005181507E+02  0.25938662307E+02  0.55128665012E+02  0.00000000000E+00 0.  1.
          2    1    1    2  501    0  0.31520514968E+02  0.12292525461E+02  0.82772377752E+01  0.34830471017E+02  0.00000000000E+00 0. -1.
<scales pt_clust_5="13000.00000" pt_clust_6="13000.00000" pt_clust_7="13000.00000" pt_clust_8="13000.00000" pt_clust_9="33.83266"></scales>
<clustering>
<clus scale="   33.833">  2  9  1 -1</clus>
<clus scale="   89.218">  7  8 -1 -1</clus>
<clus scale="   89.967">  5  6 -1 -1</clus>
<clus scale="  114.832">  1  7  2 -1</clus>
<clus scale="   33.833">  2  5  1 -1</clus>
</clustering>
</event>
<event>
 9    1  0.1315259E-005  0.1283521E+03  0.7546771E-02  0.1230112E+00
         21   -1    0    0  501  502  0.00000000000E+00  0.00000000000E+00  0.19562524415E+03  0.19562524415E+03  0.00000000000E+00 0.  1.
         -1   -1    0    0    0  501 -0.00000000000E+00 -0.00000000000E+00 -0.58062675996E+03  0.58062675996E+03  0.00000000000E+00 0.  1.
         23    2    1    2    0    0 -0.74235930930E+02 -0.33612557807E+02 -0.30575944107E+03  0.32923248589E+03  0.90908836058E+02 0.  0.
         23    2    1    2    0    0  0.96103564482E+02  0.41708711364E+02 -0.24409657689E+03  0.28052402885E+03  0.90194679452E+02 0.  0.
        -11    1    4    4    0    0  0.45288506359E+02  0.57374403411E+02 -0.81613654345E+02  0.10956121371E+03  0.00000000000E+00 0.  1.
         11    1    4    4    0    0  0.50815058124E+02 -0.15665692047E+02 -0.16248292255E+03  0.17096281513E+03  0.00000000000E+00 0. -1.
        -13    1    3    3    0    0 -0.41215796536E+01  0.28261815155E+02 -0.69427266992E+02  0.75072385180E+02  0.00000000000E+00 0.  1.
         13    1    3    3    0    0 -0.70114351277E+02 -0.61874372962E+02 -0.23633217408E+03  0.25416010071E+03  0.00000000000E+00 0. -1.
         -1    1    1    2    0  502 -0.21867633552E+02 -0.80961535577E+01  0.16485450216E+03  0.16649548938E+03  0.00000000000E+00 0.  1.
<scales pt_clust_5="13000.00000" pt_clust_6="13000.00000" pt_clust_7="13000.00000" pt_clust_8="13000.00000" pt_clust_9="23.31826"></scales>
<clustering>
<clus scale="   23.318">  1  9  2 -1</clus>
<clus scale="   90.195">  5  6 -1 -1</clus>
<clus scale="   90.909">  7  8 -1 -1</clus>
<clus scale="  127.847">  1  5  2 -1</clus>
<clus scale="   23.318">  1  5  2 -1</clus>
</clustering>
</event>
<event>
 9    1  0.1315259E-005  0.9288426E+02  0.7546771E-02  0.1298973E+00
          1   -1    0    0  502    0 -0.00000000000E+00  0.00000000000E+00  0.36279310823E+03  0.36279310823E+03  0.00000000000E+00 0. -1.
         21   -1    0    0  501  502  0.00000000000E+00 -0.00000000000E+00 -0.54485766464E+02  0.54485766464E+02  0.00000000000E+00 0. -1.
         23    2    1    2    0    0 -0.31748039918E+02 -0.98313240678E+01  0.21522486528E+03  0.23445283173E+03  0.86843506937E+02 0.  0.
         23    2    1    2    0    0  0.33925135899E+02 -0.39930960390E+02  0.91050634056E+02  0.13297473321E+03  0.81527083023E+02 0.  0.
        -11    1    4    4    0    0  0.36567669203E+01  0.24443120067E+02  0.15339829821E+02  0.29088630801E+02  0.00000000000E+00 0.  1.
         11    1    4    4    0    0  0.30268368979E+02 -0.64374080457E+02  0.75710804236E+02  0.10388610241E+03  0.00000000000E+00 0. -1.
        -11    1    3    3    0    0 -0.38472371586E+02 -0.43803455789E+02  0.13888371870E+03  0.15062388069E+03  0.00000000000E+00 0. -1.
         11    1    3    3    0    0  0.67243316689E+01  0.33972131722E+02  0.76341146584E+02  0.83828951036E+02  0.00000000000E+00 0.  1.
          1    1    1    2  501    0 -0.21770959817E+01  0.49762284458E+02  0.20318424290E+01  0.49851309762E+02  0.00000000000E+00 0. -1.
<scales pt_clust_5="13000.00000" pt_clust_6="13000.00000" pt_clust_7="13000.00000" pt_clust_8="13000.00000" pt_clust_9="49.80989"></scales>
<clustering>
<clus scale="   49.810">  2  9  1 -1</clus>
<clus scale="   81.527">  5  6 -1 -1</clus>
<clus scale="   86.844">  7  8 -1 -1</clus>
<clus scale="   87.934">  2  5  1 -1</clus>
<clus scale="   49.810">  2  5  1 -1</clus>
</clustering>
</event>
<event>
 9    1  0.1315259E-005  0.1490839E+03  0.7546771E-02  0.1202868E+00
          1   -1    0    0  502    0 -0.00000000000E+00  0.00000000000E+00  0.49717229683E+03  0.49717229683E+03  0.00000000000E+00 0. -1.
         21   -1    0    0  501  502  0.00000000000E+00 -0.00000000000E+00 -0.12899530530E+03  0.12899530530E+03  0.00000000000E+00 0.  1.
         23    2    1    2    0    0  0.10522172070E+03 -0.52561159100E+02  0.39970316609E+03  0.42746748111E+03  0.95559094143E+02 0.  0.
         23    2    1    2    0    0 -0.97206803512E+02  0.32011521083E+02  0.25011128647E+02  0.13801245197E+03  0.89151445367E+02 0.  0.
        -11    1    3    3    0    0  0.69858060104E+02  0.17157670988E+02  0.22102586083E+03  0.23243701382E+03  0.00000000000E+00 0. -1.
         11    1    3    3    0    0  0.35363660599E+02 -0.69718830088E+02  0.17867730526E+03  0.19503046729E+03  0.00000000000E+00 0.  1.
        -11    1    4    4    0    0  0.10765085406E+02  0.22155704856E+02  0.15660340928E+02  0.29189186345E+02  0.00000000000E+00 0. -1.
         11    1    4    4    0    0 -0.10797188892E+03  0.98558162265E+01  0.93507877186E+01  0.10882326562E+03  0.00000000000E+00 0.  1.
          1    1    1    2  501    0 -0.80149171905E+01  0.20549638017E+02 -0.56537303204E+02  0.60687669042E+02  0.00000000000E+00 0. -1.
<scales pt_clust_5="13000.00000" pt_clust_6="13000.00000" pt_clust_7="13000.00000" pt_clust_8="13000.00000" pt_clust_9="22.05735"></scales>
<clustering>
<clus scale="   22.057">  2  9  1 -1</clus>
<clus scale="   89.151">  7  8 -1 -1</clus>
<clus scale="   95.559">  5  6 -1 -1</clus>
<clus scale="  145.060">  2  7  1 -1</clus>
<clus scale="   22.057">  2  5  1 -1</clus>
</clustering>
</event>
<event>
 9    1  0.1315259E-005  0.9499041E+02  0.7546771E-02  0.1292510E+00
          2   -1    0    0  502    0 -0.00000000000E+00  0.00000000000E+00  0.32346633034E+03  0.32346633034E+03  0.00000000000E+00 0. -1.
         21   -1    0    0  501  502  0.00000000000E+00 -0.00000000000E+00 -0.92881299279E+02  0.92881299279E+02  0.00000000000E+00 0.  1.
         23    2    1    2    0    0 -0.27062768299E+02  0.22762703388E+02  0.21521928615E+03  0.23435665073E+03  0.85750594856E+02 0.  0.
         23    2    1    2    0    0  0.39202566746E+02 -0.43645481008E+01  0.72457313434E+02  0.12079200813E+03  0.88231266787E+02 0.  0.
        -11    1    3    3    0    0  0.75460446710E+01  0.48543538018E+02  0.10269716341E+03  0.11384254585E+03  0.00000000000E+00 0.  1.
         11    1    3    3    0    0 -0.34608812970E+02 -0.25780834630E+02  0.11252212274E+03  0.12051410488E+03  0.00000000000E+00 0. -1.
        -13    1    4    4    0    0  0.41133440131E+02 -0.40298363055E+02  0.29330147657E+02  0.64623335750E+02  0.00000000000E+00 0.  1.
         13    1    4    4    0    0 -0.19308733853E+01  0.35933814954E+02  0.43127165776E+02  0.56168672381E+02  0.00000000000E+00 0. -1.
          2    1    1    2  501    0 -0.12139798447E+02 -0.18398155287E+02 -0.57091568526E+02  0.61198970751E+02  0.00000000000E+00 0. -1.
<scales pt_clust_5="13000.00000" pt_clust_6="13000.00000" pt_clust_7="13000.00000" pt_clust_8="13000.00000" pt_clust_9="22.04239"></scales>
<clustering>
<clus scale="   22.042">  2  9  1 -1</clus>
<clus scale="   85.751">  5  6 -1 -1</clus>
<clus scale="   88.231">  7  8 -1 -1</clus>
<clus scale="   92.691">  1  5  2 -1</clus>
<clus scale="   22.042">  2  5  1 -1</clus>
</clustering>
</event>
<event>
 9    1  0.1397384E-005  0.1579992E+03  0.7546771E-02  0.1191169E+00
         21   -1    0    0  501  502  0.00000000000E+00  0.00000000000E+00  0.36469897446E+03  0.36469897446E+03  0.00000000000E+00 0.  1.
          2   -1    0    0  502    0 -0.00000000000E+00 -0.00000000000E+00 -0.34832748033E+03  0.34832748033E+03  0.00000000000E+00 0. -1.
         23    2    1    2    0    0 -0.10468840005E+02 -0.15517484761E+03 -0.20765022253E+03  0.27569943185E+03  0.93288433727E+02 0.  0.
         23    2    1    2    0    0  0.38757512289E+02  0.87601485041E+02 -0.58679688061E+02  0.14528851085E+03  0.92137292411E+02 0.  0.
        -11    1    3    3    0    0  0.13109424373E+02 -0.61326625446E+02 -0.22206510021E+02  0.66527746717E+02  0.00000000000E+00 0.  1.
         11    1    3    3    0    0 -0.23578264378E+02 -0.93848222161E+02 -0.18544371251E+03  0.20917168514E+03  0.00000000000E+00 0. -1.
        -11    1    4    4    0    0  0.60824296819E+02  0.87546191544E+02 -0.61455767399E+02  0.12304772279E+03  0.00000000000E+00 0.  1.
         11    1    4    4    0    0 -0.22066784530E+02  0.55293497118E-01  0.27760793380E+01  0.22240788056E+02  0.00000000000E+00 0. -1.
          2    1    1    2  501    0 -0.28288672284E+02  0.67573362566E+02  0.28270140472E+03  0.29203851208E+03  0.00000000000E+00 0. -1.
<scales pt_clust_5="13000.00000" pt_clust_6="13000.00000" pt_clust_7="13000.00000" pt_clust_8="13000.00000" pt_clust_9="73.25577"></scales>
<clustering>
<clus scale="   73.256">  1  9  2 -1</clus>
<clus scale="   92.137">  7  8 -1 -1</clus>
<clus scale="   93.288">  5  6 -1 -1</clus>
<clus scale="  157.322">  1  7  2 -1</clus>
<clus scale="   73.256">  1  5  2 -1</clus>
</clustering>
</event>
<event>
 9    1  0.1315259E-005  0.1250516E+03  0.7546771E-02  0.1237070E+00
         21   -1    0    0  501  502  0.00000000000E+00  0.00000000000E+00  0.96601642277E+02  0.96601642277E+02  0.00000000000E+00 0.  1.
         -1   -1    0    0    0  501 -0.00000000000E+00 -0.00000000000E+00 -0.40050617359E+03  0.40050617359E+03  0.00000000000E+00 0.  1.
         23    2    1    2    0    0  0.32467157291E+01  0.89286601425E+02 -0.23347991846E+03  0.26549675946E+03  0.89403683389E+02 0.  0.
         23    2    1    2    0    0 -0.30416989157E+02 -0.81769561842E+02 -0.12320128025E+03  0.17177706721E+03  0.81959446620E+02 0.  0.
        -11    1    4    4    0    0 -0.27902995799E+02 -0.32428385479E+01 -0.73810097311E+02  0.78974829164E+02  0.00000000000E+00 0.  1.
         11    1    4    4    0    0 -0.25139933582E+01 -0.78526723294E+02 -0.49391182939E+02  0.92802238044E+02  0.00000000000E+00 0. -1.
        -13    1    3    3    0    0 -0.42003633316E+02  0.44773591354E+02 -0.94260925681E+02  0.11249045206E+03  0.00000000000E+00 0.  1.
         13    1    3    3    0    0  0.45250349045E+02  0.44513010072E+02 -0.13921899278E+03  0.15300630740E+03  0.00000000000E+00 0. -1.
         -1    1    1    2    0  502  0.27170273428E+02 -0.75170395834E+01  0.52776667395E+02  0.59833989199E+02  0.00000000000E+00 0.  1.
<scales pt_clust_5="13000.00000" pt_clust_6="13000.00000" pt_clust_7="13000.00000" pt_clust_8="13000.00000" pt_clust_9="28.19095"></scales>
<clustering>
<clus scale="   28.191">  1  9  2 -1</clus>
<clus scale="   81.959">  5  6 -1 -1</clus>
<clus scale="   89.404">  7  8 -1 -1</clus>
<clus scale="  119.843">  1  5  2 -1</clus>
<clus scale="   28.191">  1  5  2 -1</clus>
</clustering>
</event>
<event>
 9    1  0.1315259E-005  0.1160494E+03  0.7546771E-02  0.1250832E+00
         21   -1    0    0  501  502  0.00000000000E+00  0.00000000000E+00  0.81401121129E+02  0.81401121129E+02  0.00000000000E+00 0.  1.
          2   -1    0    0  502    0 -0.00000000000E+00 -0.00000000000E+00 -0.39944681679E+03  0.39944681679E+03  0.00000000000E+00 0. -1.
         23    2    1    2    0    0 -0.61225166366E+02  0.55102652894E+02 -0.23445294767E+03  0.26526243727E+03  0.92796296293E+02 0.  0.
         23    2    1    2    0    0  0.51311763173E+02 -0.21594040219E+02 -0.12354350016E+03  0.16250852555E+03  0.89704095957E+02 0.  0.
        -11    1    3    3    0    0 -0.73150805339E+02  0.12923769343E+02 -0.10522850756E+03  0.12880645535E+03  0.00000000000E+00 0.  1.
         11    1    3    3    0    0  0.11925638973E+02  0.42178883550E+02 -0.12922444010E+03  0.13645598192E+03  0.00000000000E+00 0. -1.
        -13    1    4    4    0    0  0.11177462254E+02 -0.34074968527E+02 -0.43530863957E+01  0.36124624617E+02  0.00000000000E+00 0.  1.
         13    1    4    4    0    0  0.40134300919E+02  0.12480928307E+02 -0.11919041376E+03  0.12638390093E+03  0.00000000000E+00 0. -1.
          2    1    1    2  501    0  0.99134031934E+01 -0.33508612674E+02  0.39950752169E+02  0.53076975094E+02  0.00000000000E+00 0. -1.
<scales pt_clust_5="13000.00000" pt_clust_6="13000.00000" pt_clust_7="13000.00000" pt_clust_8="13000.00000" pt_clust_9="34.94428"></scales>
<clustering>
<clus scale="   34.944">  1  9  2 -1</clus>
<clus scale="   89.704">  7  8 -1 -1</clus>
<clus scale="   92.796">  5  6 -1 -1</clus>
<clus scale="  113.592">  1  7  2 -1</clus>
<clus scale="   34.944">  1  5  2 -1</clus>
</clustering>
</event>
<event>
 9    1  0.1315259E-005  0.1372865E+03  0.7546771E-02  0.1219250E+00
         21   -1    0    0  501  502  0.00000000000E+00  0.00000000000E+00  0.25047771931E+03  0.25047771931E+03  0.00000000000E+00 0. -1.
          2   -1    0    0  502    0 -0.00000000000E+00 -0.00000000000E+00 -0.35392169204E+03  0.35392169204E+03  0.00000000000E+00 0. -1.
         23    2    1    2    0    0  0.64212322538E+02 -0.60592964310E+02 -0.26322168000E+03  0.29563342266E+03  0.10158118962E+03 0.  0.
         23    2    1    2    0    0 -0.12259729216E+03  0.34222620955E+02  0.25036642790E+02  0.15957029793E+03  0.92922347527E+02 0.  0.
        -11    1    4    4    0    0 -0.89195841636E+02  0.65691676012E+02  0.97659900161E+01  0.11120552605E+03  0.00000000000E+00 0. -1.
         11    1    4    4    0    0 -0.33401450520E+02 -0.31469055057E+02  0.15270652774E+02  0.48364771882E+02  0.00000000000E+00 0.  1.
        -11    1    3    3    0    0  0.22957886718E+02 -0.81846613615E+02 -0.13789614132E+03  0.16199160013E+03  0.00000000000E+00 0. -1.
         11    1    3    3    0    0  0.41254435821E+02  0.21253649305E+02 -0.12532553868E+03  0.13364182253E+03  0.00000000000E+00 0.  1.
          2    1    1    2  501    0  0.58384969618E+02  0.26370343355E+02  0.13474106448E+03  0.14919569077E+03  0.00000000000E+00 0. -1.
<scales pt_clust_5="13000.00000" pt_clust_6="13000.00000" pt_clust_7="13000.00000" pt_clust_8="13000.00000" pt_clust_9="64.06403"></scales>
<clustering>
<clus scale="   64.064">  1  9  2 -1</clus>
<clus scale="   92.922">  5  6 -1 -1</clus>
<clus scale="  101.581">  7  8 -1 -1</clus>
<clus scale="  131.009">  1  5  2 -1</clus>
<clus scale="   64.064">  1  5  2 -1</clus>
</clustering>
</event>
<event>
 9    1  0.1315259E-005  0.1166473E+03  0.7546771E-02  0.1248750E+00
         21   -1    0    0  501  502  0.00000000000E+00  0.00000000000E+00  0.14752120376E+03  0.14752120376E+03  0.00000000000E+00 0.  1.
          3   -1    0    0  502    0 -0.00000000000E+00 -0.00000000000E+00 -0.21580695336E+03  0.21580695336E+03  0.00000000000E+00 0. -1.
         23    2    1    2    0    0 -0.55988958160E+02 -0.16692587798E+02 -0.40159679412E+02  0.11578105267E+03  0.91537131173E+02 0.  0.
         23    2    1    2    0    0  0.86978157153E+02 -0.68140672962E+02 -0.54409954776E+02  0.15348406615E+03  0.91589105524E+02 0.  0.
        -11    1    3    3    0    0  0.65219066003E+01  0.28395576217E+02 -0.58728199223E+00  0.29140846154E+02  0.00000000000E+00 0.  1.
         11    1    3    3    0    0 -0.62510864761E+02 -0.45088164016E+02 -0.39572397420E+02  0.86640206515E+02  0.00000000000E+00 0. -1.
        -13    1    4    4    0    0  0.61629766064E+02 -0.88832119968E+02 -0.53785279681E+02  0.12075690421E+03  0.00000000000E+00 0.  1.
         13    1    4    4    0    0  0.25348391089E+02  0.20691447007E+02 -0.62467509449E+00  0.32727161946E+02  0.00000000000E+00 0. -1.
          3    1    1    2  501    0 -0.30989198993E+02  0.84833260760E+02  0.26283884588E+02  0.94063038301E+02  0.00000000000E+00 0. -1.
<scales pt_clust_5="13000.00000" pt_clust_6="13000.00000" pt_clust_7="13000.00000" pt_clust_8="13000.00000" pt_clust_9="90.31618"></scales>
<clustering>
<clus scale="   90.316">  1  9  2 -1</clus>
<clus scale="   91.537">  5  6 -1 -1</clus>
<clus scale="   91.589">  7  8 -1 -1</clus>
<clus scale="  116.606">  2  5  1 -1</clus>
<clus scale="   90.316">  1  5  2 -1</clus>
</clustering>
</event>
<event>
 9    1  0.1315259E-005  0.1332159E+03  0.7546771E-02  0.1229174E+00
         -3   -1    0    0    0  501 -0.00000000000E+00  0.00000000000E+00  0.13583894805E+03  0.13583894805E+03  0.00000000000E+00 0.  1.
         21   -1    0    0  501  502  0.00000000000E+00 -0.00000000000E+00 -0.20576640942E+03  0.20576640942E+03  0.00000000000E+00 0.  1.
         23    2    1    2    0    0  0.68323398912E+02  0.46521059227E+02  0.35998914189E+02  0.12717635028E+03  0.89697304631E+02 0.  0.
         23    2    1    2    0    0 -0.28987301205E+02 -0.58488383831E+02 -0.35905103092E+02  0.13322848972E+03  0.11045134390E+03 0.  0.
        -11    1    4    4    0    0 -0.70901167154E+02 -0.27132620888E+02 -0.19634367181E+02  0.78413410809E+02  0.00000000000E+00 0.  1.
         11    1    4    4    0    0  0.41913865950E+02 -0.31355762943E+02 -0.16270735911E+02  0.54815078908E+02  0.00000000000E+00 0. -1.
        -13    1    3    3    0    0  0.42117287209E+02  0.46533266746E+02  0.63434161147E+02  0.89236223566E+02  0.00000000000E+00 0.  1.
         13    1    3    3    0    0  0.26206111703E+02 -0.12207519159E-01 -0.27435246959E+02  0.37940126717E+02  0.00000000000E+00 0. -1.
         -3    1    1    2    0  502 -0.39336097707E+02  0.11967324604E+02 -0.70021272464E+02  0.81200517476E+02  0.00000000000E+00 0.  1.
<scales pt_clust_5="13000.00000" pt_clust_6="13000.00000" pt_clust_7="13000.00000" pt_clust_8="13000.00000" pt_clust_9="41.11624"></scales>
<clustering>
<clus scale="   41.116">  2  9  1 -1</clus>
<clus scale="   89.697">  7  8 -1 -1</clus>
<clus scale="  110.451">  5  6 -1 -1</clus>
<clus scale="  116.587">  1  7  2 -1</clus>
<clus scale="   41.116">  2  5  1 -1</clus>
</clustering>
</event>
<event>
 9    1  0.1315259E-005  0.1408211E+03  0.7546771E-02  0.1216188E+00
         21   -1    0    0  501  502  0.00000000000E+00  0.00000000000E+00  0.47451692846E+02  0.47451692846E+02  0.00000000000E+00 0.  1.
         -1   -1    0    0    0  501 -0.00000000000E+00 -0.00000000000E+00 -0.57438193474E+03  0.57438193474E+03  0.00000000000E+00 0.  1.
         23    2    1    2    0    0 -0.76532542383E+02  0.64910808846E+02 -0.35648805463E+03  0.37784138758E+03  0.74898183723E+02 0.  0.
         23    2    1    2    0    0  0.89068023144E+02 -0.81931659329E+02 -0.15654520619E+03  0.21869453829E+03  0.93139626097E+02 0.  0.
        -11    1    3    3    0    0 -0.50283509013E+02  0.78333268857E+02 -0.30019682219E+03  0.31429709567E+03  0.00000000000E+00 0.  1.
         11    1    3    3    0    0 -0.26249033371E+02 -0.13422460010E+02 -0.56291232437E+02  0.63544291914E+02  0.00000000000E+00 0. -1.
        -11    1    4    4    0    0  0.55721414541E+02 -0.98707923539E+02 -0.13214290742E+03  0.17409732390E+03  0.00000000000E+00 0.  1.
         11    1    4    4    0    0  0.33346608604E+02  0.16776264209E+02 -0.24402298776E+02  0.44597214394E+02  0.00000000000E+00 0. -1.
         -1    1    1    2    0  502 -0.12535480761E+02  0.17020850483E+02 -0.13896981068E+02  0.25297701712E+02  0.00000000000E+00 0.  1.
<scales pt_clust_5="13000.00000" pt_clust_6="13000.00000" pt_clust_7="13000.00000" pt_clust_8="13000.00000" pt_clust_9="21.13877"></scales>
<clustering>
<clus scale="   21.139">  1  9  2 -1</clus>
<clus scale="   74.898">  5  6 -1 -1</clus>
<clus scale="   93.140">  7  8 -1 -1</clus>
<clus scale="  129.481">  2  5  1 -1</clus>
<clus scale="   21.139">  1  5  2 -1</clus>
</clustering>
</event>
<event>
 9    1  0.1315259E-005  0.1677133E+03  0.7546771E-02  0.1201479E+00
          2   -1    0    0  502    0 -0.00000000000E+00  0.00000000000E+00  0.17765754540E+03  0.17765754540E+03  0.00000000000E+00 0. -1.
         21   -1    0    0  501  502  0.00000000000E+00 -0.00000000000E+00 -0.38786464844E+03  0.38786464844E+03  0.00000000000E+00 0.  1.
         23    2    1    2    0    0 -0.36901476557E+02  0.13015904938E+02  0.75100433426E+02  0.12909331226E+03  0.97436519935E+02 0.  0.
         23    2    1    2    0    0 -0.66393504431E+02 -0.12128959196E+03 -0.21498117303E+03  0.27108426632E+03  0.90280186855E+02 0.  0.
        -11    1    3    3    0    0 -0.66348701765E+01 -0.40216349708E+02  0.15400353934E+02  0.43572321345E+02  0.00000000000E+00 0.  1.
         11    1    3    3    0    0 -0.30266606381E+02  0.53232254645E+02  0.59700079492E+02  0.85520990919E+02  0.00000000000E+00 0. -1.
        -13    1    4    4    0    0 -0.82655469336E+02 -0.74269015010E+02 -0.11800206732E+03  0.16208732552E+03  0.00000000000E+00 0.  1.
         13    1    4    4    0    0  0.16261964904E+02 -0.47020576953E+02 -0.96979105710E+02  0.10899694080E+03  0.00000000000E+00 0. -1.
          2    1    1    2  501    0  0.10329498099E+03  0.10827368703E+03 -0.70326363441E+02  0.16534461526E+03  0.00000000000E+00 0. -1.
<scales pt_clust_5="13000.00000" pt_clust_6="13000.00000" pt_clust_7="13000.00000" pt_clust_8="13000.00000" pt_clust_9="141.34093"></scales>
<clustering>
<clus scale="   90.280">  7  8 -1 -1</clus>
<clus scale="   97.437">  5  6 -1 -1</clus>
<clus scale="  105.000">  1  5  2 -1</clus>
<clus scale="  141.341">  2  9  1 -1</clus>
<clus scale="  141.341">  2  5  1 -1</clus>
</clustering>
</event>
<event>
 9    1  0.1315259E-005  0.1677231E+03  0.7546771E-02  0.1180411E+00
         21   -1    0    0  501  502  0.00000000000E+00  0.00000000000E+00  0.43072267210E+03  0.43072267210E+03  0.00000000000E+00 0.  1.
         -4   -1    0    0    0  501 -0.00000000000E+00 -0.00000000000E+00 -0.43657831139E+03  0.43657831139E+03  0.00000000000E+00 0.  1.
         23    2    1    2    0    0 -0.57295616515E+02 -0.13847085788E+03 -0.34442636408E+03  0.38632922623E+03  0.90353664070E+02 0.  0.
         23    2    1    2    0    0  0.23772954748E+02  0.10685480255E+03  0.34763453151E+01  0.14272393842E+03  0.91514673219E+02 0.  0.
        -11    1    4    4    0    0 -0.90283129912E+01  0.84525674017E+02  0.35115667685E+02  0.91973964362E+02  0.00000000000E+00 0. -1.
         11    1    4    4    0    0  0.32801267739E+02  0.22329128535E+02 -0.31639322370E+02  0.50749974054E+02  0.00000000000E+00 0.  1.
        -11    1    3    3    0    0 -0.79756514916E+01 -0.37787729512E+02 -0.20868402224E+02  0.43897764519E+02  0.00000000000E+00 0. -1.
         11    1    3    3    0    0 -0.49319965024E+02 -0.10068312837E+03 -0.32355796185E+03  0.34243146171E+03  0.00000000000E+00 0.  1.
         -4    1    1    2    0  502  0.33522661767E+02  0.31616055329E+02  0.33509437947E+03  0.33824781885E+03  0.00000000000E+00 0.  1.
<scales pt_clust_5="13000.00000" pt_clust_6="13000.00000" pt_clust_7="13000.00000" pt_clust_8="13000.00000" pt_clust_9="46.07975"></scales>
<clustering>
<clus scale="   46.080">  1  9  2 -1</clus>
<clus scale="   90.354">  7  8 -1 -1</clus>
<clus scale="   91.515">  5  6 -1 -1</clus>
<clus scale="  167.092">  2  7  1 -1</clus>
<clus scale="   46.080">  1  5  2 -1</clus>
</clustering>
</event>
<event>
 9    1  0.1315259E-005  0.9598390E+02  0.7546771E-02  0.1290189E+00
         -3   -1    0    0    0  501 -0.00000000000E+00  0.00000000000E+00  0.33821724879E+03  0.33821724879E+03  0.00000000000E+00 0.  1.
         21   -1    0    0  501  502  0.00000000000E+00 -0.00000000000E+00 -0.72912076903E+02  0.72912076903E+02  0.00000000000E+00 0. -1.
         23    2    1    2    0    0  0.85280970589E+01 -0.35125538697E+01  0.20060324753E+03  0.22171336234E+03  0.93968535417E+02 0.  0.
         23    2    1    2    0    0 -0.19882284560E+02  0.39887116471E+02  0.96018209231E+02  0.14009318894E+03  0.91762289553E+02 0.  0.
        -13    1    3    3    0    0 -0.31197606455E+02  0.26554763445E+02  0.60951297441E+02  0.73440498159E+02  0.00000000000E+00 0. -1.
         13    1    3    3    0    0  0.39725703514E+02 -0.30067317314E+02  0.13965195008E+03  0.14827286418E+03  0.00000000000E+00 0.  1.
        -13    1    4    4    0    0 -0.36617797233E+02 -0.24582396068E+01  0.85954722167E+02  0.93461865373E+02  0.00000000000E+00 0.  1.
         13    1    4    4    0    0  0.16735512673E+02  0.42345356078E+02  0.10063487064E+02  0.46631323568E+02  0.00000000000E+00 0. -1.
         -3    1    1    2    0  502  0.11354187501E+02 -0.36374562601E+02 -0.31316284865E+02  0.49322774415E+02  0.00000000000E+00 0.  1.
<scales pt_clust_5="13000.00000" pt_clust_6="13000.00000" pt_clust_7="13000.00000" pt_clust_8="13000.00000" pt_clust_9="38.10546"></scales>
<clustering>
<clus scale="   38.105">  2  9  1 -1</clus>
<clus scale="   91.762">  7  8 -1 -1</clus>
<clus scale="   93.825">  2  7  1 -1</clus>
<clus scale="   93.969">  5  6 -1 -1</clus>
<clus scale="   38.105">  2  5  1 -1</clus>
</clustering>
</event>
<event>
 9    1  0.1315259E-005  0.1011577E+03  0.7546771E-02  0.1280263E+00
          1   -1    0    0  502    0 -0.00000000000E+00  0.00000000000E+00  0.14776041639E+03  0.14776041639E+03  0.00000000000E+00 0. -1.
         21   -1    0    0  501  502  0.00000000000E+00 -0.00000000000E+00 -0.88363966671E+02  0.88363966671E+02  0.00000000000E+00 0.  1.
         23    2    1    2    0    0  0.34794555942E+02 -0.14519578081E+02  0.28441593805E+02  0.10131213244E+03  0.89631158925E+02 0.  0.
         23    2    1    2    0    0 -0.57186340003E+02  0.14816253642E+02  0.91098630891E+01  0.10352832949E+03  0.84530033402E+02 0.  0.
        -11    1    3    3    0    0 -0.15770102198E+01 -0.45560418755E+02  0.27987597659E+02  0.53493404650E+02  0.00000000000E+00 0. -1.
         11    1    3    3    0    0  0.36371566162E+02  0.31040840674E+02  0.45399614590E+00  0.47818727789E+02  0.00000000000E+00 0.  1.
        -11    1    4    4    0    0 -0.61366568485E+02 -0.22647712794E+02  0.67088922419E+01  0.65755485380E+02  0.00000000000E+00 0. -1.
         11    1    4    4    0    0  0.41802284823E+01  0.37463966436E+02  0.24009708472E+01  0.37772844112E+02  0.00000000000E+00 0.  1.
          1    1    1    2  501    0  0.22391784061E+02 -0.29667556092E+00  0.21844992826E+02  0.31283921132E+02  0.00000000000E+00 0. -1.
<scales pt_clust_5="13000.00000" pt_clust_6="13000.00000" pt_clust_7="13000.00000" pt_clust_8="13000.00000" pt_clust_9="22.39376"></scales>
<clustering>
<clus scale="   22.394">  2  9  1 -1</clus>
<clus scale="   84.530">  7  8 -1 -1</clus>
<clus scale="   89.631">  5  6 -1 -1</clus>
<clus scale="   96.667">  2  7  1 -1</clus>
<clus scale="   22.394">  2  5  1 -1</clus>
</clustering>
</event>
<event>
 9    1  0.1315259E-005  0.9987639E+02  0.7546771E-02  0.1281279E+00
          3   -1    0    0  502    0 -0.00000000000E+00  0.00000000000E+00  0.50361997154E+03  0.50361997154E+03  0.00000000000E+00 0. -1.
         21   -1    0    0  501  502  0.00000000000E+00 -0.00000000000E+00 -0.34130746458E+02  0.34130746458E+02  0.00000000000E+00 0.  1.
         23    2    1    2    0    0  0.68257231169E-01  0.45637492449E+01  0.22823157640E+03  0.24905041643E+03  0.99577231276E+02 0.  0.
         23    2    1    2    0    0  0.20716851942E+02  0.21675499994E+02  0.99285738575E+02  0.14283549354E+03  0.98210514079E+02 0.  0.
        -11    1    3    3    0    0 -0.46156090163E+02  0.55356707815E+01  0.16009979022E+03  0.16671224052E+03  0.00000000000E+00 0. -1.
         11    1    3    3    0    0  0.46224347394E+02 -0.97192153662E+00  0.68131786187E+02  0.82338175912E+02  0.00000000000E+00 0.  1.
        -11    1    4    4    0    0  0.42624806841E+02  0.39494322215E+02  0.24806949518E+02  0.63182753896E+02  0.00000000000E+00 0.  1.
         11    1    4    4    0    0 -0.21907954899E+02 -0.17818822221E+02  0.74478789057E+02  0.79652739643E+02  0.00000000000E+00 0. -1.
          3    1    1    2  501    0 -0.20785109173E+02 -0.26239249239E+02  0.14197191011E+03  0.14586480804E+03  0.00000000000E+00 0. -1.
<scales pt_clust_5="13000.00000" pt_clust_6="13000.00000" pt_clust_7="13000.00000" pt_clust_8="13000.00000" pt_clust_9="33.47417"></scales>
<clustering>
<clus scale="   33.474">  2  9  1 -1</clus>
<clus scale="   98.211">  7  8 -1 -1</clus>
<clus scale="   98.514">  2  7  1 -1</clus>
<clus scale="   99.577">  5  6 -1 -1</clus>
<clus scale="   33.474">  2  5  1 -1</clus>
</clustering>
</event>
<event>
 9    1  0.1315259E-005  0.9425983E+02  0.7546771E-02  0.1292885E+00
         21   -1    0    0  501  502  0.00000000000E+00  0.00000000000E+00  0.69558110738E+02  0.69558110738E+02  0.00000000000E+00 0.  1.
          3   -1    0    0  502    0 -0.00000000000E+00 -0.00000000000E+00 -0.23115171098E+03  0.23115171098E+03  0.00000000000E+00 0. -1.
         23    2    1    2    0    0 -0.64142114729E+01  0.24889937163E+02 -0.14406585274E+03  0.17282106097E+03  0.91932029822E+02 0.  0.
         23    2    1    2    0    0 -0.15095529572E+02 -0.11260575445E+02 -0.31388410721E+02  0.98896581711E+02  0.91872879427E+02 0.  0.
        -11    1    3    3    0    0  0.16150991585E+02  0.51970713309E+02 -0.11464475754E+03  0.12690638283E+03  0.00000000000E+00 0. -1.
         11    1    3    3    0    0 -0.22565203058E+02 -0.27080776146E+02 -0.29421095197E+02  0.45914678136E+02  0.00000000000E+00 0.  1.
        -13    1    4    4    0    0 -0.20979512384E+02  0.17022124473E+02  0.24186909074E+02  0.36261539294E+02  0.00000000000E+00 0.  1.
         13    1    4    4    0    0  0.58839828115E+01 -0.28282699918E+02 -0.55575319794E+02  0.62635042417E+02  0.00000000000E+00 0. -1.
          3    1    1    2  501    0  0.21509741045E+02 -0.13629361718E+02  0.13860663218E+02  0.28992179041E+02  0.00000000000E+00 0. -1.
<scales pt_clust_5="13000.00000" pt_clust_6="13000.00000" pt_clust_7="13000.00000" pt_clust_8="13000.00000" pt_clust_9="25.46426"></scales>
<clustering>
<clus scale="   25.464">  1  9  2 -1</clus>
<clus scale="   91.873">  7  8 -1 -1</clus>
<clus scale="   91.932">  5  6 -1 -1</clus>
<clus scale="   94.202">  1  7  2 -1</clus>
<clus scale="   25.464">  1  5  2 -1</clus>
</clustering>
</event>
<event>
 9    1  0.1315259E-005  0.1702320E+03  0.7546771E-02  0.1177960E+00
          1   -1    0    0  502    0 -0.00000000000E+00  0.00000000000E+00  0.46723337804E+03  0.46723337804E+03  0.00000000000E+00 0. -1.
         21   -1    0    0  501  502  0.00000000000E+00 -0.00000000000E+00 -0.94983767028E+02  0.94983767028E+02  0.00000000000E+00 0. -1.
         23    2    1    2    0    0  0.11215658370E+03  0.79363602034E+02  0.19615884566E+03  0.25676844787E+03  0.92596233713E+02 0.  0.
         23    2    1    2    0    0 -0.15167881325E+03 -0.36115237552E+02  0.16806455528E+03  0.24631454710E+03  0.90079901209E+02 0.  0.
        -11    1    4    4    0    0 -0.64378110284E+02  0.14812972274E+02  0.11383682836E+03  0.13161606559E+03  0.00000000000E+00 0.  1.
         11    1    4    4    0    0 -0.87300702962E+02 -0.50928209825E+02  0.54227726922E+02  0.11469848151E+03  0.00000000000E+00 0. -1.
        -13    1    3    3    0    0  0.22450941453E+02 -0.20943262692E+02  0.43822156384E+02  0.53507442608E+02  0.00000000000E+00 0.  1.
         13    1    3    3    0    0  0.89705642242E+02  0.10030686473E+03  0.15233668928E+03  0.20326100526E+03  0.00000000000E+00 0. -1.
          1    1    1    2  501    0  0.39522229550E+02 -0.43248364483E+02  0.80262100714E+01  0.59134150093E+02  0.00000000000E+00 0. -1.
<scales pt_clust_5="13000.00000" pt_clust_6="13000.00000" pt_clust_7="13000.00000" pt_clust_8="13000.00000" pt_clust_9="58.58692"></scales>
<clustering>
<clus scale="   58.587">  2  9  1 -1</clus>
<clus scale="   90.080">  5  6 -1 -1</clus>
<clus scale="   92.596">  7  8 -1 -1</clus>
<clus scale="  168.876">  2  5  1 -1</clus>
<clus scale="   58.587">  2  5  1 -1</clus>
</clustering>
</event>
<event>
 9    1  0.1315259E-005  0.1139797E+03  0.7546771E-02  0.1255166E+00
         21   -1    0    0  501  502  0.00000000000E+00  0.00000000000E+00  0.28230512014E+02  0.28230512014E+02  0.00000000000E+00 0. -1.
          2   -1    0    0  502    0 -0.00000000000E+00 -0.00000000000E+00 -0.60479781461E+03  0.60479781461E+03  0.00000000000E+00 0. -1.
         23    2    1    2    0    0 -0.15608051332E+02 -0.57630563846E+02 -0.33240888318E+03  0.34895765139E+03  0.87811637570E+02 0.  0.
         23    2    1    2    0    0  0.20029001580E+02  0.77916868368E+02 -0.19166051225E+03  0.22761618729E+03  0.92753315191E+02 0.  0.
        -11    1    4    4    0    0  0.32216771213E+02 -0.10205808264E+02 -0.54861008669E+02  0.64434533768E+02  0.00000000000E+00 0. -1.
         11    1    4    4    0    0 -0.12187769633E+02  0.88122676632E+02 -0.13679950358E+03  0.16318165352E+03  0.00000000000E+00 0.  1.
        -11    1    3    3    0    0 -0.35682997874E+02  0.80973011482E+01 -0.13758845096E+03  0.14237072894E+03  0.00000000000E+00 0. -1.
         11    1    3    3    0    0  0.20074946542E+02 -0.65727864994E+02 -0.19482043222E+03  0.20658692245E+03  0.00000000000E+00 0.  1.
          2    1    1    2  501    0 -0.44209502483E+01 -0.20286304522E+02 -0.52497907159E+02  0.56454487938E+02  0.00000000000E+00 0. -1.
<scales pt_clust_5="13000.00000" pt_clust_6="13000.00000" pt_clust_7="13000.00000" pt_clust_8="13000.00000" pt_clust_9="20.76245"></scales>
<clustering>
<clus scale="   20.762">  1  9  2 -1</clus>
<clus scale="   87.812">  7  8 -1 -1</clus>
<clus scale="   92.753">  5  6 -1 -1</clus>
<clus scale="  109.996">  2  7  1 -1</clus>
<clus scale="   20.762">  1  5  2 -1</clus>
</clustering>
</event>
<event>
 9    1  0.1315259E-005  0.1029772E+03  0.7546771E-02  0.1274443E+00
         21   -1    0    0  501  502  0.00000000000E+00  0.00000000000E+00  0.27227333619E+03  0.27227333619E+03  0.00000000000E+00 0.  1.
         -2   -1    0    0    0  501 -0.00000000000E+00 -0.00000000000E+00 -0.18367853441E+03  0.18367853441E+03  0.00000000000E+00 0.  1.
         23    2    1    2    0    0 -0.82808240599E+01 -0.40734574771E+02 -0.85179264150E+02  0.13150874300E+03  0.91165590082E+02 0.  0.
         23    2    1    2    0    0 -0.28452321927E+02  0.60644136229E+02 -0.29906761202E+02  0.11652104125E+03  0.90528961150E+02 0.  0.
        -11    1    3    3    0    0 -0.41713209199E+02 -0.94590295403E+01 -0.72208782739E+02  0.83925999345E+02  0.00000000000E+00 0.  1.
         11    1    3    3    0    0  0.33432385139E+02 -0.31275545231E+02 -0.12970481412E+02  0.47582743653E+02  0.00000000000E+00 0. -1.
        -13    1    4    4    0    0  0.20863913775E+02  0.54564367181E+02  0.20892359133E+00  0.58417606189E+02  0.00000000000E+00 0. -1.
         13    1    4    4    0    0 -0.49316235702E+02  0.60797690484E+01 -0.30115684793E+02  0.58103435062E+02  0.00000000000E+00 0.  1.
         -2    1    1    2    0  502  0.36733145987E+02 -0.19909561458E+02  0.20368082713E+03  0.20792208635E+03  0.00000000000E+00 0.  1.
<scales pt_clust_5="13000.00000" pt_clust_6="13000.00000" pt_clust_7="13000.00000" pt_clust_8="13000.00000" pt_clust_9="41.78175"></scales>
<clustering>
<clus scale="   41.782">  1  9  2 -1</clus>
<clus scale="   90.529">  7  8 -1 -1</clus>
<clus scale="   91.166">  5  6 -1 -1</clus>
<clus scale="  102.414">  1  7  2 -1</clus>
<clus scale="   41.782">  1  5  2 -1</clus>
</clustering>
</event>
<event>
 9    1  0.1503781E-005  0.2204981E+03  0.7546771E-02  0.1133756E+00
         21   -1    0    0  501  502  0.00000000000E+00  0.00000000000E+00  0.20744421080E+03  0.20744421080E+03  0.00000000000E+00 0. -1.
          1   -1    0    0  502    0 -0.00000000000E+00 -0.00000000000E+00 -0.66233316296E+03  0.66233316296E+03  0.00000000000E+00 0. -1.
         23    2    1    2    0    0  0.57050436347E+01  0.19892311865E+03 -0.54992374493E+03  0.59240171320E+03  0.94449509872E+02 0.  0.
         23    2    1    2    0    0  0.26100190520E+02 -0.20175614176E+03  0.10112933677E+03  0.24486808596E+03  0.91359050353E+02 0.  0.
        -13    1    3    3    0    0  0.11057066421E+02  0.29090412230E+02 -0.22829556325E+02  0.38596624769E+02  0.00000000000E+00 0.  1.
         13    1    3    3    0    0 -0.53520227864E+01  0.16983270642E+03 -0.52709418860E+03  0.55380508843E+03  0.00000000000E+00 0. -1.
        -13    1    4    4    0    0  0.24597805069E+02 -0.11513451346E+03  0.10555154315E+03  0.15812063896E+03  0.00000000000E+00 0.  1.
         13    1    4    4    0    0  0.15023854509E+01 -0.86621628303E+02 -0.44222063762E+01  0.86747447001E+02  0.00000000000E+00 0. -1.
          1    1    1    2  501    0 -0.31805234155E+02  0.28330231105E+01 -0.60945440098E+01  0.32507574598E+02  0.00000000000E+00 0. -1.
<scales pt_clust_5="13000.00000" pt_clust_6="13000.00000" pt_clust_7="13000.00000" pt_clust_8="13000.00000" pt_clust_9="31.93116"></scales>
<clustering>
<clus scale="   31.931">  1  9  2 -1</clus>
<clus scale="   91.359">  7  8 -1 -1</clus>
<clus scale="   94.450">  5  6 -1 -1</clus>
<clus scale="  219.192">  1  7  2 -1</clus>
<clus scale="   31.931">  1  5  2 -1</clus>
</clustering>
</event>
<event>
 9    1  0.1315259E-005  0.1360644E+03  0.7546771E-02  0.1229260E+00
         21   -1    0    0  501  502  0.00000000000E+00  0.00000000000E+00  0.44380116748E+02  0.44380116748E+02  0.00000000000E+00 0.  1.
          2   -1    0    0  502    0 -0.00000000000E+00 -0.00000000000E+00 -0.64654963356E+03  0.64654963356E+03  0.00000000000E+00 0. -1.
         23    2    1    2    0    0 -0.40154586314E+02  0.56774236754E+02 -0.35416731314E+03  0.37201414985E+03  0.90135105436E+02 0.  0.
         23    2    1    2    0    0  0.47190602149E+02 -0.22293468888E+02 -0.25098968067E+03  0.28359770287E+03  0.12127607176E+03 0.  0.
        -11    1    4    4    0    0  0.75858037760E+02 -0.10169274407E+02 -0.83620695837E+02  0.11335906142E+03  0.00000000000E+00 0.  1.
         11    1    4    4    0    0 -0.28667435610E+02 -0.12124194482E+02 -0.16736898483E+03  0.17023864144E+03  0.00000000000E+00 0. -1.
        -13    1    3    3    0    0 -0.69006819088E+02  0.42095308313E+02 -0.26983339936E+03  0.28168070483E+03  0.00000000000E+00 0. -1.
         13    1    3    3    0    0  0.28852232774E+02  0.14678928441E+02 -0.84333913779E+02  0.90333445022E+02  0.00000000000E+00 0.  1.
          2    1    1    2  501    0 -0.70360158354E+01 -0.34480767866E+02  0.29874769973E+01  0.35317897591E+02  0.00000000000E+00 0. -1.
<scales pt_clust_5="13000.00000" pt_clust_6="13000.00000" pt_clust_7="13000.00000" pt_clust_8="13000.00000" pt_clust_9="35.19132"></scales>
<clustering>
<clus scale="   35.191">  1  9  2 -1</clus>
<clus scale="   90.135">  7  8 -1 -1</clus>
<clus scale="  109.224">  2  7  1 -1</clus>
<clus scale="  121.276">  5  6 -1 -1</clus>
<clus scale="   35.191">  1  5  2 -1</clus>
</clustering>
</event>
<event>
 9    1  0.1315259E-005  0.1464500E+03  0.7546771E-02  0.1206486E+00
         21   -1    0    0  501  502  0.00000000000E+00  0.00000000000E+00  0.30696457263E+03  0.30696457263E+03  0.00000000000E+00 0.  1.
          3   -1    0    0  502    0 -0.00000000000E+00 -0.00000000000E+00 -0.14850983865E+03  0.14850983865E+03  0.00000000000E+00 0. -1.
         23    2    1    2    0    0 -0.12940271828E+03 -0.15117909179E+02 -0.56332763832E+02  0.16799252203E+03  0.89858179935E+02 0.  0.
         23    2    1    2    0    0  0.51926145227E+02 -0.48030403427E+01  0.13580822939E+03  0.17506663921E+03  0.97391268797E+02 0.  0.
        -13    1    4    4    0    0  0.53935474303E+02 -0.44988422736E+02  0.86954504154E+02  0.11177691784E+03  0.00000000000E+00 0. -1.
         13    1    4    4    0    0 -0.20093290760E+01  0.40185382393E+02  0.48853725241E+02  0.63289721372E+02  0.00000000000E+00 0.  1.
        -13    1    3    3    0    0 -0.55245094009E+02  0.35084675644E+02 -0.40750425863E+02  0.77094436149E+02  0.00000000000E+00 0.  1.
         13    1    3    3    0    0 -0.74157624270E+02 -0.50202584823E+02 -0.15582337969E+02  0.90898085882E+02  0.00000000000E+00 0. -1.
          3    1    1    2  501    0  0.77476573052E+02  0.19920949522E+02  0.78979268414E+02  0.11241525004E+03  0.00000000000E+00 0. -1.
<scales pt_clust_5="13000.00000" pt_clust_6="13000.00000" pt_clust_7="13000.00000" pt_clust_8="13000.00000" pt_clust_9="79.99665"></scales>
<clustering>
<clus scale="   79.997">  1  9  2 -1</clus>
<clus scale="   89.858">  7  8 -1 -1</clus>
<clus scale="   97.391">  5  6 -1 -1</clus>
<clus scale="  141.552">  2  7  1 -1</clus>
<clus scale="   79.997">  1  5  2 -1</clus>
</clustering>
</event>
<event>
 9    1  0.1315259E-005  0.1428309E+03  0.7546771E-02  0.1210557E+00
         -1   -1    0    0    0  501 -0.00000000000E+00  0.00000000000E+00  0.18711091609E+03  0.18711091609E+03  0.00000000000E+00 0.  1.
         21   -1    0    0  501  502  0.00000000000E+00 -0.00000000000E+00 -0.44840820525E+03  0.44840820525E+03  0.00000000000E+00 0.  1.
         23    2    1    2    0    0 -0.11066988508E+03 -0.67175269023E+01  0.13913187902E+03  0.20058860916E+03  0.92656147857E+02 0.  0.
         23    2    1    2    0    0  0.91476855306E+02 -0.14689251847E+02 -0.23950745899E+03  0.27146057900E+03  0.87995646822E+02 0.  0.
        -11    1    4    4    0    0  0.44891086638E+02  0.35903362166E+02 -0.13009363094E+03  0.14222733171E+03  0.00000000000E+00 0. -1.
         11    1    4    4    0    0  0.46585768668E+02 -0.50592614013E+02 -0.10941382805E+03  0.12923324729E+03  0.00000000000E+00 0.  1.
        -13    1    3    3    0    0 -0.36285092258E+02  0.17006806072E+02  0.11030813950E+03  0.11736151419E+03  0.00000000000E+00 0.  1.
         13    1    3    3    0    0 -0.74384792818E+02 -0.23724332975E+02  0.28823739521E+02  0.83227094973E+02  0.00000000000E+00 0. -1.
         -1    1    1    2    0  502  0.19193029770E+02  0.21406778749E+02 -0.16092170919E+03  0.16346993319E+03  0.00000000000E+00 0.  1.
<scales pt_clust_5="13000.00000" pt_clust_6="13000.00000" pt_clust_7="13000.00000" pt_clust_8="13000.00000" pt_clust_9="28.75104"></scales>
<clustering>
<clus scale="   28.751">  2  9  1 -1</clus>
<clus scale="   87.996">  5  6 -1 -1</clus>
<clus scale="   92.656">  7  8 -1 -1</clus>
<clus scale="  139.853">  2  5  1 -1</clus>
<clus scale="   28.751">  2  5  1 -1</clus>
</clustering>
</event>
<event>
 9    1  0.1315259E-005  0.1335251E+03  0.7546771E-02  0.1222742E+00
         21   -1    0    0  501  502  0.00000000000E+00  0.00000000000E+00  0.15638792081E+03  0.15638792081E+03  0.00000000000E+00 0. -1.
          1   -1    0    0  502    0 -0.00000000000E+00 -0.00000000000E+00 -0.33604244986E+03  0.33604244986E+03  0.00000000000E+00 0. -1.
         23    2    1    2    0    0  0.86793402882E+01 -0.10418169921E+03 -0.14297368569E+03  0.19756691469E+03  0.87533157037E+02 0.  0.
         23    2    1    2    0    0  0.98356244724E+02  0.76368415763E+02  0.42295412330E+02  0.15896848125E+03  0.89308400072E+02 0.  0.
        -11    1    4    4    0    0  0.13771829283E+02  0.65356740983E+02  0.28254885394E+02  0.72522447713E+02  0.00000000000E+00 0.  1.
         11    1    4    4    0    0  0.84584415442E+02  0.11011674780E+02  0.14040526936E+02  0.86446033534E+02  0.00000000000E+00 0. -1.
        -11    1    3    3    0    0  0.38081401625E+02 -0.20923573851E+02 -0.24737502215E+02  0.49999331078E+02  0.00000000000E+00 0.  1.
         11    1    3    3    0    0 -0.29402061337E+02 -0.83258125362E+02 -0.11823618348E+03  0.14756758361E+03  0.00000000000E+00 0. -1.
          1    1    1    2  501    0 -0.10703558501E+03  0.27813283450E+02 -0.78976255693E+02  0.13589497474E+03  0.00000000000E+00 0. -1.
<scales pt_clust_5="13000.00000" pt_clust_6="13000.00000" pt_clust_7="13000.00000" pt_clust_8="13000.00000" pt_clust_9="110.59027"></scales>
<clustering>
<clus scale="   87.533">  7  8 -1 -1</clus>
<clus scale="   89.308">  5  6 -1 -1</clus>
<clus scale="  110.590">  1  9  2 -1</clus>
<clus scale="  132.344">  2  7  1 -1</clus>
<clus scale="  110.590">  1  5  2 -1</clus>
</clustering>
</event>
<event>
 9    1  0.1315259E-005  0.1259326E+03  0.7546771E-02  0.1234924E+00
         -1   -1    0    0    0  501 -0.00000000000E+00  0.00000000000E+00  0.66983932727E+02  0.66983932727E+02  0.00000000000E+00 0.  1.
         21   -1    0    0  501  502  0.00000000000E+00 -0.00000000000E+00 -0.41130040155E+03  0.41130040155E+03  0.00000000000E+00 0. -1.
         23    2    1    2    0    0  0.52762043937E+02  0.25105495366E+02 -0.10431983674E+03  0.15304141117E+03  0.95524478624E+02 0.  0.
         23    2    1    2    0    0 -0.11995165186E+03 -0.18237774760E+02 -0.17310071312E+03  0.23018150626E+03  0.91096946888E+02 0.  0.
        -11    1    3    3    0    0  0.65770367879E+02  0.46283516690E+02 -0.99131256405E+02  0.12765152253E+03  0.00000000000E+00 0.  1.
         11    1    3    3    0    0 -0.13008323942E+02 -0.21178021324E+02 -0.51885803349E+01  0.25389888635E+02  0.00000000000E+00 0. -1.
        -13    1    4    4    0    0 -0.83185671565E+02 -0.54631564773E+02 -0.10514770545E+03  0.14477742844E+03  0.00000000000E+00 0.  1.
         13    1    4    4    0    0 -0.36765980293E+02  0.36393790013E+02 -0.67953007669E+02  0.85404077828E+02  0.00000000000E+00 0. -1.
         -1    1    1    2    0  502  0.67189607921E+02 -0.68677206061E+01 -0.66895918969E+02  0.95061416850E+02  0.00000000000E+00 0.  1.
<scales pt_clust_5="13000.00000" pt_clust_6="13000.00000" pt_clust_7="13000.00000" pt_clust_8="13000.00000" pt_clust_9="67.53972"></scales>
<clustering>
<clus scale="   67.540">  2  9  1 -1</clus>
<clus scale="   91.097">  7  8 -1 -1</clus>
<clus scale="   95.524">  5  6 -1 -1</clus>
<clus scale="  122.608">  2  7  1 -1</clus>
<clus scale="   67.540">  2  5  1 -1</clus>
</clustering>
</event>
<event>
 9    1  0.1315259E-005  0.1119069E+03  0.7546771E-02  0.1259719E+00
         -2   -1    0    0    0  501 -0.00000000000E+00  0.00000000000E+00  0.68483235156E+03  0.68483235156E+03  0.00000000000E+00 0.  1.
         21   -1    0    0  501  502  0.00000000000E+00 -0.00000000000E+00 -0.14812516749E+03  0.14812516749E+03  0.00000000000E+00 0.  1.
         23    2    1    2    0    0 -0.65654350532E+02  0.18571927388E+02  0.51416649698E+03  0.52736766854E+03  0.95362786099E+02 0.  0.
         23    2    1    2    0    0  0.35713898642E+02 -0.11908248419E+02  0.14792409241E+03  0.17650912535E+03  0.88637719277E+02 0.  0.
        -11    1    4    4    0    0  0.46218647607E+02  0.28342427333E+02  0.74828342268E+02  0.92405288703E+02  0.00000000000E+00 0.  1.
         11    1    4    4    0    0 -0.10504748965E+02 -0.40250675752E+02  0.73095750145E+02  0.84103836647E+02  0.00000000000E+00 0. -1.
        -13    1    3    3    0    0 -0.89447361350E+02  0.18505452831E+02  0.44333126319E+03  0.45264322723E+03  0.00000000000E+00 0.  1.
         13    1    3    3    0    0  0.23793010817E+02  0.66474557633E-01  0.70835233793E+02  0.74724441310E+02  0.00000000000E+00 0. -1.
         -2    1    1    2    0  502  0.29940451890E+02 -0.66636789690E+01 -0.12538340533E+03  0.12908072516E+03  0.00000000000E+00 0.  1.
<scales pt_clust_5="13000.00000" pt_clust_6="13000.00000" pt_clust_7="13000.00000" pt_clust_8="13000.00000" pt_clust_9="30.67304"></scales>
<clustering>
<clus scale="   30.673">  2  9  1 -1</clus>
<clus scale="   88.638">  5  6 -1 -1</clus>
<clus scale="   95.363">  7  8 -1 -1</clus>
<clus scale="  106.234">  2  5  1 -1</clus>
<clus scale="   30.673">  2  5  1 -1</clus>
</clustering>
</event>
<event>
 9    1  0.1315259E-005  0.1165247E+03  0.7546771E-02  0.1259597E+00
          2   -1    0    0  502    0 -0.00000000000E+00  0.00000000000E+00  0.36940771623E+03  0.36940771623E+03  0.00000000000E+00 0. -1.
         21   -1    0    0  501  502  0.00000000000E+00 -0.00000000000E+00 -0.80946760905E+03  0.80946760905E+03  0.00000000000E+00 0.  1.
         23    2    1    2    0    0 -0.25626314914E+02 -0.86140218672E+01  0.34966296860E+03  0.36210262526E+03  0.90128853404E+02 0.  0.
         23    2    1    2    0    0  0.82753442644E+02  0.26918751627E+02 -0.46008890286E+03  0.48172476541E+03  0.11315564329E+03 0.  0.
        -13    1    4    4    0    0 -0.14270524143E+02  0.24494497020E+02 -0.31907086857E+02  0.42681265624E+02  0.00000000000E+00 0. -1.
         13    1    4    4    0    0  0.97023966787E+02  0.24242546076E+01 -0.42818181601E+03  0.43904349978E+03  0.00000000000E+00 0.  1.
        -13    1    3    3    0    0 -0.33181209580E+02  0.35312753811E+02  0.20915189279E+03  0.21469163353E+03  0.00000000000E+00 0. -1.
         13    1    3    3    0    0  0.75548946657E+01 -0.43926775678E+02  0.14051107582E+03  0.14741099173E+03  0.00000000000E+00 0.  1.
          2    1    1    2  501    0 -0.57127127730E+02 -0.18304729760E+02 -0.32963395856E+03  0.33504793461E+03  0.00000000000E+00 0. -1.
<scales pt_clust_5="13000.00000" pt_clust_6="13000.00000" pt_clust_7="13000.00000" pt_clust_8="13000.00000" pt_clust_9="59.98810"></scales>
<clustering>
<clus scale="   59.988">  2  9  1 -1</clus>
<clus scale="   90.129">  7  8 -1 -1</clus>
<clus scale="   94.324">  1  7  2 -1</clus>
<clus scale="  113.156">  5  6 -1 -1</clus>
<clus scale="   59.988">  2  5  1 -1</clus>
</clustering>
</event>
<event>
 9    1  0.1529215E-005  0.1380789E+03  0.7546771E-02  0.1234970E+00
          1   -1    0    0  502    0 -0.00000000000E+00  0.00000000000E+00  0.15004885719E+03  0.15004885719E+03  0.00000000000E+00 0. -1.
         21   -1    0    0  501  502  0.00000000000E+00 -0.00000000000E+00 -0.37093534886E+03  0.37093534886E+03  0.00000000000E+00 0. -1.
         23    2    1    2    0    0 -0.26138939157E+02  0.16135033894E+02 -0.97996934401E+02  0.13505128987E+03  0.87703296885E+02 0.  0.
         23    2    1    2    0    0 -0.45891896980E+01 -0.11525896167E+03  0.73487519034E+02  0.16382094653E+03  0.90173156547E+02 0.  0.
        -11    1    3    3    0    0  0.20316749765E+02  0.34759016257E+02 -0.59803813601E+02  0.72093381481E+02  0.00000000000E+00 0.  1.
         11    1    3    3    0    0 -0.46455688921E+02 -0.18623982362E+02 -0.38193120799E+02  0.62957908388E+02  0.00000000000E+00 0. -1.
        -11    1    4    4    0    0  0.38660273252E+02 -0.36072454149E+02  0.10836151093E+02  0.53974631511E+02  0.00000000000E+00 0.  1.
         11    1    4    4    0    0 -0.43249462950E+02 -0.79186507520E+02  0.62651367942E+02  0.10984631502E+03  0.00000000000E+00 0. -1.
          1    1    1    2  501    0  0.30728128855E+02  0.99123927774E+02 -0.19637707631E+03  0.22211196964E+03  0.00000000000E+00 0. -1.
<scales pt_clust_5="13000.00000" pt_clust_6="13000.00000" pt_clust_7="13000.00000" pt_clust_8="13000.00000" pt_clust_9="104.56859"></scales>
<clustering>
<clus scale="   87.703">  5  6 -1 -1</clus>
<clus scale="   90.173">  7  8 -1 -1</clus>
<clus scale="   92.927">  1  5  2 -1</clus>
<clus scale="  104.569">  2  9  1 -1</clus>
<clus scale="  104.569">  2  5  1 -1</clus>
</clustering>
</event>
<event>
 9    1  0.1315259E-005  0.1760330E+03  0.7546771E-02  0.1171982E+00
         21   -1    0    0  501  502  0.00000000000E+00  0.00000000000E+00  0.42107336195E+03  0.42107336195E+03  0.00000000000E+00 0.  1.
          3   -1    0    0  502    0 -0.00000000000E+00 -0.00000000000E+00 -0.10218719097E+03  0.10218719097E+03  0.00000000000E+00 0. -1.
         23    2    1    2    0    0  0.79189036819E+02  0.13761437789E+03  0.10742442111E+03  0.21180895565E+03  0.90080002710E+02 0.  0.
         23    2    1    2    0    0 -0.30669972714E+02 -0.14096728074E+03  0.12417229986E+03  0.21152767810E+03  0.92264712031E+02 0.  0.
        -11    1    3    3    0    0  0.39832552350E+02  0.77852989545E+01  0.31623226658E+01  0.40709254367E+02  0.00000000000E+00 0. -1.
         11    1    3    3    0    0  0.39356484470E+02  0.12982907894E+03  0.10426209844E+03  0.17109970128E+03  0.00000000000E+00 0.  1.
        -13    1    4    4    0    0 -0.60430422984E+02 -0.72212010025E+02  0.85631250044E+02  0.12727576909E+03  0.00000000000E+00 0.  1.
         13    1    4    4    0    0  0.29760450270E+02 -0.68755270711E+02  0.38541049815E+02  0.84251909009E+02  0.00000000000E+00 0. -1.
          3    1    1    2  501    0 -0.48519064105E+02  0.33529028450E+01  0.87289450017E+02  0.99923919176E+02  0.00000000000E+00 0. -1.
<scales pt_clust_5="13000.00000" pt_clust_6="13000.00000" pt_clust_7="13000.00000" pt_clust_8="13000.00000" pt_clust_9="48.63478"></scales>
<clustering>
<clus scale="   48.635">  1  9  2 -1</clus>
<clus scale="   90.080">  5  6 -1 -1</clus>
<clus scale="   92.265">  7  8 -1 -1</clus>
<clus scale="  174.898">  2  5  1 -1</clus>
<clus scale="   48.635">  1  5  2 -1</clus>
</clustering>
</event>
<event>
 9    1  0.1315259E-005  0.2026027E+03  0.7546771E-02  0.1158526E+00
         21   -1    0    0  501  502  0.00000000000E+00  0.00000000000E+00  0.81093377383E+02  0.81093377383E+02  0.00000000000E+00 0. -1.
          1   -1    0    0  502    0 -0.00000000000E+00 -0.00000000000E+00 -0.10283871192E+04  0.10283871192E+04  0.00000000000E+00 0. -1.
         23    2    1    2    0    0  0.12725183406E+03  0.29922251881E+01 -0.15911097366E+03  0.22315402895E+03  0.90991406257E+02 0.  0.
         23    2    1    2    0    0 -0.25530505000E+02  0.17410067437E+03 -0.44629981836E+03  0.48808900679E+03  0.89913843120E+02 0.  0.
        -13    1    4    4    0    0 -0.43685958046E+02  0.15192290087E+03 -0.42156970626E+03  0.45023332615E+03  0.00000000000E+00 0. -1.
         13    1    4    4    0    0  0.18155453046E+02  0.22177773502E+02 -0.24730112101E+02  0.37855680648E+02  0.00000000000E+00 0.  1.
        -13    1    3    3    0    0  0.90128832979E+02  0.38901537429E+02 -0.71472370077E+02  0.12142831561E+03  0.00000000000E+00 0.  1.
         13    1    3    3    0    0  0.37123001081E+02 -0.35909312241E+02 -0.87638603584E+02  0.10172571333E+03  0.00000000000E+00 0. -1.
          1    1    1    2  501    0 -0.10172132906E+03 -0.17709289956E+03 -0.34188294982E+03  0.39823746087E+03  0.00000000000E+00 0. -1.
<scales pt_clust_5="13000.00000" pt_clust_6="13000.00000" pt_clust_7="13000.00000" pt_clust_8="13000.00000" pt_clust_9="181.55819"></scales>
<clustering>
<clus scale="   89.914">  5  6 -1 -1</clus>
<clus scale="   90.991">  7  8 -1 -1</clus>
<clus scale="  156.465">  2  7  1 -1</clus>
<clus scale="  181.558">  1  9  2 -1</clus>
<clus scale="  181.558">  1  5  2 -1</clus>
</clustering>
</event>
<event>
 9    1  0.1315259E-005  0.9980694E+02  0.7546771E-02  0.1281663E+00
         -3   -1    0    0    0  501 -0.00000000000E+00  0.00000000000E+00  0.23976224472E+03  0.23976224472E+03  0.00000000000E+00 0.  1.
         21   -1    0    0  501  502  0.00000000000E+00 -0.00000000000E+00 -0.18973036443E+03  0.18973036443E+03  0.00000000000E+00 0.  1.
         23    2    1    2    0    0  0.25477882908E+02  0.12273584641E+02  0.13326462739E+03  0.16427188377E+03  0.91793395659E+02 0.  0.
         23    2    1    2    0    0 -0.51161807435E+02 -0.38256187635E+02  0.54329176685E+02  0.12288997496E+03  0.89828837657E+02 0.  0.
        -11    1    3    3    0    0  0.64823546883E+01  0.51795215070E+02  0.72962308072E+02  0.89712115267E+02  0.00000000000E+00 0. -1.
         11    1    3    3    0    0  0.18995528220E+02 -0.39521630429E+02  0.60302319321E+02  0.74559768506E+02  0.00000000000E+00 0.  1.
        -11    1    4    4    0    0  0.23580291766E+01 -0.36423817533E+02 -0.11277439707E+02  0.38202557920E+02  0.00000000000E+00 0.  1.
         11    1    4    4    0    0 -0.53519836612E+02 -0.18323701027E+01  0.65606616392E+02  0.84687417044E+02  0.00000000000E+00 0. -1.
         -3    1    1    2    0  502  0.25683924527E+02  0.25982602995E+02 -0.13756192379E+03  0.14233075041E+03  0.00000000000E+00 0.  1.
<scales pt_clust_5="13000.00000" pt_clust_6="13000.00000" pt_clust_7="13000.00000" pt_clust_8="13000.00000" pt_clust_9="36.53436"></scales>
<clustering>
<clus scale="   36.534">  2  9  1 -1</clus>
<clus scale="   89.829">  7  8 -1 -1</clus>
<clus scale="   91.793">  5  6 -1 -1</clus>
<clus scale="   98.003">  2  7  1 -1</clus>
<clus scale="   36.534">  2  5  1 -1</clus>
</clustering>
</event>
<event>
 9    1  0.1315259E-005  0.1177971E+03  0.7546771E-02  0.1247943E+00
          1   -1    0    0  502    0 -0.00000000000E+00  0.00000000000E+00  0.11114927861E+04  0.11114927861E+04  0.00000000000E+00 0. -1.
         21   -1    0    0  501  502  0.00000000000E+00 -0.00000000000E+00 -0.17246305263E+02  0.17246305263E+02  0.00000000000E+00 0.  1.
         23    2    1    2    0    0 -0.47941752524E+02 -0.39852069674E+02  0.49505159955E+03  0.50678768848E+03  0.88719084145E+02 0.  0.
         23    2    1    2    0    0  0.70149421495E+02  0.50206727235E+02  0.57007079106E+03  0.58389076538E+03  0.92228316058E+02 0.  0.
        -11    1    4    4    0    0  0.10379860916E+02 -0.26149151377E+02  0.16455549668E+03  0.16694319728E+03  0.00000000000E+00 0. -1.
         11    1    4    4    0    0  0.59769560579E+02  0.76355878612E+02  0.40551529438E+03  0.41694756810E+03  0.00000000000E+00 0.  1.
        -13    1    3    3    0    0 -0.75219397134E+01  0.27788288805E+02  0.10620622350E+03  0.11003876809E+03  0.00000000000E+00 0.  1.
         13    1    3    3    0    0 -0.40419812811E+02 -0.67640358480E+02  0.38884537605E+03  0.39674892040E+03  0.00000000000E+00 0. -1.
          1    1    1    2  501    0 -0.22207668971E+02 -0.10354657561E+02  0.29124090193E+02  0.38060637461E+02  0.00000000000E+00 0. -1.
<scales pt_clust_5="13000.00000" pt_clust_6="13000.00000" pt_clust_7="13000.00000" pt_clust_8="13000.00000" pt_clust_9="24.50305"></scales>
<clustering>
<clus scale="   24.503">  2  9  1 -1</clus>
<clus scale="   88.719">  7  8 -1 -1</clus>
<clus scale="   92.228">  5  6 -1 -1</clus>
<clus scale="  115.070">  1  7  2 -1</clus>
<clus scale="   24.503">  2  5  1 -1</clus>
</clustering>
</event>
<event>
 9    1  0.1315259E-005  0.1007112E+03  0.7546771E-02  0.1279407E+00
          1   -1    0    0  502    0 -0.00000000000E+00  0.00000000000E+00  0.81993439979E+02  0.81993439979E+02  0.00000000000E+00 0. -1.
         21   -1    0    0  501  502  0.00000000000E+00 -0.00000000000E+00 -0.19872629341E+03  0.19872629341E+03  0.00000000000E+00 0.  1.
         23    2    1    2    0    0 -0.32745373325E+02  0.12665309328E+02 -0.14093508961E+02  0.99145193581E+02  0.91643182402E+02 0.  0.
         23    2    1    2    0    0  0.39239149458E+02 -0.33390040802E+02 -0.33800822739E+02  0.10939126129E+03  0.90384438674E+02 0.  0.
        -11    1    3    3    0    0 -0.13153738628E+02  0.52297631834E+02 -0.80256575240E+01  0.54520402731E+02  0.00000000000E+00 0.  1.
         11    1    3    3    0    0 -0.19591634697E+02 -0.39632322505E+02 -0.60678514371E+01  0.44624790849E+02  0.00000000000E+00 0. -1.
        -11    1    4    4    0    0  0.43078431939E+02  0.66111306354E+01 -0.49764928021E+02  0.66151390065E+02  0.00000000000E+00 0.  1.
         11    1    4    4    0    0 -0.38392824803E+01 -0.40001171437E+02  0.15964105282E+02  0.43239871228E+02  0.00000000000E+00 0. -1.
          1    1    1    2  501    0 -0.64937761329E+01  0.20724731474E+02 -0.68838521727E+02  0.72183278511E+02  0.00000000000E+00 0. -1.
<scales pt_clust_5="13000.00000" pt_clust_6="13000.00000" pt_clust_7="13000.00000" pt_clust_8="13000.00000" pt_clust_9="21.71828"></scales>
<clustering>
<clus scale="   21.718">  2  9  1 -1</clus>
<clus scale="   90.384">  7  8 -1 -1</clus>
<clus scale="   91.643">  5  6 -1 -1</clus>
<clus scale="   99.567">  2  7  1 -1</clus>
<clus scale="   21.718">  2  5  1 -1</clus>
</clustering>
</event>
<event>
 9    1  0.1315259E-005  0.1284453E+03  0.7546771E-02  0.1230264E+00
          2   -1    0    0  502    0 -0.00000000000E+00  0.00000000000E+00  0.15825041668E+03  0.15825041668E+03  0.00000000000E+00 0. -1.
         21   -1    0    0  501  502  0.00000000000E+00 -0.00000000000E+00 -0.31689379259E+03  0.31689379259E+03  0.00000000000E+00 0. -1.
         23    2    1    2    0    0  0.29591297206E+02 -0.95017072674E+02  0.74641394834E+02  0.15387820089E+03  0.90571926756E+02 0.  0.
         23    2    1    2    0    0 -0.29762179628E+02  0.62844387901E+02 -0.35571059514E+02  0.12095169921E+03  0.92351550291E+02 0.  0.
        -11    1    4    4    0    0 -0.42723365835E+02  0.37229845093E+02 -0.60526138081E+02  0.82914176984E+02  0.00000000000E+00 0.  1.
         11    1    4    4    0    0  0.12961186207E+02  0.25614542807E+02  0.24955078567E+02  0.38037522230E+02  0.00000000000E+00 0. -1.
        -11    1    3    3    0    0 -0.77180214541E+01 -0.29153088817E+02  0.72083721390E+02  0.78137912258E+02  0.00000000000E+00 0.  1.
         11    1    3    3    0    0  0.37309318660E+02 -0.65863983858E+02  0.25576734439E+01  0.75740288631E+02  0.00000000000E+00 0. -1.
          2    1    1    2  501    0  0.17088242219E+00  0.32172684774E+02 -0.19771371124E+03  0.20031430917E+03  0.00000000000E+00 0. -1.
<scales pt_clust_5="13000.00000" pt_clust_6="13000.00000" pt_clust_7="13000.00000" pt_clust_8="13000.00000" pt_clust_9="32.17314"></scales>
<clustering>
<clus scale="   32.173">  2  9  1 -1</clus>
<clus scale="   90.572">  7  8 -1 -1</clus>
<clus scale="   92.352">  5  6 -1 -1</clus>
<clus scale="  127.172">  1  7  2 -1</clus>
<clus scale="   32.173">  2  5  1 -1</clus>
</clustering>
</event>
<event>
 9    1  0.1315259E-005  0.9708831E+02  0.7546771E-02  0.1288839E+00
         -3   -1    0    0    0  501 -0.00000000000E+00  0.00000000000E+00  0.78587375078E+02  0.78587375078E+02  0.00000000000E+00 0.  1.
         21   -1    0    0  501  502  0.00000000000E+00 -0.00000000000E+00 -0.60336893254E+03  0.60336893254E+03  0.00000000000E+00 0.  1.
         23    2    1    2    0    0 -0.21393918283E+02 -0.33391776416E+02  0.30881903207E+02  0.10090871238E+03  0.87499518951E+02 0.  0.
         23    2    1    2    0    0 -0.98238534299E+01 -0.25109703172E+02 -0.23784955578E+03  0.25638985157E+03  0.91849548247E+02 0.  0.
        -11    1    3    3    0    0 -0.50730577910E+02 -0.39349266181E+02  0.11439496772E+02  0.65213636384E+02  0.00000000000E+00 0.  1.
         11    1    3    3    0    0  0.29336659626E+02  0.59574897650E+01  0.19442406434E+02  0.35695075995E+02  0.00000000000E+00 0. -1.
        -13    1    4    4    0    0  0.66376276185E+01 -0.57938196897E+02 -0.13065918096E+03  0.14308289320E+03  0.00000000000E+00 0.  1.
         13    1    4    4    0    0 -0.16461481048E+02  0.32828493725E+02 -0.10719037482E+03  0.11330695836E+03  0.00000000000E+00 0. -1.
         -3    1    1    2    0  502  0.31217771713E+02  0.58501479588E+02 -0.31781390489E+03  0.32465774368E+03  0.00000000000E+00 0.  1.
<scales pt_clust_5="13000.00000" pt_clust_6="13000.00000" pt_clust_7="13000.00000" pt_clust_8="13000.00000" pt_clust_9="66.30967"></scales>
<clustering>
<clus scale="   66.310">  2  9  1 -1</clus>
<clus scale="   87.500">  5  6 -1 -1</clus>
<clus scale="   91.850">  7  8 -1 -1</clus>
<clus scale="   92.984">  1  5  2 -1</clus>
<clus scale="   66.310">  2  5  1 -1</clus>
</clustering>
</event>
<event>
 9    1  0.1315259E-005  0.1057763E+03  0.7546771E-02  0.1269235E+00
         21   -1    0    0  501  502  0.00000000000E+00  0.00000000000E+00  0.29680867860E+03  0.29680867860E+03  0.00000000000E+00 0.  1.
          1   -1    0    0  502    0 -0.00000000000E+00 -0.00000000000E+00 -0.38529630538E+03  0.38529630538E+03  0.00000000000E+00 0. -1.
         23    2    1    2    0    0 -0.42237901913E+02 -0.31052196264E+02 -0.31194501139E+03  0.32921469451E+03  0.91237852327E+02 0.  0.
         23    2    1    2    0    0  0.38673400581E+02  0.93659116782E+02  0.25040045110E+03  0.28463883529E+03  0.89728582825E+02 0.  0.
        -13    1    3    3    0    0  0.25201173010E+02 -0.14951943365E+02 -0.15337476478E+03  0.15614889754E+03  0.00000000000E+00 0. -1.
         13    1    3    3    0    0 -0.67439074923E+02 -0.16100252899E+02 -0.15857024661E+03  0.17306579697E+03  0.00000000000E+00 0.  1.
        -13    1    4    4    0    0  0.39918268963E+02  0.18085797361E+00  0.98420351220E+02  0.10620765717E+03  0.00000000000E+00 0. -1.
         13    1    4    4    0    0 -0.12448683825E+01  0.93478258808E+02  0.15198009988E+03  0.17843117813E+03  0.00000000000E+00 0.  1.
          1    1    1    2  501    0  0.35645013318E+01 -0.62606920518E+02 -0.26943066495E+02  0.68251454187E+02  0.00000000000E+00 0. -1.
<scales pt_clust_5="13000.00000" pt_clust_6="13000.00000" pt_clust_7="13000.00000" pt_clust_8="13000.00000" pt_clust_9="62.70834"></scales>
<clustering>
<clus scale="   62.708">  1  9  2 -1</clus>
<clus scale="   89.729">  7  8 -1 -1</clus>
<clus scale="   91.238">  5  6 -1 -1</clus>
<clus scale="  104.477">  1  7  2 -1</clus>
<clus scale="   62.708">  1  5  2 -1</clus>
</clustering>
</event>
<event>
 9    1  0.1315259E-005  0.9374051E+02  0.7546771E-02  0.1294278E+00
          1   -1    0    0  502    0 -0.00000000000E+00  0.00000000000E+00  0.17499221138E+03  0.17499221138E+03  0.00000000000E+00 0. -1.
         21   -1    0    0  501  502  0.00000000000E+00 -0.00000000000E+00 -0.15314736997E+03  0.15314736997E+03  0.00000000000E+00 0. -1.
         23    2    1    2    0    0  0.20751322608E+02 -0.12365277757E+02  0.11616013057E+03  0.14995728165E+03  0.91708739508E+02 0.  0.
         23    2    1    2    0    0  0.60874943326E+01  0.69547212961E+00 -0.14882085517E+02  0.93529241276E+02  0.92134148043E+02 0.  0.
        -13    1    3    3    0    0 -0.19324040674E+02 -0.35820686859E+02  0.25310737864E+02  0.47928838982E+02  0.00000000000E+00 0.  1.
         13    1    3    3    0    0  0.40075363282E+02  0.23455409102E+02  0.90849392706E+02  0.10202844267E+03  0.00000000000E+00 0. -1.
        -13    1    4    4    0    0 -0.39644423116E+02 -0.96740189380E+01  0.76263665103E+01  0.41514195076E+02  0.00000000000E+00 0.  1.
         13    1    4    4    0    0  0.45731917449E+02  0.10369491068E+02 -0.22508452027E+02  0.52015046200E+02  0.00000000000E+00 0. -1.
          1    1    1    2  501    0 -0.26838816941E+02  0.11669805627E+02 -0.79433203650E+02  0.84653058422E+02  0.00000000000E+00 0. -1.
<scales pt_clust_5="13000.00000" pt_clust_6="13000.00000" pt_clust_7="13000.00000" pt_clust_8="13000.00000" pt_clust_9="29.26613"></scales>
<clustering>
<clus scale="   29.266">  2  9  1 -1</clus>
<clus scale="   91.709">  5  6 -1 -1</clus>
<clus scale="   92.134">  7  8 -1 -1</clus>
<clus scale="   93.322">  1  5  2 -1</clus>
<clus scale="   29.266">  2  5  1 -1</clus>
</clustering>
</event>
<event>
 9    1  0.1315259E-005  0.1089568E+03  0.7546771E-02  0.1263983E+00
          1   -1    0    0  502    0 -0.00000000000E+00  0.00000000000E+00  0.32902406839E+03  0.32902406839E+03  0.00000000000E+00 0. -1.
         21   -1    0    0  501  502  0.00000000000E+00 -0.00000000000E+00 -0.27651707735E+03  0.27651707735E+03  0.00000000000E+00 0.  1.
         23    2    1    2    0    0 -0.31010698710E+02 -0.40287205548E+02  0.29536093220E+03  0.31480762537E+03  0.96338145908E+02 0.  0.
         23    2    1    2    0    0  0.10003076159E+02  0.58046544377E+02 -0.23884490606E+03  0.26293447932E+03  0.92834198523E+02 0.  0.
        -11    1    3    3    0    0  0.30181861264E+02 -0.20908036358E+02  0.17056324089E+03  0.17447036963E+03  0.00000000000E+00 0. -1.
         11    1    3    3    0    0 -0.61192559974E+02 -0.19379169190E+02  0.12479769131E+03  0.14033725575E+03  0.00000000000E+00 0.  1.
        -11    1    4    4    0    0  0.33775714469E+02  0.69106444541E+02 -0.21148911193E+03  0.22504253827E+03  0.00000000000E+00 0.  1.
         11    1    4    4    0    0 -0.23772638311E+02 -0.11059900164E+02 -0.27355794130E+02  0.37891941048E+02  0.00000000000E+00 0. -1.
          1    1    1    2  501    0  0.21007622552E+02 -0.17759338830E+02 -0.40090351035E+01  0.27799041052E+02  0.00000000000E+00 0. -1.
<scales pt_clust_5="13000.00000" pt_clust_6="13000.00000" pt_clust_7="13000.00000" pt_clust_8="13000.00000" pt_clust_9="27.50844"></scales>
<clustering>
<clus scale="   27.508">  2  9  1 -1</clus>
<clus scale="   92.834">  7  8 -1 -1</clus>
<clus scale="   96.338">  5  6 -1 -1</clus>
<clus scale="  105.871">  2  7  1 -1</clus>
<clus scale="   27.508">  2  5  1 -1</clus>
</clustering>
</event>
<event>
 9    1  0.1315259E-005  0.1179634E+03  0.7546771E-02  0.1248206E+00
         21   -1    0    0  501  502  0.00000000000E+00  0.00000000000E+00  0.21111356392E+03  0.21111356392E+03  0.00000000000E+00 0. -1.
          1   -1    0    0  502    0 -0.00000000000E+00 -0.00000000000E+00 -0.14011623317E+03  0.14011623317E+03  0.00000000000E+00 0. -1.
         23    2    1    2    0    0  0.14081841595E+02 -0.77069434831E+02 -0.75051673288E+02  0.14164628237E+03  0.91065468742E+02 0.  0.
         23    2    1    2    0    0 -0.90588511767E+00  0.39118914214E+02  0.74964995446E+02  0.12793313737E+03  0.96000140722E+02 0.  0.
        -11    1    4    4    0    0 -0.21510499826E+02 -0.16218001126E+02  0.61826460130E+02  0.67440613397E+02  0.00000000000E+00 0. -1.
         11    1    4    4    0    0  0.20604614708E+02  0.55336915340E+02  0.13138535316E+02  0.60492523975E+02  0.00000000000E+00 0.  1.
        -13    1    3    3    0    0 -0.15868928504E+02 -0.39826246425E+02 -0.82789932174E+02  0.93231570112E+02  0.00000000000E+00 0.  1.
         13    1    3    3    0    0  0.29950770099E+02 -0.37243188407E+02  0.77382588859E+01  0.48414712256E+02  0.00000000000E+00 0. -1.
          1    1    1    2  501    0 -0.13175956477E+02  0.37950520618E+02  0.71084008587E+02  0.81650377348E+02  0.00000000000E+00 0. -1.
<scales pt_clust_5="13000.00000" pt_clust_6="13000.00000" pt_clust_7="13000.00000" pt_clust_8="13000.00000" pt_clust_9="40.17273"></scales>
<clustering>
<clus scale="   40.173">  1  9  2 -1</clus>
<clus scale="   91.065">  7  8 -1 -1</clus>
<clus scale="   96.000">  5  6 -1 -1</clus>
<clus scale="  113.984">  2  7  1 -1</clus>
<clus scale="   40.173">  1  5  2 -1</clus>
</clustering>
</event>
<event>
 9    1  0.1315259E-005  0.9398167E+02  0.7546771E-02  0.1294187E+00
          1   -1    0    0  502    0 -0.00000000000E+00  0.00000000000E+00  0.11862684806E+03  0.11862684806E+03  0.00000000000E+00 0. -1.
         21   -1    0    0  501  502  0.00000000000E+00 -0.00000000000E+00 -0.10334892189E+03  0.10334892189E+03  0.00000000000E+00 0.  1.
         23    2    1    2    0    0  0.38088914013E+01  0.18457279135E+02  0.23824830996E+02  0.96933795274E+02  0.92050851639E+02 0.  0.
         23    2    1    2    0    0 -0.26955079989E+02 -0.52998774296E+01  0.53245831703E+01  0.95020624854E+02  0.90806954160E+02 0.  0.
        -11    1    4    4    0    0 -0.52508529867E+02 -0.15644702242E+02 -0.19266669256E+02  0.58078455224E+02  0.00000000000E+00 0.  1.
         11    1    4    4    0    0  0.25553449878E+02  0.10344824812E+02  0.24591252427E+02  0.36942169630E+02  0.00000000000E+00 0. -1.
        -11    1    3    3    0    0 -0.55106455792E+01 -0.27671246011E+02 -0.18418756931E+02  0.33694445794E+02  0.00000000000E+00 0. -1.
         11    1    3    3    0    0  0.93195369805E+01  0.46128525146E+02  0.42243587927E+02  0.63239349480E+02  0.00000000000E+00 0.  1.
          1    1    1    2  501    0  0.23146188588E+02 -0.13157401706E+02 -0.13871487992E+02  0.30021349818E+02  0.00000000000E+00 0. -1.
<scales pt_clust_5="13000.00000" pt_clust_6="13000.00000" pt_clust_7="13000.00000" pt_clust_8="13000.00000" pt_clust_9="26.62449"></scales>
<clustering>
<clus scale="   26.624">  2  9  1 -1</clus>
<clus scale="   90.807">  5  6 -1 -1</clus>
<clus scale="   92.051">  7  8 -1 -1</clus>
<clus scale="   92.764">  2  5  1 -1</clus>
<clus scale="   26.624">  2  5  1 -1</clus>
</clustering>
</event>
<event>
 9    1  0.1315259E-005  0.1285590E+03  0.7546771E-02  0.1229641E+00
          1   -1    0    0  502    0 -0.00000000000E+00  0.00000000000E+00  0.58896723396E+03  0.58896723396E+03  0.00000000000E+00 0. -1.
         21   -1    0    0  501  502  0.00000000000E+00 -0.00000000000E+00 -0.70500932112E+02  0.70500932112E+02  0.00000000000E+00 0. -1.
         23    2    1    2    0    0  0.98441065923E+02  0.40124894796E+02  0.36325065563E+03  0.38963521097E+03  0.92541386265E+02 0.  0.
         23    2    1    2    0    0 -0.54566596150E+02 -0.42459924906E+02  0.18400160304E+03  0.21730626880E+03  0.92655630711E+02 0.  0.
        -11    1    3    3    0    0  0.13892895447E+02  0.49924288171E+02  0.95127664014E+02  0.10832691057E+03  0.00000000000E+00 0.  1.
         11    1    3    3    0    0  0.84548170476E+02 -0.97993933752E+01  0.26812299162E+03  0.28130830040E+03  0.00000000000E+00 0. -1.
        -13    1    4    4    0    0  0.10253583934E+02 -0.40602324259E+02  0.34187351549E+02  0.54059779177E+02  0.00000000000E+00 0. -1.
         13    1    4    4    0    0 -0.64820180084E+02 -0.18576006465E+01  0.14981425149E+03  0.16324648962E+03  0.00000000000E+00 0.  1.
          1    1    1    2  501    0 -0.43874469773E+02  0.23350301098E+01 -0.28785956817E+02  0.52526686297E+02  0.00000000000E+00 0. -1.
<scales pt_clust_5="13000.00000" pt_clust_6="13000.00000" pt_clust_7="13000.00000" pt_clust_8="13000.00000" pt_clust_9="43.93656"></scales>
<clustering>
<clus scale="   43.937">  2  9  1 -1</clus>
<clus scale="   92.541">  5  6 -1 -1</clus>
<clus scale="   92.656">  7  8 -1 -1</clus>
<clus scale="  128.477">  1  5  2 -1</clus>
<clus scale="   43.937">  2  5  1 -1</clus>
</clustering>
</event>
<event>
 9    1  0.1315259E-005  0.4148891E+03  0.7546771E-02  0.1038764E+00
          1   -1    0    0  502    0 -0.00000000000E+00  0.00000000000E+00  0.37786300722E+03  0.37786300722E+03  0.00000000000E+00 0. -1.
         21   -1    0    0  501  502  0.00000000000E+00 -0.00000000000E+00 -0.83906604683E+03  0.83906604683E+03  0.00000000000E+00 0. -1.
         23    2    1    2    0    0 -0.12618701382E+03  0.38913149659E+03  0.16594909743E+03  0.45122962360E+03  0.93394786722E+02 0.  0.
         23    2    1    2    0    0  0.14108100335E+03 -0.35532062318E+03 -0.60795061092E+03  0.72406165086E+03  0.92221115559E+02 0.  0.
        -11    1    3    3    0    0 -0.13598305137E+03  0.34867127132E+03  0.12987431321E+03  0.39614439658E+03  0.00000000000E+00 0. -1.
         11    1    3    3    0    0  0.97960375559E+01  0.40460225261E+02  0.36074784215E+02  0.55085227023E+02  0.00000000000E+00 0.  1.
        -11    1    4    4    0    0  0.86744259894E+02 -0.31040045125E+03 -0.48467816682E+03  0.58205320389E+03  0.00000000000E+00 0. -1.
         11    1    4    4    0    0  0.54336743459E+02 -0.44920171928E+02 -0.12327244410E+03  0.14200844697E+03  0.00000000000E+00 0.  1.
          1    1    1    2  501    0 -0.14893989535E+02 -0.33810873403E+02 -0.19201526115E+02  0.41637779596E+02  0.00000000000E+00 0. -1.
<scales pt_clust_5="13000.00000" pt_clust_6="13000.00000" pt_clust_7="13000.00000" pt_clust_8="13000.00000" pt_clust_9="36.94599"></scales>
<clustering>
<clus scale="   36.946">  2  9  1 -1</clus>
<clus scale="   92.221">  7  8 -1 -1</clus>
<clus scale="   93.395">  5  6 -1 -1</clus>
<clus scale="  414.627">  2  7  1 -1</clus>
<clus scale="   36.946">  2  5  1 -1</clus>
</clustering>
</event>
<event>
 9    1  0.1315259E-005  0.1576391E+03  0.7546771E-02  0.1192531E+00
         -4   -1    0    0    0  501 -0.00000000000E+00  0.00000000000E+00  0.65847811540E+02  0.65847811540E+02  0.00000000000E+00 0.  1.
         21   -1    0    0  501  502  0.00000000000E+00 -0.00000000000E+00 -0.63924268479E+03  0.63924268479E+03  0.00000000000E+00 0. -1.
         23    2    1    2    0    0  0.13618542259E+03 -0.14915143997E+02 -0.91131568416E+02  0.18806488577E+03  0.91074187637E+02 0.  0.
         23    2    1    2    0    0 -0.10989073080E+03  0.17057803732E+02 -0.27741040112E+03  0.31048090846E+03  0.84112558398E+02 0.  0.
        -11    1    4    4    0    0 -0.76281241385E+02  0.50519943767E+02 -0.19500865977E+03  0.21540536180E+03  0.00000000000E+00 0. -1.
         11    1    4    4    0    0 -0.33609489413E+02 -0.33462140035E+02 -0.82401741349E+02  0.95075546655E+02  0.00000000000E+00 0.  1.
        -13    1    3    3    0    0  0.30425393365E+02 -0.40108742445E+02 -0.74964201389E+01  0.50898055924E+02  0.00000000000E+00 0.  1.
         13    1    3    3    0    0  0.10576002922E+03  0.25193598448E+02 -0.83635148277E+02  0.13716682985E+03  0.00000000000E+00 0. -1.
         -4    1    1    2    0  502 -0.26294691789E+02 -0.21426597344E+01 -0.20485290371E+03  0.20654470210E+03  0.00000000000E+00 0.  1.
<scales pt_clust_5="13000.00000" pt_clust_6="13000.00000" pt_clust_7="13000.00000" pt_clust_8="13000.00000" pt_clust_9="26.38185"></scales>
<clustering>
<clus scale="   26.382">  2  9  1 -1</clus>
<clus scale="   84.113">  5  6 -1 -1</clus>
<clus scale="   91.074">  7  8 -1 -1</clus>
<clus scale="  153.722">  2  5  1 -1</clus>
<clus scale="   26.382">  2  5  1 -1</clus>
</clustering>
</event>
<event>
 9    1  0.1315259E-005  0.2086141E+03  0.7546771E-02  0.1142692E+00
          1   -1    0    0  502    0 -0.00000000000E+00  0.00000000000E+00  0.25679791890E+03  0.25679791890E+03  0.00000000000E+00 0. -1.
         21   -1    0    0  501  502  0.00000000000E+00 -0.00000000000E+00 -0.26722534024E+03  0.26722534024E+03  0.00000000000E+00 0. -1.
         23    2    1    2    0    0  0.22191399519E+03  0.38906539441E+02  0.61750034655E+02  0.25067151532E+03  0.90904354885E+02 0.  0.
         23    2    1    2    0    0 -0.14700673315E+03  0.10450356115E+02 -0.38451335201E+02  0.17751515233E+03  0.91175295951E+02 0.  0.
        -11    1    3    3    0    0  0.19403469394E+03  0.31919847232E+02  0.16853888068E+02  0.19736360517E+03  0.00000000000E+00 0. -1.
         11    1    3    3    0    0  0.27879301249E+02  0.69866922089E+01  0.44896146587E+02  0.53307910150E+02  0.00000000000E+00 0.  1.
        -13    1    4    4    0    0 -0.62865172007E+02 -0.90131435606E+01 -0.61209469355E+02  0.88203547248E+02  0.00000000000E+00 0.  1.
         13    1    4    4    0    0 -0.84141561147E+02  0.19463499676E+02  0.22758134154E+02  0.89311605080E+02  0.00000000000E+00 0. -1.
          1    1    1    2  501    0 -0.74907262040E+02 -0.49356895556E+02 -0.33726120803E+02  0.95836591496E+02  0.00000000000E+00 0. -1.
<scales pt_clust_5="13000.00000" pt_clust_6="13000.00000" pt_clust_7="13000.00000" pt_clust_8="13000.00000" pt_clust_9="89.70619"></scales>
<clustering>
<clus scale="   89.706">  2  9  1 -1</clus>
<clus scale="   90.904">  5  6 -1 -1</clus>
<clus scale="   91.175">  7  8 -1 -1</clus>
<clus scale="  208.496">  1  5  2 -1</clus>
<clus scale="   89.706">  2  5  1 -1</clus>
</clustering>
</event>
<event>
 9    1  0.1315259E-005  0.1212067E+03  0.7546771E-02  0.1241358E+00
         21   -1    0    0  501  502  0.00000000000E+00  0.00000000000E+00  0.95409581782E+03  0.95409581782E+03  0.00000000000E+00 0.  1.
         -2   -1    0    0    0  501 -0.00000000000E+00 -0.00000000000E+00 -0.33264092916E+02  0.33264092916E+02  0.00000000000E+00 0.  1.
         23    2    1    2    0    0 -0.21504772023E+02  0.59468517156E+02  0.25089163503E+03  0.27438118099E+03  0.91320644986E+02 0.  0.
         23    2    1    2    0    0 -0.42271942441E+02 -0.97491705746E+02  0.25274110692E+03  0.28922381998E+03  0.92091265096E+02 0.  0.
        -11    1    4    4    0    0 -0.18739484758E+02  0.13538140810E+02  0.21222331064E+02  0.31382110850E+02  0.00000000000E+00 0. -1.
         11    1    4    4    0    0 -0.23532457683E+02 -0.11102984656E+03  0.23151877586E+03  0.25784170913E+03  0.00000000000E+00 0.  1.
        -13    1    3    3    0    0 -0.49577849223E+02  0.58451343506E+02  0.13605454608E+03  0.15615813203E+03  0.00000000000E+00 0.  1.
         13    1    3    3    0    0  0.28073077200E+02  0.10171736498E+01  0.11483708896E+03  0.11822304896E+03  0.00000000000E+00 0. -1.
         -2    1    1    2    0  502  0.63776714464E+02  0.38023188590E+02  0.41719898295E+03  0.42375490977E+03  0.00000000000E+00 0.  1.
<scales pt_clust_5="13000.00000" pt_clust_6="13000.00000" pt_clust_7="13000.00000" pt_clust_8="13000.00000" pt_clust_9="74.25114"></scales>
<clustering>
<clus scale="   74.251">  1  9  2 -1</clus>
<clus scale="   91.321">  7  8 -1 -1</clus>
<clus scale="   92.091">  5  6 -1 -1</clus>
<clus scale="  120.622">  2  7  1 -1</clus>
<clus scale="   74.251">  1  5  2 -1</clus>
</clustering>
</event>
<event>
 9    1  0.1315259E-005  0.1210148E+03  0.7546771E-02  0.1241472E+00
          2   -1    0    0  502    0 -0.00000000000E+00  0.00000000000E+00  0.64260251078E+03  0.64260251078E+03  0.00000000000E+00 0. -1.
         21   -1    0    0  501  502  0.00000000000E+00 -0.00000000000E+00 -0.35476741853E+03  0.35476741853E+03  0.00000000000E+00 0. -1.
         23    2    1    2    0    0 -0.68904218483E+02  0.35648824571E+02  0.33229140758E+03  0.35333611295E+03  0.91707137914E+02 0.  0.
         23    2    1    2    0    0 -0.14535056862E+01 -0.12090689801E+03  0.27056478667E+03  0.31018138917E+03  0.91578380263E+02 0.  0.
        -11    1    3    3    0    0  0.16697479200E+02 -0.13324000038E+02  0.65881296493E+02  0.69258068240E+02  0.00000000000E+00 0.  1.
         11    1    3    3    0    0 -0.85601697684E+02  0.48972824609E+02  0.26641011109E+03  0.28407804471E+03  0.00000000000E+00 0. -1.
        -13    1    4    4    0    0  0.19495023908E+02 -0.16784234614E+02  0.13770395630E+03  0.14008620942E+03  0.00000000000E+00 0.  1.
         13    1    4    4    0    0 -0.20948529595E+02 -0.10412266340E+03  0.13286083037E+03  0.17009517974E+03  0.00000000000E+00 0. -1.
          2    1    1    2  501    0  0.70357724169E+02  0.85258073440E+02 -0.31502110200E+03  0.33385242719E+03  0.00000000000E+00 0. -1.
<scales pt_clust_5="13000.00000" pt_clust_6="13000.00000" pt_clust_7="13000.00000" pt_clust_8="13000.00000" pt_clust_9="110.54026"></scales>
<clustering>
<clus scale="   91.578">  7  8 -1 -1</clus>
<clus scale="   91.707">  5  6 -1 -1</clus>
<clus scale="  110.540">  2  9  1 -1</clus>
<clus scale="  120.917">  2  7  1 -1</clus>
<clus scale="  110.540">  2  5  1 -1</clus>
</clustering>
</event>
<event>
 9    1  0.1315259E-005  0.1194925E+03  0.7546771E-02  0.1244472E+00
          3   -1    0    0  502    0 -0.00000000000E+00  0.00000000000E+00  0.11620181671E+03  0.11620181671E+03  0.00000000000E+00 0. -1.
         21   -1    0    0  501  502  0.00000000000E+00 -0.00000000000E+00 -0.28444235090E+03  0.28444235090E+03  0.00000000000E+00 0.  1.
         23    2    1    2    0    0  0.68680801763E+02  0.14292428469E+02  0.41137989618E+02  0.12302631601E+03  0.92313672876E+02 0.  0.
         23    2    1    2    0    0 -0.10518943578E+03  0.85938789001E+01 -0.16340124785E+03  0.21460536611E+03  0.90646694424E+02 0.  0.
        -11    1    3    3    0    0  0.74890653449E+02 -0.22832739354E+02  0.28523950896E+02  0.83328024908E+02  0.00000000000E+00 0. -1.
         11    1    3    3    0    0 -0.62098516856E+01  0.37125167823E+02  0.12614038722E+02  0.39698291106E+02  0.00000000000E+00 0.  1.
        -11    1    4    4    0    0 -0.43604229992E+02  0.46289196657E+02 -0.10003995493E+03  0.11854117927E+03  0.00000000000E+00 0.  1.
         11    1    4    4    0    0 -0.61585205787E+02 -0.37695317757E+02 -0.63361292923E+02  0.96064186842E+02  0.00000000000E+00 0. -1.
          3    1    1    2  501    0  0.36508634016E+02 -0.22886307370E+02 -0.45977275952E+02  0.63012485483E+02  0.00000000000E+00 0. -1.
<scales pt_clust_5="13000.00000" pt_clust_6="13000.00000" pt_clust_7="13000.00000" pt_clust_8="13000.00000" pt_clust_9="43.08902"></scales>
<clustering>
<clus scale="   43.089">  2  9  1 -1</clus>
<clus scale="   90.647">  7  8 -1 -1</clus>
<clus scale="   92.314">  5  6 -1 -1</clus>
<clus scale="  118.209">  2  7  1 -1</clus>
<clus scale="   43.089">  2  5  1 -1</clus>
</clustering>
</event>
<event>
 9    1  0.1315259E-005  0.1129096E+03  0.7546771E-02  0.1264536E+00
         -3   -1    0    0    0  501 -0.00000000000E+00  0.00000000000E+00  0.16212977493E+03  0.16212977493E+03  0.00000000000E+00 0.  1.
         21   -1    0    0  501  502  0.00000000000E+00 -0.00000000000E+00 -0.18256971883E+03  0.18256971883E+03  0.00000000000E+00 0. -1.
         23    2    1    2    0    0  0.26838171242E+02  0.68282685394E+02  0.11877277546E+03  0.16632719527E+03  0.90415436375E+02 0.  0.
         23    2    1    2    0    0 -0.11888566993E+02 -0.42617991150E+02 -0.81749924979E+02  0.11368737029E+03  0.65453317224E+02 0.  0.
        -11    1    4    4    0    0 -0.37540208536E+02 -0.34545597016E+02 -0.62170778963E+02  0.80423076831E+02  0.00000000000E+00 0.  1.
         11    1    4    4    0    0  0.25651641543E+02 -0.80723941338E+01 -0.19579146016E+02  0.33264293463E+02  0.00000000000E+00 0. -1.
        -11    1    3    3    0    0  0.37484693125E+02  0.86945401272E+02  0.10103571437E+03  0.13846595466E+03  0.00000000000E+00 0.  1.
         11    1    3    3    0    0 -0.10646521883E+02 -0.18662715879E+02  0.17737061089E+02  0.27861240609E+02  0.00000000000E+00 0. -1.
         -3    1    1    2    0  502 -0.14949604249E+02 -0.25664694244E+02 -0.57462794380E+02  0.64684928196E+02  0.00000000000E+00 0.  1.
<scales pt_clust_5="13000.00000" pt_clust_6="13000.00000" pt_clust_7="13000.00000" pt_clust_8="13000.00000" pt_clust_9="29.70130"></scales>
<clustering>
<clus scale="   29.701">  2  9  1 -1</clus>
<clus scale="   65.453">  5  6 -1 -1</clus>
<clus scale="   90.415">  7  8 -1 -1</clus>
<clus scale="   94.116">  2  5  1 -1</clus>
<clus scale="   29.701">  2  5  1 -1</clus>
</clustering>
</event>
<event>
 9    1  0.1315259E-005  0.1034186E+03  0.7546771E-02  0.1276474E+00
         21   -1    0    0  501  502  0.00000000000E+00  0.00000000000E+00  0.19305998723E+03  0.19305998723E+03  0.00000000000E+00 0.  1.
          3   -1    0    0  502    0 -0.00000000000E+00 -0.00000000000E+00 -0.14636446068E+03  0.14636446068E+03  0.00000000000E+00 0. -1.
         23    2    1    2    0    0  0.43378847043E+02 -0.17154604743E+02 -0.10546112102E+03  0.14843139838E+03  0.93454947124E+02 0.  0.
         23    2    1    2    0    0 -0.23692723389E+02  0.22649537231E+02  0.10739964533E+03  0.14179013298E+03  0.86576043533E+02 0.  0.
        -11    1    3    3    0    0  0.68478036594E+02 -0.31150572464E+02 -0.69715577211E+02  0.10256637542E+03  0.00000000000E+00 0.  1.
         11    1    3    3    0    0 -0.25099189551E+02  0.13995967721E+02 -0.35745543812E+02  0.45865022958E+02  0.00000000000E+00 0. -1.
        -11    1    4    4    0    0  0.23821807028E+02  0.85976044474E+01  0.82572862835E+02  0.86369409915E+02  0.00000000000E+00 0. -1.
         11    1    4    4    0    0 -0.47514530417E+02  0.14051932783E+02  0.24826782500E+02  0.55420723065E+02  0.00000000000E+00 0.  1.
          3    1    1    2  501    0 -0.19686123654E+02 -0.54949324879E+01  0.44757002242E+02  0.49202916553E+02  0.00000000000E+00 0. -1.
<scales pt_clust_5="13000.00000" pt_clust_6="13000.00000" pt_clust_7="13000.00000" pt_clust_8="13000.00000" pt_clust_9="20.43863"></scales>
<clustering>
<clus scale="   20.439">  1  9  2 -1</clus>
<clus scale="   86.576">  7  8 -1 -1</clus>
<clus scale="   93.455">  5  6 -1 -1</clus>
<clus scale="   97.247">  1  7  2 -1</clus>
<clus scale="   20.439">  1  5  2 -1</clus>
</clustering>
</event>
<event>
 9    1  0.1315259E-005  0.1026830E+03  0.7546771E-02  0.1277487E+00
         21   -1    0    0  501  502  0.00000000000E+00  0.00000000000E+00  0.71786832697E+02  0.71786832697E+02  0.00000000000E+00 0. -1.
          1   -1    0    0  502    0 -0.00000000000E+00 -0.00000000000E+00 -0.31938994852E+03  0.31938994852E+03  0.00000000000E+00 0. -1.
         23    2    1    2    0    0 -0.43110122066E+01  0.20489296352E+02 -0.10509807424E+03  0.13988849962E+03  0.89915466001E+02 0.  0.
         23    2    1    2    0    0  0.40275274398E+01 -0.86444258300E+02 -0.14076238653E+03  0.18530969252E+03  0.83885647817E+02 0.  0.
        -11    1    3    3    0    0 -0.38085222460E+02 -0.51548294201E+01 -0.16817709601E+02  0.41951064259E+02  0.00000000000E+00 0.  1.
         11    1    3    3    0    0  0.33774210254E+02  0.25644125772E+02 -0.88280364637E+02  0.97937435362E+02  0.00000000000E+00 0. -1.
        -13    1    4    4    0    0  0.23987883645E+02 -0.47979417044E+02 -0.13003734108E+03  0.14066681590E+03  0.00000000000E+00 0.  1.
         13    1    4    4    0    0 -0.19960356205E+02 -0.38464841257E+02 -0.10725045454E+02  0.44642876618E+02  0.00000000000E+00 0. -1.
          1    1    1    2  501    0  0.28348476677E+00  0.65954961949E+02 -0.17426550480E+01  0.65978589072E+02  0.00000000000E+00 0. -1.
<scales pt_clust_5="13000.00000" pt_clust_6="13000.00000" pt_clust_7="13000.00000" pt_clust_8="13000.00000" pt_clust_9="65.95557"></scales>
<clustering>
<clus scale="   65.956">  1  9  2 -1</clus>
<clus scale="   83.886">  7  8 -1 -1</clus>
<clus scale="   89.915">  5  6 -1 -1</clus>
<clus scale="   97.446">  1  7  2 -1</clus>
<clus scale="   65.956">  1  5  2 -1</clus>
</clustering>
</event>
<event>
 9    1  0.1315259E-005  0.1611744E+03  0.7546771E-02  0.1187379E+00
          2   -1    0    0  502    0 -0.00000000000E+00  0.00000000000E+00  0.34907448043E+03  0.34907448043E+03  0.00000000000E+00 0. -1.
         21   -1    0    0  501  502  0.00000000000E+00 -0.00000000000E+00 -0.63121701471E+03  0.63121701471E+03  0.00000000000E+00 0. -1.
         23    2    1    2    0    0  0.16028328269E+03 -0.30025296292E+02  0.17596292255E+03  0.25660411772E+03  0.91052040031E+02 0.  0.
         23    2    1    2    0    0 -0.51751558978E+02  0.12192645879E+03  0.71058695704E+02  0.17574608580E+03  0.91066257363E+02 0.  0.
        -11    1    4    4    0    0 -0.35132317633E+02  0.52535879973E+01  0.40751800363E+02  0.54060976331E+02  0.00000000000E+00 0.  1.
         11    1    4    4    0    0 -0.16619241345E+02  0.11667287079E+03  0.30306895341E+02  0.12168510947E+03  0.00000000000E+00 0. -1.
        -13    1    3    3    0    0  0.14345347434E+03 -0.46621179538E+02  0.11043788618E+03  0.18694641046E+03  0.00000000000E+00 0.  1.
         13    1    3    3    0    0  0.16829808353E+02  0.16595883245E+02  0.65525036368E+02  0.69657707261E+02  0.00000000000E+00 0. -1.
          2    1    1    2  501    0 -0.10853172371E+03 -0.91901162496E+02 -0.52916415254E+03  0.54794129161E+03  0.00000000000E+00 0. -1.
<scales pt_clust_5="13000.00000" pt_clust_6="13000.00000" pt_clust_7="13000.00000" pt_clust_8="13000.00000" pt_clust_9="142.21448"></scales>
<clustering>
<clus scale="   91.052">  7  8 -1 -1</clus>
<clus scale="   91.066">  5  6 -1 -1</clus>
<clus scale="  142.214">  2  9  1 -1</clus>
<clus scale="  161.166">  1  7  2 -1</clus>
<clus scale="  142.214">  2  5  1 -1</clus>
</clustering>
</event>
<event>
 9    1  0.1315259E-005  0.1067583E+03  0.7546771E-02  0.1266837E+00
         -2   -1    0    0    0  501 -0.00000000000E+00  0.00000000000E+00  0.33939601672E+03  0.33939601672E+03  0.00000000000E+00 0.  1.
         21   -1    0    0  501  502  0.00000000000E+00 -0.00000000000E+00 -0.10713266703E+03  0.10713266703E+03  0.00000000000E+00 0. -1.
         23    2    1    2    0    0 -0.29191204795E+02 -0.45912237081E+02  0.26736175800E+03  0.28800593672E+03  0.92222827931E+02 0.  0.
         23    2    1    2    0    0  0.45749387597E+02  0.30182123702E+02  0.10527110270E+02  0.10750022426E+03  0.91877696465E+02 0.  0.
        -11    1    4    4    0    0  0.62194418739E+02  0.47585255152E+02  0.21431938866E+02  0.81190087041E+02  0.00000000000E+00 0. -1.
         11    1    4    4    0    0 -0.16445031143E+02 -0.17403131450E+02 -0.10904828596E+02  0.26310137215E+02  0.00000000000E+00 0.  1.
        -13    1    3    3    0    0 -0.50118259439E+02  0.53555974039E+01  0.14987315690E+03  0.15812174269E+03  0.00000000000E+00 0. -1.
         13    1    3    3    0    0  0.20927054644E+02 -0.51267834485E+02  0.11748860110E+03  0.12988419403E+03  0.00000000000E+00 0.  1.
         -2    1    1    2    0  502 -0.16558182802E+02  0.15730113379E+02 -0.45625518579E+02  0.51022522774E+02  0.00000000000E+00 0.  1.
<scales pt_clust_5="13000.00000" pt_clust_6="13000.00000" pt_clust_7="13000.00000" pt_clust_8="13000.00000" pt_clust_9="22.83878"></scales>
<clustering>
<clus scale="   22.839">  2  9  1 -1</clus>
<clus scale="   91.878">  5  6 -1 -1</clus>
<clus scale="   92.223">  7  8 -1 -1</clus>
<clus scale="  106.460">  2  5  1 -1</clus>
<clus scale="   22.839">  2  5  1 -1</clus>
</clustering>
</event>
<event>
 9    1  0.1315259E-005  0.2854320E+03  0.7546771E-02  0.1092780E+00
          2   -1    0    0  502    0 -0.00000000000E+00  0.00000000000E+00  0.23378591564E+04  0.23378591564E+04  0.00000000000E+00 0. -1.
         21   -1    0    0  501  502  0.00000000000E+00 -0.00000000000E+00 -0.11359816617E+03  0.11359816617E+03  0.00000000000E+00 0. -1.
         23    2    1    2    0    0 -0.22567589787E+03  0.98998361393E+02  0.98869160734E+03  0.10229766309E+04  0.90773379662E+02 0.  0.
         23    2    1    2    0    0  0.27074720716E+03 -0.11907315946E+03  0.13061705991E+04  0.13423473522E+04  0.91281502243E+02 0.  0.
        -13    1    3    3    0    0 -0.13329479347E+03  0.16591272237E+02  0.41958578466E+03  0.44056214427E+03  0.00000000000E+00 0.  1.
         13    1    3    3    0    0 -0.92381104409E+02  0.82407089156E+02  0.56910582268E+03  0.58241448660E+03  0.00000000000E+00 0. -1.
        -13    1    4    4    0    0  0.25034308417E+03 -0.76485581980E+02  0.11337637307E+04  0.11635900915E+04  0.00000000000E+00 0. -1.
         13    1    4    4    0    0  0.20404122990E+02 -0.42587577484E+02  0.17240686838E+03  0.17875726071E+03  0.00000000000E+00 0.  1.
          2    1    1    2  501    0 -0.45071309286E+02  0.20074798070E+02 -0.70601216198E+02  0.86133339463E+02  0.00000000000E+00 0. -1.
<scales pt_clust_5="13000.00000" pt_clust_6="13000.00000" pt_clust_7="13000.00000" pt_clust_8="13000.00000" pt_clust_9="49.33985"></scales>
<clustering>
<clus scale="   49.340">  2  9  1 -1</clus>
<clus scale="   90.773">  5  6 -1 -1</clus>
<clus scale="   91.282">  7  8 -1 -1</clus>
<clus scale="  285.270">  1  5  2 -1</clus>
<clus scale="   49.340">  2  5  1 -1</clus>
</clustering>
</event>
<event>
 9    1  0.1315259E-005  0.1017382E+03  0.7546771E-02  0.1277441E+00
         -2   -1    0    0    0  501 -0.00000000000E+00  0.00000000000E+00  0.55456774626E+02  0.55456774626E+02  0.00000000000E+00 0.  1.
         21   -1    0    0  501  502  0.00000000000E+00 -0.00000000000E+00 -0.85928395846E+03  0.85928395846E+03  0.00000000000E+00 0.  1.
         23    2    1    2    0    0 -0.28109914772E+02 -0.43740827728E+02 -0.19357998861E+02  0.10623294738E+03  0.90594037722E+02 0.  0.
         23    2    1    2    0    0 -0.35717644282E+02 -0.16946346115E+02 -0.52493330163E+03  0.53443523125E+03  0.92212344496E+02 0.  0.
        -11    1    3    3    0    0  0.32007452712E+02 -0.17925167679E+02  0.36807802543E+01  0.36869185084E+02  0.00000000000E+00 0.  1.
         11    1    3    3    0    0 -0.60117367485E+02 -0.25815660048E+02 -0.23038779115E+02  0.69363762298E+02  0.00000000000E+00 0. -1.
        -13    1    4    4    0    0 -0.54679390081E+02 -0.41770823217E+02 -0.34187448303E+03  0.34873026757E+03  0.00000000000E+00 0.  1.
         13    1    4    4    0    0  0.18961745799E+02  0.24824477101E+02 -0.18305881860E+03  0.18570496368E+03  0.00000000000E+00 0. -1.
         -2    1    1    2    0  502  0.63827559054E+02  0.60687173843E+02 -0.25953588334E+03  0.27407255446E+03  0.00000000000E+00 0.  1.
<scales pt_clust_5="13000.00000" pt_clust_6="13000.00000" pt_clust_7="13000.00000" pt_clust_8="13000.00000" pt_clust_9="88.07321"></scales>
<clustering>
<clus scale="   88.073">  2  9  1 -1</clus>
<clus scale="   90.594">  5  6 -1 -1</clus>
<clus scale="   92.212">  7  8 -1 -1</clus>
<clus scale="  100.274">  1  5  2 -1</clus>
<clus scale="   88.073">  2  5  1 -1</clus>
</clustering>
</event>
<event>
 9    1  0.1315259E-005  0.1015639E+03  0.7546771E-02  0.1277673E+00
         -2   -1    0    0    0  501 -0.00000000000E+00  0.00000000000E+00  0.19745462963E+03  0.19745462963E+03  0.00000000000E+00 0.  1.
         21   -1    0    0  501  502  0.00000000000E+00 -0.00000000000E+00 -0.78702844021E+02  0.78702844021E+02  0.00000000000E+00 0. -1.
         23    2    1    2    0    0  0.22294425749E+02 -0.26384708093E+02  0.74624154471E+02  0.12210495791E+03  0.90264400924E+02 0.  0.
         23    2    1    2    0    0 -0.31946291923E+02  0.60480136700E+02  0.33765229258E+02  0.11713319634E+03  0.88891408330E+02 0.  0.
        -13    1    3    3    0    0 -0.20186128566E+02 -0.43874981227E+02  0.24648461776E+02  0.54222139686E+02  0.00000000000E+00 0.  1.
         13    1    3    3    0    0  0.42480554315E+02  0.17490273135E+02  0.49975692694E+02  0.67882818220E+02  0.00000000000E+00 0. -1.
        -13    1    4    4    0    0  0.15935703856E+02  0.57339861544E+02  0.19225782850E+01  0.59544123862E+02  0.00000000000E+00 0. -1.
         13    1    4    4    0    0 -0.47881995779E+02  0.31402751563E+01  0.31842650973E+02  0.57589072477E+02  0.00000000000E+00 0.  1.
         -2    1    1    2    0  502  0.96518661739E+01 -0.34095428608E+02  0.10362401879E+02  0.36919319404E+02  0.00000000000E+00 0.  1.
<scales pt_clust_5="13000.00000" pt_clust_6="13000.00000" pt_clust_7="13000.00000" pt_clust_8="13000.00000" pt_clust_9="35.43525"></scales>
<clustering>
<clus scale="   35.435">  2  9  1 -1</clus>
<clus scale="   88.891">  7  8 -1 -1</clus>
<clus scale="   90.264">  5  6 -1 -1</clus>
<clus scale="  100.346">  2  7  1 -1</clus>
<clus scale="   35.435">  2  5  1 -1</clus>
</clustering>
</event>
<event>
 9    1  0.1315259E-005  0.1520909E+03  0.7546771E-02  0.1198534E+00
         -3   -1    0    0    0  501 -0.00000000000E+00  0.00000000000E+00  0.47146526367E+03  0.47146526367E+03  0.00000000000E+00 0.  1.
         21   -1    0    0  501  502  0.00000000000E+00 -0.00000000000E+00 -0.14506612050E+03  0.14506612050E+03  0.00000000000E+00 0. -1.
         23    2    1    2    0    0  0.18468283527E+02 -0.11860543484E+03  0.38257440810E+03  0.41142906919E+03  0.92208321621E+02 0.  0.
         23    2    1    2    0    0 -0.54899323469E+02  0.12043584186E+03 -0.54855255482E+02  0.16860144531E+03  0.88874184020E+02 0.  0.
        -13    1    4    4    0    0  0.16961448502E+02  0.27630681934E+02  0.10724331951E+02  0.34149035348E+02  0.00000000000E+00 0.  1.
         13    1    4    4    0    0 -0.71860771970E+02  0.92805159929E+02 -0.65579587433E+02  0.13445240997E+03  0.00000000000E+00 0. -1.
        -13    1    3    3    0    0 -0.37468688580E+02 -0.44472812316E+02  0.16095526255E+03  0.17113833645E+03  0.00000000000E+00 0. -1.
         13    1    3    3    0    0  0.55936972107E+02 -0.74132622526E+02  0.22161914554E+03  0.24029073274E+03  0.00000000000E+00 0.  1.
         -3    1    1    2    0  502  0.36431039941E+02 -0.18304070219E+01 -0.13200094437E+01  0.36500869661E+02  0.00000000000E+00 0.  1.
<scales pt_clust_5="13000.00000" pt_clust_6="13000.00000" pt_clust_7="13000.00000" pt_clust_8="13000.00000" pt_clust_9="36.47699"></scales>
<clustering>
<clus scale="   36.477">  2  9  1 -1</clus>
<clus scale="   88.874">  5  6 -1 -1</clus>
<clus scale="   92.208">  7  8 -1 -1</clus>
<clus scale="  150.093">  2  5  1 -1</clus>
<clus scale="   36.477">  2  5  1 -1</clus>
</clustering>
</event>
<event>
 9    1  0.1315259E-005  0.3644228E+03  0.7546771E-02  0.1056915E+00
          1   -1    0    0  502    0 -0.00000000000E+00  0.00000000000E+00  0.13944204461E+04  0.13944204461E+04  0.00000000000E+00 0. -1.
         21   -1    0    0  501  502  0.00000000000E+00 -0.00000000000E+00 -0.27061831523E+03  0.27061831523E+03  0.00000000000E+00 0. -1.
         23    2    1    2    0    0 -0.27829387457E+03 -0.23291816400E+03  0.77451374121E+03  0.86008050010E+03  0.90380194637E+02 0.  0.
         23    2    1    2    0    0  0.25919355578E+03  0.22108112309E+03  0.52274030488E+03  0.63005684725E+03  0.87498811857E+02 0.  0.
        -11    1    3    3    0    0 -0.22329238487E+03 -0.18994653057E+03  0.52853768083E+03  0.60439329387E+03  0.00000000000E+00 0.  1.
         11    1    3    3    0    0 -0.55001489694E+02 -0.42971633429E+02  0.24597606038E+03  0.25568720623E+03  0.00000000000E+00 0. -1.
        -13    1    4    4    0    0  0.22340033581E+03  0.15345738237E+03  0.44458039860E+03  0.52068090907E+03  0.00000000000E+00 0. -1.
         13    1    4    4    0    0  0.35793219965E+02  0.67623740713E+02  0.78159906277E+02  0.10937593818E+03  0.00000000000E+00 0.  1.
          1    1    1    2  501    0  0.19100318789E+02  0.11837040914E+02 -0.17345191523E+03  0.17490141398E+03  0.00000000000E+00 0. -1.
<scales pt_clust_5="13000.00000" pt_clust_6="13000.00000" pt_clust_7="13000.00000" pt_clust_8="13000.00000" pt_clust_9="22.47082"></scales>
<clustering>
<clus scale="   22.471">  2  9  1 -1</clus>
<clus scale="   87.499">  7  8 -1 -1</clus>
<clus scale="   90.380">  5  6 -1 -1</clus>
<clus scale="  363.719">  2  7  1 -1</clus>
<clus scale="   22.471">  2  5  1 -1</clus>
</clustering>
</event>
<event>
 9    1  0.1315259E-005  0.1052452E+03  0.7546771E-02  0.1271381E+00
         21   -1    0    0  501  502  0.00000000000E+00  0.00000000000E+00  0.17024370857E+03  0.17024370857E+03  0.00000000000E+00 0.  1.
         -1   -1    0    0    0  501 -0.00000000000E+00 -0.00000000000E+00 -0.28922988234E+03  0.28922988234E+03  0.00000000000E+00 0.  1.
         23    2    1    2    0    0 -0.63401806397E+01 -0.66579462289E+02 -0.19729852600E+03  0.22610611338E+03  0.87887675218E+02 0.  0.
         23    2    1    2    0    0 -0.19605440274E+01  0.18811544006E+02 -0.42637774023E+02  0.10306164846E+03  0.91902152801E+02 0.  0.
        -11    1    3    3    0    0  0.36954945241E+02 -0.83749051739E+01 -0.66417689533E+02  0.76466440334E+02  0.00000000000E+00 0. -1.
         11    1    3    3    0    0 -0.43295125881E+02 -0.58204557115E+02 -0.13088083647E+03  0.14963967305E+03  0.00000000000E+00 0.  1.
        -13    1    4    4    0    0 -0.32431046297E+02 -0.18147454175E+02 -0.40711475792E+02  0.55122836630E+02  0.00000000000E+00 0.  1.
         13    1    4    4    0    0  0.30470502270E+02  0.36958998181E+02 -0.19262982311E+01  0.47938811833E+02  0.00000000000E+00 0. -1.
         -1    1    1    2    0  502  0.83007246671E+01  0.47767918284E+02  0.12095012626E+03  0.13030582907E+03  0.00000000000E+00 0.  1.
<scales pt_clust_5="13000.00000" pt_clust_6="13000.00000" pt_clust_7="13000.00000" pt_clust_8="13000.00000" pt_clust_9="48.48377"></scales>
<clustering>
<clus scale="   48.484">  1  9  2 -1</clus>
<clus scale="   87.888">  5  6 -1 -1</clus>
<clus scale="   91.902">  7  8 -1 -1</clus>
<clus scale="  101.758">  2  5  1 -1</clus>
<clus scale="   48.484">  1  5  2 -1</clus>
</clustering>
</event>
<event>
 9    1  0.1315259E-005  0.9793291E+02  0.7546771E-02  0.1286134E+00
          4   -1    0    0  502    0 -0.00000000000E+00  0.00000000000E+00  0.49909079336E+02  0.49909079336E+02  0.00000000000E+00 0. -1.
         21   -1    0    0  501  502  0.00000000000E+00 -0.00000000000E+00 -0.56275093940E+03  0.56275093940E+03  0.00000000000E+00 0.  1.
         23    2    1    2    0    0  0.24381446398E+02 -0.34976110682E+02 -0.40113715278E+02  0.10802488720E+03  0.90788120664E+02 0.  0.
         23    2    1    2    0    0 -0.13835175281E+02 -0.12335759604E+02 -0.14627896032E+03  0.17460678890E+03  0.93522261835E+02 0.  0.
        -11    1    4    4    0    0 -0.30996541726E+02 -0.27149967847E+02 -0.14624149458E+03  0.15193577949E+03  0.00000000000E+00 0.  1.
         11    1    4    4    0    0  0.17161366445E+02  0.14814208243E+02 -0.37465742107E-01  0.22671009413E+02  0.00000000000E+00 0. -1.
        -13    1    3    3    0    0 -0.28058230404E+02  0.10529869782E+02 -0.18875507252E+02  0.35417894137E+02  0.00000000000E+00 0.  1.
         13    1    3    3    0    0  0.52439676803E+02 -0.45505980464E+02 -0.21238208025E+02  0.72606993061E+02  0.00000000000E+00 0. -1.
          4    1    1    2  501    0 -0.10546271118E+02  0.47311870287E+02 -0.32644918447E+03  0.33002834264E+03  0.00000000000E+00 0. -1.
<scales pt_clust_5="13000.00000" pt_clust_6="13000.00000" pt_clust_7="13000.00000" pt_clust_8="13000.00000" pt_clust_9="48.47305"></scales>
<clustering>
<clus scale="   48.473">  2  9  1 -1</clus>
<clus scale="   90.788">  7  8 -1 -1</clus>
<clus scale="   93.522">  5  6 -1 -1</clus>
<clus scale="   95.325">  1  7  2 -1</clus>
<clus scale="   48.473">  2  5  1 -1</clus>
</clustering>
</event>
<event>
 9    1  0.1315259E-005  0.1239626E+03  0.7546771E-02  0.1239602E+00
         21   -1    0    0  501  502  0.00000000000E+00  0.00000000000E+00  0.41765254325E+03  0.41765254325E+03  0.00000000000E+00 0. -1.
         -4   -1    0    0    0  501 -0.00000000000E+00 -0.00000000000E+00 -0.50875064972E+02  0.50875064972E+02  0.00000000000E+00 0.  1.
         23    2    1    2    0    0  0.63674698899E+02 -0.34170741444E+02  0.81757179011E+02  0.14187951364E+03  0.90683257655E+02 0.  0.
         23    2    1    2    0    0 -0.51672722673E+02  0.61471841372E+02  0.21029874235E+03  0.24619494947E+03  0.99687183539E+02 0.  0.
        -11    1    4    4    0    0 -0.53502646927E+02  0.86606708538E+02  0.17992561298E+03  0.20672803728E+03  0.00000000000E+00 0. -1.
         11    1    4    4    0    0  0.18299242534E+01 -0.25134867166E+02  0.30373129371E+02  0.39466912193E+02  0.00000000000E+00 0.  1.
        -13    1    3    3    0    0  0.87182644075E+02 -0.28893810337E+02  0.63799159165E+02  0.11183022138E+03  0.00000000000E+00 0. -1.
         13    1    3    3    0    0 -0.23507945176E+02 -0.52769311071E+01  0.17958019846E+02  0.30049292256E+02  0.00000000000E+00 0.  1.
         -4    1    1    2    0  502 -0.12001976226E+02 -0.27301099927E+02  0.74721556911E+02  0.80453145108E+02  0.00000000000E+00 0.  1.
<scales pt_clust_5="13000.00000" pt_clust_6="13000.00000" pt_clust_7="13000.00000" pt_clust_8="13000.00000" pt_clust_9="29.82277"></scales>
<clustering>
<clus scale="   29.823">  1  9  2 -1</clus>
<clus scale="   90.683">  7  8 -1 -1</clus>
<clus scale="   99.687">  5  6 -1 -1</clus>
<clus scale="  116.845">  2  7  1 -1</clus>
<clus scale="   29.823">  1  5  2 -1</clus>
</clustering>
</event>
<event>
 9    1  0.1315259E-005  0.1202134E+03  0.7546771E-02  0.1247099E+00
          1   -1    0    0  502    0 -0.00000000000E+00  0.00000000000E+00  0.48733639971E+03  0.48733639971E+03  0.00000000000E+00 0. -1.
         21   -1    0    0  501  502  0.00000000000E+00 -0.00000000000E+00 -0.82859854433E+02  0.82859854433E+02  0.00000000000E+00 0. -1.
         23    2    1    2    0    0 -0.22953181063E+02 -0.20358015799E+02  0.15581210828E+03  0.18943039454E+03  0.10327228071E+03 0.  0.
         23    2    1    2    0    0  0.28851544940E+01  0.97746044361E+02  0.26708265585E+03  0.29872402003E+03  0.91325143198E+02 0.  0.
        -11    1    3    3    0    0  0.18299728421E+02 -0.49834288355E+02  0.54182692709E+02  0.75855787816E+02  0.00000000000E+00 0.  1.
         11    1    3    3    0    0 -0.41252909484E+02  0.29476272555E+02  0.10162941557E+03  0.11357460673E+03  0.00000000000E+00 0. -1.
        -13    1    4    4    0    0  0.10479170424E+02  0.19014541880E+02  0.16689531902E+01  0.21775013672E+02  0.00000000000E+00 0.  1.
         13    1    4    4    0    0 -0.75940159297E+01  0.78731502481E+02  0.26541370266E+03  0.27694900636E+03  0.00000000000E+00 0. -1.
          1    1    1    2  501    0  0.20068026569E+02 -0.77388028562E+02 -0.18418218849E+02  0.82041839574E+02  0.00000000000E+00 0. -1.
<scales pt_clust_5="13000.00000" pt_clust_6="13000.00000" pt_clust_7="13000.00000" pt_clust_8="13000.00000" pt_clust_9="79.94769"></scales>
<clustering>
<clus scale="   79.948">  2  9  1 -1</clus>
<clus scale="   91.325">  7  8 -1 -1</clus>
<clus scale="  103.272">  5  6 -1 -1</clus>
<clus scale="  110.120">  2  7  1 -1</clus>
<clus scale="   79.948">  2  5  1 -1</clus>
</clustering>
</event>
<event>
 9    1  0.1315259E-005  0.9383233E+02  0.7546771E-02  0.1295525E+00
         21   -1    0    0  501  502  0.00000000000E+00  0.00000000000E+00  0.19180410275E+03  0.19180410275E+03  0.00000000000E+00 0. -1.
          1   -1    0    0  502    0 -0.00000000000E+00 -0.00000000000E+00 -0.18776042898E+03  0.18776042898E+03  0.00000000000E+00 0. -1.
         23    2    1    2    0    0 -0.10032441838E+02  0.54019908605E+01 -0.12749115254E+03  0.15818892060E+03  0.92951112042E+02 0.  0.
         23    2    1    2    0    0  0.24187135054E+02  0.54150000289E+02  0.48453582895E+02  0.11818022365E+03  0.90008752531E+02 0.  0.
        -11    1    4    4    0    0  0.45414994216E+02  0.62490785815E+02  0.54553200088E+02  0.94570987366E+02  0.00000000000E+00 0. -1.
         11    1    4    4    0    0 -0.21227859162E+02 -0.83407855263E+01 -0.60996171939E+01  0.23609236280E+02  0.00000000000E+00 0.  1.
        -13    1    3    3    0    0  0.40744349632E+02 -0.37647135027E+01 -0.68741393726E+02  0.79997839384E+02  0.00000000000E+00 0.  1.
         13    1    3    3    0    0 -0.50776791470E+02  0.91667043632E+01 -0.58749758812E+02  0.78191081214E+02  0.00000000000E+00 0. -1.
          1    1    1    2  501    0 -0.14154693216E+02 -0.59551991150E+02  0.83081243419E+02  0.10319538748E+03  0.00000000000E+00 0. -1.
<scales pt_clust_5="13000.00000" pt_clust_6="13000.00000" pt_clust_7="13000.00000" pt_clust_8="13000.00000" pt_clust_9="61.21107"></scales>
<clustering>
<clus scale="   61.211">  1  9  2 -1</clus>
<clus scale="   90.009">  5  6 -1 -1</clus>
<clus scale="   90.918">  1  5  2 -1</clus>
<clus scale="   92.951">  7  8 -1 -1</clus>
<clus scale="   61.211">  1  5  2 -1</clus>
</clustering>
</event>
<event>
 9    1  0.1315259E-005  0.1675619E+03  0.7546771E-02  0.1180632E+00
         -3   -1    0    0    0  501 -0.00000000000E+00  0.00000000000E+00  0.43582498600E+03  0.43582498600E+03  0.00000000000E+00 0.  1.
         21   -1    0    0  501  502  0.00000000000E+00 -0.00000000000E+00 -0.14615536267E+03  0.14615536267E+03  0.00000000000E+00 0.  1.
         23    2    1    2    0    0  0.81167947520E+02 -0.95807359907E+02  0.18580021994E+03  0.24235575189E+03  0.91909209698E+02 0.  0.
         23    2    1    2    0    0 -0.72625934010E+02  0.14678620539E+03  0.17198787333E+03  0.25411474572E+03  0.90408843792E+02 0.  0.
        -11    1    4    4    0    0 -0.45520838112E+02  0.40169597649E+02  0.15201261407E+02  0.62584515865E+02  0.00000000000E+00 0.  1.
         11    1    4    4    0    0 -0.27105095898E+02  0.10661660774E+03  0.15678661192E+03  0.19153022985E+03  0.00000000000E+00 0. -1.
        -13    1    3    3    0    0 -0.20042176177E+02 -0.90769832550E+01  0.32033852229E+02  0.38861911167E+02  0.00000000000E+00 0. -1.
         13    1    3    3    0    0  0.10121012370E+03 -0.86730376652E+02  0.15376636772E+03  0.20349384073E+03  0.00000000000E+00 0.  1.
         -3    1    1    2    0  502 -0.85420135101E+01 -0.50978845485E+02 -0.68118469942E+02  0.85509851064E+02  0.00000000000E+00 0.  1.
<scales pt_clust_5="13000.00000" pt_clust_6="13000.00000" pt_clust_7="13000.00000" pt_clust_8="13000.00000" pt_clust_9="51.68954"></scales>
<clustering>
<clus scale="   51.690">  2  9  1 -1</clus>
<clus scale="   90.409">  5  6 -1 -1</clus>
<clus scale="   91.909">  7  8 -1 -1</clus>
<clus scale="  166.744">  2  5  1 -1</clus>
<clus scale="   51.690">  2  5  1 -1</clus>
</clustering>
</event>
<event>
 9    1  0.1315259E-005  0.1168020E+03  0.7546771E-02  0.1248639E+00
         21   -1    0    0  501  502  0.00000000000E+00  0.00000000000E+00  0.20938511071E+03  0.20938511071E+03  0.00000000000E+00 0. -1.
          2   -1    0    0  502    0 -0.00000000000E+00 -0.00000000000E+00 -0.28341575340E+03  0.28341575340E+03  0.00000000000E+00 0. -1.
         23    2    1    2    0    0  0.53169554804E+02 -0.57039103385E+02 -0.21415367476E+03  0.24512918307E+03  0.90255521192E+02 0.  0.
         23    2    1    2    0    0 -0.37498923094E+02  0.43991356500E+02  0.15682109812E+01  0.10762436461E+03  0.90769685972E+02 0.  0.
        -13    1    3    3    0    0  0.60798756135E+01 -0.19416631629E+02  0.22669515471E+01  0.20472165020E+02  0.00000000000E+00 0.  1.
         13    1    3    3    0    0  0.47089679190E+02 -0.37622471755E+02 -0.21642062630E+03  0.22465701805E+03  0.00000000000E+00 0. -1.
        -13    1    4    4    0    0 -0.43379974146E+02  0.66768143052E+02  0.14268280850E+02  0.80891228955E+02  0.00000000000E+00 0. -1.
         13    1    4    4    0    0  0.58810510521E+01 -0.22776786552E+02 -0.12700069869E+02  0.26733135652E+02  0.00000000000E+00 0.  1.
          2    1    1    2  501    0 -0.15670631710E+02  0.13047746885E+02  0.13855482108E+03  0.14004731644E+03  0.00000000000E+00 0. -1.
<scales pt_clust_5="13000.00000" pt_clust_6="13000.00000" pt_clust_7="13000.00000" pt_clust_8="13000.00000" pt_clust_9="20.39148"></scales>
<clustering>
<clus scale="   20.391">  1  9  2 -1</clus>
<clus scale="   90.256">  5  6 -1 -1</clus>
<clus scale="   90.770">  7  8 -1 -1</clus>
<clus scale="  116.403">  2  5  1 -1</clus>
<clus scale="   20.391">  1  5  2 -1</clus>
</clustering>
</event>
<event>
 9    1  0.1315259E-005  0.1560684E+03  0.7546771E-02  0.1194032E+00
         21   -1    0    0  501  502  0.00000000000E+00  0.00000000000E+00  0.54986048353E+02  0.54986048353E+02  0.00000000000E+00 0. -1.
          2   -1    0    0  502    0 -0.00000000000E+00 -0.00000000000E+00 -0.61685721567E+03  0.61685721567E+03  0.00000000000E+00 0. -1.
         23    2    1    2    0    0 -0.69550404950E+02 -0.86570286053E+02 -0.27343739318E+03  0.30863290210E+03  0.90302751970E+02 0.  0.
         23    2    1    2    0    0  0.10463844269E+03  0.11137550056E+03 -0.25222398642E+03  0.30701767747E+03  0.85376865374E+02 0.  0.
        -11    1    3    3    0    0 -0.76188564472E+02 -0.24477593643E+02 -0.16811788274E+03  0.18619203110E+03  0.00000000000E+00 0.  1.
         11    1    3    3    0    0  0.66381595227E+01 -0.62092692410E+02 -0.10531951044E+03  0.12244087100E+03  0.00000000000E+00 0. -1.
        -13    1    4    4    0    0  0.15040839708E+01  0.59648436430E+02 -0.87016696840E+02  0.10550878526E+03  0.00000000000E+00 0.  1.
         13    1    4    4    0    0  0.10313435872E+03  0.51727064131E+02 -0.16520728958E+03  0.20150889222E+03  0.00000000000E+00 0. -1.
          2    1    1    2  501    0 -0.35088037740E+02 -0.24805214508E+02 -0.36209787715E+02  0.56192684450E+02  0.00000000000E+00 0. -1.
<scales pt_clust_5="13000.00000" pt_clust_6="13000.00000" pt_clust_7="13000.00000" pt_clust_8="13000.00000" pt_clust_9="42.97056"></scales>
<clustering>
<clus scale="   42.971">  1  9  2 -1</clus>
<clus scale="   85.377">  7  8 -1 -1</clus>
<clus scale="   90.303">  5  6 -1 -1</clus>
<clus scale="  153.271">  1  7  2 -1</clus>
<clus scale="   42.971">  1  5  2 -1</clus>
</clustering>
</event>
<event>
 9    1  0.1315259E-005  0.1210553E+03  0.7546771E-02  0.1241760E+00
         21   -1    0    0  501  502  0.00000000000E+00  0.00000000000E+00  0.21666799854E+03  0.21666799854E+03  0.00000000000E+00 0. -1.
          1   -1    0    0  502    0 -0.00000000000E+00 -0.00000000000E+00 -0.16657489086E+03  0.16657489086E+03  0.00000000000E+00 0. -1.
         23    2    1    2    0    0 -0.71274607941E+01 -0.72914085603E+02 -0.10205478895E+03  0.15615709966E+03  0.92750176553E+02 0.  0.
         23    2    1    2    0    0  0.17004458866E+02  0.10020363088E+03  0.10800836728E+03  0.17425992086E+03  0.91492039835E+02 0.  0.
        -11    1    4    4    0    0  0.29100993423E+02 -0.35624845433E+01  0.40041995714E+02  0.49627820172E+02  0.00000000000E+00 0.  1.
         11    1    4    4    0    0 -0.12096534556E+02  0.10376611542E+03  0.67966371569E+02  0.12463210069E+03  0.00000000000E+00 0. -1.
        -13    1    3    3    0    0  0.48524261484E+01 -0.92955964429E+02 -0.91529596809E+02  0.13054510506E+03  0.00000000000E+00 0. -1.
         13    1    3    3    0    0 -0.11979886943E+02  0.20041878826E+02 -0.10525192140E+02  0.25611994604E+02  0.00000000000E+00 0.  1.
          1    1    1    2  501    0 -0.98769980723E+01 -0.27289545277E+02  0.44139529346E+02  0.52825868883E+02  0.00000000000E+00 0. -1.
<scales pt_clust_5="13000.00000" pt_clust_6="13000.00000" pt_clust_7="13000.00000" pt_clust_8="13000.00000" pt_clust_9="29.02196"></scales>
<clustering>
<clus scale="   29.022">  1  9  2 -1</clus>
<clus scale="   91.492">  5  6 -1 -1</clus>
<clus scale="   92.750">  7  8 -1 -1</clus>
<clus scale="  120.094">  1  5  2 -1</clus>
<clus scale="   29.022">  1  5  2 -1</clus>
</clustering>
</event>
<event>
 9    1  0.1315259E-005  0.1152075E+03  0.7546771E-02  0.1262234E+00
          4   -1    0    0  502    0 -0.00000000000E+00  0.00000000000E+00  0.92248154855E+02  0.92248154855E+02  0.00000000000E+00 0. -1.
         21   -1    0    0  501  502  0.00000000000E+00 -0.00000000000E+00 -0.38137555066E+03  0.38137555066E+03  0.00000000000E+00 0. -1.
         23    2    1    2    0    0 -0.12345070849E+02  0.39086736060E+02  0.43593871247E+02  0.10400497696E+03  0.85067243472E+02 0.  0.
         23    2    1    2    0    0  0.48924002149E+01 -0.11401224860E+02 -0.15736447047E+03  0.19193351269E+03  0.10918320942E+03 0.  0.
        -13    1    4    4    0    0  0.47793408123E+02  0.23546548497E+02 -0.62665578246E+02  0.82253416361E+02  0.00000000000E+00 0. -1.
         13    1    4    4    0    0 -0.42901007908E+02 -0.34947773357E+02 -0.94698892221E+02  0.10968009633E+03  0.00000000000E+00 0.  1.
        -13    1    3    3    0    0  0.83587188372E+01 -0.23997154480E+02  0.16357271174E+01  0.25463841166E+02  0.00000000000E+00 0.  1.
         13    1    3    3    0    0 -0.20703789686E+02  0.63083890539E+02  0.41958144129E+02  0.78541135794E+02  0.00000000000E+00 0. -1.
          4    1    1    2  501    0  0.74526706340E+01 -0.27685511200E+02 -0.17535679658E+03  0.17768521587E+03  0.00000000000E+00 0. -1.
<scales pt_clust_5="13000.00000" pt_clust_6="13000.00000" pt_clust_7="13000.00000" pt_clust_8="13000.00000" pt_clust_9="28.67106"></scales>
<clustering>
<clus scale="   28.671">  2  9  1 -1</clus>
<clus scale="   85.067">  7  8 -1 -1</clus>
<clus scale="   92.673">  1  7  2 -1</clus>
<clus scale="  109.183">  5  6 -1 -1</clus>
<clus scale="   28.671">  2  5  1 -1</clus>
</clustering>
</event>
<event>
 9    1  0.1315259E-005  0.1217492E+03  0.7546771E-02  0.1241376E+00
         21   -1    0    0  501  502  0.00000000000E+00  0.00000000000E+00  0.50350026638E+02  0.50350026638E+02  0.00000000000E+00 0.  1.
         -3   -1    0    0    0  501 -0.00000000000E+00 -0.00000000000E+00 -0.51254072691E+03  0.51254072691E+03  0.00000000000E+00 0.  1.
         23    2    1    2    0    0  0.44671852183E+02  0.32514821027E+02 -0.19959328455E+03  0.22733392089E+03  0.93757369774E+02 0.  0.
         23    2    1    2    0    0 -0.86388883507E+02 -0.67556813165E+02 -0.23485272944E+03  0.27441748745E+03  0.90123197309E+02 0.  0.
        -11    1    4    4    0    0  0.40160247689E+01 -0.20246354287E+02 -0.26820361181E+01  0.20814337236E+02  0.00000000000E+00 0. -1.
         11    1    4    4    0    0 -0.90404908276E+02 -0.47310458878E+02 -0.23217069332E+03  0.25360315021E+03  0.00000000000E+00 0.  1.
        -13    1    3    3    0    0  0.13352251659E+02  0.50727366117E+02 -0.17706348902E+03  0.18467005020E+03  0.00000000000E+00 0. -1.
         13    1    3    3    0    0  0.31319600524E+02 -0.18212545090E+02 -0.22529795528E+02  0.42663870689E+02  0.00000000000E+00 0.  1.
         -3    1    1    2    0  502  0.41717031324E+02  0.35041992138E+02 -0.27744686283E+02  0.61139345208E+02  0.00000000000E+00 0.  1.
<scales pt_clust_5="13000.00000" pt_clust_6="13000.00000" pt_clust_7="13000.00000" pt_clust_8="13000.00000" pt_clust_9="54.48167"></scales>
<clustering>
<clus scale="   54.482">  1  9  2 -1</clus>
<clus scale="   90.123">  5  6 -1 -1</clus>
<clus scale="   93.757">  7  8 -1 -1</clus>
<clus scale="  118.973">  1  5  2 -1</clus>
<clus scale="   54.482">  1  5  2 -1</clus>
</clustering>
</event>
<event>
 9    1  0.1315259E-005  0.9639012E+02  0.7546771E-02  0.1294240E+00
         21   -1    0    0  501  502  0.00000000000E+00  0.00000000000E+00  0.21074669098E+03  0.21074669098E+03  0.00000000000E+00 0.  1.
         -2   -1    0    0    0  501 -0.00000000000E+00 -0.00000000000E+00 -0.12184022561E+03  0.12184022561E+03  0.00000000000E+00 0.  1.
         23    2    1    2    0    0  0.11292213143E+02  0.16672000979E+01 -0.18428129385E+02  0.83441832910E+02  0.80576981160E+02 0.  0.
         23    2    1    2    0    0 -0.46698357992E+02  0.36680304068E+02 -0.20434722899E+02  0.11112651717E+03  0.91680660843E+02 0.  0.
        -13    1    4    4    0    0  0.48317333306E+01  0.39078323467E+02  0.21304083338E+02  0.44769688170E+02  0.00000000000E+00 0. -1.
         13    1    4    4    0    0 -0.51530091323E+02 -0.23980193991E+01 -0.41738806237E+02  0.66356829000E+02  0.00000000000E+00 0.  1.
        -13    1    3    3    0    0 -0.24414526022E+02  0.20560928402E+02 -0.27392885519E+02  0.42061752635E+02  0.00000000000E+00 0.  1.
         13    1    3    3    0    0  0.35706739165E+02 -0.18893728304E+02  0.89647561337E+01  0.41380080275E+02  0.00000000000E+00 0. -1.
         -2    1    1    2    0  502  0.35406144849E+02 -0.38347504165E+02  0.12776931765E+03  0.13801856651E+03  0.00000000000E+00 0.  1.
<scales pt_clust_5="13000.00000" pt_clust_6="13000.00000" pt_clust_7="13000.00000" pt_clust_8="13000.00000" pt_clust_9="52.19316"></scales>
<clustering>
<clus scale="   52.193">  1  9  2 -1</clus>
<clus scale="   80.577">  7  8 -1 -1</clus>
<clus scale="   85.897">  2  7  1 -1</clus>
<clus scale="   91.681">  5  6 -1 -1</clus>
<clus scale="   52.193">  1  5  2 -1</clus>
</clustering>
</event>
<event>
 9    1  0.1315259E-005  0.1114254E+03  0.7546771E-02  0.1260603E+00
         -3   -1    0    0    0  501 -0.00000000000E+00  0.00000000000E+00  0.59904367384E+02  0.59904367384E+02  0.00000000000E+00 0.  1.
         21   -1    0    0  501  502  0.00000000000E+00 -0.00000000000E+00 -0.39793704364E+03  0.39793704364E+03  0.00000000000E+00 0. -1.
         23    2    1    2    0    0  0.10583519144E+02 -0.80417613407E+02 -0.50047896818E+02  0.13172180085E+03  0.90922150322E+02 0.  0.
         23    2    1    2    0    0  0.14006944433E+02  0.39643245522E+02 -0.12487117105E+03  0.15619818946E+03  0.83888519025E+02 0.  0.
        -11    1    3    3    0    0 -0.23188910080E+02  0.10870856559E+01 -0.35335383788E+02  0.42278796735E+02  0.00000000000E+00 0. -1.
         11    1    3    3    0    0  0.33772429224E+02 -0.81504699063E+02 -0.14712513030E+02  0.89443004113E+02  0.00000000000E+00 0.  1.
        -13    1    4    4    0    0 -0.21445289555E+02  0.32309361466E+02 -0.11074287747E+03  0.11733618450E+03  0.00000000000E+00 0. -1.
         13    1    4    4    0    0  0.35452233988E+02  0.73338840562E+01 -0.14128293573E+02  0.38862004959E+02  0.00000000000E+00 0.  1.
         -3    1    1    2    0  502 -0.24590463577E+02  0.40774367885E+02 -0.16311360839E+03  0.16992142071E+03  0.00000000000E+00 0.  1.
<scales pt_clust_5="13000.00000" pt_clust_6="13000.00000" pt_clust_7="13000.00000" pt_clust_8="13000.00000" pt_clust_9="47.61554"></scales>
<clustering>
<clus scale="   47.616">  2  9  1 -1</clus>
<clus scale="   83.889">  7  8 -1 -1</clus>
<clus scale="   90.922">  5  6 -1 -1</clus>
<clus scale="  105.764">  2  7  1 -1</clus>
<clus scale="   47.616">  2  5  1 -1</clus>
</clustering>
</event>
<event>
 9    1  0.1315259E-005  0.4779257E+03  0.7546771E-02  0.1019731E+00
         -1   -1    0    0    0  501 -0.00000000000E+00  0.00000000000E+00  0.51433899973E+03  0.51433899973E+03  0.00000000000E+00 0.  1.
         21   -1    0    0  501  502  0.00000000000E+00 -0.00000000000E+00 -0.10913839049E+04  0.10913839049E+04  0.00000000000E+00 0. -1.
         23    2    1    2    0    0  0.19161302756E+03  0.42997912238E+03  0.30988625702E+03  0.57068214265E+03  0.89727463128E+02 0.  0.
         23    2    1    2    0    0 -0.15980282047E+03 -0.43153381088E+03 -0.68299017074E+03  0.82862798542E+03  0.91599091330E+02 0.  0.
        -13    1    4    4    0    0 -0.15824064917E+03 -0.32889366275E+03 -0.50373524544E+03  0.62206136509E+03  0.00000000000E+00 0. -1.
         13    1    4    4    0    0 -0.15621712913E+01 -0.10264014813E+03 -0.17925492530E+03  0.20656662033E+03  0.00000000000E+00 0.  1.
        -13    1    3    3    0    0  0.16862951093E+03  0.40621023188E+03  0.26027701806E+03  0.51106437028E+03  0.00000000000E+00 0.  1.
         13    1    3    3    0    0  0.22983516631E+02  0.23768890500E+02  0.49609238963E+02  0.59617772374E+02  0.00000000000E+00 0. -1.
         -1    1    1    2    0  502 -0.31810207095E+02  0.15546885041E+01 -0.20394099142E+03  0.20641277652E+03  0.00000000000E+00 0.  1.
<scales pt_clust_5="13000.00000" pt_clust_6="13000.00000" pt_clust_7="13000.00000" pt_clust_8="13000.00000" pt_clust_9="31.84818"></scales>
<clustering>
<clus scale="   31.848">  2  9  1 -1</clus>
<clus scale="   89.727">  7  8 -1 -1</clus>
<clus scale="   91.599">  5  6 -1 -1</clus>
<clus scale="  477.570">  1  7  2 -1</clus>
<clus scale="   31.848">  2  5  1 -1</clus>
</clustering>
</event>
<event>
 9    1  0.1315259E-005  0.1405199E+03  0.7546771E-02  0.1213389E+00
         21   -1    0    0  501  502  0.00000000000E+00  0.00000000000E+00  0.10162444858E+03  0.10162444858E+03  0.00000000000E+00 0.  1.
         -3   -1    0    0    0  501 -0.00000000000E+00 -0.00000000000E+00 -0.37857497052E+03  0.37857497052E+03  0.00000000000E+00 0.  1.
         23    2    1    2    0    0 -0.56634198650E+02 -0.50254328882E+02 -0.95356263827E+02  0.14941017518E+03  0.86588991039E+02 0.  0.
         23    2    1    2    0    0  0.10088475904E+03  0.12584218617E+03 -0.14891662014E+03  0.23730414196E+03  0.90128273082E+02 0.  0.
        -11    1    4    4    0    0  0.23470169499E+02  0.66656165778E+02 -0.15937741666E+02  0.72442424738E+02  0.00000000000E+00 0. -1.
         11    1    4    4    0    0  0.77414589544E+02  0.59186020392E+02 -0.13297887847E+03  0.16486171722E+03  0.00000000000E+00 0.  1.
        -13    1    3    3    0    0 -0.29860732523E+02  0.10173545565E+02  0.21445364944E+01  0.31619035611E+02  0.00000000000E+00 0.  1.
         13    1    3    3    0    0 -0.26773466128E+02 -0.60427874447E+02 -0.97500800321E+02  0.11779113957E+03  0.00000000000E+00 0. -1.
         -3    1    1    2    0  502 -0.44250560392E+02 -0.75587857289E+02 -0.32677637977E+02  0.93485101959E+02  0.00000000000E+00 0.  1.
<scales pt_clust_5="13000.00000" pt_clust_6="13000.00000" pt_clust_7="13000.00000" pt_clust_8="13000.00000" pt_clust_9="87.58788"></scales>
<clustering>
<clus scale="   86.589">  7  8 -1 -1</clus>
<clus scale="   87.588">  1  9  2 -1</clus>
<clus scale="   90.128">  5  6 -1 -1</clus>
<clus scale="  138.277">  2  7  1 -1</clus>
<clus scale="   87.588">  1  5  2 -1</clus>
</clustering>
</event>
<event>
 9    1  0.1315259E-005  0.1262941E+03  0.7546771E-02  0.1235732E+00
          1   -1    0    0  502    0 -0.00000000000E+00  0.00000000000E+00  0.18708074458E+03  0.18708074458E+03  0.00000000000E+00 0. -1.
         21   -1    0    0  501  502  0.00000000000E+00 -0.00000000000E+00 -0.29134899288E+03  0.29134899288E+03  0.00000000000E+00 0.  1.
         23    2    1    2    0    0 -0.74633219525E+02 -0.22605821738E+02  0.93899884603E+02  0.15186970673E+03  0.90366359113E+02 0.  0.
         23    2    1    2    0    0  0.15644967219E+03  0.83386402131E+01 -0.14165365771E+03  0.22610421805E+03  0.80692786707E+02 0.  0.
        -11    1    3    3    0    0 -0.56884224571E+02  0.28580166043E+02  0.62695778184E+02  0.89349882474E+02  0.00000000000E+00 0. -1.
         11    1    3    3    0    0 -0.17748994955E+02 -0.51185987781E+02  0.31204106419E+02  0.62519824251E+02  0.00000000000E+00 0.  1.
        -13    1    4    4    0    0  0.17028954784E+02 -0.17893047871E+02  0.12590598281E+01  0.24733210362E+02  0.00000000000E+00 0. -1.
         13    1    4    4    0    0  0.13942071741E+03  0.26231688084E+02 -0.14291271754E+03  0.20137100768E+03  0.00000000000E+00 0.  1.
          1    1    1    2  501    0 -0.81816452667E+02  0.14267181525E+02 -0.56514475199E+02  0.10045581269E+03  0.00000000000E+00 0. -1.
<scales pt_clust_5="13000.00000" pt_clust_6="13000.00000" pt_clust_7="13000.00000" pt_clust_8="13000.00000" pt_clust_9="83.05110"></scales>
<clustering>
<clus scale="   80.693">  7  8 -1 -1</clus>
<clus scale="   83.051">  2  9  1 -1</clus>
<clus scale="   90.366">  5  6 -1 -1</clus>
<clus scale="  119.564">  2  7  1 -1</clus>
<clus scale="   83.051">  2  5  1 -1</clus>
</clustering>
</event>
<event>
 9    1  0.1315259E-005  0.2625642E+03  0.7546771E-02  0.1105803E+00
         21   -1    0    0  501  502  0.00000000000E+00  0.00000000000E+00  0.10016223204E+04  0.10016223204E+04  0.00000000000E+00 0. -1.
          2   -1    0    0  502    0 -0.00000000000E+00 -0.00000000000E+00 -0.95952654042E+02  0.95952654042E+02  0.00000000000E+00 0. -1.
         23    2    1    2    0    0 -0.23619957803E+02  0.24722011177E+03  0.38840646175E+03  0.47028344128E+03  0.92904518430E+02 0.  0.
         23    2    1    2    0    0  0.87900209204E+02 -0.23093863526E+03  0.48921413606E+03  0.55529300929E+03  0.89223064346E+02 0.  0.
        -11    1    4    4    0    0  0.47767143298E+02 -0.34674983863E+02  0.15207913654E+03  0.16313221097E+03  0.00000000000E+00 0.  1.
         11    1    4    4    0    0  0.40133065906E+02 -0.19626365139E+03  0.33713499952E+03  0.39216079832E+03  0.00000000000E+00 0. -1.
        -13    1    3    3    0    0 -0.25790615233E+02  0.97155138530E+01  0.44006657588E+02  0.51924300241E+02  0.00000000000E+00 0.  1.
         13    1    3    3    0    0  0.21706574294E+01  0.23750459791E+03  0.34439980416E+03  0.41835914104E+03  0.00000000000E+00 0. -1.
          2    1    1    2  501    0 -0.64280251401E+02 -0.16281476510E+02  0.28049068593E+02  0.71998523918E+02  0.00000000000E+00 0. -1.
<scales pt_clust_5="13000.00000" pt_clust_6="13000.00000" pt_clust_7="13000.00000" pt_clust_8="13000.00000" pt_clust_9="66.31019"></scales>
<clustering>
<clus scale="   66.310">  1  9  2 -1</clus>
<clus scale="   89.223">  5  6 -1 -1</clus>
<clus scale="   92.905">  7  8 -1 -1</clus>
<clus scale="  261.284">  1  5  2 -1</clus>
<clus scale="   66.310">  1  5  2 -1</clus>
</clustering>
</event>
<event>
 9    1  0.1315259E-005  0.1090989E+03  0.7546771E-02  0.1268894E+00
          2   -1    0    0  502    0 -0.00000000000E+00  0.00000000000E+00  0.53419834614E+02  0.53419834614E+02  0.00000000000E+00 0. -1.
         21   -1    0    0  501  502  0.00000000000E+00 -0.00000000000E+00 -0.35431614153E+03  0.35431614153E+03  0.00000000000E+00 0.  1.
         23    2    1    2    0    0  0.14358393850E+02 -0.10644245954E+02 -0.26286204057E+02  0.99235169250E+02  0.94006334077E+02 0.  0.
         23    2    1    2    0    0 -0.27928973148E+02 -0.73825061677E+01 -0.18329025466E+03  0.21443466479E+03  0.10748199418E+03 0.  0.
        -13    1    4    4    0    0  0.21621402307E+02 -0.32511833429E+02 -0.24233697266E+02  0.45954068741E+02  0.00000000000E+00 0. -1.
         13    1    4    4    0    0 -0.49550375455E+02  0.25129327261E+02 -0.15905655739E+03  0.16848059605E+03  0.00000000000E+00 0.  1.
        -13    1    3    3    0    0  0.10161960712E+02  0.41586209923E+02 -0.68846366470E+01  0.43359849205E+02  0.00000000000E+00 0.  1.
         13    1    3    3    0    0  0.41964331386E+01 -0.52230455878E+02 -0.19401567410E+02  0.55875320046E+02  0.00000000000E+00 0. -1.
          2    1    1    2  501    0  0.13570579298E+02  0.18026752122E+02 -0.91319848197E+02  0.94066142098E+02  0.00000000000E+00 0. -1.
<scales pt_clust_5="13000.00000" pt_clust_6="13000.00000" pt_clust_7="13000.00000" pt_clust_8="13000.00000" pt_clust_9="22.56379"></scales>
<clustering>
<clus scale="   22.564">  2  9  1 -1</clus>
<clus scale="   94.006">  7  8 -1 -1</clus>
<clus scale="   95.851">  1  7  2 -1</clus>
<clus scale="  107.482">  5  6 -1 -1</clus>
<clus scale="   22.564">  2  5  1 -1</clus>
</clustering>
</event>
<event>
 9    1  0.1315259E-005  0.9577998E+02  0.7546771E-02  0.1289709E+00
          1   -1    0    0  502    0 -0.00000000000E+00  0.00000000000E+00  0.76549328671E+02  0.76549328671E+02  0.00000000000E+00 0. -1.
         21   -1    0    0  501  502  0.00000000000E+00 -0.00000000000E+00 -0.18554352591E+03  0.18554352591E+03  0.00000000000E+00 0.  1.
         23    2    1    2    0    0 -0.44680204233E+01  0.19711829032E+02 -0.33296015834E+02  0.99282626591E+02  0.91323030294E+02 0.  0.
         23    2    1    2    0    0  0.45069777895E+02 -0.18166137147E+02 -0.60438696342E+02  0.11940811102E+03  0.90797398330E+02 0.  0.
        -11    1    4    4    0    0  0.24671622411E+02  0.25362756915E+02 -0.61917205252E+02  0.71314084842E+02  0.00000000000E+00 0.  1.
         11    1    4    4    0    0  0.20398155484E+02 -0.43528894062E+02  0.14785089095E+01  0.48094026178E+02  0.00000000000E+00 0. -1.
        -11    1    3    3    0    0  0.39527674020E+02 -0.81529298530E+01 -0.70702268618E+01  0.40974325943E+02  0.00000000000E+00 0.  1.
         11    1    3    3    0    0 -0.43995694443E+02  0.27864758885E+02 -0.26225788973E+02  0.58308300648E+02  0.00000000000E+00 0. -1.
          1    1    1    2  501    0 -0.40601757471E+02 -0.15456918854E+01 -0.15259485065E+02  0.43402116971E+02  0.00000000000E+00 0. -1.
<scales pt_clust_5="13000.00000" pt_clust_6="13000.00000" pt_clust_7="13000.00000" pt_clust_8="13000.00000" pt_clust_9="40.63119"></scales>
<clustering>
<clus scale="   40.631">  2  9  1 -1</clus>
<clus scale="   90.797">  5  6 -1 -1</clus>
<clus scale="   91.323">  7  8 -1 -1</clus>
<clus scale="   95.279">  2  5  1 -1</clus>
<clus scale="   40.631">  2  5  1 -1</clus>
</clustering>
</event>
<event>
 9    1  0.1315259E-005  0.1124335E+03  0.7546771E-02  0.1256153E+00
          1   -1    0    0  502    0 -0.00000000000E+00  0.00000000000E+00  0.28309039496E+03  0.28309039496E+03  0.00000000000E+00 0. -1.
         21   -1    0    0  501  502  0.00000000000E+00 -0.00000000000E+00 -0.78004598702E+02  0.78004598702E+02  0.00000000000E+00 0.  1.
         23    2    1    2    0    0  0.57264908007E+02  0.18908567701E+02  0.18329157694E+03  0.21357566109E+03  0.91553029523E+02 0.  0.
         23    2    1    2    0    0 -0.75485500396E+02 -0.28383692932E+02  0.29522522554E+02  0.12557634608E+03  0.91619564299E+02 0.  0.
        -11    1    3    3    0    0  0.16486330577E+02  0.24499077873E+02  0.16653939286E+03  0.16913714343E+03  0.00000000000E+00 0. -1.
         11    1    3    3    0    0  0.40778577430E+02 -0.55905101720E+01  0.16752184077E+02  0.44438517668E+02  0.00000000000E+00 0.  1.
        -11    1    4    4    0    0 -0.62901678129E+02 -0.50291291782E+02  0.48470568632E+02  0.93995910358E+02  0.00000000000E+00 0.  1.
         11    1    4    4    0    0 -0.12583822267E+02  0.21907598850E+02 -0.18948046078E+02  0.31580435722E+02  0.00000000000E+00 0. -1.
          1    1    1    2  501    0  0.18220592389E+02  0.94751252316E+01 -0.77283032324E+01  0.21942986488E+02  0.00000000000E+00 0. -1.
<scales pt_clust_5="13000.00000" pt_clust_6="13000.00000" pt_clust_7="13000.00000" pt_clust_8="13000.00000" pt_clust_9="20.53699"></scales>
<clustering>
<clus scale="   20.537">  2  9  1 -1</clus>
<clus scale="   91.553">  5  6 -1 -1</clus>
<clus scale="   91.620">  7  8 -1 -1</clus>
<clus scale="  112.379">  1  5  2 -1</clus>
<clus scale="   20.537">  2  5  1 -1</clus>
</clustering>
</event>
<event>
 9    1  0.1315259E-005  0.2780346E+03  0.7546771E-02  0.1096883E+00
          1   -1    0    0  502    0 -0.00000000000E+00  0.00000000000E+00  0.15465837621E+03  0.15465837621E+03  0.00000000000E+00 0. -1.
         21   -1    0    0  501  502  0.00000000000E+00 -0.00000000000E+00 -0.86172832551E+03  0.86172832551E+03  0.00000000000E+00 0. -1.
         23    2    1    2    0    0 -0.11897730406E+03  0.19935602854E+03 -0.16884608924E+03  0.30110778211E+03  0.90876122270E+02 0.  0.
         23    2    1    2    0    0  0.92428769491E+02 -0.31832958565E+03 -0.43988169853E+03  0.55865608375E+03  0.93401866584E+02 0.  0.
        -13    1    4    4    0    0 -0.13207022170E+02 -0.87532158797E+02 -0.14161703330E+03  0.16700804884E+03  0.00000000000E+00 0.  1.
         13    1    4    4    0    0  0.10563579166E+03 -0.23079742685E+03 -0.29826466523E+03  0.39164803491E+03  0.00000000000E+00 0. -1.
        -13    1    3    3    0    0 -0.10799728998E+03  0.10277453334E+03 -0.78906831532E+02  0.16867811776E+03  0.00000000000E+00 0. -1.
         13    1    3    3    0    0 -0.10980014080E+02  0.96581495203E+02 -0.89939257706E+02  0.13242966436E+03  0.00000000000E+00 0.  1.
          1    1    1    2  501    0  0.26548534573E+02  0.11897355711E+03 -0.98342161530E+02  0.15662283586E+03  0.00000000000E+00 0. -1.
<scales pt_clust_5="13000.00000" pt_clust_6="13000.00000" pt_clust_7="13000.00000" pt_clust_8="13000.00000" pt_clust_9="121.89974"></scales>
<clustering>
<clus scale="   90.876">  7  8 -1 -1</clus>
<clus scale="   93.402">  5  6 -1 -1</clus>
<clus scale="  121.900">  2  9  1 -1</clus>
<clus scale="  277.196">  1  7  2 -1</clus>
<clus scale="  121.900">  2  5  1 -1</clus>
</clustering>
</event>
<event>
 9    1  0.1315259E-005  0.1252012E+03  0.7546771E-02  0.1237703E+00
         21   -1    0    0  501  502  0.00000000000E+00  0.00000000000E+00  0.16653158318E+03  0.16653158318E+03  0.00000000000E+00 0.  1.
         -3   -1    0    0    0  501 -0.00000000000E+00 -0.00000000000E+00 -0.31619605521E+03  0.31619605521E+03  0.00000000000E+00 0.  1.
         23    2    1    2    0    0 -0.85461924194E+02  0.33342878825E+02 -0.21908482684E+03  0.25336211086E+03  0.88196994338E+02 0.  0.
         23    2    1    2    0    0  0.40000541339E+02  0.53022545105E+02  0.19673249476E+02  0.11981874177E+03  0.97765334034E+02 0.  0.
        -11    1    4    4    0    0  0.31227970128E+02  0.81137191843E+02  0.23653507246E+02  0.90099491805E+02  0.00000000000E+00 0. -1.
         11    1    4    4    0    0  0.87725712113E+01 -0.28114646738E+02 -0.39802577703E+01  0.29719249970E+02  0.00000000000E+00 0.  1.
        -13    1    3    3    0    0 -0.77693737616E+02  0.58439269238E+02 -0.19420388789E+03  0.21717876306E+03  0.00000000000E+00 0.  1.
         13    1    3    3    0    0 -0.77681865779E+01 -0.25096390413E+02 -0.24880938953E+02  0.36183347795E+02  0.00000000000E+00 0. -1.
         -3    1    1    2    0  502  0.45461382855E+02 -0.86365423930E+02  0.49747105328E+02  0.10954678576E+03  0.00000000000E+00 0.  1.
<scales pt_clust_5="13000.00000" pt_clust_6="13000.00000" pt_clust_7="13000.00000" pt_clust_8="13000.00000" pt_clust_9="97.59981"></scales>
<clustering>
<clus scale="   88.197">  7  8 -1 -1</clus>
<clus scale="   97.600">  1  9  2 -1</clus>
<clus scale="   97.765">  5  6 -1 -1</clus>
<clus scale="  117.881">  2  7  1 -1</clus>
<clus scale="   97.600">  1  5  2 -1</clus>
</clustering>
</event>
<event>
 9    1  0.1315259E-005  0.1440516E+03  0.7546771E-02  0.1208178E+00
         21   -1    0    0  501  502  0.00000000000E+00  0.00000000000E+00  0.69348096567E+03  0.69348096567E+03  0.00000000000E+00 0.  1.
         -1   -1    0    0    0  501 -0.00000000000E+00 -0.00000000000E+00 -0.45035686662E+02  0.45035686662E+02  0.00000000000E+00 0.  1.
         23    2    1    2    0    0 -0.13196158404E+02 -0.94701768646E+02  0.23481491321E+03  0.26950993921E+03  0.91405690688E+02 0.  0.
         23    2    1    2    0    0 -0.21866673686E+02  0.12799458285E+03  0.23041775023E+03  0.27952142035E+03  0.90438488231E+02 0.  0.
        -13    1    4    4    0    0 -0.32683858118E+02  0.51795876413E+02  0.17293924561E+03  0.18346397485E+03  0.00000000000E+00 0. -1.
         13    1    4    4    0    0  0.10817184432E+02  0.76198706441E+02  0.57478504621E+02  0.96057445499E+02  0.00000000000E+00 0.  1.
        -13    1    3    3    0    0  0.37083997067E+02 -0.35661481378E+02  0.12405506450E+03  0.13430049561E+03  0.00000000000E+00 0. -1.
         13    1    3    3    0    0 -0.50280155471E+02 -0.59040287267E+02  0.11075984871E+03  0.13520944361E+03  0.00000000000E+00 0.  1.
         -1    1    1    2    0  502  0.35062832091E+02 -0.33292814208E+02  0.18321261557E+03  0.18948529277E+03  0.00000000000E+00 0.  1.
<scales pt_clust_5="13000.00000" pt_clust_6="13000.00000" pt_clust_7="13000.00000" pt_clust_8="13000.00000" pt_clust_9="48.35094"></scales>
<clustering>
<clus scale="   48.351">  1  9  2 -1</clus>
<clus scale="   90.438">  5  6 -1 -1</clus>
<clus scale="   91.406">  7  8 -1 -1</clus>
<clus scale="  143.440">  1  5  2 -1</clus>
<clus scale="   48.351">  1  5  2 -1</clus>
</clustering>
</event>
<event>
 9    1  0.1315259E-005  0.1455504E+03  0.7546771E-02  0.1206389E+00
          3   -1    0    0  502    0 -0.00000000000E+00  0.00000000000E+00  0.37833392446E+03  0.37833392446E+03  0.00000000000E+00 0. -1.
         21   -1    0    0  501  502  0.00000000000E+00 -0.00000000000E+00 -0.21637812496E+03  0.21637812496E+03  0.00000000000E+00 0. -1.
         23    2    1    2    0    0  0.64210477647E+02 -0.77317717450E+02  0.18064728031E+03  0.22602066399E+03  0.91383181132E+02 0.  0.
         23    2    1    2    0    0 -0.11198487371E+03  0.74969005380E+02  0.13215866261E+03  0.21043944979E+03  0.93047763087E+02 0.  0.
        -13    1    3    3    0    0  0.28191732620E+02 -0.92227256276E+02  0.12041061840E+03  0.15427040420E+03  0.00000000000E+00 0. -1.
         13    1    3    3    0    0  0.36018745028E+02  0.14909538826E+02  0.60236661909E+02  0.71750259786E+02  0.00000000000E+00 0.  1.
        -13    1    4    4    0    0 -0.12752647387E+03  0.61633493590E+02  0.12448955429E+03  0.18857183829E+03  0.00000000000E+00 0.  1.
         13    1    4    4    0    0  0.15541600155E+02  0.13335511790E+02  0.76691083203E+01  0.21867611495E+02  0.00000000000E+00 0. -1.
          3    1    1    2  501    0  0.47774396066E+02  0.23487120692E+01 -0.15085014341E+03  0.15825193565E+03  0.00000000000E+00 0. -1.
<scales pt_clust_5="13000.00000" pt_clust_6="13000.00000" pt_clust_7="13000.00000" pt_clust_8="13000.00000" pt_clust_9="47.83210"></scales>
<clustering>
<clus scale="   47.832">  2  9  1 -1</clus>
<clus scale="   91.383">  5  6 -1 -1</clus>
<clus scale="   93.048">  7  8 -1 -1</clus>
<clus scale="  144.492">  1  5  2 -1</clus>
<clus scale="   47.832">  2  5  1 -1</clus>
</clustering>
</event>
<event>
 9    1  0.1315259E-005  0.1248100E+03  0.7546771E-02  0.1235937E+00
          1   -1    0    0  502    0 -0.00000000000E+00  0.00000000000E+00  0.36454477845E+03  0.36454477845E+03  0.00000000000E+00 0. -1.
         21   -1    0    0  501  502  0.00000000000E+00 -0.00000000000E+00 -0.15776619241E+03  0.15776619241E+03  0.00000000000E+00 0. -1.
         23    2    1    2    0    0  0.71245321116E+02 -0.51514335348E+02  0.24272159352E+03  0.27441456535E+03  0.93058901727E+02 0.  0.
         23    2    1    2    0    0 -0.59286910900E+02  0.31791299676E+02  0.72440230364E+02  0.13708608129E+03  0.94970427860E+02 0.  0.
        -13    1    4    4    0    0 -0.51844255799E+02 -0.19857479920E+02  0.63149251670E+02  0.84083139539E+02  0.00000000000E+00 0. -1.
         13    1    4    4    0    0 -0.74426551006E+01  0.51648779596E+02  0.92909786934E+01  0.53002941747E+02  0.00000000000E+00 0.  1.
        -13    1    3    3    0    0  0.83092980483E+02 -0.93187479591E+01  0.14650014198E+03  0.16868187238E+03  0.00000000000E+00 0.  1.
         13    1    3    3    0    0 -0.11847659366E+02 -0.42195587389E+02  0.96221451535E+02  0.10573269297E+03  0.00000000000E+00 0. -1.
          1    1    1    2  501    0 -0.11958410216E+02  0.19723035672E+02 -0.10838323784E+03  0.11081032422E+03  0.00000000000E+00 0. -1.
<scales pt_clust_5="13000.00000" pt_clust_6="13000.00000" pt_clust_7="13000.00000" pt_clust_8="13000.00000" pt_clust_9="23.06516"></scales>
<clustering>
<clus scale="   23.065">  2  9  1 -1</clus>
<clus scale="   93.059">  7  8 -1 -1</clus>
<clus scale="   94.970">  5  6 -1 -1</clus>
<clus scale="  123.362">  1  7  2 -1</clus>
<clus scale="   23.065">  2  5  1 -1</clus>
</clustering>
</event>
<event>
 9    1  0.1315259E-005  0.1182026E+03  0.7546771E-02  0.1247525E+00
          2   -1    0    0  502    0 -0.00000000000E+00  0.00000000000E+00  0.87632484314E+02  0.87632484314E+02  0.00000000000E+00 0. -1.
         21   -1    0    0  501  502  0.00000000000E+00 -0.00000000000E+00 -0.57229168724E+03  0.57229168724E+03  0.00000000000E+00 0. -1.
         23    2    1    2    0    0  0.51748419560E+02 -0.23240014782E+02  0.41233141074E+01  0.10945500536E+03  0.93516839477E+02 0.  0.
         23    2    1    2    0    0 -0.10857083756E+03  0.11002252841E+01 -0.16215142648E+03  0.21819393874E+03  0.97604674716E+02 0.  0.
        -11    1    3    3    0    0  0.40924584960E+02  0.22030524261E+02  0.30846912980E+02  0.55782593107E+02  0.00000000000E+00 0.  1.
         11    1    3    3    0    0  0.10823834601E+02 -0.45270539043E+02 -0.26723598873E+02  0.53672412257E+02  0.00000000000E+00 0. -1.
        -13    1    4    4    0    0  0.16216351433E+02  0.12633185313E+02 -0.26064838290E+02  0.33195530121E+02  0.00000000000E+00 0.  1.
         13    1    4    4    0    0 -0.12478718899E+03 -0.11532960029E+02 -0.13608658819E+03  0.18499840862E+03  0.00000000000E+00 0. -1.
          2    1    1    2  501    0  0.56822418001E+02  0.22139789498E+02 -0.32663109055E+03  0.33227522745E+03  0.00000000000E+00 0. -1.
<scales pt_clust_5="13000.00000" pt_clust_6="13000.00000" pt_clust_7="13000.00000" pt_clust_8="13000.00000" pt_clust_9="60.98326"></scales>
<clustering>
<clus scale="   60.983">  2  9  1 -1</clus>
<clus scale="   93.517">  5  6 -1 -1</clus>
<clus scale="   97.605">  7  8 -1 -1</clus>
<clus scale="  114.850">  1  5  2 -1</clus>
<clus scale="   60.983">  2  5  1 -1</clus>
</clustering>
</event>
<event>
 9    1  0.1315259E-005  0.1809635E+03  0.7546771E-02  0.1167084E+00
          2   -1    0    0  502    0 -0.00000000000E+00  0.00000000000E+00  0.13328478976E+04  0.13328478976E+04  0.00000000000E+00 0. -1.
         21   -1    0    0  501  502  0.00000000000E+00 -0.00000000000E+00 -0.35780468636E+02  0.35780468636E+02  0.00000000000E+00 0. -1.
         23    2    1    2    0    0  0.14956079188E+03  0.34324292313E+01  0.61910768795E+03  0.64374883593E+03  0.93477390007E+02 0.  0.
         23    2    1    2    0    0 -0.15900663907E+03 -0.26211738883E+02  0.67503458096E+03  0.70004653739E+03  0.91778551457E+02 0.  0.
        -13    1    4    4    0    0 -0.58789975730E+02  0.33607794356E+02  0.28427612347E+03  0.29223049030E+03  0.00000000000E+00 0.  1.
         13    1    4    4    0    0 -0.10021666334E+03 -0.59819533239E+02  0.39075845749E+03  0.40781604709E+03  0.00000000000E+00 0. -1.
        -13    1    3    3    0    0  0.29576056741E+02  0.40664851274E+02  0.19942460190E+03  0.20566610101E+03  0.00000000000E+00 0.  1.
         13    1    3    3    0    0  0.11998473514E+03 -0.37232422043E+02  0.41968308605E+03  0.43808273492E+03  0.00000000000E+00 0. -1.
          2    1    1    2  501    0  0.94458471850E+01  0.22779309652E+02  0.29251600958E+01  0.24832992950E+02  0.00000000000E+00 0. -1.
<scales pt_clust_5="13000.00000" pt_clust_6="13000.00000" pt_clust_7="13000.00000" pt_clust_8="13000.00000" pt_clust_9="24.66011"></scales>
<clustering>
<clus scale="   24.660">  2  9  1 -1</clus>
<clus scale="   91.779">  5  6 -1 -1</clus>
<clus scale="   93.477">  7  8 -1 -1</clus>
<clus scale="  180.092">  2  5  1 -1</clus>
<clus scale="   24.660">  2  5  1 -1</clus>
</clustering>
</event>
<event>
 9    1  0.1315259E-005  0.1652821E+03  0.7546771E-02  0.1185093E+00
         21   -1    0    0  501  502  0.00000000000E+00  0.00000000000E+00  0.17627379003E+03  0.17627379003E+03  0.00000000000E+00 0.  1.
          2   -1    0    0  502    0 -0.00000000000E+00 -0.00000000000E+00 -0.23706864993E+03  0.23706864993E+03  0.00000000000E+00 0. -1.
         23    2    1    2    0    0 -0.12512872605E+02  0.11770380189E+03 -0.78469011740E+02  0.16884137973E+03  0.91319596715E+02 0.  0.
         23    2    1    2    0    0 -0.25552336319E+02 -0.14642776610E+03 -0.21215057841E+02  0.18296735499E+03  0.10456080402E+03 0.  0.
        -13    1    3    3    0    0 -0.11704221120E+01  0.93942523000E+02 -0.98226772326E+02  0.13592301614E+03  0.00000000000E+00 0. -1.
         13    1    3    3    0    0 -0.11342450493E+02  0.23761278889E+02  0.19757760586E+02  0.32918363584E+02  0.00000000000E+00 0.  1.
        -13    1    4    4    0    0 -0.36152268609E+02 -0.11370277034E+03 -0.57950424691E+02  0.13264071106E+03  0.00000000000E+00 0.  1.
         13    1    4    4    0    0  0.10599932290E+02 -0.32724995763E+02  0.36735366850E+02  0.50326643936E+02  0.00000000000E+00 0. -1.
          2    1    1    2  501    0  0.38065208924E+02  0.28723964213E+02  0.38889209680E+02  0.61533705236E+02  0.00000000000E+00 0. -1.
<scales pt_clust_5="13000.00000" pt_clust_6="13000.00000" pt_clust_7="13000.00000" pt_clust_8="13000.00000" pt_clust_9="47.68675"></scales>
<clustering>
<clus scale="   47.687">  1  9  2 -1</clus>
<clus scale="   91.320">  5  6 -1 -1</clus>
<clus scale="  104.561">  7  8 -1 -1</clus>
<clus scale="  157.240">  2  5  1 -1</clus>
<clus scale="   47.687">  1  5  2 -1</clus>
</clustering>
</event>
<event>
 9    1  0.1315259E-005  0.1018264E+03  0.7546771E-02  0.1278024E+00
         21   -1    0    0  501  502  0.00000000000E+00  0.00000000000E+00  0.16094745169E+03  0.16094745169E+03  0.00000000000E+00 0. -1.
          1   -1    0    0  502    0 -0.00000000000E+00 -0.00000000000E+00 -0.10923354989E+03  0.10923354989E+03  0.00000000000E+00 0. -1.
         23    2    1    2    0    0  0.28883089953E+01 -0.48351722670E+02 -0.30634317943E+02  0.10647677539E+03  0.89736340729E+02 0.  0.
         23    2    1    2    0    0  0.74730184466E+01  0.30538281837E+02  0.22857917238E+02  0.10074573294E+03  0.92945067985E+02 0.  0.
        -11    1    4    4    0    0  0.33623251197E+02  0.53171144128E+02  0.20136971116E+02  0.66054456281E+02  0.00000000000E+00 0.  1.
         11    1    4    4    0    0 -0.26150232750E+02 -0.22632862291E+02  0.27209461220E+01  0.34691276658E+02  0.00000000000E+00 0. -1.
        -13    1    3    3    0    0 -0.36642574004E+02  0.33991860766E+01 -0.12714368044E+02  0.38934404457E+02  0.00000000000E+00 0.  1.
         13    1    3    3    0    0  0.39530882999E+02 -0.51750908746E+02 -0.17919949899E+02  0.67542370932E+02  0.00000000000E+00 0. -1.
          1    1    1    2  501    0 -0.10361327442E+02  0.17813440833E+02  0.59490302505E+02  0.62958493253E+02  0.00000000000E+00 0. -1.
<scales pt_clust_5="13000.00000" pt_clust_6="13000.00000" pt_clust_7="13000.00000" pt_clust_8="13000.00000" pt_clust_9="20.60766"></scales>
<clustering>
<clus scale="   20.608">  1  9  2 -1</clus>
<clus scale="   89.736">  7  8 -1 -1</clus>
<clus scale="   92.945">  5  6 -1 -1</clus>
<clus scale="   98.906">  2  7  1 -1</clus>
<clus scale="   20.608">  1  5  2 -1</clus>
</clustering>
</event>
<event>
 9    1  0.1315259E-005  0.1413954E+03  0.7546771E-02  0.1211642E+00
         -1   -1    0    0    0  501 -0.00000000000E+00  0.00000000000E+00  0.20289550802E+03  0.20289550802E+03  0.00000000000E+00 0.  1.
         21   -1    0    0  501  502  0.00000000000E+00 -0.00000000000E+00 -0.19868770515E+03  0.19868770515E+03  0.00000000000E+00 0. -1.
         23    2    1    2    0    0 -0.56300260853E+02 -0.99001279642E+02  0.10087658092E+03  0.17822113572E+03  0.92820880718E+02 0.  0.
         23    2    1    2    0    0  0.55561603109E+02  0.75846879532E+02 -0.80779188611E+01  0.13179236525E+03  0.92000727657E+02 0.  0.
        -11    1    4    4    0    0  0.38190359243E+02  0.92660899603E+02  0.11234007942E+02  0.10085013034E+03  0.00000000000E+00 0.  1.
         11    1    4    4    0    0  0.17371243866E+02 -0.16814020072E+02 -0.19311926803E+02  0.30942234910E+02  0.00000000000E+00 0. -1.
        -13    1    3    3    0    0 -0.27896940961E+02 -0.10488596683E+03  0.49645002382E+02  0.11934794349E+03  0.00000000000E+00 0. -1.
         13    1    3    3    0    0 -0.28403319892E+02  0.58846871914E+01  0.51231578539E+02  0.58873192234E+02  0.00000000000E+00 0.  1.
         -1    1    1    2    0  502  0.73865774381E+00  0.23154400110E+02 -0.88590859196E+02  0.91569712202E+02  0.00000000000E+00 0.  1.
<scales pt_clust_5="13000.00000" pt_clust_6="13000.00000" pt_clust_7="13000.00000" pt_clust_8="13000.00000" pt_clust_9="23.16618"></scales>
<clustering>
<clus scale="   23.166">  2  9  1 -1</clus>
<clus scale="   92.001">  5  6 -1 -1</clus>
<clus scale="   92.821">  7  8 -1 -1</clus>
<clus scale="  140.858">  2  5  1 -1</clus>
<clus scale="   23.166">  2  5  1 -1</clus>
</clustering>
</event>
<event>
 9    1  0.1315259E-005  0.9727697E+02  0.7546771E-02  0.1287435E+00
         21   -1    0    0  501  502  0.00000000000E+00  0.00000000000E+00  0.77065281867E+02  0.77065281867E+02  0.00000000000E+00 0. -1.
         -1   -1    0    0    0  501 -0.00000000000E+00 -0.00000000000E+00 -0.19380453420E+03  0.19380453420E+03  0.00000000000E+00 0.  1.
         23    2    1    2    0    0  0.28532354574E+02  0.14263910997E+01 -0.52891811357E+02  0.11087536933E+03  0.93164767844E+02 0.  0.
         23    2    1    2    0    0 -0.18111304032E+02  0.35833024893E+02 -0.19394414721E+02  0.10106284300E+03  0.90694707161E+02 0.  0.
        -11    1    3    3    0    0  0.17884945720E+02  0.46841058630E+02 -0.33829226118E+02  0.60484482280E+02  0.00000000000E+00 0. -1.
         11    1    3    3    0    0  0.10647408854E+02 -0.45414667530E+02 -0.19062585239E+02  0.50390887054E+02  0.00000000000E+00 0.  1.
        -13    1    4    4    0    0 -0.47927546939E+02 -0.25942859335E+01 -0.21017464719E+02  0.52397651649E+02  0.00000000000E+00 0.  1.
         13    1    4    4    0    0  0.29816242907E+02  0.38427310826E+02  0.16230499981E+01  0.48665191356E+02  0.00000000000E+00 0. -1.
         -1    1    1    2    0  502 -0.10421050542E+02 -0.37259415992E+02 -0.44453026253E+02  0.58931603724E+02  0.00000000000E+00 0.  1.
<scales pt_clust_5="13000.00000" pt_clust_6="13000.00000" pt_clust_7="13000.00000" pt_clust_8="13000.00000" pt_clust_9="38.68933"></scales>
<clustering>
<clus scale="   38.689">  1  9  2 -1</clus>
<clus scale="   90.695">  7  8 -1 -1</clus>
<clus scale="   93.165">  5  6 -1 -1</clus>
<clus scale="   94.914">  1  7  2 -1</clus>
<clus scale="   38.689">  1  5  2 -1</clus>
</clustering>
</event>
<event>
 9    1  0.1315259E-005  0.1647707E+03  0.7546771E-02  0.1183589E+00
         21   -1    0    0  501  502  0.00000000000E+00  0.00000000000E+00  0.24635533518E+03  0.24635533518E+03  0.00000000000E+00 0. -1.
          2   -1    0    0  502    0 -0.00000000000E+00 -0.00000000000E+00 -0.20373435216E+03  0.20373435216E+03  0.00000000000E+00 0. -1.
         23    2    1    2    0    0 -0.11259243438E+03  0.11983155357E+03 -0.85651756524E+02  0.20670618648E+03  0.91403318441E+02 0.  0.
         23    2    1    2    0    0  0.52795632827E+02 -0.75698911474E+02  0.59508441701E+02  0.14213195157E+03  0.90235984954E+02 0.  0.
        -11    1    4    4    0    0 -0.22342709596E+02  0.96885635420E-01  0.10728757637E+02  0.24785324273E+02  0.00000000000E+00 0.  1.
         11    1    4    4    0    0  0.75138342422E+02 -0.75795797109E+02  0.48779684064E+02  0.11734662730E+03  0.00000000000E+00 0. -1.
        -13    1    3    3    0    0 -0.28282805685E+02  0.95563033815E+02 -0.36439717591E+02  0.10611344659E+03  0.00000000000E+00 0. -1.
         13    1    3    3    0    0 -0.84309628698E+02  0.24268519756E+02 -0.49212038933E+02  0.10059273989E+03  0.00000000000E+00 0.  1.
          2    1    1    2  501    0  0.59796801556E+02 -0.44132642097E+02  0.68764297849E+02  0.10125154929E+03  0.00000000000E+00 0. -1.
<scales pt_clust_5="13000.00000" pt_clust_6="13000.00000" pt_clust_7="13000.00000" pt_clust_8="13000.00000" pt_clust_9="74.31923"></scales>
<clustering>
<clus scale="   74.319">  1  9  2 -1</clus>
<clus scale="   90.236">  5  6 -1 -1</clus>
<clus scale="   91.403">  7  8 -1 -1</clus>
<clus scale="  164.126">  1  5  2 -1</clus>
<clus scale="   74.319">  1  5  2 -1</clus>
</clustering>
</event>
<event>
 9    1  0.1315259E-005  0.1058985E+03  0.7546771E-02  0.1271913E+00
         21   -1    0    0  501  502  0.00000000000E+00  0.00000000000E+00  0.10501991263E+03  0.10501991263E+03  0.00000000000E+00 0.  1.
         -2   -1    0    0    0  501 -0.00000000000E+00 -0.00000000000E+00 -0.37957710439E+03  0.37957710439E+03  0.00000000000E+00 0.  1.
         23    2    1    2    0    0  0.27205199339E+02 -0.29853798048E+02 -0.25728622224E+03  0.27563893604E+03  0.90273200778E+02 0.  0.
         23    2    1    2    0    0 -0.44635246030E+02  0.10693257025E+02 -0.84285515159E+02  0.13711184107E+03  0.97923224841E+02 0.  0.
        -11    1    3    3    0    0  0.19254721761E+02  0.26861112637E+02 -0.45436606561E+02  0.56184952594E+02  0.00000000000E+00 0. -1.
         11    1    3    3    0    0  0.79504775775E+01 -0.56714910685E+02 -0.21184961568E+03  0.21945398345E+03  0.00000000000E+00 0.  1.
        -13    1    4    4    0    0 -0.65440537659E+02  0.36416635537E+02 -0.54850105376E+02  0.92828709851E+02  0.00000000000E+00 0. -1.
         13    1    4    4    0    0  0.20805291628E+02 -0.25723378512E+02 -0.29435409783E+02  0.44283131223E+02  0.00000000000E+00 0.  1.
         -2    1    1    2    0  502  0.17430046692E+02  0.19160541023E+02  0.67014545642E+02  0.71846239898E+02  0.00000000000E+00 0.  1.
<scales pt_clust_5="13000.00000" pt_clust_6="13000.00000" pt_clust_7="13000.00000" pt_clust_8="13000.00000" pt_clust_9="25.90237"></scales>
<clustering>
<clus scale="   25.902">  1  9  2 -1</clus>
<clus scale="   90.273">  5  6 -1 -1</clus>
<clus scale="   97.923">  7  8 -1 -1</clus>
<clus scale="   98.867">  2  5  1 -1</clus>
<clus scale="   25.902">  1  5  2 -1</clus>
</clustering>
</event>
<event>
 9    1  0.1315259E-005  0.1049017E+03  0.7546771E-02  0.1270399E+00
         21   -1    0    0  501  502  0.00000000000E+00  0.00000000000E+00  0.49831894384E+03  0.49831894384E+03  0.00000000000E+00 0.  1.
          1   -1    0    0  502    0 -0.00000000000E+00 -0.00000000000E+00 -0.58549641754E+02  0.58549641754E+02  0.00000000000E+00 0. -1.
         23    2    1    2    0    0  0.68603643054E+02 -0.14466930445E+02  0.36376974278E+02  0.12011951142E+03  0.90496744972E+02 0.  0.
         23    2    1    2    0    0  0.55151722032E+01  0.32857610596E+01  0.25001178278E+03  0.26603232363E+03  0.90697807761E+02 0.  0.
        -13    1    4    4    0    0 -0.10382457684E+02  0.44452900432E+02  0.10602497275E+03  0.11543461626E+03  0.00000000000E+00 0.  1.
         13    1    4    4    0    0  0.15897629887E+02 -0.41167139372E+02  0.14398681004E+03  0.15059770737E+03  0.00000000000E+00 0. -1.
        -13    1    3    3    0    0  0.98634109788E+01  0.35097590692E+02  0.19829204559E+02  0.41500904833E+02  0.00000000000E+00 0.  1.
         13    1    3    3    0    0  0.58740232076E+02 -0.49564521137E+02  0.16547769719E+02  0.78618606592E+02  0.00000000000E+00 0. -1.
          1    1    1    2  501    0 -0.74118815258E+02  0.11181169385E+02  0.15338054502E+03  0.17071675054E+03  0.00000000000E+00 0. -1.
<scales pt_clust_5="13000.00000" pt_clust_6="13000.00000" pt_clust_7="13000.00000" pt_clust_8="13000.00000" pt_clust_9="74.95744"></scales>
<clustering>
<clus scale="   74.957">  1  9  2 -1</clus>
<clus scale="   90.497">  7  8 -1 -1</clus>
<clus scale="   90.698">  5  6 -1 -1</clus>
<clus scale="  104.728">  2  7  1 -1</clus>
<clus scale="   74.957">  1  5  2 -1</clus>
</clustering>
</event>
<event>
 9    1  0.1315259E-005  0.9414972E+02  0.7546771E-02  0.1297280E+00
         21   -1    0    0  501  502  0.00000000000E+00  0.00000000000E+00  0.17600127694E+03  0.17600127694E+03  0.00000000000E+00 0.  1.
          4   -1    0    0  502    0 -0.00000000000E+00 -0.00000000000E+00 -0.66673020658E+02  0.66673020658E+02  0.00000000000E+00 0. -1.
         23    2    1    2    0    0  0.18589953825E+02 -0.81596573766E+01  0.44563862517E+02  0.10378607854E+03  0.91506534549E+02 0.  0.
         23    2    1    2    0    0 -0.25075747048E+02 -0.20177438865E+02  0.62495148930E+02  0.10972992677E+03  0.84256103987E+02 0.  0.
        -11    1    4    4    0    0 -0.18725328476E+02 -0.51882955538E+02  0.26026867379E+02  0.60990792973E+02  0.00000000000E+00 0.  1.
         11    1    4    4    0    0 -0.63504185722E+01  0.31705516674E+02  0.36468281551E+02  0.48739133793E+02  0.00000000000E+00 0. -1.
        -13    1    3    3    0    0 -0.17782998856E+02  0.33734520055E+02  0.20701806169E+02  0.43391446972E+02  0.00000000000E+00 0. -1.
         13    1    3    3    0    0  0.36372952681E+02 -0.41894177432E+02  0.23862056347E+02  0.60394631571E+02  0.00000000000E+00 0.  1.
          4    1    1    2  501    0  0.64857932229E+01  0.28337096241E+02  0.22692448371E+01  0.29158292290E+02  0.00000000000E+00 0. -1.
<scales pt_clust_5="13000.00000" pt_clust_6="13000.00000" pt_clust_7="13000.00000" pt_clust_8="13000.00000" pt_clust_9="29.06987"></scales>
<clustering>
<clus scale="   29.070">  1  9  2 -1</clus>
<clus scale="   84.256">  5  6 -1 -1</clus>
<clus scale="   87.120">  1  5  2 -1</clus>
<clus scale="   91.507">  7  8 -1 -1</clus>
<clus scale="   29.070">  1  5  2 -1</clus>
</clustering>
</event>
<event>
 9    1  0.1315259E-005  0.1596619E+03  0.7546771E-02  0.1189103E+00
         -2   -1    0    0    0  501 -0.00000000000E+00  0.00000000000E+00  0.27340341361E+03  0.27340341361E+03  0.00000000000E+00 0.  1.
         21   -1    0    0  501  502  0.00000000000E+00 -0.00000000000E+00 -0.21994743252E+03  0.21994743252E+03  0.00000000000E+00 0.  1.
         23    2    1    2    0    0  0.88469337786E+02  0.73390457007E+02  0.11542901082E+03  0.18653092989E+03  0.90867752036E+02 0.  0.
         23    2    1    2    0    0 -0.99732799220E+02 -0.15390752170E+03 -0.24154000429E+00  0.20473837974E+03  0.91014225933E+02 0.  0.
        -11    1    3    3    0    0 -0.47516901230E+01  0.35938617874E+02  0.39545748060E+01  0.36466443144E+02  0.00000000000E+00 0.  1.
         11    1    3    3    0    0  0.93221027909E+02  0.37451839134E+02  0.11147443601E+03  0.15006448675E+03  0.00000000000E+00 0. -1.
        -13    1    4    4    0    0 -0.92314278145E+02 -0.10418922132E+03 -0.35108022096E+02  0.14356146072E+03  0.00000000000E+00 0.  1.
         13    1    4    4    0    0 -0.74185210744E+01 -0.49718300375E+02  0.34866482092E+02  0.61176919018E+02  0.00000000000E+00 0. -1.
         -2    1    1    2    0  502  0.11263461434E+02  0.80517064688E+02 -0.61731489726E+02  0.10208153650E+03  0.00000000000E+00 0.  1.
<scales pt_clust_5="13000.00000" pt_clust_6="13000.00000" pt_clust_7="13000.00000" pt_clust_8="13000.00000" pt_clust_9="81.30107"></scales>
<clustering>
<clus scale="   81.301">  2  9  1 -1</clus>
<clus scale="   90.868">  5  6 -1 -1</clus>
<clus scale="   91.014">  7  8 -1 -1</clus>
<clus scale="  159.578">  1  5  2 -1</clus>
<clus scale="   81.301">  2  5  1 -1</clus>
</clustering>
</event>
<event>
 9    1  0.1690770E-005  0.1310603E+03  0.7546771E-02  0.1227368E+00
          4   -1    0    0  502    0 -0.00000000000E+00  0.00000000000E+00  0.69842985823E+03  0.69842985823E+03  0.00000000000E+00 0. -1.
         21   -1    0    0  501  502  0.00000000000E+00 -0.00000000000E+00 -0.11224836286E+03  0.11224836286E+03  0.00000000000E+00 0. -1.
         23    2    1    2    0    0  0.91869090037E+02 -0.31707926580E+02  0.62359420273E+03  0.63676267742E+03  0.84567460409E+02 0.  0.
         23    2    1    2    0    0 -0.65892766044E+02  0.40575464369E+02  0.96895952076E+01  0.11939922004E+03  0.90410511360E+02 0.  0.
        -11    1    4    4    0    0 -0.15431345857E+02 -0.28969462305E+02 -0.83367622868E+00  0.32833689973E+02  0.00000000000E+00 0.  1.
         11    1    4    4    0    0 -0.50461420188E+02  0.69544926674E+02  0.10523271436E+02  0.86565530063E+02  0.00000000000E+00 0. -1.
        -13    1    3    3    0    0  0.59537926964E+01  0.24172719515E+02  0.88151633359E+02  0.91599555021E+02  0.00000000000E+00 0.  1.
         13    1    3    3    0    0  0.85915297341E+02 -0.55880646095E+02  0.53544256937E+03  0.54516312240E+03  0.00000000000E+00 0. -1.
          4    1    1    2  501    0 -0.25976323993E+02 -0.88675377891E+01 -0.47102302573E+02  0.54516323631E+02  0.00000000000E+00 0. -1.
<scales pt_clust_5="13000.00000" pt_clust_6="13000.00000" pt_clust_7="13000.00000" pt_clust_8="13000.00000" pt_clust_9="27.44818"></scales>
<clustering>
<clus scale="   27.448">  2  9  1 -1</clus>
<clus scale="   84.567">  7  8 -1 -1</clus>
<clus scale="   90.411">  5  6 -1 -1</clus>
<clus scale="  127.100">  1  7  2 -1</clus>
<clus scale="   27.448">  2  5  1 -1</clus>
</clustering>
</event>
<event>
 9    1  0.1315259E-005  0.1212477E+03  0.7546771E-02  0.1241059E+00
         21   -1    0    0  501  502  0.00000000000E+00  0.00000000000E+00  0.63377189878E+02  0.63377189878E+02  0.00000000000E+00 0. -1.
          2   -1    0    0  502    0 -0.00000000000E+00 -0.00000000000E+00 -0.69673797886E+03  0.69673797886E+03  0.00000000000E+00 0. -1.
         23    2    1    2    0    0  0.66970213026E+02 -0.24000527912E+02 -0.31167927414E+03  0.33238549836E+03  0.90967658086E+02 0.  0.
         23    2    1    2    0    0 -0.58505595961E+02  0.80761313909E+02 -0.34134963073E+03  0.36706443032E+03  0.90947408023E+02 0.  0.
        -11    1    3    3    0    0  0.70745108329E+02  0.15033694193E+02 -0.15775411361E+03  0.17354320118E+03  0.00000000000E+00 0. -1.
         11    1    3    3    0    0 -0.37748953035E+01 -0.39034222105E+02 -0.15392516053E+03  0.15884229718E+03  0.00000000000E+00 0.  1.
        -13    1    4    4    0    0 -0.78697415196E+02  0.79347005757E+02 -0.25569180225E+03  0.27904753756E+03  0.00000000000E+00 0. -1.
         13    1    4    4    0    0  0.20191819235E+02  0.14143081514E+01 -0.85657828479E+02  0.88016892761E+02  0.00000000000E+00 0.  1.
          2    1    1    2  501    0 -0.84646170642E+01 -0.56760785997E+02  0.19668115885E+02  0.60665240060E+02  0.00000000000E+00 0. -1.
<scales pt_clust_5="13000.00000" pt_clust_6="13000.00000" pt_clust_7="13000.00000" pt_clust_8="13000.00000" pt_clust_9="57.38847"></scales>
<clustering>
<clus scale="   57.388">  1  9  2 -1</clus>
<clus scale="   90.947">  7  8 -1 -1</clus>
<clus scale="   90.968">  5  6 -1 -1</clus>
<clus scale="  121.233">  1  7  2 -1</clus>
<clus scale="   57.388">  1  5  2 -1</clus>
</clustering>
</event>
<event>
 9    1  0.1315259E-005  0.1387481E+03  0.7546771E-02  0.1216698E+00
         21   -1    0    0  501  502  0.00000000000E+00  0.00000000000E+00  0.19936858876E+03  0.19936858876E+03  0.00000000000E+00 0.  1.
          3   -1    0    0  502    0 -0.00000000000E+00 -0.00000000000E+00 -0.14874611561E+03  0.14874611561E+03  0.00000000000E+00 0. -1.
         23    2    1    2    0    0 -0.49057123466E+02  0.74169919335E+02 -0.23175466240E+02  0.12917819827E+03  0.90786157399E+02 0.  0.
         23    2    1    2    0    0  0.75779755593E+02 -0.84704317496E+02  0.11528789034E+02  0.15036158578E+03  0.97766562491E+02 0.  0.
        -11    1    3    3    0    0 -0.17279964469E+02  0.24730398029E+02  0.35188207289E+02  0.46350832689E+02  0.00000000000E+00 0.  1.
         11    1    3    3    0    0 -0.31777158997E+02  0.49439521306E+02 -0.58363673529E+02  0.82827365579E+02  0.00000000000E+00 0. -1.
        -13    1    4    4    0    0  0.43300236942E+02 -0.22814190235E+02 -0.40257441993E+02  0.63372386977E+02  0.00000000000E+00 0. -1.
         13    1    4    4    0    0  0.32479518651E+02 -0.61890127262E+02  0.51786231027E+02  0.86989198802E+02  0.00000000000E+00 0.  1.
          3    1    1    2  501    0 -0.26722632127E+02  0.10534398161E+02  0.62269150347E+02  0.68574920323E+02  0.00000000000E+00 0. -1.
<scales pt_clust_5="13000.00000" pt_clust_6="13000.00000" pt_clust_7="13000.00000" pt_clust_8="13000.00000" pt_clust_9="28.72408"></scales>
<clustering>
<clus scale="   28.724">  1  9  2 -1</clus>
<clus scale="   90.786">  5  6 -1 -1</clus>
<clus scale="   97.767">  7  8 -1 -1</clus>
<clus scale="  133.921">  2  5  1 -1</clus>
<clus scale="   28.724">  1  5  2 -1</clus>
</clustering>
</event>
<event>
 9    1  0.1315259E-005  0.1760279E+03  0.7546771E-02  0.1173955E+00
         21   -1    0    0  501  502  0.00000000000E+00  0.00000000000E+00  0.45406113266E+02  0.45406113266E+02  0.00000000000E+00 0.  1.
          2   -1    0    0  502    0 -0.00000000000E+00 -0.00000000000E+00 -0.10289152010E+04  0.10289152010E+04  0.00000000000E+00 0. -1.
         23    2    1    2    0    0  0.14110946942E+03 -0.30361831311E+02 -0.59773931006E+03  0.61898174229E+03  0.70798243881E+02 0.  0.
         23    2    1    2    0    0 -0.17176921631E+03 -0.23428651899E+01 -0.33961973260E+03  0.39100106164E+03  0.89610907516E+02 0.  0.
        -13    1    3    3    0    0  0.79704429994E+01 -0.25337112823E+02 -0.76335647318E+02  0.80824676301E+02  0.00000000000E+00 0.  1.
         13    1    3    3    0    0  0.13313902642E+03 -0.50247184873E+01 -0.52140366274E+03  0.53815706599E+03  0.00000000000E+00 0. -1.
        -13    1    4    4    0    0 -0.43303229553E+02 -0.33974743691E+02 -0.15006798641E+03  0.15984321519E+03  0.00000000000E+00 0. -1.
         13    1    4    4    0    0 -0.12846598676E+03  0.31631878501E+02 -0.18955174619E+03  0.23115784645E+03  0.00000000000E+00 0.  1.
          2    1    1    2  501    0  0.30659746892E+02  0.32704696501E+02 -0.46150045111E+02  0.64338510369E+02  0.00000000000E+00 0. -1.
<scales pt_clust_5="13000.00000" pt_clust_6="13000.00000" pt_clust_7="13000.00000" pt_clust_8="13000.00000" pt_clust_9="44.82875"></scales>
<clustering>
<clus scale="   44.829">  1  9  2 -1</clus>
<clus scale="   70.798">  5  6 -1 -1</clus>
<clus scale="   89.611">  7  8 -1 -1</clus>
<clus scale="  167.237">  2  5  1 -1</clus>
<clus scale="   44.829">  1  5  2 -1</clus>
</clustering>
</event>
<event>
 9    1  0.1315259E-005  0.2115818E+03  0.7546771E-02  0.1140432E+00
          2   -1    0    0  502    0 -0.00000000000E+00  0.00000000000E+00  0.14999294989E+03  0.14999294989E+03  0.00000000000E+00 0. -1.
         21   -1    0    0  501  502  0.00000000000E+00 -0.00000000000E+00 -0.71477380307E+03  0.71477380307E+03  0.00000000000E+00 0. -1.
         23    2    1    2    0    0 -0.22980823363E+03 -0.82957679091E+02 -0.41290691284E+02  0.26436253040E+03  0.92134822565E+02 0.  0.
         23    2    1    2    0    0  0.96220599090E+02  0.66745581542E+02 -0.19121258738E+03  0.24191171951E+03  0.90805562174E+02 0.  0.
        -11    1    3    3    0    0 -0.15137622393E+03 -0.73509950299E+02  0.12569914456E+02  0.16874974582E+03  0.00000000000E+00 0. -1.
         11    1    3    3    0    0 -0.78432009695E+02 -0.94477287915E+01 -0.53860605740E+02  0.95612784578E+02  0.00000000000E+00 0.  1.
        -13    1    4    4    0    0  0.63515750658E+02  0.81316919991E+02 -0.99013895410E+02  0.14300504726E+03  0.00000000000E+00 0. -1.
         13    1    4    4    0    0  0.32704848432E+02 -0.14571338448E+02 -0.92198691967E+02  0.98906672250E+02  0.00000000000E+00 0.  1.
          2    1    1    2  501    0  0.13358763454E+03  0.16212097549E+02 -0.33227757452E+03  0.35849250304E+03  0.00000000000E+00 0. -1.
<scales pt_clust_5="13000.00000" pt_clust_6="13000.00000" pt_clust_7="13000.00000" pt_clust_8="13000.00000" pt_clust_9="134.56778"></scales>
<clustering>
<clus scale="   90.806">  7  8 -1 -1</clus>
<clus scale="   92.135">  5  6 -1 -1</clus>
<clus scale="  134.568">  2  9  1 -1</clus>
<clus scale="  211.006">  2  7  1 -1</clus>
<clus scale="  134.568">  2  5  1 -1</clus>
</clustering>
</event>
<event>
 9    1  0.1315259E-005  0.9734922E+02  0.7546771E-02  0.1287980E+00
         21   -1    0    0  501  502  0.00000000000E+00  0.00000000000E+00  0.36609829966E+03  0.36609829966E+03  0.00000000000E+00 0.  1.
          2   -1    0    0  502    0 -0.00000000000E+00 -0.00000000000E+00 -0.61323395291E+02  0.61323395291E+02  0.00000000000E+00 0. -1.
         23    2    1    2    0    0  0.28087486144E+02 -0.23718134195E+02  0.12414334787E+02  0.10135279056E+03  0.93631275110E+02 0.  0.
         23    2    1    2    0    0  0.21219328998E+02  0.11414436116E+02  0.17556397953E+03  0.19869549094E+03  0.89870117040E+02 0.  0.
        -11    1    3    3    0    0  0.39045344804E+01 -0.48335494571E+02 -0.21430681332E+02  0.53017351190E+02  0.00000000000E+00 0. -1.
         11    1    3    3    0    0  0.24182951664E+02  0.24617360376E+02  0.33845016119E+02  0.48335439371E+02  0.00000000000E+00 0.  1.
        -13    1    4    4    0    0 -0.88271235879E+00  0.48063758965E+02  0.11395785091E+03  0.12368223757E+03  0.00000000000E+00 0.  1.
         13    1    4    4    0    0  0.22102041357E+02 -0.36649322848E+02  0.61606128626E+02  0.75013253373E+02  0.00000000000E+00 0. -1.
          2    1    1    2  501    0 -0.49306815142E+02  0.12303698079E+02  0.11679659005E+03  0.12737341344E+03  0.00000000000E+00 0. -1.
<scales pt_clust_5="13000.00000" pt_clust_6="13000.00000" pt_clust_7="13000.00000" pt_clust_8="13000.00000" pt_clust_9="50.81873"></scales>
<clustering>
<clus scale="   50.819">  1  9  2 -1</clus>
<clus scale="   89.870">  7  8 -1 -1</clus>
<clus scale="   93.631">  5  6 -1 -1</clus>
<clus scale="   93.737">  1  7  2 -1</clus>
<clus scale="   50.819">  1  5  2 -1</clus>
</clustering>
</event>
<event>
 9    1  0.1315259E-005  0.9666713E+02  0.7546771E-02  0.1291051E+00
          2   -1    0    0  502    0 -0.00000000000E+00  0.00000000000E+00  0.19592484531E+03  0.19592484531E+03  0.00000000000E+00 0. -1.
         21   -1    0    0  501  502  0.00000000000E+00 -0.00000000000E+00 -0.82664310905E+02  0.82664310905E+02  0.00000000000E+00 0. -1.
         23    2    1    2    0    0  0.12607889087E+02 -0.13691902539E+02  0.11315019915E+03  0.14934783645E+03  0.95683758396E+02 0.  0.
         23    2    1    2    0    0  0.82960756956E+01  0.10886944202E+02  0.27693404877E+02  0.94518571250E+02  0.89327964331E+02 0.  0.
        -13    1    4    4    0    0  0.46791104199E+02 -0.74499508729E+01  0.18724546259E+02  0.50946224912E+02  0.00000000000E+00 0. -1.
         13    1    4    4    0    0 -0.38495028504E+02  0.18336895075E+02  0.89688586182E+01  0.43572346338E+02  0.00000000000E+00 0.  1.
        -13    1    3    3    0    0  0.30112942631E+02  0.33665822266E+02  0.67883552519E+02  0.81537436834E+02  0.00000000000E+00 0. -1.
         13    1    3    3    0    0 -0.17505053544E+02 -0.47357724805E+02  0.45266646632E+02  0.67810399613E+02  0.00000000000E+00 0.  1.
          2    1    1    2  501    0 -0.20903964783E+02  0.28049583374E+01 -0.27583069622E+02  0.34722748519E+02  0.00000000000E+00 0. -1.
<scales pt_clust_5="13000.00000" pt_clust_6="13000.00000" pt_clust_7="13000.00000" pt_clust_8="13000.00000" pt_clust_9="21.09131"></scales>
<clustering>
<clus scale="   21.091">  2  9  1 -1</clus>
<clus scale="   89.328">  5  6 -1 -1</clus>
<clus scale="   90.381">  2  5  1 -1</clus>
<clus scale="   95.684">  7  8 -1 -1</clus>
<clus scale="   21.091">  2  5  1 -1</clus>
</clustering>
</event>
<event>
 9    1  0.1315259E-005  0.1535499E+03  0.7546771E-02  0.1197430E+00
         -1   -1    0    0    0  501 -0.00000000000E+00  0.00000000000E+00  0.98085303617E+02  0.98085303617E+02  0.00000000000E+00 0.  1.
         21   -1    0    0  501  502  0.00000000000E+00 -0.00000000000E+00 -0.69995041002E+03  0.69995041002E+03  0.00000000000E+00 0.  1.
         23    2    1    2    0    0  0.10210558032E+03 -0.16325270715E+02 -0.50206925457E+02  0.14895454690E+03  0.94734669902E+02 0.  0.
         23    2    1    2    0    0 -0.15093141594E+03 -0.85899303365E+01 -0.11564797537E+03  0.20963876000E+03  0.87862826424E+02 0.  0.
        -11    1    3    3    0    0  0.15413974188E+02 -0.18209903172E+02 -0.57184924588E+02  0.61962139843E+02  0.00000000000E+00 0.  1.
         11    1    3    3    0    0  0.86691606133E+02  0.18846324571E+01  0.69779991314E+01  0.86992407056E+02  0.00000000000E+00 0. -1.
        -11    1    4    4    0    0 -0.10566521430E+03 -0.44124323222E+02 -0.58699891001E+02  0.12867700112E+03  0.00000000000E+00 0.  1.
         11    1    4    4    0    0 -0.45266201643E+02  0.35534392886E+02 -0.56948084365E+02  0.80961758886E+02  0.00000000000E+00 0. -1.
         -1    1    1    2    0  502  0.48825835621E+02  0.24915201051E+02 -0.43601020558E+03  0.43944240674E+03  0.00000000000E+00 0.  1.
<scales pt_clust_5="13000.00000" pt_clust_6="13000.00000" pt_clust_7="13000.00000" pt_clust_8="13000.00000" pt_clust_9="54.81541"></scales>
<clustering>
<clus scale="   54.815">  2  9  1 -1</clus>
<clus scale="   87.863">  7  8 -1 -1</clus>
<clus scale="   94.735">  5  6 -1 -1</clus>
<clus scale="  149.408">  2  7  1 -1</clus>
<clus scale="   54.815">  2  5  1 -1</clus>
</clustering>
</event>
<event>
 9    1  0.1315259E-005  0.1583359E+03  0.7546771E-02  0.1190866E+00
         21   -1    0    0  501  502  0.00000000000E+00  0.00000000000E+00  0.69666471955E+03  0.69666471955E+03  0.00000000000E+00 0. -1.
          1   -1    0    0  502    0 -0.00000000000E+00 -0.00000000000E+00 -0.12351323173E+03  0.12351323173E+03  0.00000000000E+00 0. -1.
         23    2    1    2    0    0 -0.15660019614E+03  0.55277037575E+02  0.19395123829E+02  0.18997512446E+03  0.90195369997E+02 0.  0.
         23    2    1    2    0    0  0.89731796466E+02  0.30429550684E+02  0.10552684020E+03  0.16897976999E+03  0.91872171044E+02 0.  0.
        -11    1    3    3    0    0 -0.10158603697E+03  0.51393612362E+02 -0.28019917266E+02  0.11724394254E+03  0.00000000000E+00 0.  1.
         11    1    3    3    0    0 -0.55014159177E+02  0.38834252123E+01  0.47415041095E+02  0.72731181919E+02  0.00000000000E+00 0. -1.
        -13    1    4    4    0    0  0.14857419358E+02  0.51848468449E+02  0.47360228179E+02  0.71777418480E+02  0.00000000000E+00 0.  1.
         13    1    4    4    0    0  0.74874377108E+02 -0.21418917765E+02  0.58166612021E+02  0.97202351512E+02  0.00000000000E+00 0. -1.
          1    1    1    2  501    0  0.66868399677E+02 -0.85706588259E+02  0.44822952379E+03  0.46122305682E+03  0.00000000000E+00 0. -1.
<scales pt_clust_5="13000.00000" pt_clust_6="13000.00000" pt_clust_7="13000.00000" pt_clust_8="13000.00000" pt_clust_9="108.70604"></scales>
<clustering>
<clus scale="   90.195">  5  6 -1 -1</clus>
<clus scale="   91.872">  7  8 -1 -1</clus>
<clus scale="  108.706">  1  9  2 -1</clus>
<clus scale="  157.369">  2  5  1 -1</clus>
<clus scale="  108.706">  1  5  2 -1</clus>
</clustering>
</event>
<event>
 9    1  0.1315259E-005  0.1442949E+03  0.7546771E-02  0.1231399E+00
         -4   -1    0    0    0  501 -0.00000000000E+00  0.00000000000E+00  0.13551001467E+03  0.13551001467E+03  0.00000000000E+00 0.  1.
         21   -1    0    0  501  502  0.00000000000E+00 -0.00000000000E+00 -0.62576610957E+03  0.62576610957E+03  0.00000000000E+00 0.  1.
         23    2    1    2    0    0  0.13339978943E+02 -0.82784085106E+01  0.58012180472E+02  0.10508824149E+03  0.86206950593E+02 0.  0.
         23    2    1    2    0    0  0.94850333079E+02  0.45096560900E+02 -0.52970580987E+02  0.14787643685E+03  0.89617367936E+02 0.  0.
        -11    1    3    3    0    0 -0.35684415322E+02 -0.13610100940E+02  0.22606687138E+02  0.44381016751E+02  0.00000000000E+00 0. -1.
         11    1    3    3    0    0  0.49024394266E+02  0.53316924290E+01  0.35405493333E+02  0.60707224738E+02  0.00000000000E+00 0.  1.
        -13    1    4    4    0    0  0.70659125479E+02 -0.14767959631E+02 -0.17786729002E+02  0.74344955267E+02  0.00000000000E+00 0. -1.
         13    1    4    4    0    0  0.24191207600E+02  0.59864520531E+02 -0.35183851985E+02  0.73531481585E+02  0.00000000000E+00 0.  1.
         -4    1    1    2    0  502 -0.10819031202E+03 -0.36818152389E+02 -0.49529769439E+03  0.50831144590E+03  0.00000000000E+00 0.  1.
<scales pt_clust_5="13000.00000" pt_clust_6="13000.00000" pt_clust_7="13000.00000" pt_clust_8="13000.00000" pt_clust_9="113.09172"></scales>
<clustering>
<clus scale="   86.207">  5  6 -1 -1</clus>
<clus scale="   87.625">  1  5  2 -1</clus>
<clus scale="   89.617">  7  8 -1 -1</clus>
<clus scale="  113.092">  2  9  1 -1</clus>
<clus scale="  113.092">  2  5  1 -1</clus>
</clustering>
</event>
<event>
 9    1  0.1315259E-005  0.2979733E+03  0.7546771E-02  0.1101636E+00
          2   -1    0    0  502    0 -0.00000000000E+00  0.00000000000E+00  0.24326439177E+04  0.24326439177E+04  0.00000000000E+00 0. -1.
         21   -1    0    0  501  502  0.00000000000E+00 -0.00000000000E+00 -0.14322561112E+03  0.14322561112E+03  0.00000000000E+00 0. -1.
         23    2    1    2    0    0  0.16975252160E+03 -0.48630381712E+02  0.18909614761E+03  0.27453633953E+03  0.91826009739E+02 0.  0.
         23    2    1    2    0    0 -0.36852655055E+03  0.22633712710E+03  0.19411029405E+04  0.19907827723E+04  0.91077480417E+02 0.  0.
        -13    1    3    3    0    0  0.79815701540E+01 -0.35877967031E+02  0.34456022110E+02  0.50380069870E+02  0.00000000000E+00 0.  1.
         13    1    3    3    0    0  0.16177095145E+03 -0.12752414681E+02  0.15464012550E+03  0.22415626966E+03  0.00000000000E+00 0. -1.
        -13    1    4    4    0    0 -0.16642954043E+03  0.55755910715E+02  0.86837161134E+03  0.88593271126E+03  0.00000000000E+00 0. -1.
         13    1    4    4    0    0 -0.20209701012E+03  0.17058121639E+03  0.10727313291E+04  0.11048500611E+04  0.00000000000E+00 0.  1.
          2    1    1    2  501    0  0.19877402895E+03 -0.17770674539E+03  0.15921921846E+03  0.31055041695E+03  0.00000000000E+00 0. -1.
<scales pt_clust_5="13000.00000" pt_clust_6="13000.00000" pt_clust_7="13000.00000" pt_clust_8="13000.00000" pt_clust_9="283.71281"></scales>
<clustering>
<clus scale="   91.077">  7  8 -1 -1</clus>
<clus scale="   91.826">  5  6 -1 -1</clus>
<clus scale="  199.030">  1  5  2 -1</clus>
<clus scale="  283.713">  2  9  1 -1</clus>
<clus scale="  283.713">  2  5  1 -1</clus>
</clustering>
</event>
<event>
 9    1  0.1315259E-005  0.1877012E+03  0.7546771E-02  0.1160595E+00
         21   -1    0    0  501  502  0.00000000000E+00  0.00000000000E+00  0.72984762527E+03  0.72984762527E+03  0.00000000000E+00 0.  1.
         -3   -1    0    0    0  501 -0.00000000000E+00 -0.00000000000E+00 -0.16872950579E+03  0.16872950579E+03  0.00000000000E+00 0.  1.
         23    2    1    2    0    0  0.17255811949E+03  0.32943784294E+02 -0.63464130085E+02  0.20779578858E+03  0.91048319142E+02 0.  0.
         23    2    1    2    0    0 -0.12069131479E+03 -0.58842429786E+02  0.17894072027E+03  0.24138477162E+03  0.90653194038E+02 0.  0.
        -13    1    4    4    0    0 -0.94593885164E+02 -0.81740527969E+02  0.15536179588E+03  0.19941615943E+03  0.00000000000E+00 0. -1.
         13    1    4    4    0    0 -0.26097429630E+02  0.22898098183E+02  0.23578924390E+02  0.41968612189E+02  0.00000000000E+00 0.  1.
        -13    1    3    3    0    0  0.59127734320E+02 -0.30602149983E+02 -0.32764743671E+02  0.74203160156E+02  0.00000000000E+00 0.  1.
         13    1    3    3    0    0  0.11343038517E+03  0.63545934276E+02 -0.30699386414E+02  0.13359262842E+03  0.00000000000E+00 0. -1.
         -3    1    1    2    0  502 -0.51866804697E+02  0.25898645492E+02  0.44564152930E+03  0.44939657086E+03  0.00000000000E+00 0.  1.
<scales pt_clust_5="13000.00000" pt_clust_6="13000.00000" pt_clust_7="13000.00000" pt_clust_8="13000.00000" pt_clust_9="57.97332"></scales>
<clustering>
<clus scale="   57.973">  1  9  2 -1</clus>
<clus scale="   90.653">  5  6 -1 -1</clus>
<clus scale="   91.048">  7  8 -1 -1</clus>
<clus scale="  187.510">  1  5  2 -1</clus>
<clus scale="   57.973">  1  5  2 -1</clus>
</clustering>
</event>
<event>
 9    1  0.1315259E-005  0.1072126E+03  0.7546771E-02  0.1266676E+00
          2   -1    0    0  502    0 -0.00000000000E+00  0.00000000000E+00  0.11930532788E+03  0.11930532788E+03  0.00000000000E+00 0. -1.
         21   -1    0    0  501  502  0.00000000000E+00 -0.00000000000E+00 -0.17812547439E+03  0.17812547439E+03  0.00000000000E+00 0.  1.
         23    2    1    2    0    0 -0.48553162293E+02 -0.30680145271E+02  0.26063500273E+02  0.11123380403E+03  0.91624081057E+02 0.  0.
         23    2    1    2    0    0  0.54255233248E+02 -0.18917972229E+02 -0.34252528825E+02  0.11509146415E+03  0.93655162063E+02 0.  0.
        -11    1    3    3    0    0 -0.31027267818E+02 -0.45554795219E+02  0.52556362508E+02  0.76158400429E+02  0.00000000000E+00 0. -1.
         11    1    3    3    0    0 -0.17525894475E+02  0.14874649948E+02 -0.26492862235E+02  0.35075403599E+02  0.00000000000E+00 0.  1.
        -11    1    4    4    0    0  0.23560176006E+02  0.22291633209E+02 -0.51522828531E+02  0.60881858253E+02  0.00000000000E+00 0.  1.
         11    1    4    4    0    0  0.30695057242E+02 -0.41209605438E+02  0.17270299706E+02  0.54209605896E+02  0.00000000000E+00 0. -1.
          2    1    1    2  501    0 -0.57020709551E+01  0.49598117500E+02 -0.50631117965E+02  0.71105534096E+02  0.00000000000E+00 0. -1.
<scales pt_clust_5="13000.00000" pt_clust_6="13000.00000" pt_clust_7="13000.00000" pt_clust_8="13000.00000" pt_clust_9="49.92481"></scales>
<clustering>
<clus scale="   49.925">  2  9  1 -1</clus>
<clus scale="   91.624">  5  6 -1 -1</clus>
<clus scale="   93.655">  7  8 -1 -1</clus>
<clus scale="  105.443">  1  5  2 -1</clus>
<clus scale="   49.925">  2  5  1 -1</clus>
</clustering>
</event>
<event>
 9    1  0.1315259E-005  0.1039775E+03  0.7546771E-02  0.1273906E+00
         21   -1    0    0  501  502  0.00000000000E+00  0.00000000000E+00  0.58693067437E+02  0.58693067437E+02  0.00000000000E+00 0.  1.
          2   -1    0    0  502    0 -0.00000000000E+00 -0.00000000000E+00 -0.29051751467E+03  0.29051751467E+03  0.00000000000E+00 0. -1.
         23    2    1    2    0    0 -0.12155613033E+02  0.35699713643E+02 -0.11682443753E+03  0.15320230665E+03  0.91655709449E+02 0.  0.
         23    2    1    2    0    0 -0.15998330867E+02 -0.66916142705E+02 -0.10423116930E+03  0.15261382968E+03  0.87710476074E+02 0.  0.
        -11    1    4    4    0    0 -0.48867835080E+02 -0.59161539018E+02 -0.81292744900E+02  0.11178847605E+03  0.00000000000E+00 0. -1.
         11    1    4    4    0    0  0.32869504213E+02 -0.77546036874E+01 -0.22938424396E+02  0.40825353634E+02  0.00000000000E+00 0.  1.
        -13    1    3    3    0    0 -0.20845688626E+02 -0.86311775632E+01 -0.10374838498E+03  0.10617328923E+03  0.00000000000E+00 0. -1.
         13    1    3    3    0    0  0.86900755924E+01  0.44330891206E+02 -0.13076052558E+02  0.47029017419E+02  0.00000000000E+00 0.  1.
          2    1    1    2  501    0  0.28153943900E+02  0.31216429062E+02 -0.10768840404E+02  0.43394445775E+02  0.00000000000E+00 0. -1.
<scales pt_clust_5="13000.00000" pt_clust_6="13000.00000" pt_clust_7="13000.00000" pt_clust_8="13000.00000" pt_clust_9="42.03701"></scales>
<clustering>
<clus scale="   42.037">  1  9  2 -1</clus>
<clus scale="   87.710">  5  6 -1 -1</clus>
<clus scale="   91.656">  7  8 -1 -1</clus>
<clus scale="  100.517">  1  5  2 -1</clus>
<clus scale="   42.037">  1  5  2 -1</clus>
</clustering>
</event>
<event>
 9    1  0.1315259E-005  0.1013352E+03  0.7546771E-02  0.1278013E+00
          2   -1    0    0  502    0 -0.00000000000E+00  0.00000000000E+00  0.30032730060E+03  0.30032730060E+03  0.00000000000E+00 0. -1.
         21   -1    0    0  501  502  0.00000000000E+00 -0.00000000000E+00 -0.79767612683E+02  0.79767612683E+02  0.00000000000E+00 0. -1.
         23    2    1    2    0    0 -0.94161422892E+01  0.43357096340E+02  0.13832566402E+03  0.17137060006E+03  0.90914199646E+02 0.  0.
         23    2    1    2    0    0  0.38016660949E+02 -0.33037626951E+02  0.12135955809E+03  0.15917344501E+03  0.89840369276E+02 0.  0.
        -11    1    3    3    0    0 -0.39929682461E+02  0.54473159836E+02  0.10493332912E+03  0.12479065768E+03  0.00000000000E+00 0.  1.
         11    1    3    3    0    0  0.30513540172E+02 -0.11116063496E+02  0.33392334904E+02  0.46579942377E+02  0.00000000000E+00 0. -1.
        -13    1    4    4    0    0  0.34247047886E+01 -0.52215064839E+02  0.31707220357E+02  0.61184061828E+02  0.00000000000E+00 0. -1.
         13    1    4    4    0    0  0.34591956161E+02  0.19177437888E+02  0.89652337732E+02  0.97989383179E+02  0.00000000000E+00 0.  1.
          2    1    1    2  501    0 -0.28600518660E+02 -0.10319469389E+02 -0.39125534191E+02  0.49550868224E+02  0.00000000000E+00 0. -1.
<scales pt_clust_5="13000.00000" pt_clust_6="13000.00000" pt_clust_7="13000.00000" pt_clust_8="13000.00000" pt_clust_9="30.40528"></scales>
<clustering>
<clus scale="   30.405">  2  9  1 -1</clus>
<clus scale="   89.840">  7  8 -1 -1</clus>
<clus scale="   90.914">  5  6 -1 -1</clus>
<clus scale="  100.373">  2  7  1 -1</clus>
<clus scale="   30.405">  2  5  1 -1</clus>
</clustering>
</event>
<event>
 9    1  0.1315259E-005  0.9539773E+02  0.7546771E-02  0.1291076E+00
          1   -1    0    0  502    0 -0.00000000000E+00  0.00000000000E+00  0.34317939633E+03  0.34317939633E+03  0.00000000000E+00 0. -1.
         21   -1    0    0  501  502  0.00000000000E+00 -0.00000000000E+00 -0.39723575595E+02  0.39723575595E+02  0.00000000000E+00 0.  1.
         23    2    1    2    0    0 -0.22203036297E+02  0.19585578152E+01  0.12258217678E+03  0.15435854361E+03  0.91122769661E+02 0.  0.
         23    2    1    2    0    0  0.15468814191E+02 -0.27066304565E+02  0.85901690921E+02  0.13007910164E+03  0.92572150920E+02 0.  0.
        -13    1    4    4    0    0  0.21325279212E+01 -0.60966920318E+02  0.58200709217E+02  0.84313911080E+02  0.00000000000E+00 0.  1.
         13    1    4    4    0    0  0.13336286270E+02  0.33900615752E+02  0.27700981704E+02  0.45765190563E+02  0.00000000000E+00 0. -1.
        -13    1    3    3    0    0  0.27870837912E+02 -0.19031065716E+02  0.74685181161E+02  0.81956338090E+02  0.00000000000E+00 0.  1.
         13    1    3    3    0    0 -0.50073874209E+02  0.20989623531E+02  0.47896995621E+02  0.72402205518E+02  0.00000000000E+00 0. -1.
          1    1    1    2  501    0  0.67342221064E+01  0.25107746750E+02  0.94971953028E+02  0.98465326670E+02  0.00000000000E+00 0. -1.
<scales pt_clust_5="13000.00000" pt_clust_6="13000.00000" pt_clust_7="13000.00000" pt_clust_8="13000.00000" pt_clust_9="25.99518"></scales>
<clustering>
<clus scale="   25.995">  2  9  1 -1</clus>
<clus scale="   91.123">  7  8 -1 -1</clus>
<clus scale="   92.572">  5  6 -1 -1</clus>
<clus scale="   93.992">  1  7  2 -1</clus>
<clus scale="   25.995">  2  5  1 -1</clus>
</clustering>
</event>
<event>
 9    1  0.1315259E-005  0.1663529E+03  0.7546771E-02  0.1198577E+00
         21   -1    0    0  501  502  0.00000000000E+00  0.00000000000E+00  0.32105434633E+03  0.32105434633E+03  0.00000000000E+00 0. -1.
          2   -1    0    0  502    0 -0.00000000000E+00 -0.00000000000E+00 -0.26870088663E+03  0.26870088663E+03  0.00000000000E+00 0. -1.
         23    2    1    2    0    0  0.68974552856E+02 -0.40212886835E+01 -0.15054593021E+03  0.18919913761E+03  0.91425252901E+02 0.  0.
         23    2    1    2    0    0 -0.10145186549E+03 -0.11967726126E+03  0.36098582612E+02  0.19036899677E+03  0.10159783162E+03 0.  0.
        -11    1    4    4    0    0 -0.77628165626E+02 -0.16665227855E+02  0.25304266769E+01  0.79437176291E+02  0.00000000000E+00 0.  1.
         11    1    4    4    0    0 -0.23823699865E+02 -0.10301203341E+03  0.33568155935E+02  0.11093182048E+03  0.00000000000E+00 0. -1.
        -13    1    3    3    0    0  0.41215403370E+02  0.26312530219E+02 -0.20879985298E+02  0.53169845849E+02  0.00000000000E+00 0. -1.
         13    1    3    3    0    0  0.27759149485E+02 -0.30333818903E+02 -0.12966594491E+03  0.13602929177E+03  0.00000000000E+00 0.  1.
          2    1    1    2  501    0  0.32477312636E+02  0.12369854995E+03  0.16680080730E+03  0.21018709858E+03  0.00000000000E+00 0. -1.
<scales pt_clust_5="13000.00000" pt_clust_6="13000.00000" pt_clust_7="13000.00000" pt_clust_8="13000.00000" pt_clust_9="131.72379"></scales>
<clustering>
<clus scale="   91.425">  7  8 -1 -1</clus>
<clus scale="  101.598">  5  6 -1 -1</clus>
<clus scale="  114.596">  2  7  1 -1</clus>
<clus scale="  131.724">  1  9  2 -1</clus>
<clus scale="  131.724">  1  5  2 -1</clus>
</clustering>
</event>
<event>
 9    1  0.1315259E-005  0.9932611E+02  0.7546771E-02  0.1283948E+00
          3   -1    0    0  502    0 -0.00000000000E+00  0.00000000000E+00  0.17577626866E+03  0.17577626866E+03  0.00000000000E+00 0. -1.
         21   -1    0    0  501  502  0.00000000000E+00 -0.00000000000E+00 -0.11684901317E+03  0.11684901317E+03  0.00000000000E+00 0. -1.
         23    2    1    2    0    0  0.36752720594E+01 -0.40996652143E+02  0.90261410866E+02  0.13728959670E+03  0.94905626596E+02 0.  0.
         23    2    1    2    0    0 -0.30779106318E+02 -0.38539855888E+01 -0.31071880280E+01  0.95812922910E+02  0.90599420465E+02 0.  0.
        -11    1    4    4    0    0 -0.23902014345E+02 -0.41669096978E+02 -0.22173618175E+02  0.52908310082E+02  0.00000000000E+00 0. -1.
         11    1    4    4    0    0 -0.68770919732E+01  0.37815111390E+02  0.19066430147E+02  0.42904612829E+02  0.00000000000E+00 0.  1.
        -11    1    3    3    0    0 -0.25454825927E+02  0.70651765299E+01  0.74314742531E+02  0.78870437046E+02  0.00000000000E+00 0.  1.
         11    1    3    3    0    0  0.29130097986E+02 -0.48061828673E+02  0.15946668336E+02  0.58419159658E+02  0.00000000000E+00 0. -1.
          3    1    1    2  501    0  0.27103834259E+02  0.44850637732E+02 -0.28226967346E+02  0.59522762218E+02  0.00000000000E+00 0. -1.
<scales pt_clust_5="13000.00000" pt_clust_6="13000.00000" pt_clust_7="13000.00000" pt_clust_8="13000.00000" pt_clust_9="52.40417"></scales>
<clustering>
<clus scale="   52.404">  2  9  1 -1</clus>
<clus scale="   90.599">  5  6 -1 -1</clus>
<clus scale="   94.906">  7  8 -1 -1</clus>
<clus scale="   95.220">  2  5  1 -1</clus>
<clus scale="   52.404">  2  5  1 -1</clus>
</clustering>
</event>
<event>
 9    1  0.1315259E-005  0.9262474E+02  0.7546771E-02  0.1302434E+00
          3   -1    0    0  502    0 -0.00000000000E+00  0.00000000000E+00  0.85725259381E+02  0.85725259381E+02  0.00000000000E+00 0. -1.
         21   -1    0    0  501  502  0.00000000000E+00 -0.00000000000E+00 -0.20638541144E+03  0.20638541144E+03  0.00000000000E+00 0. -1.
         23    2    1    2    0    0 -0.43709893732E+01 -0.31183432314E+02  0.10200541304E+02  0.87486922371E+02  0.80983940039E+02 0.  0.
         23    2    1    2    0    0  0.13011506018E+02 -0.47312066492E+01 -0.28837946053E+02  0.96119551349E+02  0.90640263756E+02 0.  0.
        -11    1    4    4    0    0  0.36742529563E+02  0.14620501669E+02  0.15298834237E+02  0.42400788634E+02  0.00000000000E+00 0.  1.
         11    1    4    4    0    0 -0.23731023545E+02 -0.19351708318E+02 -0.44136780290E+02  0.53718762715E+02  0.00000000000E+00 0. -1.
        -13    1    3    3    0    0 -0.13019526734E+02  0.25849046322E+02  0.66277548786E+01  0.29691891265E+02  0.00000000000E+00 0.  1.
         13    1    3    3    0    0  0.86485373608E+01 -0.57032478636E+02  0.35727864255E+01  0.57795031107E+02  0.00000000000E+00 0. -1.
          3    1    1    2  501    0 -0.86405166447E+01  0.35914638963E+02 -0.10202274732E+03  0.10850419711E+03  0.00000000000E+00 0. -1.
<scales pt_clust_5="13000.00000" pt_clust_6="13000.00000" pt_clust_7="13000.00000" pt_clust_8="13000.00000" pt_clust_9="36.93941"></scales>
<clustering>
<clus scale="   36.939">  2  9  1 -1</clus>
<clus scale="   80.984">  7  8 -1 -1</clus>
<clus scale="   83.199">  1  7  2 -1</clus>
<clus scale="   90.640">  5  6 -1 -1</clus>
<clus scale="   36.939">  2  5  1 -1</clus>
</clustering>
</event>
<event>
 9    1  0.1315259E-005  0.1165636E+03  0.7546771E-02  0.1255425E+00
         -4   -1    0    0    0  501 -0.00000000000E+00  0.00000000000E+00  0.41170747085E+03  0.41170747085E+03  0.00000000000E+00 0.  1.
         21   -1    0    0  501  502  0.00000000000E+00 -0.00000000000E+00 -0.63424788186E+02  0.63424788186E+02  0.00000000000E+00 0.  1.
         23    2    1    2    0    0 -0.65469632010E+02 -0.28135569180E+02  0.18263988851E+03  0.20871187219E+03  0.71592134676E+02 0.  0.
         23    2    1    2    0    0  0.81059710571E+02 -0.85977727551E+01  0.18535523465E+03  0.22191230590E+03  0.90795980759E+02 0.  0.
        -11    1    3    3    0    0 -0.49258456625E+02 -0.24619387970E+01  0.41843583466E+02  0.64678761345E+02  0.00000000000E+00 0.  1.
         11    1    3    3    0    0 -0.16211175384E+02 -0.25673630383E+02  0.14079630505E+03  0.14403311084E+03  0.00000000000E+00 0. -1.
        -11    1    4    4    0    0 -0.20056337015E+02  0.26251690748E+01  0.28336969730E+02  0.34815686416E+02  0.00000000000E+00 0. -1.
         11    1    4    4    0    0  0.10111604759E+03 -0.11222941830E+02  0.15701826492E+03  0.18709661948E+03  0.00000000000E+00 0.  1.
         -4    1    1    2    0  502 -0.15590078561E+02  0.36733341935E+02 -0.19712440503E+02  0.44508080949E+02  0.00000000000E+00 0.  1.
<scales pt_clust_5="13000.00000" pt_clust_6="13000.00000" pt_clust_7="13000.00000" pt_clust_8="13000.00000" pt_clust_9="39.90475"></scales>
<clustering>
<clus scale="   39.905">  2  9  1 -1</clus>
<clus scale="   71.592">  5  6 -1 -1</clus>
<clus scale="   90.796">  7  8 -1 -1</clus>
<clus scale="  102.316">  1  5  2 -1</clus>
<clus scale="   39.905">  2  5  1 -1</clus>
</clustering>
</event>
<event>
 9    1  0.1315259E-005  0.9733639E+02  0.7546771E-02  0.1286028E+00
         -1   -1    0    0    0  501 -0.00000000000E+00  0.00000000000E+00  0.15591034877E+03  0.15591034877E+03  0.00000000000E+00 0.  1.
         21   -1    0    0  501  502  0.00000000000E+00 -0.00000000000E+00 -0.12263361491E+03  0.12263361491E+03  0.00000000000E+00 0. -1.
         23    2    1    2    0    0  0.18715491775E+02  0.22199384276E+02  0.75011385218E+02  0.12108036399E+03  0.90502289122E+02 0.  0.
         23    2    1    2    0    0 -0.27166107272E+02 -0.42297052041E+02  0.73679154481E+01  0.10373845456E+03  0.90445247422E+02 0.  0.
        -13    1    3    3    0    0 -0.24551771608E+02  0.38630029348E+02  0.52381325265E+02  0.69562000352E+02  0.00000000000E+00 0. -1.
         13    1    3    3    0    0  0.43267263383E+02 -0.16430645072E+02  0.22630059953E+02  0.51518363635E+02  0.00000000000E+00 0.  1.
        -13    1    4    4    0    0  0.28563997557E+02  0.64162247217E+01  0.48635537707E+01  0.29676995323E+02  0.00000000000E+00 0.  1.
         13    1    4    4    0    0 -0.55730104830E+02 -0.48713276763E+02  0.25043616774E+01  0.74061459240E+02  0.00000000000E+00 0. -1.
         -1    1    1    2    0  502  0.84506154977E+01  0.20097667765E+02 -0.49102566811E+02  0.53725145130E+02  0.00000000000E+00 0.  1.
<scales pt_clust_5="13000.00000" pt_clust_6="13000.00000" pt_clust_7="13000.00000" pt_clust_8="13000.00000" pt_clust_9="21.80204"></scales>
<clustering>
<clus scale="   21.802">  2  9  1 -1</clus>
<clus scale="   90.445">  7  8 -1 -1</clus>
<clus scale="   90.502">  5  6 -1 -1</clus>
<clus scale="   97.283">  2  7  1 -1</clus>
<clus scale="   21.802">  2  5  1 -1</clus>
</clustering>
</event>
<event>
 9    1  0.1315259E-005  0.9816111E+02  0.7546771E-02  0.1286977E+00
          1   -1    0    0  502    0 -0.00000000000E+00  0.00000000000E+00  0.15285457156E+03  0.15285457156E+03  0.00000000000E+00 0. -1.
         21   -1    0    0  501  502  0.00000000000E+00 -0.00000000000E+00 -0.10288699069E+03  0.10288699069E+03  0.00000000000E+00 0.  1.
         23    2    1    2    0    0 -0.18297870122E+02 -0.19133091431E+02  0.86661679734E+02  0.12814340994E+03  0.90606840456E+02 0.  0.
         23    2    1    2    0    0 -0.17649448767E+01  0.82862447486E+01 -0.40830768464E+02  0.10441879374E+03  0.95730642688E+02 0.  0.
        -11    1    4    4    0    0 -0.20009930887E+02  0.45714692717E+02 -0.37926771820E+02  0.62679107245E+02  0.00000000000E+00 0.  1.
         11    1    4    4    0    0  0.18244986010E+02 -0.37428447969E+02 -0.29039966440E+01  0.41739686491E+02  0.00000000000E+00 0. -1.
        -13    1    3    3    0    0  0.27086994471E+02 -0.12700573889E+02 -0.21277967388E+00  0.29917471848E+02  0.00000000000E+00 0. -1.
         13    1    3    3    0    0 -0.45384864593E+02 -0.64325175423E+01  0.86874459408E+02  0.98225938089E+02  0.00000000000E+00 0.  1.
          1    1    1    2  501    0  0.20062814998E+02  0.10846846683E+02  0.41366695984E+01  0.23179358576E+02  0.00000000000E+00 0. -1.
<scales pt_clust_5="13000.00000" pt_clust_6="13000.00000" pt_clust_7="13000.00000" pt_clust_8="13000.00000" pt_clust_9="22.80725"></scales>
<clustering>
<clus scale="   22.807">  2  9  1 -1</clus>
<clus scale="   90.607">  7  8 -1 -1</clus>
<clus scale="   93.171">  1  7  2 -1</clus>
<clus scale="   95.731">  5  6 -1 -1</clus>
<clus scale="   22.807">  2  5  1 -1</clus>
</clustering>
</event>
<event>
 9    1  0.1315259E-005  0.1237207E+03  0.7546771E-02  0.1240903E+00
         21   -1    0    0  501  502  0.00000000000E+00  0.00000000000E+00  0.30397467326E+03  0.30397467326E+03  0.00000000000E+00 0. -1.
          3   -1    0    0  502    0 -0.00000000000E+00 -0.00000000000E+00 -0.10963755961E+03  0.10963755961E+03  0.00000000000E+00 0. -1.
         23    2    1    2    0    0 -0.73196166315E+01 -0.93238625981E+02 -0.15000476143E+02  0.13201744024E+03  0.91959622012E+02 0.  0.
         23    2    1    2    0    0 -0.34260612636E+02  0.65222725932E+02  0.59033630665E+02  0.12314894621E+03  0.79075279616E+02 0.  0.
        -11    1    4    4    0    0 -0.59128458265E+02  0.35926277011E+02  0.43335327640E+02  0.81638364623E+02  0.00000000000E+00 0. -1.
         11    1    4    4    0    0  0.24867845629E+02  0.29296448921E+02  0.15698303025E+02  0.41510581584E+02  0.00000000000E+00 0.  1.
        -13    1    3    3    0    0  0.32802974541E+02 -0.43300867946E+02  0.21344324960E+02  0.58365919093E+02  0.00000000000E+00 0.  1.
         13    1    3    3    0    0 -0.40122591172E+02 -0.49937758035E+02 -0.36344801103E+02  0.73651521146E+02  0.00000000000E+00 0. -1.
          3    1    1    2  501    0  0.41580229267E+02  0.28015900049E+02  0.15030395912E+03  0.15844584642E+03  0.00000000000E+00 0. -1.
<scales pt_clust_5="13000.00000" pt_clust_6="13000.00000" pt_clust_7="13000.00000" pt_clust_8="13000.00000" pt_clust_9="50.13787"></scales>
<clustering>
<clus scale="   50.138">  1  9  2 -1</clus>
<clus scale="   79.075">  5  6 -1 -1</clus>
<clus scale="   91.960">  7  8 -1 -1</clus>
<clus scale="  114.469">  1  5  2 -1</clus>
<clus scale="   50.138">  1  5  2 -1</clus>
</clustering>
</event>
<event>
 9    1  0.1315259E-005  0.1790629E+03  0.7546771E-02  0.1168904E+00
          3   -1    0    0  502    0 -0.00000000000E+00  0.00000000000E+00  0.10984043134E+03  0.10984043134E+03  0.00000000000E+00 0. -1.
         21   -1    0    0  501  502  0.00000000000E+00 -0.00000000000E+00 -0.40728436974E+03  0.40728436974E+03  0.00000000000E+00 0. -1.
         23    2    1    2    0    0 -0.55313323010E+01 -0.15924976096E+03 -0.59548568403E+02  0.19357428072E+03  0.92379046088E+02 0.  0.
         23    2    1    2    0    0 -0.19522890781E+02  0.14480342357E+03 -0.14106171934E+03  0.22249030733E+03  0.90853472408E+02 0.  0.
        -11    1    3    3    0    0 -0.30025315057E+02 -0.58565786397E+02 -0.61298811403E+02  0.89938952407E+02  0.00000000000E+00 0.  1.
         11    1    3    3    0    0  0.24493982756E+02 -0.10068397456E+03  0.17502429993E+01  0.10363532831E+03  0.00000000000E+00 0. -1.
        -13    1    4    4    0    0 -0.42468871322E+02  0.14284491787E+03 -0.12262133127E+03  0.19298773659E+03  0.00000000000E+00 0. -1.
         13    1    4    4    0    0  0.22945980541E+02  0.19585056969E+01 -0.18440388079E+02  0.29502570736E+02  0.00000000000E+00 0.  1.
          3    1    1    2  501    0  0.25054223082E+02  0.14446337389E+02 -0.96833650655E+02  0.10106021303E+03  0.00000000000E+00 0. -1.
<scales pt_clust_5="13000.00000" pt_clust_6="13000.00000" pt_clust_7="13000.00000" pt_clust_8="13000.00000" pt_clust_9="28.92077"></scales>
<clustering>
<clus scale="   28.921">  2  9  1 -1</clus>
<clus scale="   90.853">  7  8 -1 -1</clus>
<clus scale="   92.379">  5  6 -1 -1</clus>
<clus scale="  178.281">  2  7  1 -1</clus>
<clus scale="   28.921">  2  5  1 -1</clus>
</clustering>
</event>
<event>
 9    1  0.1315259E-005  0.9225285E+02  0.7546771E-02  0.1301018E+00
          1   -1    0    0  502    0 -0.00000000000E+00  0.00000000000E+00  0.98848099362E+02  0.98848099362E+02  0.00000000000E+00 0. -1.
         21   -1    0    0  501  502  0.00000000000E+00 -0.00000000000E+00 -0.16417947010E+03  0.16417947010E+03  0.00000000000E+00 0. -1.
         23    2    1    2    0    0  0.14241548798E+01  0.68915934477E+01  0.10506958426E+02  0.92203017662E+02  0.91331692272E+02 0.  0.
         23    2    1    2    0    0 -0.25429663258E+02  0.13296652986E+02 -0.15097955452E+01  0.90148900971E+02  0.85446334677E+02 0.  0.
        -11    1    3    3    0    0 -0.26210031379E+02  0.31069337356E+02  0.30104774139E+02  0.50582278464E+02  0.00000000000E+00 0. -1.
         11    1    3    3    0    0  0.27634186259E+02 -0.24177743908E+02 -0.19597815712E+02  0.41620739198E+02  0.00000000000E+00 0.  1.
        -13    1    4    4    0    0 -0.17444741305E+02  0.47878381755E+02  0.11691845824E+02  0.52281523480E+02  0.00000000000E+00 0.  1.
         13    1    4    4    0    0 -0.79849219532E+01 -0.34581728769E+02 -0.13201641369E+02  0.37867377491E+02  0.00000000000E+00 0. -1.
          1    1    1    2  501    0  0.24005508378E+02 -0.20188246434E+02 -0.74328533615E+02  0.80675650824E+02  0.00000000000E+00 0. -1.
<scales pt_clust_5="13000.00000" pt_clust_6="13000.00000" pt_clust_7="13000.00000" pt_clust_8="13000.00000" pt_clust_9="31.36606"></scales>
<clustering>
<clus scale="   31.366">  2  9  1 -1</clus>
<clus scale="   85.446">  7  8 -1 -1</clus>
<clus scale="   86.430">  2  7  1 -1</clus>
<clus scale="   91.332">  5  6 -1 -1</clus>
<clus scale="   31.366">  2  5  1 -1</clus>
</clustering>
</event>
<event>
 9    1  0.1315259E-005  0.1565665E+03  0.7546771E-02  0.1192659E+00
         -3   -1    0    0    0  501 -0.00000000000E+00  0.00000000000E+00  0.10179058714E+04  0.10179058714E+04  0.00000000000E+00 0.  1.
         21   -1    0    0  501  502  0.00000000000E+00 -0.00000000000E+00 -0.46089541647E+02  0.46089541647E+02  0.00000000000E+00 0. -1.
         23    2    1    2    0    0 -0.84860914971E+02 -0.85192752034E+02  0.66218693826E+03  0.67909363367E+03  0.90650108644E+02 0.  0.
         23    2    1    2    0    0  0.13231115011E+03  0.84325581255E+02  0.24130257466E+03  0.30171024917E+03  0.90471530434E+02 0.  0.
        -11    1    4    4    0    0  0.62783063976E+02  0.91407114594E+02  0.15683728799E+03  0.19208047435E+03  0.00000000000E+00 0. -1.
         11    1    4    4    0    0  0.69528086130E+02 -0.70815333396E+01  0.84465286668E+02  0.10962977482E+03  0.00000000000E+00 0.  1.
        -13    1    3    3    0    0 -0.99545231399E+02 -0.58226065688E+02  0.58009340150E+03  0.59144558692E+03  0.00000000000E+00 0.  1.
         13    1    3    3    0    0  0.14684316428E+02 -0.26966686346E+02  0.82093536759E+02  0.87648046749E+02  0.00000000000E+00 0. -1.
         -3    1    1    2    0  502 -0.47450235135E+02  0.86717077918E+00  0.68326816799E+02  0.83191530178E+02  0.00000000000E+00 0.  1.
<scales pt_clust_5="13000.00000" pt_clust_6="13000.00000" pt_clust_7="13000.00000" pt_clust_8="13000.00000" pt_clust_9="47.45816"></scales>
<clustering>
<clus scale="   47.458">  2  9  1 -1</clus>
<clus scale="   90.472">  5  6 -1 -1</clus>
<clus scale="   90.650">  7  8 -1 -1</clus>
<clus scale="  156.463">  2  5  1 -1</clus>
<clus scale="   47.458">  2  5  1 -1</clus>
</clustering>
</event>
<event>
 9    1  0.1315259E-005  0.1574009E+03  0.7546771E-02  0.1196554E+00
         21   -1    0    0  501  502  0.00000000000E+00  0.00000000000E+00  0.50029454629E+03  0.50029454629E+03  0.00000000000E+00 0.  1.
          4   -1    0    0  502    0 -0.00000000000E+00 -0.00000000000E+00 -0.86822925272E+02  0.86822925272E+02  0.00000000000E+00 0. -1.
         23    2    1    2    0    0 -0.11260169711E+03  0.42669915208E+02  0.76338815026E+02  0.18380939565E+03  0.11601041072E+03 0.  0.
         23    2    1    2    0    0  0.63272428546E+02 -0.29012933335E+02  0.33211406515E+03  0.35187775751E+03  0.93129229831E+02 0.  0.
        -11    1    3    3    0    0 -0.12812289272E+02 -0.29730233239E+02  0.47015158997E+02  0.57082980830E+02  0.00000000000E+00 0. -1.
         11    1    3    3    0    0 -0.99789407834E+02  0.72400148448E+02  0.29323656028E+02  0.12672641482E+03  0.00000000000E+00 0.  1.
        -13    1    4    4    0    0  0.11220844530E+02  0.18599098446E+02  0.13560746332E+02  0.25607179776E+02  0.00000000000E+00 0.  1.
         13    1    4    4    0    0  0.52051584016E+02 -0.47612031782E+02  0.31855331881E+03  0.32627057774E+03  0.00000000000E+00 0. -1.
          4    1    1    2  501    0  0.49329268559E+02 -0.13656981873E+02  0.50187408425E+01  0.51430318394E+02  0.00000000000E+00 0. -1.
<scales pt_clust_5="13000.00000" pt_clust_6="13000.00000" pt_clust_7="13000.00000" pt_clust_8="13000.00000" pt_clust_9="51.18489"></scales>
<clustering>
<clus scale="   51.185">  1  9  2 -1</clus>
<clus scale="   93.129">  7  8 -1 -1</clus>
<clus scale="  116.010">  5  6 -1 -1</clus>
<clus scale="  141.385">  1  7  2 -1</clus>
<clus scale="   51.185">  1  5  2 -1</clus>
</clustering>
</event>
<event>
 9    1  0.1315259E-005  0.1059888E+03  0.7546771E-02  0.1268524E+00
          1   -1    0    0  502    0 -0.00000000000E+00  0.00000000000E+00  0.44470322374E+03  0.44470322374E+03  0.00000000000E+00 0. -1.
         21   -1    0    0  501  502  0.00000000000E+00 -0.00000000000E+00 -0.76170902465E+02  0.76170902465E+02  0.00000000000E+00 0. -1.
         23    2    1    2    0    0 -0.10833651100E+02  0.58840798679E+02  0.32064673678E+03  0.33854825757E+03  0.90669649325E+02 0.  0.
         23    2    1    2    0    0 -0.16243271964E+02 -0.44160634271E+02  0.86240160137E+02  0.13313501113E+03  0.89852993633E+02 0.  0.
        -11    1    3    3    0    0 -0.15876122195E+02 -0.20778130934E+02  0.50510052746E+02  0.56877477172E+02  0.00000000000E+00 0.  1.
         11    1    3    3    0    0  0.50424710950E+01  0.79618929612E+02  0.27013668404E+03  0.28167078040E+03  0.00000000000E+00 0. -1.
        -13    1    4    4    0    0  0.32576727276E+02 -0.34947287566E+02  0.23903648081E+02  0.53422284300E+02  0.00000000000E+00 0.  1.
         13    1    4    4    0    0 -0.48819999240E+02 -0.92133467053E+01  0.62336512056E+02  0.79712726830E+02  0.00000000000E+00 0. -1.
          1    1    1    2  501    0  0.27076923063E+02 -0.14680164408E+02 -0.38354575643E+02  0.49190857508E+02  0.00000000000E+00 0. -1.
<scales pt_clust_5="13000.00000" pt_clust_6="13000.00000" pt_clust_7="13000.00000" pt_clust_8="13000.00000" pt_clust_9="30.80044"></scales>
<clustering>
<clus scale="   30.800">  2  9  1 -1</clus>
<clus scale="   89.853">  7  8 -1 -1</clus>
<clus scale="   90.670">  5  6 -1 -1</clus>
<clus scale="  105.291">  2  7  1 -1</clus>
<clus scale="   30.800">  2  5  1 -1</clus>
</clustering>
</event>
<event>
 9    1  0.1315259E-005  0.1056997E+03  0.7546771E-02  0.1270115E+00
         21   -1    0    0  501  502  0.00000000000E+00  0.00000000000E+00  0.12792701475E+03  0.12792701475E+03  0.00000000000E+00 0. -1.
          1   -1    0    0  502    0 -0.00000000000E+00 -0.00000000000E+00 -0.15840203534E+03  0.15840203534E+03  0.00000000000E+00 0. -1.
         23    2    1    2    0    0  0.60878726551E+01  0.44336076880E+02 -0.84804480535E+02  0.13118780790E+03  0.89530392142E+02 0.  0.
         23    2    1    2    0    0 -0.13773789475E+02 -0.70129835320E+02  0.35558808694E+02  0.12232769864E+03  0.92691563267E+02 0.  0.
        -11    1    3    3    0    0 -0.38292385040E+02  0.23223265542E+01 -0.25744007328E+02  0.46200150064E+02  0.00000000000E+00 0. -1.
         11    1    3    3    0    0  0.44380257695E+02  0.42013750326E+02 -0.59060473208E+02  0.84987657839E+02  0.00000000000E+00 0.  1.
        -13    1    4    4    0    0 -0.47360173699E+02 -0.40176423231E+02 -0.42410033030E+01  0.62250438918E+02  0.00000000000E+00 0. -1.
         13    1    4    4    0    0  0.33586384224E+02 -0.29953412089E+02  0.39799811997E+02  0.60077259725E+02  0.00000000000E+00 0.  1.
          1    1    1    2  501    0  0.76859168200E+01  0.25793758440E+02  0.18770651249E+02  0.32813543547E+02  0.00000000000E+00 0. -1.
<scales pt_clust_5="13000.00000" pt_clust_6="13000.00000" pt_clust_7="13000.00000" pt_clust_8="13000.00000" pt_clust_9="26.91452"></scales>
<clustering>
<clus scale="   26.915">  1  9  2 -1</clus>
<clus scale="   89.530">  5  6 -1 -1</clus>
<clus scale="   92.692">  7  8 -1 -1</clus>
<clus scale="  102.939">  2  5  1 -1</clus>
<clus scale="   26.915">  1  5  2 -1</clus>
</clustering>
</event>
<event>
 9    1  0.1315259E-005  0.1142148E+03  0.7546771E-02  0.1254440E+00
         21   -1    0    0  501  502  0.00000000000E+00  0.00000000000E+00  0.92066452438E+02  0.92066452438E+02  0.00000000000E+00 0. -1.
         -2   -1    0    0    0  501 -0.00000000000E+00 -0.00000000000E+00 -0.24174622797E+03  0.24174622797E+03  0.00000000000E+00 0.  1.
         23    2    1    2    0    0 -0.15233589431E+02  0.63184965318E+02 -0.12045168531E+03  0.16105432761E+03  0.84885133317E+02 0.  0.
         23    2    1    2    0    0  0.33137905960E+02 -0.77466428782E+02 -0.58234964979E+02  0.13579995008E+03  0.89169203746E+02 0.  0.
        -11    1    4    4    0    0  0.41555733253E+02  0.31015026241E+01 -0.19421380553E+02  0.45974866039E+02  0.00000000000E+00 0.  1.
         11    1    4    4    0    0 -0.84178272932E+01 -0.80567931406E+02 -0.38813584425E+02  0.89825084043E+02  0.00000000000E+00 0. -1.
        -13    1    3    3    0    0  0.58719743950E+01  0.49082746656E+02 -0.13657181485E+02  0.51284643985E+02  0.00000000000E+00 0. -1.
         13    1    3    3    0    0 -0.21105563826E+02  0.14102218662E+02 -0.10679450382E+03  0.10976968362E+03  0.00000000000E+00 0.  1.
         -2    1    1    2    0  502 -0.17904316528E+02  0.14281463464E+02  0.29006874751E+02  0.36958402723E+02  0.00000000000E+00 0.  1.
<scales pt_clust_5="13000.00000" pt_clust_6="13000.00000" pt_clust_7="13000.00000" pt_clust_8="13000.00000" pt_clust_9="22.90251"></scales>
<clustering>
<clus scale="   22.903">  1  9  2 -1</clus>
<clus scale="   84.885">  7  8 -1 -1</clus>
<clus scale="   89.169">  5  6 -1 -1</clus>
<clus scale="  110.902">  2  7  1 -1</clus>
<clus scale="   22.903">  1  5  2 -1</clus>
</clustering>
</event>
<event>
 9    1  0.1315259E-005  0.1042269E+03  0.7546771E-02  0.1271982E+00
          2   -1    0    0  502    0 -0.00000000000E+00  0.00000000000E+00  0.14704131828E+03  0.14704131828E+03  0.00000000000E+00 0.  1.
         21   -1    0    0  501  502  0.00000000000E+00 -0.00000000000E+00 -0.15023850606E+03  0.15023850606E+03  0.00000000000E+00 0.  1.
         23    2    1    2    0    0 -0.46280090503E+02 -0.11864814039E+02  0.71805509701E+02  0.12487636025E+03  0.90307549723E+02 0.  0.
         23    2    1    2    0    0  0.52731210561E+02  0.41673809984E+02 -0.26406844722E+02  0.11502968877E+03  0.89538934800E+02 0.  0.
        -11    1    3    3    0    0  0.21217652380E+02  0.98889387140E+01 -0.74815833836E+00  0.23420922747E+02  0.00000000000E+00 0.  1.
         11    1    3    3    0    0 -0.67497742883E+02 -0.21753752753E+02  0.72553668039E+02  0.10145543750E+03  0.00000000000E+00 0. -1.
        -13    1    4    4    0    0 -0.25777797261E+01  0.54819458658E+02 -0.16638528132E+02  0.57346827413E+02  0.00000000000E+00 0.  1.
         13    1    4    4    0    0  0.55308990287E+02 -0.13145648674E+02 -0.97683165899E+01  0.57682861360E+02  0.00000000000E+00 0. -1.
          2    1    1    2  501    0 -0.64511200582E+01 -0.29808995946E+02 -0.48595852757E+02  0.57373775320E+02  0.00000000000E+00 0.  1.
<scales pt_clust_5="13000.00000" pt_clust_6="13000.00000" pt_clust_7="13000.00000" pt_clust_8="13000.00000" pt_clust_9="30.49907"></scales>
<clustering>
<clus scale="   30.499">  2  9  1 -1</clus>
<clus scale="   89.539">  7  8 -1 -1</clus>
<clus scale="   90.308">  5  6 -1 -1</clus>
<clus scale="  103.562">  2  7  1 -1</clus>
<clus scale="   30.499">  2  5  1 -1</clus>
</clustering>
</event>
<event>
 9    1  0.1315259E-005  0.1557250E+03  0.7546771E-02  0.1195115E+00
         21   -1    0    0  501  502  0.00000000000E+00  0.00000000000E+00  0.69329085648E+02  0.69329085648E+02  0.00000000000E+00 0. -1.
          2   -1    0    0  502    0 -0.00000000000E+00 -0.00000000000E+00 -0.52146570547E+03  0.52146570547E+03  0.00000000000E+00 0. -1.
         23    2    1    2    0    0  0.11781799664E+03 -0.59089179699E+02 -0.35927018647E+03  0.39337104382E+03  0.91066457809E+02 0.  0.
         23    2    1    2    0    0 -0.10880968773E+03  0.37932157887E+02 -0.10009115366E+03  0.17332051546E+03  0.82117996161E+02 0.  0.
        -11    1    3    3    0    0  0.51239177446E+02  0.51717905446E+01 -0.22151796416E+03  0.22742561238E+03  0.00000000000E+00 0.  1.
         11    1    3    3    0    0  0.66578819197E+02 -0.64260970244E+02 -0.13775222231E+03  0.16594543143E+03  0.00000000000E+00 0. -1.
        -11    1    4    4    0    0 -0.59803754297E+02 -0.17315690998E+02 -0.22496388508E+02  0.66199770986E+02  0.00000000000E+00 0.  1.
         11    1    4    4    0    0 -0.49005933428E+02  0.55247848884E+02 -0.77594765153E+02  0.10712074447E+03  0.00000000000E+00 0. -1.
          2    1    1    2  501    0 -0.90083089176E+01  0.21157021813E+02  0.72247203089E+01  0.24103231839E+02  0.00000000000E+00 0. -1.
<scales pt_clust_5="13000.00000" pt_clust_6="13000.00000" pt_clust_7="13000.00000" pt_clust_8="13000.00000" pt_clust_9="22.99498"></scales>
<clustering>
<clus scale="   22.995">  1  9  2 -1</clus>
<clus scale="   82.118">  7  8 -1 -1</clus>
<clus scale="   91.066">  5  6 -1 -1</clus>
<clus scale="  150.667">  1  7  2 -1</clus>
<clus scale="   22.995">  1  5  2 -1</clus>
</clustering>
</event>
<event>
 9    1  0.1315259E-005  0.9747862E+02  0.7546771E-02  0.1286789E+00
         21   -1    0    0  501  502  0.00000000000E+00  0.00000000000E+00  0.17091193623E+03  0.17091193623E+03  0.00000000000E+00 0.  1.
          2   -1    0    0  502    0 -0.00000000000E+00 -0.00000000000E+00 -0.11580392940E+03  0.11580392940E+03  0.00000000000E+00 0. -1.
         23    2    1    2    0    0  0.25410431017E+01 -0.48275458438E+01 -0.35960071174E+02  0.10182409666E+03  0.95106560458E+02 0.  0.
         23    2    1    2    0    0 -0.15968983040E+02 -0.18557345849E+02  0.11418472007E+02  0.10080120788E+03  0.97113945973E+02 0.  0.
        -11    1    4    4    0    0  0.22684307159E+02 -0.43938401923E+02  0.20753071192E+02  0.53626960745E+02  0.00000000000E+00 0.  1.
         11    1    4    4    0    0 -0.38653290199E+02  0.25381056074E+02 -0.93345991854E+01  0.47174247133E+02  0.00000000000E+00 0. -1.
        -11    1    3    3    0    0  0.47342464843E+02  0.76808659513E+01 -0.11722517322E+02  0.49373293303E+02  0.00000000000E+00 0.  1.
         11    1    3    3    0    0 -0.44801421741E+02 -0.12508411795E+02 -0.24237553852E+02  0.52450803354E+02  0.00000000000E+00 0. -1.
          2    1    1    2  501    0  0.13427939938E+02  0.23384891693E+02  0.79649605993E+02  0.84090561096E+02  0.00000000000E+00 0. -1.
<scales pt_clust_5="13000.00000" pt_clust_6="13000.00000" pt_clust_7="13000.00000" pt_clust_8="13000.00000" pt_clust_9="26.96596"></scales>
<clustering>
<clus scale="   26.966">  1  9  2 -1</clus>
<clus scale="   95.107">  7  8 -1 -1</clus>
<clus scale="   95.479">  2  7  1 -1</clus>
<clus scale="   97.114">  5  6 -1 -1</clus>
<clus scale="   26.966">  1  5  2 -1</clus>
</clustering>
</event>
<event>
 9    1  0.1315259E-005  0.1000515E+03  0.7546771E-02  0.1283922E+00
          3   -1    0    0  502    0 -0.00000000000E+00  0.00000000000E+00  0.10867974696E+03  0.10867974696E+03  0.00000000000E+00 0. -1.
         21   -1    0    0  501  502  0.00000000000E+00 -0.00000000000E+00 -0.19025683273E+03  0.19025683273E+03  0.00000000000E+00 0. -1.
         23    2    1    2    0    0 -0.27801737637E+02  0.24580906628E+02  0.14047583846E+02  0.10180795590E+03  0.93756960735E+02 0.  0.
         23    2    1    2    0    0  0.41150225832E+01 -0.37569266325E+02  0.35023922906E+01  0.94386556652E+02  0.86418586785E+02 0.  0.
        -11    1    4    4    0    0  0.24095393081E+02 -0.51497237857E+02 -0.20261784914E+02  0.60358043396E+02  0.00000000000E+00 0.  1.
         11    1    4    4    0    0 -0.19980370498E+02  0.13927971532E+02  0.23764177205E+02  0.34028513257E+02  0.00000000000E+00 0. -1.
        -13    1    3    3    0    0  0.19875124125E+02  0.44726099099E+02  0.42186651707E+01  0.49124755831E+02  0.00000000000E+00 0.  1.
         13    1    3    3    0    0 -0.47676861763E+02 -0.20145192471E+02  0.98289186756E+01  0.52683200069E+02  0.00000000000E+00 0. -1.
          3    1    1    2  501    0  0.23686715054E+02  0.12988359696E+02 -0.99127061904E+02  0.10274206714E+03  0.00000000000E+00 0. -1.
<scales pt_clust_5="13000.00000" pt_clust_6="13000.00000" pt_clust_7="13000.00000" pt_clust_8="13000.00000" pt_clust_9="27.01403"></scales>
<clustering>
<clus scale="   27.014">  2  9  1 -1</clus>
<clus scale="   86.419">  5  6 -1 -1</clus>
<clus scale="   93.210">  2  5  1 -1</clus>
<clus scale="   93.757">  7  8 -1 -1</clus>
<clus scale="   27.014">  2  5  1 -1</clus>
</clustering>
</event>
<event>
 9    1  0.1315259E-005  0.1022547E+03  0.7546771E-02  0.1276464E+00
         21   -1    0    0  501  502  0.00000000000E+00  0.00000000000E+00  0.23282958624E+02  0.23282958624E+02  0.00000000000E+00 0.  1.
         -1   -1    0    0    0  501 -0.00000000000E+00 -0.00000000000E+00 -0.10265786566E+04  0.10265786566E+04  0.00000000000E+00 0.  1.
         23    2    1    2    0    0 -0.87526788551E+01 -0.58289586289E+02 -0.61706284541E+03  0.62677629843E+03  0.92777625718E+02 0.  0.
         23    2    1    2    0    0  0.19441067262E+02 -0.72177422032E+01 -0.14139197518E+03  0.16940735761E+03  0.90978630838E+02 0.  0.
        -11    1    3    3    0    0 -0.18237376529E+02 -0.81938477534E+02 -0.49704096598E+03  0.50407959477E+03  0.00000000000E+00 0.  1.
         11    1    3    3    0    0  0.94846976740E+01  0.23648891245E+02 -0.12002187943E+03  0.12269670366E+03  0.00000000000E+00 0. -1.
        -13    1    4    4    0    0  0.54108159594E+02 -0.10028398377E+02 -0.63022550575E+02  0.83666621718E+02  0.00000000000E+00 0.  1.
         13    1    4    4    0    0 -0.34667092333E+02  0.28106561743E+01 -0.78369424600E+02  0.85740735891E+02  0.00000000000E+00 0. -1.
         -1    1    1    2    0  502 -0.10688388407E+02  0.65507328492E+02 -0.24484087735E+03  0.25367795914E+03  0.00000000000E+00 0.  1.
<scales pt_clust_5="13000.00000" pt_clust_6="13000.00000" pt_clust_7="13000.00000" pt_clust_8="13000.00000" pt_clust_9="66.37361"></scales>
<clustering>
<clus scale="   66.374">  1  9  2 -1</clus>
<clus scale="   90.979">  7  8 -1 -1</clus>
<clus scale="   92.778">  5  6 -1 -1</clus>
<clus scale="  100.625">  1  7  2 -1</clus>
<clus scale="   66.374">  1  5  2 -1</clus>
</clustering>
</event>
<event>
 9    1  0.1315259E-005  0.9330463E+02  0.7546771E-02  0.1295676E+00
         21   -1    0    0  501  502  0.00000000000E+00  0.00000000000E+00  0.20921151875E+02  0.20921151875E+02  0.00000000000E+00 0. -1.
          2   -1    0    0  502    0 -0.00000000000E+00 -0.00000000000E+00 -0.74547639677E+03  0.74547639677E+03  0.00000000000E+00 0. -1.
         23    2    1    2    0    0  0.23694070907E+01 -0.15160051250E+01 -0.34485819709E+03  0.35698290564E+03  0.92204698672E+02 0.  0.
         23    2    1    2    0    0 -0.39699044807E+02 -0.77841255734E+01 -0.17733578980E+03  0.20342902937E+03  0.91097644742E+02 0.  0.
        -13    1    4    4    0    0  0.14375121942E+02 -0.28865009791E+02 -0.26252279417E+02  0.41581427293E+02  0.00000000000E+00 0.  1.
         13    1    4    4    0    0 -0.54074166750E+02  0.21080884218E+02 -0.15108351039E+03  0.16184760208E+03  0.00000000000E+00 0. -1.
        -13    1    3    3    0    0  0.42471139123E+02  0.61168055447E+01 -0.25085933003E+03  0.25450268452E+03  0.00000000000E+00 0. -1.
         13    1    3    3    0    0 -0.40101732032E+02 -0.76328106697E+01 -0.93998867063E+02  0.10248022112E+03  0.00000000000E+00 0.  1.
          2    1    1    2  501    0  0.37329637716E+02  0.93001306984E+01 -0.20236125800E+03  0.20598561363E+03  0.00000000000E+00 0. -1.
<scales pt_clust_5="13000.00000" pt_clust_6="13000.00000" pt_clust_7="13000.00000" pt_clust_8="13000.00000" pt_clust_9="38.47071"></scales>
<clustering>
<clus scale="   38.471">  1  9  2 -1</clus>
<clus scale="   91.098">  5  6 -1 -1</clus>
<clus scale="   92.205">  7  8 -1 -1</clus>
<clus scale="   92.211">  1  5  2 -1</clus>
<clus scale="   38.471">  1  5  2 -1</clus>
</clustering>
</event>
<event>
 9    1  0.1315259E-005  0.1053102E+03  0.7546771E-02  0.1269670E+00
          2   -1    0    0  502    0 -0.00000000000E+00  0.00000000000E+00  0.71151582546E+03  0.71151582546E+03  0.00000000000E+00 0. -1.
         21   -1    0    0  501  502  0.00000000000E+00 -0.00000000000E+00 -0.33013267418E+02  0.33013267418E+02  0.00000000000E+00 0.  1.
         23    2    1    2    0    0  0.75115362783E+02  0.15809622969E+02  0.43741495714E+03  0.45350061939E+03  0.91862425114E+02 0.  0.
         23    2    1    2    0    0 -0.18750279944E+02  0.16355981253E+01  0.19480206015E+03  0.21603707675E+03  0.91487309028E+02 0.  0.
        -11    1    3    3    0    0 -0.18410838234E+02  0.18253943425E+02  0.83847627844E+02  0.87764401155E+02  0.00000000000E+00 0. -1.
         11    1    3    3    0    0  0.93526201017E+02 -0.24443204557E+01  0.35356732930E+03  0.36573621823E+03  0.00000000000E+00 0.  1.
        -13    1    4    4    0    0  0.36103300623E+02  0.95939691658E+01  0.90862688226E+02  0.98242153233E+02  0.00000000000E+00 0.  1.
         13    1    4    4    0    0 -0.54853580567E+02 -0.79583710404E+01  0.10393937192E+03  0.11779492352E+03  0.00000000000E+00 0. -1.
          2    1    1    2  501    0 -0.56365082839E+02 -0.17445221095E+02  0.46285540749E+02  0.74991396739E+02  0.00000000000E+00 0. -1.
<scales pt_clust_5="13000.00000" pt_clust_6="13000.00000" pt_clust_7="13000.00000" pt_clust_8="13000.00000" pt_clust_9="59.00304"></scales>
<clustering>
<clus scale="   59.003">  2  9  1 -1</clus>
<clus scale="   91.487">  7  8 -1 -1</clus>
<clus scale="   91.862">  5  6 -1 -1</clus>
<clus scale="  104.983">  2  7  1 -1</clus>
<clus scale="   59.003">  2  5  1 -1</clus>
</clustering>
</event>
<event>
 9    1  0.1315259E-005  0.1784753E+03  0.7546771E-02  0.1196835E+00
         -1   -1    0    0    0  501 -0.00000000000E+00  0.00000000000E+00  0.21034574075E+03  0.21034574075E+03  0.00000000000E+00 0.  1.
         21   -1    0    0  501  502  0.00000000000E+00 -0.00000000000E+00 -0.29667256734E+03  0.29667256734E+03  0.00000000000E+00 0. -1.
         23    2    1    2    0    0  0.12410504587E+02 -0.33721654177E+02  0.11000175775E+02  0.97014687655E+02  0.89440903222E+02 0.  0.
         23    2    1    2    0    0 -0.15088525865E+03  0.84492585282E+02  0.48725964966E+02  0.20243576593E+03  0.93277336039E+02 0.  0.
        -11    1    3    3    0    0  0.48960246373E+02 -0.95427083261E+01 -0.55084635423E+01  0.50184780339E+02  0.00000000000E+00 0. -1.
         11    1    3    3    0    0 -0.36549741786E+02 -0.24178945851E+02  0.16508639317E+02  0.46829907316E+02  0.00000000000E+00 0.  1.
        -13    1    4    4    0    0 -0.10238265539E+03  0.62886544604E+02 -0.13184043829E+02  0.12087491315E+03  0.00000000000E+00 0. -1.
         13    1    4    4    0    0 -0.48502603259E+02  0.21606040678E+02  0.61910008794E+02  0.81560852776E+02  0.00000000000E+00 0.  1.
         -1    1    1    2    0  502  0.13847475407E+03 -0.50770931105E+02 -0.14605296733E+03  0.20756785451E+03  0.00000000000E+00 0.  1.
<scales pt_clust_5="13000.00000" pt_clust_6="13000.00000" pt_clust_7="13000.00000" pt_clust_8="13000.00000" pt_clust_9="152.16036"></scales>
<clustering>
<clus scale="   89.441">  5  6 -1 -1</clus>
<clus scale="   93.277">  7  8 -1 -1</clus>
<clus scale="   96.389">  1  5  2 -1</clus>
<clus scale="  152.160">  2  9  1 -1</clus>
<clus scale="  152.160">  2  5  1 -1</clus>
</clustering>
</event>
<event>
 9    1  0.1315259E-005  0.2564484E+03  0.7546771E-02  0.1149396E+00
         21   -1    0    0  501  502  0.00000000000E+00  0.00000000000E+00  0.11994591493E+03  0.11994591493E+03  0.00000000000E+00 0. -1.
          1   -1    0    0  502    0 -0.00000000000E+00 -0.00000000000E+00 -0.15342724495E+04  0.15342724495E+04  0.00000000000E+00 0. -1.
         23    2    1    2    0    0  0.15759232874E+02 -0.85302889414E+01 -0.49967457824E+03  0.50874556748E+03  0.93948118897E+02 0.  0.
         23    2    1    2    0    0  0.89169461524E+02  0.22383190078E+03 -0.86274750526E+03  0.90040364953E+03  0.91332149737E+02 0.  0.
        -11    1    3    3    0    0 -0.26103980356E+02  0.28850350859E+02 -0.17690561994E+03  0.18113353887E+03  0.00000000000E+00 0. -1.
         11    1    3    3    0    0  0.41863213230E+02 -0.37380639800E+02 -0.32276895830E+03  0.32761202862E+03  0.00000000000E+00 0.  1.
        -11    1    4    4    0    0  0.63069391720E+02  0.71725737000E+02 -0.44312325511E+03  0.45329962358E+03  0.00000000000E+00 0.  1.
         11    1    4    4    0    0  0.26100069804E+02  0.15210616378E+03 -0.41962425016E+03  0.44710402595E+03  0.00000000000E+00 0. -1.
          1    1    1    2  501    0 -0.10492869440E+03 -0.21530161184E+03 -0.51904451039E+02  0.24506914739E+03  0.00000000000E+00 0. -1.
<scales pt_clust_5="13000.00000" pt_clust_6="13000.00000" pt_clust_7="13000.00000" pt_clust_8="13000.00000" pt_clust_9="239.63356"></scales>
<clustering>
<clus scale="   91.332">  7  8 -1 -1</clus>
<clus scale="   93.948">  5  6 -1 -1</clus>
<clus scale="   95.642">  2  5  1 -1</clus>
<clus scale="  239.634">  1  9  2 -1</clus>
<clus scale="  239.634">  1  5  2 -1</clus>
</clustering>
</event>
<event>
 9    1  0.1315259E-005  0.9475452E+02  0.7546771E-02  0.1293337E+00
         21   -1    0    0  501  502  0.00000000000E+00  0.00000000000E+00  0.51731037173E+02  0.51731037173E+02  0.00000000000E+00 0. -1.
          1   -1    0    0  502    0 -0.00000000000E+00 -0.00000000000E+00 -0.76881038828E+03  0.76881038828E+03  0.00000000000E+00 0. -1.
         23    2    1    2    0    0  0.71150352679E-01  0.10142048244E+02 -0.50593423373E+03  0.51426539379E+03  0.91632855356E+02 0.  0.
         23    2    1    2    0    0 -0.19814162639E+02  0.77901121534E+01 -0.24485051787E+03  0.26329460623E+03  0.94440386911E+02 0.  0.
        -11    1    3    3    0    0 -0.38652607355E+02  0.29727870162E+02 -0.27475804053E+03  0.27905152061E+03  0.00000000000E+00 0. -1.
         11    1    3    3    0    0  0.38723757708E+02 -0.19585821918E+02 -0.23117619320E+03  0.23521387318E+03  0.00000000000E+00 0.  1.
        -11    1    4    4    0    0  0.19391939765E+01 -0.38308741325E+02 -0.15800948320E+03  0.16259863750E+03  0.00000000000E+00 0.  1.
         11    1    4    4    0    0 -0.21753356616E+02  0.46098853479E+02 -0.86841034664E+02  0.10069596873E+03  0.00000000000E+00 0. -1.
          1    1    1    2  501    0  0.19743012286E+02 -0.17932160397E+02  0.33705400490E+02  0.42981425440E+02  0.00000000000E+00 0. -1.
<scales pt_clust_5="13000.00000" pt_clust_6="13000.00000" pt_clust_7="13000.00000" pt_clust_8="13000.00000" pt_clust_9="26.67113"></scales>
<clustering>
<clus scale="   26.671">  1  9  2 -1</clus>
<clus scale="   91.633">  5  6 -1 -1</clus>
<clus scale="   91.957">  2  5  1 -1</clus>
<clus scale="   94.440">  7  8 -1 -1</clus>
<clus scale="   26.671">  1  5  2 -1</clus>
</clustering>
</event>
<event>
 9    1  0.1315259E-005  0.2291835E+03  0.7546771E-02  0.1127305E+00
          1   -1    0    0  502    0 -0.00000000000E+00  0.00000000000E+00  0.11242874838E+04  0.11242874838E+04  0.00000000000E+00 0. -1.
         21   -1    0    0  501  502  0.00000000000E+00 -0.00000000000E+00 -0.74965679111E+02  0.74965679111E+02  0.00000000000E+00 0. -1.
         23    2    1    2    0    0  0.43278193111E+02 -0.19712870546E+03  0.65768049714E+03  0.69398863703E+03  0.91344750801E+02 0.  0.
         23    2    1    2    0    0 -0.73621777813E+02  0.21464702319E+03  0.40056823061E+03  0.46910772088E+03  0.90075721954E+02 0.  0.
        -11    1    3    3    0    0 -0.17867712475E+02 -0.43870910297E+02  0.24510423425E+03  0.24963973555E+03  0.00000000000E+00 0.  1.
         11    1    3    3    0    0  0.61145905586E+02 -0.15325779516E+03  0.41257626289E+03  0.44434890148E+03  0.00000000000E+00 0. -1.
        -13    1    4    4    0    0 -0.76423197400E+02  0.11318240485E+03  0.17687578644E+03  0.22346320882E+03  0.00000000000E+00 0. -1.
         13    1    4    4    0    0  0.28014195865E+01  0.10146461834E+03  0.22369244417E+03  0.24564451206E+03  0.00000000000E+00 0.  1.
          1    1    1    2  501    0  0.30343584702E+02 -0.17518317736E+02 -0.89269230952E+01  0.36156804959E+02  0.00000000000E+00 0. -1.
<scales pt_clust_5="13000.00000" pt_clust_6="13000.00000" pt_clust_7="13000.00000" pt_clust_8="13000.00000" pt_clust_9="35.03747"></scales>
<clustering>
<clus scale="   35.037">  2  9  1 -1</clus>
<clus scale="   90.076">  7  8 -1 -1</clus>
<clus scale="   91.345">  5  6 -1 -1</clus>
<clus scale="  228.681">  2  7  1 -1</clus>
<clus scale="   35.037">  2  5  1 -1</clus>
</clustering>
</event>
<event>
 9    1  0.1315259E-005  0.9782663E+02  0.7546771E-02  0.1287292E+00
          2   -1    0    0  502    0 -0.00000000000E+00  0.00000000000E+00  0.68414010289E+03  0.68414010289E+03  0.00000000000E+00 0. -1.
         21   -1    0    0  501  502  0.00000000000E+00 -0.00000000000E+00 -0.26380467545E+02  0.26380467545E+02  0.00000000000E+00 0.  1.
         23    2    1    2    0    0  0.20745139377E+02 -0.79610950024E+01  0.23442812999E+03  0.25485917914E+03  0.97482886812E+02 0.  0.
         23    2    1    2    0    0  0.35835707943E+02 -0.20734231033E+02  0.21657765484E+03  0.23939311178E+03  0.93215208480E+02 0.  0.
        -13    1    4    4    0    0 -0.31719952879E+02 -0.15029314198E+01  0.66995408352E+02  0.74140400280E+02  0.00000000000E+00 0. -1.
         13    1    4    4    0    0  0.67555660822E+02 -0.19231299613E+02  0.14958224648E+03  0.16525271150E+03  0.00000000000E+00 0.  1.
        -13    1    3    3    0    0 -0.26548890558E+02 -0.25893858523E+02  0.16405802770E+03  0.16819741957E+03  0.00000000000E+00 0. -1.
         13    1    3    3    0    0  0.47294029935E+02  0.17932763520E+02  0.70370102290E+02  0.86661759567E+02  0.00000000000E+00 0.  1.
          2    1    1    2  501    0 -0.56580847320E+02  0.28695326035E+02  0.20675385053E+03  0.21626827952E+03  0.00000000000E+00 0. -1.
<scales pt_clust_5="13000.00000" pt_clust_6="13000.00000" pt_clust_7="13000.00000" pt_clust_8="13000.00000" pt_clust_9="63.44145"></scales>
<clustering>
<clus scale="   63.441">  2  9  1 -1</clus>
<clus scale="   93.215">  5  6 -1 -1</clus>
<clus scale="   93.575">  2  5  1 -1</clus>
<clus scale="   97.483">  7  8 -1 -1</clus>
<clus scale="   63.441">  2  5  1 -1</clus>
</clustering>
</event>
<event>
 9    1  0.1315259E-005  0.1490891E+03  0.7546771E-02  0.1201719E+00
          1   -1    0    0  502    0 -0.00000000000E+00  0.00000000000E+00  0.84801951377E+03  0.84801951377E+03  0.00000000000E+00 0. -1.
         21   -1    0    0  501  502  0.00000000000E+00 -0.00000000000E+00 -0.10238267305E+03  0.10238267305E+03  0.00000000000E+00 0.  1.
         23    2    1    2    0    0 -0.23975095504E+02 -0.10606026232E+03  0.61379818665E+03  0.63059824119E+03  0.95301329517E+02 0.  0.
         23    2    1    2    0    0  0.48273993476E+02  0.16260731811E+03  0.24937635481E+02  0.19645146801E+03  0.95915458985E+02 0.  0.
        -11    1    4    4    0    0  0.22050521928E+02  0.22659506134E+01  0.25751351682E+02  0.33977818690E+02  0.00000000000E+00 0. -1.
         11    1    4    4    0    0  0.26223471548E+02  0.16034136749E+03 -0.81371620090E+00  0.16247364932E+03  0.00000000000E+00 0.  1.
        -11    1    3    3    0    0 -0.46920509853E+02 -0.23969650651E+02  0.14881181987E+03  0.15786397983E+03  0.00000000000E+00 0.  1.
         11    1    3    3    0    0  0.22945414349E+02 -0.82090611666E+02  0.46498636678E+03  0.47273426135E+03  0.00000000000E+00 0. -1.
          1    1    1    2  501    0 -0.24298897972E+02 -0.56547055790E+02  0.10690101859E+03  0.12335247762E+03  0.00000000000E+00 0. -1.
<scales pt_clust_5="13000.00000" pt_clust_6="13000.00000" pt_clust_7="13000.00000" pt_clust_8="13000.00000" pt_clust_9="61.54681"></scales>
<clustering>
<clus scale="   61.547">  2  9  1 -1</clus>
<clus scale="   95.301">  7  8 -1 -1</clus>
<clus scale="   95.915">  5  6 -1 -1</clus>
<clus scale="  148.695">  1  7  2 -1</clus>
<clus scale="   61.547">  2  5  1 -1</clus>
</clustering>
</event>
<event>
 9    1  0.1315259E-005  0.9730390E+02  0.7546771E-02  0.1287498E+00
          1   -1    0    0  502    0 -0.00000000000E+00  0.00000000000E+00  0.65271383730E+02  0.65271383730E+02  0.00000000000E+00 0. -1.
         21   -1    0    0  501  502  0.00000000000E+00 -0.00000000000E+00 -0.26895166183E+03  0.26895166183E+03  0.00000000000E+00 0.  1.
         23    2    1    2    0    0  0.15799357400E+02 -0.10704134797E+02 -0.20203461903E+02  0.95412430382E+02  0.91275154355E+02 0.  0.
         23    2    1    2    0    0 -0.47399438362E+02 -0.20115974674E+02 -0.11352532903E+03  0.15609631882E+03  0.93950525408E+02 0.  0.
        -11    1    4    4    0    0 -0.45953250927E+02  0.21992676160E+02 -0.99335690761E+02  0.11163762150E+03  0.00000000000E+00 0. -1.
         11    1    4    4    0    0 -0.14461874348E+01 -0.42108650834E+02 -0.14189638265E+02  0.44458697318E+02  0.00000000000E+00 0.  1.
        -11    1    3    3    0    0  0.40164091647E+02 -0.63906609081E+01  0.22187842658E+02  0.46328125005E+02  0.00000000000E+00 0.  1.
         11    1    3    3    0    0 -0.24364734247E+02 -0.43134738888E+01 -0.42391304561E+02  0.49084305377E+02  0.00000000000E+00 0. -1.
          1    1    1    2  501    0  0.31600080962E+02  0.30820109471E+02 -0.69951487169E+02  0.82714296357E+02  0.00000000000E+00 0. -1.
<scales pt_clust_5="13000.00000" pt_clust_6="13000.00000" pt_clust_7="13000.00000" pt_clust_8="13000.00000" pt_clust_9="44.14119"></scales>
<clustering>
<clus scale="   44.141">  2  9  1 -1</clus>
<clus scale="   91.275">  7  8 -1 -1</clus>
<clus scale="   93.951">  5  6 -1 -1</clus>
<clus scale="   94.723">  1  7  2 -1</clus>
<clus scale="   44.141">  2  5  1 -1</clus>
</clustering>
</event>
<event>
 9    1  0.1315259E-005  0.1209850E+03  0.7546771E-02  0.1241686E+00
          2   -1    0    0  502    0 -0.00000000000E+00  0.00000000000E+00  0.18643069695E+03  0.18643069695E+03  0.00000000000E+00 0. -1.
         21   -1    0    0  501  502  0.00000000000E+00 -0.00000000000E+00 -0.18268647649E+03  0.18268647649E+03  0.00000000000E+00 0.  1.
         23    2    1    2    0    0 -0.82936807336E+02  0.49585219673E+01  0.11763587285E+03  0.17043899822E+03  0.91149067921E+02 0.  0.
         23    2    1    2    0    0  0.64460354399E+02 -0.19030839679E+02 -0.39019655732E+02  0.12028668766E+03  0.91809822716E+02 0.  0.
        -13    1    4    4    0    0  0.81016111656E+02 -0.36510228248E+02 -0.24526062580E+02  0.92185328877E+02  0.00000000000E+00 0.  1.
         13    1    4    4    0    0 -0.16555757256E+02  0.17479388569E+02 -0.14493593152E+02  0.28101358785E+02  0.00000000000E+00 0. -1.
        -13    1    3    3    0    0 -0.83950197358E+01 -0.32669857907E+02  0.12035057786E+02  0.35813944044E+02  0.00000000000E+00 0.  1.
         13    1    3    3    0    0 -0.74541787600E+02  0.37628379875E+02  0.10560081506E+03  0.13462505418E+03  0.00000000000E+00 0. -1.
          2    1    1    2  501    0  0.18476452937E+02  0.14072317712E+02 -0.74871996656E+02  0.78391487561E+02  0.00000000000E+00 0. -1.
<scales pt_clust_5="13000.00000" pt_clust_6="13000.00000" pt_clust_7="13000.00000" pt_clust_8="13000.00000" pt_clust_9="23.22519"></scales>
<clustering>
<clus scale="   23.225">  2  9  1 -1</clus>
<clus scale="   91.149">  7  8 -1 -1</clus>
<clus scale="   91.810">  5  6 -1 -1</clus>
<clus scale="  120.484">  1  7  2 -1</clus>
<clus scale="   23.225">  2  5  1 -1</clus>
</clustering>
</event>
<event>
 9    1  0.1315259E-005  0.1126088E+03  0.7546771E-02  0.1262718E+00
         21   -1    0    0  501  502  0.00000000000E+00  0.00000000000E+00  0.91197724863E+02  0.91197724863E+02  0.00000000000E+00 0.  1.
         -1   -1    0    0    0  501 -0.00000000000E+00 -0.00000000000E+00 -0.38290729754E+03  0.38290729754E+03  0.00000000000E+00 0.  1.
         23    2    1    2    0    0  0.61172460198E+01  0.24060954482E+02 -0.19884786374E+03  0.22009027709E+03  0.91010477025E+02 0.  0.
         23    2    1    2    0    0  0.31902419743E+02 -0.70077718133E+02 -0.12916276551E+03  0.18415199250E+03  0.10630280046E+03 0.  0.
        -11    1    4    4    0    0  0.15639380695E+02  0.19928786526E+02 -0.71922323881E+02  0.76253310967E+02  0.00000000000E+00 0. -1.
         11    1    4    4    0    0  0.16263039048E+02 -0.90006504659E+02 -0.57240441627E+02  0.10789868154E+03  0.00000000000E+00 0.  1.
        -13    1    3    3    0    0  0.40669480753E+02  0.25898710568E+01 -0.15504458353E+03  0.16031075129E+03  0.00000000000E+00 0.  1.
         13    1    3    3    0    0 -0.34552234734E+02  0.21471083425E+02 -0.43803280212E+02  0.59779525808E+02  0.00000000000E+00 0. -1.
         -1    1    1    2    0  502 -0.38019665763E+02  0.46016763652E+02  0.36301056568E+02  0.69862752806E+02  0.00000000000E+00 0.  1.
<scales pt_clust_5="13000.00000" pt_clust_6="13000.00000" pt_clust_7="13000.00000" pt_clust_8="13000.00000" pt_clust_9="59.69118"></scales>
<clustering>
<clus scale="   59.691">  1  9  2 -1</clus>
<clus scale="   91.010">  7  8 -1 -1</clus>
<clus scale="   98.302">  2  7  1 -1</clus>
<clus scale="  106.303">  5  6 -1 -1</clus>
<clus scale="   59.691">  1  5  2 -1</clus>
</clustering>
</event>
<event>
 9    1  0.1315259E-005  0.1172150E+03  0.7546771E-02  0.1250873E+00
         -1   -1    0    0    0  501 -0.00000000000E+00  0.00000000000E+00  0.81532619379E+02  0.81532619379E+02  0.00000000000E+00 0.  1.
         21   -1    0    0  501  502  0.00000000000E+00 -0.00000000000E+00 -0.22192514324E+03  0.22192514324E+03  0.00000000000E+00 0.  1.
         23    2    1    2    0    0 -0.20324169903E+02 -0.82561312572E+02 -0.56191008597E+02  0.13083544569E+03  0.82042928929E+02 0.  0.
         23    2    1    2    0    0 -0.82421581321E+01  0.62137460072E+02 -0.81288883003E+02  0.13738523028E+03  0.91311674417E+02 0.  0.
        -11    1    4    4    0    0 -0.19172834043E+02 -0.89000571418E+01 -0.58159676683E+02  0.61881795177E+02  0.00000000000E+00 0.  1.
         11    1    4    4    0    0  0.10930675911E+02  0.71037517214E+02 -0.23129206320E+02  0.75503435106E+02  0.00000000000E+00 0. -1.
        -11    1    3    3    0    0 -0.49674688749E+02 -0.40653352659E+02 -0.45193730126E+02  0.78503140239E+02  0.00000000000E+00 0.  1.
         11    1    3    3    0    0  0.29350518846E+02 -0.41907959913E+02 -0.10997278471E+02  0.52332305456E+02  0.00000000000E+00 0. -1.
         -1    1    1    2    0  502  0.28566328035E+02  0.20423852499E+02 -0.29126322602E+01  0.35237086642E+02  0.00000000000E+00 0.  1.
<scales pt_clust_5="13000.00000" pt_clust_6="13000.00000" pt_clust_7="13000.00000" pt_clust_8="13000.00000" pt_clust_9="35.11652"></scales>
<clustering>
<clus scale="   35.117">  2  9  1 -1</clus>
<clus scale="   82.043">  7  8 -1 -1</clus>
<clus scale="   91.312">  5  6 -1 -1</clus>
<clus scale="  110.148">  1  7  2 -1</clus>
<clus scale="   35.117">  2  5  1 -1</clus>
</clustering>
</event>
<event>
 9    1  0.1315259E-005  0.9543684E+02  0.7546771E-02  0.1292426E+00
          3   -1    0    0  502    0 -0.00000000000E+00  0.00000000000E+00  0.32570076666E+03  0.32570076666E+03  0.00000000000E+00 0. -1.
         21   -1    0    0  501  502  0.00000000000E+00 -0.00000000000E+00 -0.87225981479E+02  0.87225981479E+02  0.00000000000E+00 0. -1.
         23    2    1    2    0    0 -0.16630611003E+02  0.21384222618E+02  0.22068920156E+03  0.23879185166E+03  0.87085949124E+02 0.  0.
         23    2    1    2    0    0  0.36576966724E+02 -0.18526753622E+02 -0.43943441879E+02  0.10920035386E+03  0.91173330009E+02 0.  0.
        -13    1    4    4    0    0  0.27573959854E+02  0.25349812977E+02  0.10307890175E+02  0.38848280269E+02  0.00000000000E+00 0.  1.
         13    1    4    4    0    0  0.90030068696E+01 -0.43876566599E+02 -0.54251332054E+02  0.70352073593E+02  0.00000000000E+00 0. -1.
        -13    1    3    3    0    0 -0.31334205224E+02 -0.12929229939E+02  0.18161465032E+03  0.18475085552E+03  0.00000000000E+00 0.  1.
         13    1    3    3    0    0  0.14703594220E+02  0.34313452557E+02  0.39074551240E+02  0.54040996142E+02  0.00000000000E+00 0. -1.
          3    1    1    2  501    0 -0.19946355721E+02 -0.28574689963E+01  0.61729025498E+02  0.64934542614E+02  0.00000000000E+00 0. -1.
<scales pt_clust_5="13000.00000" pt_clust_6="13000.00000" pt_clust_7="13000.00000" pt_clust_8="13000.00000" pt_clust_9="20.15000"></scales>
<clustering>
<clus scale="   20.150">  2  9  1 -1</clus>
<clus scale="   87.086">  7  8 -1 -1</clus>
<clus scale="   91.173">  5  6 -1 -1</clus>
<clus scale="   91.540">  1  7  2 -1</clus>
<clus scale="   20.150">  2  5  1 -1</clus>
</clustering>
</event>
<event>
 9    1  0.1315259E-005  0.9263007E+02  0.7546771E-02  0.1296942E+00
         21   -1    0    0  501  502  0.00000000000E+00  0.00000000000E+00  0.53306924859E+02  0.53306924859E+02  0.00000000000E+00 0.  1.
         -3   -1    0    0    0  501 -0.00000000000E+00 -0.00000000000E+00 -0.41532295980E+03  0.41532295980E+03  0.00000000000E+00 0.  1.
         23    2    1    2    0    0  0.36834027887E+01 -0.72378113507E+01 -0.19349672340E+03  0.21405870531E+03  0.91182202120E+02 0.  0.
         23    2    1    2    0    0  0.24154205750E+02  0.89351262536E+01 -0.19441037515E+03  0.21651647527E+03  0.91764524522E+02 0.  0.
        -11    1    3    3    0    0  0.36392027187E+02 -0.31390716357E+02 -0.78037735879E+02  0.91649576853E+02  0.00000000000E+00 0. -1.
         11    1    3    3    0    0 -0.32708624399E+02  0.24152905006E+02 -0.11545898752E+03  0.12240912846E+03  0.00000000000E+00 0.  1.
        -13    1    4    4    0    0 -0.10081879473E+02 -0.22585662002E+02 -0.10604972141E+02  0.26911370383E+02  0.00000000000E+00 0. -1.
         13    1    4    4    0    0  0.34236085223E+02  0.31520788256E+02 -0.18380540301E+03  0.18960510489E+03  0.00000000000E+00 0.  1.
         -3    1    1    2    0  502 -0.27837608539E+02 -0.16973149029E+01  0.25891063615E+02  0.38054704074E+02  0.00000000000E+00 0.  1.
<scales pt_clust_5="13000.00000" pt_clust_6="13000.00000" pt_clust_7="13000.00000" pt_clust_8="13000.00000" pt_clust_9="27.88930"></scales>
<clustering>
<clus scale="   27.889">  1  9  2 -1</clus>
<clus scale="   91.182">  5  6 -1 -1</clus>
<clus scale="   91.765">  7  8 -1 -1</clus>
<clus scale="   92.053">  2  5  1 -1</clus>
<clus scale="   27.889">  1  5  2 -1</clus>
</clustering>
</event>
<event>
 9    1  0.1315259E-005  0.1686710E+03  0.7546771E-02  0.1179660E+00
          3   -1    0    0  502    0 -0.00000000000E+00  0.00000000000E+00  0.93567499238E+02  0.93567499238E+02  0.00000000000E+00 0. -1.
         21   -1    0    0  501  502  0.00000000000E+00 -0.00000000000E+00 -0.40057395398E+03  0.40057395398E+03  0.00000000000E+00 0.  1.
         23    2    1    2    0    0 -0.12773640243E+03  0.81619258606E+00 -0.97404714494E+02  0.18596568354E+03  0.93692595085E+02 0.  0.
         23    2    1    2    0    0  0.15754276795E+03 -0.29889100694E+02 -0.17117869994E+03  0.25151905394E+03  0.90810820443E+02 0.  0.
        -11    1    3    3    0    0 -0.97650196703E+02  0.52222957368E+01 -0.11490351279E+03  0.15088290341E+03  0.00000000000E+00 0.  1.
         11    1    3    3    0    0 -0.30086205728E+02 -0.44061031507E+01  0.17498798299E+02  0.35082780135E+02  0.00000000000E+00 0. -1.
        -13    1    4    4    0    0  0.17437979929E+02 -0.38222785824E+02 -0.25091849510E+02  0.48935318656E+02  0.00000000000E+00 0.  1.
         13    1    4    4    0    0  0.14010478802E+03  0.83336851295E+01 -0.14608685043E+03  0.20258373529E+03  0.00000000000E+00 0. -1.
          3    1    1    2  501    0 -0.29806365516E+02  0.29072908108E+02 -0.38423040306E+02  0.56656715732E+02  0.00000000000E+00 0. -1.
<scales pt_clust_5="13000.00000" pt_clust_6="13000.00000" pt_clust_7="13000.00000" pt_clust_8="13000.00000" pt_clust_9="41.63716"></scales>
<clustering>
<clus scale="   41.637">  2  9  1 -1</clus>
<clus scale="   90.811">  7  8 -1 -1</clus>
<clus scale="   93.693">  5  6 -1 -1</clus>
<clus scale="  167.087">  2  7  1 -1</clus>
<clus scale="   41.637">  2  5  1 -1</clus>
</clustering>
</event>
<event>
 9    1  0.1315259E-005  0.1103178E+03  0.7546771E-02  0.1260409E+00
         21   -1    0    0  501  502  0.00000000000E+00  0.00000000000E+00  0.10322096962E+03  0.10322096962E+03  0.00000000000E+00 0.  1.
         -3   -1    0    0    0  501 -0.00000000000E+00 -0.00000000000E+00 -0.28533020334E+03  0.28533020334E+03  0.00000000000E+00 0.  1.
         23    2    1    2    0    0 -0.29046982782E+02  0.75725800778E+02 -0.15703175963E+03  0.19912093244E+03  0.91717218077E+02 0.  0.
         23    2    1    2    0    0 -0.12622530623E+02 -0.36380474136E+02 -0.64919396944E+02  0.11963208945E+03  0.92814015905E+02 0.  0.
        -11    1    4    4    0    0 -0.48333389572E+02 -0.41821499317E+02 -0.46814352620E+02  0.79225866760E+02  0.00000000000E+00 0.  1.
         11    1    4    4    0    0  0.35710858950E+02  0.54410251803E+01 -0.18105044323E+02  0.40406222688E+02  0.00000000000E+00 0. -1.
        -11    1    3    3    0    0  0.62431706595E+01  0.61462417631E+02 -0.14745116974E+03  0.15987011422E+03  0.00000000000E+00 0.  1.
         11    1    3    3    0    0 -0.35290153442E+02  0.14263383147E+02 -0.95805898860E+01  0.39250818225E+02  0.00000000000E+00 0. -1.
         -3    1    1    2    0  502  0.41669513405E+02 -0.39345326641E+02  0.39841922850E+02  0.69798151067E+02  0.00000000000E+00 0.  1.
<scales pt_clust_5="13000.00000" pt_clust_6="13000.00000" pt_clust_7="13000.00000" pt_clust_8="13000.00000" pt_clust_9="57.30971"></scales>
<clustering>
<clus scale="   57.310">  1  9  2 -1</clus>
<clus scale="   91.717">  7  8 -1 -1</clus>
<clus scale="   92.814">  5  6 -1 -1</clus>
<clus scale="  109.397">  2  7  1 -1</clus>
<clus scale="   57.310">  1  5  2 -1</clus>
</clustering>
</event>
<event>
 9    1  0.1315259E-005  0.1173811E+03  0.7546771E-02  0.1251677E+00
          3   -1    0    0  502    0 -0.00000000000E+00  0.00000000000E+00  0.84065846905E+02  0.84065846905E+02  0.00000000000E+00 0. -1.
         21   -1    0    0  501  502  0.00000000000E+00 -0.00000000000E+00 -0.39493328866E+03  0.39493328866E+03  0.00000000000E+00 0. -1.
         23    2    1    2    0    0 -0.45135262637E+02  0.29983689503E+02 -0.39517536681E+02  0.12242197732E+03  0.10241724101E+03 0.  0.
         23    2    1    2    0    0  0.15780691020E+02 -0.67291886868E+02 -0.41542766577E+02  0.12191801530E+03  0.91438354926E+02 0.  0.
        -11    1    3    3    0    0  0.25177086956E+02  0.32736952089E+02 -0.30796933064E+02  0.51517422546E+02  0.00000000000E+00 0.  1.
         11    1    3    3    0    0 -0.70312349593E+02 -0.27532625856E+01 -0.87206036176E+01  0.70904554774E+02  0.00000000000E+00 0. -1.
        -11    1    4    4    0    0  0.33318836096E+02 -0.20729233512E+02 -0.57545792433E+02  0.69651734992E+02  0.00000000000E+00 0. -1.
         11    1    4    4    0    0 -0.17538145076E+02 -0.46562653356E+02  0.16003025856E+02  0.52266280304E+02  0.00000000000E+00 0.  1.
          3    1    1    2  501    0  0.29354571617E+02  0.37308197364E+02 -0.22980713849E+03  0.23465914295E+03  0.00000000000E+00 0. -1.
<scales pt_clust_5="13000.00000" pt_clust_6="13000.00000" pt_clust_7="13000.00000" pt_clust_8="13000.00000" pt_clust_9="47.47202"></scales>
<clustering>
<clus scale="   47.472">  2  9  1 -1</clus>
<clus scale="   91.438">  7  8 -1 -1</clus>
<clus scale="  102.417">  5  6 -1 -1</clus>
<clus scale="  107.935">  2  7  1 -1</clus>
<clus scale="   47.472">  2  5  1 -1</clus>
</clustering>
</event>
<event>
 9    1  0.1315259E-005  0.2532561E+03  0.7546771E-02  0.1111276E+00
         21   -1    0    0  501  502  0.00000000000E+00  0.00000000000E+00  0.20685748251E+03  0.20685748251E+03  0.00000000000E+00 0.  1.
          1   -1    0    0  502    0 -0.00000000000E+00 -0.00000000000E+00 -0.94585244889E+03  0.94585244889E+03  0.00000000000E+00 0. -1.
         23    2    1    2    0    0  0.13968149776E+03 -0.19110510786E+03 -0.70228499386E+03  0.74663517835E+03  0.90707187628E+02 0.  0.
         23    2    1    2    0    0 -0.11438197610E+03  0.20724379583E+03 -0.14609384544E+03  0.29264920609E+03  0.90922597769E+02 0.  0.
        -13    1    4    4    0    0 -0.68996872699E+02  0.17372227951E+03 -0.73847694708E+02  0.20098129479E+03  0.00000000000E+00 0.  1.
         13    1    4    4    0    0 -0.45385103396E+02  0.33521516312E+02 -0.72246150735E+02  0.91667911300E+02  0.00000000000E+00 0. -1.
        -13    1    3    3    0    0  0.10319080416E+03 -0.11972684071E+03 -0.57398172232E+03  0.59534685353E+03  0.00000000000E+00 0. -1.
         13    1    3    3    0    0  0.36490693597E+02 -0.71378267143E+02 -0.12830327154E+03  0.15128832482E+03  0.00000000000E+00 0.  1.
          1    1    1    2  501    0 -0.25299521662E+02 -0.16138687969E+02  0.10938387292E+03  0.11342554695E+03  0.00000000000E+00 0. -1.
<scales pt_clust_5="13000.00000" pt_clust_6="13000.00000" pt_clust_7="13000.00000" pt_clust_8="13000.00000" pt_clust_9="30.00872"></scales>
<clustering>
<clus scale="   30.009">  1  9  2 -1</clus>
<clus scale="   90.707">  7  8 -1 -1</clus>
<clus scale="   90.923">  5  6 -1 -1</clus>
<clus scale="  253.179">  2  7  1 -1</clus>
<clus scale="   30.009">  1  5  2 -1</clus>
</clustering>
</event>
