<event>
 9    1  0.1296032E-005  0.9777059E+02  0.7546771E-02  0.1288103E+00
         -1   -1    0    0    0  501 -0.00000000000E+00  0.00000000000E+00  0.38943742921E+02  0.38943742921E+02  0.00000000000E+00 0.  1.
          1   -1    0    0  502    0  0.00000000000E+00 -0.00000000000E+00 -0.29065141468E+03  0.29065141468E+03  0.00000000000E+00 0. -1.
         23    2    1    2    0    0  0.25530965785E+01  0.19676837223E+02 -0.11520560305E+03  0.15008829373E+03  0.94130062751E+02 0.  0.
         23    2    1    2    0    0 -0.22960587837E+02 -0.26196081185E+02 -0.10862890024E+03  0.14435178228E+03  0.88452110307E+02 0.  0.
        -11    1    4    4    0    0  0.69339742583E+01  0.24142541105E+02 -0.69587292660E+02  0.73981981521E+02  0.00000000000E+00 0.  1.
         11    1    4    4    0    0 -0.29894562095E+02 -0.50338622290E+02 -0.39041607581E+02  0.70369800763E+02  0.00000000000E+00 0. -1.
        -13    1    3    3    0    0 -0.59995794668E+01 -0.28574188961E+02 -0.90731037753E+02  0.95313170340E+02  0.00000000000E+00 0. -1.
         13    1    3    3    0    0  0.85526760453E+01  0.48251026184E+02 -0.24474565301E+02  0.54775123387E+02  0.00000000000E+00 0.  1.
         21    1    1    2  502  501  0.20407491259E+02  0.65192439616E+01 -0.27873168461E+02  0.35155081587E+02  0.00000000000E+00 0.  1.
<scales pt_clust_5="13000.00000" pt_clust_6="13000.00000" pt_clust_7="13000.00000" pt_clust_8="13000.00000" pt_clust_9="21.42350"></scales>
<clustering>
<clus scale="   21.423">  2  9  1 -1</clus>
<clus scale="   88.452">  5  6 -1 -1</clus>
<clus scale="   92.317">  2  5  1 -1</clus>
<clus scale="   94.130">  7  8 -1 -1</clus>
<clus scale="   21.423">  2  5  1 -1</clus>
</clustering>
</event>
<event>
 9    1  0.1296032E-005  0.9744558E+02  0.7546771E-02  0.1288036E+00
         -1   -1    0    0    0  501 -0.00000000000E+00  0.00000000000E+00  0.32734995709E+03  0.32734995709E+03  0.00000000000E+00 0.  1.
          1   -1    0    0  502    0  0.00000000000E+00 -0.00000000000E+00 -0.11577835834E+03  0.11577835834E+03  0.00000000000E+00 0. -1.
         23    2    1    2    0    0  0.25193652327E+02  0.28625713791E+01  0.27482463961E+03  0.28926628477E+03  0.86622667555E+02 0.  0.
         23    2    1    2    0    0 -0.26492270898E+02 -0.24352896815E+02 -0.80146704714E+02  0.12649569412E+03  0.91009682740E+02 0.  0.
        -11    1    3    3    0    0  0.34482104293E+02  0.28932256474E+02  0.24281451617E+03  0.24695137222E+03  0.00000000000E+00 0.  1.
         11    1    3    3    0    0 -0.92884519661E+01 -0.26069685095E+02  0.32010123440E+02  0.42314912543E+02  0.00000000000E+00 0. -1.
        -13    1    4    4    0    0 -0.21431799843E+01 -0.46771567718E+02 -0.80806772395E+02  0.93391151787E+02  0.00000000000E+00 0. -1.
         13    1    4    4    0    0 -0.24349090914E+02  0.22418670903E+02  0.66006768040E+00  0.33104542328E+02  0.00000000000E+00 0.  1.
         21    1    1    2  502  501  0.12986185711E+01  0.21490325436E+02  0.16893663851E+02  0.27366336544E+02  0.00000000000E+00 0. -1.
<scales pt_clust_5="13000.00000" pt_clust_6="13000.00000" pt_clust_7="13000.00000" pt_clust_8="13000.00000" pt_clust_9="21.52953"></scales>
<clustering>
<clus scale="   21.530">  1  9  2 -1</clus>
<clus scale="   86.623">  5  6 -1 -1</clus>
<clus scale="   91.010">  7  8 -1 -1</clus>
<clus scale="   93.361">  1  5  2 -1</clus>
<clus scale="   97.446">  2  5  1 -1</clus>
</clustering>
</event>
<event>
 9    1  0.1296032E-005  0.9894531E+02  0.7546771E-02  0.1283794E+00
         -1   -1    0    0    0  501 -0.00000000000E+00  0.00000000000E+00  0.10596098539E+03  0.10596098539E+03  0.00000000000E+00 0.  1.
          1   -1    0    0  502    0  0.00000000000E+00 -0.00000000000E+00 -0.13168478626E+03  0.13168478626E+03  0.00000000000E+00 0. -1.
         23    2    1    2    0    0  0.26085430286E+02 -0.19301978721E+02  0.75098211203E+01  0.97348798499E+02  0.91473357325E+02 0.  0.
         23    2    1    2    0    0 -0.12585786215E+02  0.48062573903E+02 -0.13167969409E+02  0.10271981734E+03  0.88935664567E+02 0.  0.
        -11    1    3    3    0    0 -0.98463797733E+01  0.32333853460E+02 -0.13145139349E+01  0.33825393140E+02  0.00000000000E+00 0. -1.
         11    1    3    3    0    0  0.35931810059E+02 -0.51635832182E+02  0.88243350552E+01  0.63523405359E+02  0.00000000000E+00 0.  1.
        -13    1    4    4    0    0 -0.13883838770E+02  0.21549309237E+02  0.37555486487E+02  0.45470300998E+02  0.00000000000E+00 0.  1.
         13    1    4    4    0    0  0.12980525557E+01  0.26513264667E+02 -0.50723455896E+02  0.57249516345E+02  0.00000000000E+00 0. -1.
         21    1    1    2  502  501 -0.13499644071E+02 -0.28760595182E+02 -0.20065652573E+02  0.37577155806E+02  0.00000000000E+00 0.  1.
<scales pt_clust_5="13000.00000" pt_clust_6="13000.00000" pt_clust_7="13000.00000" pt_clust_8="13000.00000" pt_clust_9="31.77125"></scales>
<clustering>
<clus scale="   31.771">  2  9  1 -1</clus>
<clus scale="   88.936">  7  8 -1 -1</clus>
<clus scale="   91.473">  5  6 -1 -1</clus>
<clus scale="   96.604">  2  7  1 -1</clus>
<clus scale="   31.771">  2  5  1 -1</clus>
</clustering>
</event>
<event>
 9    1  0.1296032E-005  0.1231983E+03  0.7546771E-02  0.1237967E+00
         -2   -1    0    0    0  501 -0.00000000000E+00  0.00000000000E+00  0.73086375773E+02  0.73086375773E+02  0.00000000000E+00 0.  1.
          2   -1    0    0  502    0  0.00000000000E+00 -0.00000000000E+00 -0.27909697788E+03  0.27909697788E+03  0.00000000000E+00 0. -1.
         23    2    1    2    0    0  0.88273321205E+02 -0.15264060968E+02 -0.39442597595E+02  0.13494771228E+03  0.92897770427E+02 0.  0.
         23    2    1    2    0    0 -0.62683021268E+02  0.18957731851E+02 -0.13853503654E+03  0.17909964855E+03  0.92715538118E+02 0.  0.
        -11    1    4    4    0    0 -0.86641957946E+02  0.13536956236E+02 -0.11839391458E+03  0.14733362505E+03  0.00000000000E+00 0.  1.
         11    1    4    4    0    0  0.23958936678E+02  0.54207756147E+01 -0.20141121954E+02  0.31766023493E+02  0.00000000000E+00 0. -1.
        -13    1    3    3    0    0  0.57574338620E+02 -0.20253867166E+02 -0.68945472532E+02  0.92078780321E+02  0.00000000000E+00 0. -1.
         13    1    3    3    0    0  0.30698982585E+02  0.49898061974E+01  0.29502874937E+02  0.42868931957E+02  0.00000000000E+00 0.  1.
         21    1    1    2  502  501 -0.25590299937E+02 -0.36936708825E+01 -0.28032967970E+02  0.38135992824E+02  0.00000000000E+00 0.  1.
<scales pt_clust_5="13000.00000" pt_clust_6="13000.00000" pt_clust_7="13000.00000" pt_clust_8="13000.00000" pt_clust_9="25.85550"></scales>
<clustering>
<clus scale="   25.855">  2  9  1 -1</clus>
<clus scale="   92.716">  5  6 -1 -1</clus>
<clus scale="   92.898">  7  8 -1 -1</clus>
<clus scale="  123.061">  2  5  1 -1</clus>
<clus scale="   25.855">  2  5  1 -1</clus>
</clustering>
</event>
<event>
 9    1  0.1296032E-005  0.1525242E+03  0.7546771E-02  0.1198252E+00
          1   -1    0    0  502    0  0.00000000000E+00  0.00000000000E+00  0.81990463984E+03  0.81990463984E+03  0.00000000000E+00 0. -1.
         -1   -1    0    0    0  501 -0.00000000000E+00 -0.00000000000E+00 -0.39286312151E+02  0.39286312151E+02  0.00000000000E+00 0.  1.
         23    2    1    2    0    0  0.13119673116E+03 -0.14204104073E+02  0.21739846410E+03  0.27108700381E+03  0.93870829325E+02 0.  0.
         23    2    1    2    0    0 -0.99827101057E+02  0.98733420031E+01  0.40295583920E+03  0.42474126363E+03  0.89268133716E+02 0.  0.
        -11    1    3    3    0    0  0.90331269101E+02 -0.50849203581E+02  0.11442035648E+03  0.15439364514E+03  0.00000000000E+00 0.  1.
         11    1    3    3    0    0  0.40865462061E+02  0.36645099508E+02  0.10297810762E+03  0.11669335867E+03  0.00000000000E+00 0. -1.
        -13    1    4    4    0    0 -0.78246621776E+02  0.27934623524E+01  0.39159590968E+03  0.39934658347E+03  0.00000000000E+00 0. -1.
         13    1    4    4    0    0 -0.21580479281E+02  0.70798796507E+01  0.11359929525E+02  0.25394680165E+02  0.00000000000E+00 0.  1.
         21    1    1    2  502  501 -0.31369630104E+02  0.43307620698E+01  0.16026402438E+03  0.16336268455E+03  0.00000000000E+00 0. -1.
<scales pt_clust_5="13000.00000" pt_clust_6="13000.00000" pt_clust_7="13000.00000" pt_clust_8="13000.00000" pt_clust_9="31.66716"></scales>
<clustering>
<clus scale="   31.667">  1  9  2 -1</clus>
<clus scale="   89.268">  7  8 -1 -1</clus>
<clus scale="   93.871">  5  6 -1 -1</clus>
<clus scale="  149.735">  1  7  2 -1</clus>
<clus scale="   31.667">  1  5  2 -1</clus>
</clustering>
</event>
<event>
 9    1  0.1296032E-005  0.1450018E+03  0.7546771E-02  0.1228231E+00
         -2   -1    0    0    0  501 -0.00000000000E+00  0.00000000000E+00  0.27576848153E+03  0.27576848153E+03  0.00000000000E+00 0.  1.
          2   -1    0    0  502    0  0.00000000000E+00 -0.00000000000E+00 -0.30597021566E+03  0.30597021566E+03  0.00000000000E+00 0. -1.
         23    2    1    2    0    0 -0.16170197019E+02  0.28031828271E+01  0.24913409458E+02  0.95495604962E+02  0.90716037670E+02 0.  0.
         23    2    1    2    0    0  0.28064016336E+01 -0.11500439341E+03  0.17597272821E+03  0.22900913806E+03  0.90801419863E+02 0.  0.
        -11    1    3    3    0    0  0.45630721570E+01 -0.24721458093E+02  0.47883785435E+02  0.54081688448E+02  0.00000000000E+00 0.  1.
         11    1    3    3    0    0 -0.20733269176E+02  0.27524640920E+02 -0.22970375977E+02  0.41413916514E+02  0.00000000000E+00 0. -1.
        -11    1    4    4    0    0 -0.36536645261E+02 -0.94658270238E+02  0.11112935091E+03  0.15048204944E+03  0.00000000000E+00 0.  1.
         11    1    4    4    0    0  0.39343046895E+02 -0.20346123167E+02  0.64843377302E+02  0.78527088618E+02  0.00000000000E+00 0. -1.
         21    1    1    2  502  501  0.13363795385E+02  0.11220121058E+03 -0.23108787180E+03  0.25723395416E+03  0.00000000000E+00 0. -1.
<scales pt_clust_5="13000.00000" pt_clust_6="13000.00000" pt_clust_7="13000.00000" pt_clust_8="13000.00000" pt_clust_9="113.05145"></scales>
<clustering>
<clus scale="   90.716">  5  6 -1 -1</clus>
<clus scale="   90.801">  7  8 -1 -1</clus>
<clus scale="   92.189">  1  5  2 -1</clus>
<clus scale="  113.051">  2  9  1 -1</clus>
<clus scale="  113.051">  2  5  1 -1</clus>
</clustering>
</event>
<event>
 9    1  0.1296032E-005  0.1106367E+03  0.7546771E-02  0.1259457E+00
         -2   -1    0    0    0  501 -0.00000000000E+00  0.00000000000E+00  0.43814697853E+02  0.43814697853E+02  0.00000000000E+00 0.  1.
          2   -1    0    0  502    0  0.00000000000E+00 -0.00000000000E+00 -0.42050801735E+03  0.42050801735E+03  0.00000000000E+00 0. -1.
         23    2    1    2    0    0  0.77745815478E+01  0.64680215966E+02 -0.77116840396E+02  0.13588980703E+03  0.90967346492E+02 0.  0.
         23    2    1    2    0    0  0.14830096351E+02 -0.58420308520E+02 -0.22271131478E+03  0.24806866618E+03  0.91131055100E+02 0.  0.
        -11    1    3    3    0    0  0.34088293249E+02  0.14285658573E+01 -0.19291771133E+01  0.34172712233E+02  0.00000000000E+00 0.  1.
         11    1    3    3    0    0 -0.26313711701E+02  0.63251650109E+02 -0.75187663282E+02  0.10171709480E+03  0.00000000000E+00 0. -1.
        -13    1    4    4    0    0  0.36140841563E+02 -0.12098359775E+02 -0.29367022333E+02  0.48113955760E+02  0.00000000000E+00 0.  1.
         13    1    4    4    0    0 -0.21310745212E+02 -0.46321948745E+02 -0.19334429245E+03  0.19995471042E+03  0.00000000000E+00 0. -1.
         21    1    1    2  502  501 -0.22604677899E+02 -0.62599074462E+01 -0.76865164323E+02  0.80364241989E+02  0.00000000000E+00 0.  1.
<scales pt_clust_5="13000.00000" pt_clust_6="13000.00000" pt_clust_7="13000.00000" pt_clust_8="13000.00000" pt_clust_9="23.45545"></scales>
<clustering>
<clus scale="   23.455">  2  9  1 -1</clus>
<clus scale="   90.967">  5  6 -1 -1</clus>
<clus scale="   91.131">  7  8 -1 -1</clus>
<clus scale="  110.502">  1  5  2 -1</clus>
<clus scale="   23.455">  2  5  1 -1</clus>
</clustering>
</event>
<event>
 9    1  0.1296032E-005  0.1112480E+03  0.7546771E-02  0.1258304E+00
         -1   -1    0    0    0  501 -0.00000000000E+00  0.00000000000E+00  0.31038686394E+03  0.31038686394E+03  0.00000000000E+00 0.  1.
          1   -1    0    0  502    0  0.00000000000E+00 -0.00000000000E+00 -0.51892679540E+02  0.51892679540E+02  0.00000000000E+00 0. -1.
         23    2    1    2    0    0  0.69612500412E+01  0.49046615250E+02  0.13113039130E+03  0.16671580004E+03  0.90249371146E+02 0.  0.
         23    2    1    2    0    0 -0.13514748095E+02 -0.76685315157E+02  0.94089699660E+02  0.15181432786E+03  0.90174456380E+02 0.  0.
        -11    1    3    3    0    0 -0.20115403839E+02  0.62861449443E+02  0.11425478130E+03  0.13194827149E+03  0.00000000000E+00 0. -1.
         11    1    3    3    0    0  0.27076653880E+02 -0.13814834193E+02  0.16875609992E+02  0.34767528553E+02  0.00000000000E+00 0.  1.
        -11    1    4    4    0    0  0.22562471734E+02 -0.47903369254E+02  0.91343170063E+02  0.10558111874E+03  0.00000000000E+00 0. -1.
         11    1    4    4    0    0 -0.36077219829E+02 -0.28781945902E+02  0.27465295961E+01  0.46233209118E+02  0.00000000000E+00 0.  1.
         21    1    1    2  502  501  0.65534980540E+01  0.27638699907E+02  0.33274093439E+02  0.43749415579E+02  0.00000000000E+00 0. -1.
<scales pt_clust_5="13000.00000" pt_clust_6="13000.00000" pt_clust_7="13000.00000" pt_clust_8="13000.00000" pt_clust_9="28.40504"></scales>
<clustering>
<clus scale="   28.405">  1  9  2 -1</clus>
<clus scale="   90.174">  7  8 -1 -1</clus>
<clus scale="   90.249">  5  6 -1 -1</clus>
<clus scale="  111.187">  2  7  1 -1</clus>
<clus scale="  111.187">  2  5  1 -1</clus>
</clustering>
</event>
<event>
 9    1  0.1296032E-005  0.2147941E+03  0.7546771E-02  0.1138034E+00
         -2   -1    0    0    0  501 -0.00000000000E+00  0.00000000000E+00  0.41497287574E+03  0.41497287574E+03  0.00000000000E+00 0.  1.
          2   -1    0    0  502    0  0.00000000000E+00 -0.00000000000E+00 -0.17252950762E+03  0.17252950762E+03  0.00000000000E+00 0. -1.
         23    2    1    2    0    0 -0.72765807033E+02  0.17377263196E+03  0.19681031311E+03  0.28724380197E+03  0.91010505600E+02 0.  0.
         23    2    1    2    0    0  0.10163349871E+03 -0.17510429357E+03  0.95511294203E+02  0.24261349756E+03  0.93530851535E+02 0.  0.
        -11    1    3    3    0    0 -0.14068495594E+02  0.15750023632E+02 -0.74613829444E+01  0.22397724173E+02  0.00000000000E+00 0. -1.
         11    1    3    3    0    0 -0.58697311439E+02  0.15802260833E+03  0.20427169606E+03  0.26484607779E+03  0.00000000000E+00 0.  1.
        -11    1    4    4    0    0  0.49883593207E+02 -0.13299497122E+03  0.10302891829E+03  0.17547362550E+03  0.00000000000E+00 0. -1.
         11    1    4    4    0    0  0.51749905498E+02 -0.42109322353E+02 -0.75176240870E+01  0.67139872058E+02  0.00000000000E+00 0.  1.
         21    1    1    2  502  501 -0.28867691672E+02  0.13316616166E+01 -0.49878239194E+02  0.57645083834E+02  0.00000000000E+00 0.  1.
<scales pt_clust_5="13000.00000" pt_clust_6="13000.00000" pt_clust_7="13000.00000" pt_clust_8="13000.00000" pt_clust_9="28.89839"></scales>
<clustering>
<clus scale="   28.898">  2  9  1 -1</clus>
<clus scale="   91.011">  5  6 -1 -1</clus>
<clus scale="   93.531">  7  8 -1 -1</clus>
<clus scale="  213.709">  1  5  2 -1</clus>
<clus scale="   28.898">  2  5  1 -1</clus>
</clustering>
</event>
<event>
 9    1  0.1296032E-005  0.2174567E+03  0.7546771E-02  0.1135874E+00
         -2   -1    0    0    0  501 -0.00000000000E+00  0.00000000000E+00  0.40016863930E+03  0.40016863930E+03  0.00000000000E+00 0.  1.
          2   -1    0    0  502    0  0.00000000000E+00 -0.00000000000E+00 -0.24771332378E+03  0.24771332378E+03  0.00000000000E+00 0. -1.
         23    2    1    2    0    0 -0.18951617099E+03 -0.17499156739E+02  0.26352678720E+03  0.33835856358E+03  0.93901812661E+02 0.  0.
         23    2    1    2    0    0  0.22288853196E+03  0.40001299289E+02 -0.11218943138E+03  0.26925789653E+03  0.92919022311E+02 0.  0.
        -11    1    4    4    0    0  0.55286020693E+02  0.50609661791E+02 -0.19537024791E+02  0.77456938284E+02  0.00000000000E+00 0.  1.
         11    1    4    4    0    0  0.16760251127E+03 -0.10608362502E+02 -0.92652406585E+02  0.19180095825E+03  0.00000000000E+00 0. -1.
        -11    1    3    3    0    0 -0.13760104568E+03 -0.44672958253E+02  0.22740336337E+03  0.26952181849E+03  0.00000000000E+00 0.  1.
         11    1    3    3    0    0 -0.51915125308E+02  0.27173801514E+02  0.36123423826E+02  0.68836745081E+02  0.00000000000E+00 0. -1.
         21    1    1    2  502  501 -0.33372360972E+02 -0.22502142550E+02  0.11179597024E+01  0.40265502978E+02  0.00000000000E+00 0.  1.
<scales pt_clust_5="13000.00000" pt_clust_6="13000.00000" pt_clust_7="13000.00000" pt_clust_8="13000.00000" pt_clust_9="40.24998"></scales>
<clustering>
<clus scale="   40.250">  2  9  1 -1</clus>
<clus scale="   92.919">  5  6 -1 -1</clus>
<clus scale="   93.902">  7  8 -1 -1</clus>
<clus scale="  217.034">  2  5  1 -1</clus>
<clus scale="   40.250">  2  5  1 -1</clus>
</clustering>
</event>
<event>
 9    1  0.1296032E-005  0.9708076E+02  0.7546771E-02  0.1287742E+00
         -3   -1    0    0    0  501 -0.00000000000E+00  0.00000000000E+00  0.30568559407E+03  0.30568559407E+03  0.00000000000E+00 0.  1.
          3   -1    0    0  502    0  0.00000000000E+00 -0.00000000000E+00 -0.58306688536E+03  0.58306688536E+03  0.00000000000E+00 0. -1.
         23    2    1    2    0    0  0.26513100185E+02  0.44403173797E+01  0.29069867935E+03  0.30579334717E+03  0.91001033484E+02 0.  0.
         23    2    1    2    0    0 -0.33141409693E+02 -0.30778362720E+02 -0.44132628075E+03  0.45332840665E+03  0.93231419315E+02 0.  0.
        -11    1    4    4    0    0 -0.35456028496E+01  0.32618362025E+02 -0.11517754804E+03  0.11975974454E+03  0.00000000000E+00 0.  1.
         11    1    4    4    0    0 -0.29595806844E+02 -0.63396724745E+02 -0.32614873271E+03  0.33356866211E+03  0.00000000000E+00 0. -1.
        -13    1    3    3    0    0  0.57088059976E+02  0.19548237610E+02  0.19952711431E+03  0.20845203172E+03  0.00000000000E+00 0.  1.
         13    1    3    3    0    0 -0.30574959791E+02 -0.15107920230E+02  0.91171565046E+02  0.97341315446E+02  0.00000000000E+00 0. -1.
         21    1    1    2  502  501  0.66283095079E+01  0.26338045340E+02 -0.12675368989E+03  0.12963072560E+03  0.00000000000E+00 0.  1.
<scales pt_clust_5="13000.00000" pt_clust_6="13000.00000" pt_clust_7="13000.00000" pt_clust_8="13000.00000" pt_clust_9="27.15929"></scales>
<clustering>
<clus scale="   27.159">  2  9  1 -1</clus>
<clus scale="   91.001">  7  8 -1 -1</clus>
<clus scale="   93.231">  5  6 -1 -1</clus>
<clus scale="   94.941">  1  7  2 -1</clus>
<clus scale="   27.159">  2  5  1 -1</clus>
</clustering>
</event>
<event>
 9    1  0.1296032E-005  0.9732478E+02  0.7546771E-02  0.1287210E+00
         -1   -1    0    0    0  501 -0.00000000000E+00  0.00000000000E+00  0.42568519258E+02  0.42568519258E+02  0.00000000000E+00 0.  1.
          1   -1    0    0  502    0  0.00000000000E+00 -0.00000000000E+00 -0.34781239906E+03  0.34781239906E+03  0.00000000000E+00 0. -1.
         23    2    1    2    0    0 -0.18413238411E+02 -0.12341224378E+02 -0.71098481108E+02  0.11708489805E+03  0.90346699822E+02 0.  0.
         23    2    1    2    0    0  0.25652832033E+02  0.34027328465E+02 -0.12266655861E+03  0.15949694025E+03  0.92608112348E+02 0.  0.
        -11    1    4    4    0    0 -0.19892961716E+02  0.59190017586E+01 -0.98693464601E+02  0.10085219116E+03  0.00000000000E+00 0.  1.
         11    1    4    4    0    0  0.45545793750E+02  0.28108326706E+02 -0.23973094010E+02  0.58644749082E+02  0.00000000000E+00 0. -1.
        -11    1    3    3    0    0 -0.28010274567E+02 -0.40316579502E+02 -0.11304902618E+02  0.50376610518E+02  0.00000000000E+00 0.  1.
         11    1    3    3    0    0  0.95970361564E+01  0.27975355125E+02 -0.59793578490E+02  0.66708287536E+02  0.00000000000E+00 0. -1.
         21    1    1    2  502  501 -0.72395936221E+01 -0.21686104087E+02 -0.11147884008E+03  0.11379908002E+03  0.00000000000E+00 0.  1.
<scales pt_clust_5="13000.00000" pt_clust_6="13000.00000" pt_clust_7="13000.00000" pt_clust_8="13000.00000" pt_clust_9="22.86261"></scales>
<clustering>
<clus scale="   22.863">  2  9  1 -1</clus>
<clus scale="   90.347">  7  8 -1 -1</clus>
<clus scale="   92.608">  5  6 -1 -1</clus>
<clus scale="   95.176">  1  7  2 -1</clus>
<clus scale="   22.863">  2  5  1 -1</clus>
</clustering>
</event>
<event>
 9    1  0.1296032E-005  0.1103488E+03  0.7546771E-02  0.1267540E+00
          1   -1    0    0  502    0  0.00000000000E+00  0.00000000000E+00  0.11753893054E+03  0.11753893054E+03  0.00000000000E+00 0. -1.
         -1   -1    0    0    0  501 -0.00000000000E+00 -0.00000000000E+00 -0.28977913564E+03  0.28977913564E+03  0.00000000000E+00 0.  1.
         23    2    1    2    0    0  0.21869526457E+01  0.27065589383E+02 -0.20480851597E+03  0.22633336827E+03  0.92428007052E+02 0.  0.
         23    2    1    2    0    0  0.38108486076E+02  0.35283996896E+01 -0.97167996541E+01  0.11504726453E+03  0.10805901426E+03 0.  0.
        -11    1    3    3    0    0 -0.43010553097E+02  0.27380671476E+02 -0.11483111480E+03  0.12564152886E+03  0.00000000000E+00 0. -1.
         11    1    3    3    0    0  0.45197505743E+02 -0.31508209304E+00 -0.89977401162E+02  0.10069183940E+03  0.00000000000E+00 0.  1.
        -11    1    4    4    0    0  0.45641465518E+01 -0.41768515862E+02 -0.33630826370E+02  0.53818889188E+02  0.00000000000E+00 0. -1.
         11    1    4    4    0    0  0.33544339524E+02  0.45296915552E+02  0.23914026716E+02  0.61228375337E+02  0.00000000000E+00 0.  1.
         21    1    1    2  502  501 -0.40295438722E+02 -0.30593989073E+02  0.42285110521E+02  0.65937433381E+02  0.00000000000E+00 0. -1.
<scales pt_clust_5="13000.00000" pt_clust_6="13000.00000" pt_clust_7="13000.00000" pt_clust_8="13000.00000" pt_clust_9="50.59362"></scales>
<clustering>
<clus scale="   50.594">  1  9  2 -1</clus>
<clus scale="   92.428">  5  6 -1 -1</clus>
<clus scale="   95.095">  2  5  1 -1</clus>
<clus scale="  108.059">  7  8 -1 -1</clus>
<clus scale="   50.594">  1  5  2 -1</clus>
</clustering>
</event>
<event>
 9    1  0.1296032E-005  0.9612797E+02  0.7546771E-02  0.1288989E+00
         -2   -1    0    0    0  501 -0.00000000000E+00  0.00000000000E+00  0.52536101318E+02  0.52536101318E+02  0.00000000000E+00 0.  1.
          2   -1    0    0  502    0  0.00000000000E+00 -0.00000000000E+00 -0.31741815196E+03  0.31741815196E+03  0.00000000000E+00 0. -1.
         23    2    1    2    0    0  0.33796077949E+02  0.60135660021E+01 -0.35529895092E+02  0.10399473270E+03  0.91510617547E+02 0.  0.
         23    2    1    2    0    0 -0.19279395983E+02 -0.22673024308E+02 -0.22350252031E+03  0.24310148394E+03  0.90880106559E+02 0.  0.
        -11    1    3    3    0    0  0.63139267121E+02 -0.35115628408E+01 -0.10150201882E+02  0.64046270183E+02  0.00000000000E+00 0. -1.
         11    1    3    3    0    0 -0.29343189171E+02  0.95251288430E+01 -0.25379693210E+02  0.39948462519E+02  0.00000000000E+00 0.  1.
        -13    1    4    4    0    0 -0.41460668649E+02 -0.40619909760E+02 -0.93865379845E+02  0.11036155874E+03  0.00000000000E+00 0.  1.
         13    1    4    4    0    0  0.22181272666E+02  0.17946885453E+02 -0.12963714047E+03  0.13273992521E+03  0.00000000000E+00 0. -1.
         21    1    1    2  502  501 -0.14516681966E+02  0.16659458306E+02 -0.58496352376E+01  0.22858036634E+02  0.00000000000E+00 0. -1.
<scales pt_clust_5="13000.00000" pt_clust_6="13000.00000" pt_clust_7="13000.00000" pt_clust_8="13000.00000" pt_clust_9="22.09687"></scales>
<clustering>
<clus scale="   22.097">  1  9  2 -1</clus>
<clus scale="   90.880">  7  8 -1 -1</clus>
<clus scale="   91.511">  5  6 -1 -1</clus>
<clus scale="   95.528">  2  7  1 -1</clus>
<clus scale="   95.528">  2  5  1 -1</clus>
</clustering>
</event>
<event>
 9    1  0.1296032E-005  0.1645102E+03  0.7546771E-02  0.1183727E+00
         -1   -1    0    0    0  501 -0.00000000000E+00  0.00000000000E+00  0.16561435130E+03  0.16561435130E+03  0.00000000000E+00 0.  1.
          1   -1    0    0  502    0  0.00000000000E+00 -0.00000000000E+00 -0.29285761326E+03  0.29285761326E+03  0.00000000000E+00 0. -1.
         23    2    1    2    0    0  0.55753577001E+02  0.13757542268E+03  0.48627123562E+02  0.18040150339E+03  0.90247698050E+02 0.  0.
         23    2    1    2    0    0 -0.21187813482E+02 -0.11747830542E+03 -0.70825120802E+02  0.16567298002E+03  0.90450333809E+02 0.  0.
        -11    1    3    3    0    0  0.60908274520E+02  0.34378240480E+02  0.26075694106E+02  0.74643306107E+02  0.00000000000E+00 0.  1.
         11    1    3    3    0    0 -0.51546975184E+01  0.10319718220E+03  0.22551429456E+02  0.10575819728E+03  0.00000000000E+00 0. -1.
        -13    1    4    4    0    0  0.24185003718E+02 -0.86885707267E+01  0.40707835784E+01  0.26018780622E+02  0.00000000000E+00 0.  1.
         13    1    4    4    0    0 -0.45372817200E+02 -0.10878973469E+03 -0.74895904381E+02  0.13965419939E+03  0.00000000000E+00 0. -1.
         21    1    1    2  502  501 -0.34565763519E+02 -0.20097117262E+02 -0.10504526472E+03  0.11239748115E+03  0.00000000000E+00 0.  1.
<scales pt_clust_5="13000.00000" pt_clust_6="13000.00000" pt_clust_7="13000.00000" pt_clust_8="13000.00000" pt_clust_9="39.98357"></scales>
<clustering>
<clus scale="   39.984">  2  9  1 -1</clus>
<clus scale="   90.248">  5  6 -1 -1</clus>
<clus scale="   90.450">  7  8 -1 -1</clus>
<clus scale="  164.399">  1  5  2 -1</clus>
<clus scale="   39.984">  2  5  1 -1</clus>
</clustering>
</event>
<event>
 9    1  0.1296032E-005  0.1362973E+03  0.7546771E-02  0.1219957E+00
         -2   -1    0    0    0  501 -0.00000000000E+00  0.00000000000E+00  0.26694857333E+02  0.26694857333E+02  0.00000000000E+00 0.  1.
          2   -1    0    0  502    0  0.00000000000E+00 -0.00000000000E+00 -0.11001255571E+04  0.11001255571E+04  0.00000000000E+00 0. -1.
         23    2    1    2    0    0 -0.83944810572E+02 -0.14239929352E+02 -0.30212280657E+03  0.32720690136E+03  0.92394043306E+02 0.  0.
         23    2    1    2    0    0  0.11321163425E+03  0.57038640835E+02 -0.48278847798E+03  0.50647237022E+03  0.85786168185E+02 0.  0.
        -13    1    3    3    0    0 -0.42819845712E+02  0.24600787178E+02 -0.55986491314E+02  0.74654036235E+02  0.00000000000E+00 0.  1.
         13    1    3    3    0    0 -0.41124964860E+02 -0.38840716530E+02 -0.24613631525E+03  0.25255286512E+03  0.00000000000E+00 0. -1.
        -13    1    4    4    0    0  0.90869034807E+02  0.22695185597E+01 -0.33942881094E+03  0.35138902928E+03  0.00000000000E+00 0. -1.
         13    1    4    4    0    0  0.22342599440E+02  0.54769122276E+02 -0.14335966703E+03  0.15508334094E+03  0.00000000000E+00 0.  1.
         21    1    1    2  502  501 -0.29266823675E+02 -0.42798711484E+02 -0.28851941518E+03  0.29314114281E+03  0.00000000000E+00 0. -1.
<scales pt_clust_5="13000.00000" pt_clust_6="13000.00000" pt_clust_7="13000.00000" pt_clust_8="13000.00000" pt_clust_9="51.84859"></scales>
<clustering>
<clus scale="   51.849">  2  9  1 -1</clus>
<clus scale="   85.786">  7  8 -1 -1</clus>
<clus scale="   92.394">  5  6 -1 -1</clus>
<clus scale="  131.907">  2  7  1 -1</clus>
<clus scale="   51.849">  2  5  1 -1</clus>
</clustering>
</event>
<event>
 9    1  0.1296032E-005  0.1076132E+03  0.7546771E-02  0.1267917E+00
         -4   -1    0    0    0  501 -0.00000000000E+00  0.00000000000E+00  0.10467619046E+03  0.10467619046E+03  0.00000000000E+00 0.  1.
          4   -1    0    0  502    0  0.00000000000E+00 -0.00000000000E+00 -0.18933146462E+03  0.18933146462E+03  0.00000000000E+00 0. -1.
         23    2    1    2    0    0 -0.19826842637E+01 -0.35359021398E+02  0.76067306668E+01  0.10167260459E+03  0.95001393368E+02 0.  0.
         23    2    1    2    0    0  0.22386893631E+02  0.76294326782E+02 -0.46488377619E+02  0.12762604080E+03  0.88347267815E+02 0.  0.
        -11    1    4    4    0    0  0.24906828983E+02  0.34652728943E+02  0.21556699672E+02  0.47810595624E+02  0.00000000000E+00 0.  1.
         11    1    4    4    0    0 -0.25199353514E+01  0.41641597839E+02 -0.68045077291E+02  0.79815445174E+02  0.00000000000E+00 0. -1.
        -13    1    3    3    0    0  0.38250484920E+02 -0.83580097979E+01  0.28982973968E+02  0.48713126613E+02  0.00000000000E+00 0.  1.
         13    1    3    3    0    0 -0.40233169184E+02 -0.27001011600E+02 -0.21376243301E+02  0.52959477978E+02  0.00000000000E+00 0. -1.
         21    1    1    2  502  501 -0.20404209368E+02 -0.40935305383E+02 -0.45773627215E+02  0.64709009691E+02  0.00000000000E+00 0. -1.
<scales pt_clust_5="13000.00000" pt_clust_6="13000.00000" pt_clust_7="13000.00000" pt_clust_8="13000.00000" pt_clust_9="45.73873"></scales>
<clustering>
<clus scale="   45.739">  2  9  1 -1</clus>
<clus scale="   88.347">  5  6 -1 -1</clus>
<clus scale="   95.001">  7  8 -1 -1</clus>
<clus scale="  101.787">  2  5  1 -1</clus>
<clus scale="   45.739">  2  5  1 -1</clus>
</clustering>
</event>
<event>
 9    1  0.1296032E-005  0.9988300E+02  0.7546771E-02  0.1286090E+00
         -1   -1    0    0    0  501 -0.00000000000E+00  0.00000000000E+00  0.18513337150E+03  0.18513337150E+03  0.00000000000E+00 0.  1.
          1   -1    0    0  502    0  0.00000000000E+00 -0.00000000000E+00 -0.23093783065E+03  0.23093783065E+03  0.00000000000E+00 0. -1.
         23    2    1    2    0    0 -0.41191459751E+02  0.13251382931E+02  0.14661131312E+03  0.17781098977E+03  0.90826953278E+02 0.  0.
         23    2    1    2    0    0  0.37086430606E+02  0.20268664571E+02 -0.79070864629E+02  0.11999139596E+03  0.79746544574E+02 0.  0.
        -13    1    4    4    0    0  0.47147443548E+01  0.46680509168E+02 -0.30671748428E+02  0.56054035556E+02  0.00000000000E+00 0.  1.
         13    1    4    4    0    0  0.32371686252E+02 -0.26411844597E+02 -0.48399116201E+02  0.63937360399E+02  0.00000000000E+00 0. -1.
        -13    1    3    3    0    0 -0.55682801928E+01  0.24153658030E+02  0.13715310938E+03  0.13937496315E+03  0.00000000000E+00 0.  1.
         13    1    3    3    0    0 -0.35623179558E+02 -0.10902275099E+02  0.94582037404E+01  0.38436026618E+02  0.00000000000E+00 0. -1.
         21    1    1    2  502  501  0.41050291448E+01 -0.33520047502E+02 -0.11334490764E+03  0.11826881642E+03  0.00000000000E+00 0. -1.
<scales pt_clust_5="13000.00000" pt_clust_6="13000.00000" pt_clust_7="13000.00000" pt_clust_8="13000.00000" pt_clust_9="33.77047"></scales>
<clustering>
<clus scale="   33.770">  2  9  1 -1</clus>
<clus scale="   79.747">  5  6 -1 -1</clus>
<clus scale="   89.925">  2  5  1 -1</clus>
<clus scale="   90.827">  7  8 -1 -1</clus>
<clus scale="   33.770">  2  5  1 -1</clus>
</clustering>
</event>
<event>
 9    1  0.1296032E-005  0.1499389E+03  0.7546771E-02  0.1200750E+00
          1   -1    0    0  502    0  0.00000000000E+00  0.00000000000E+00  0.31909902885E+03  0.31909902885E+03  0.00000000000E+00 0. -1.
         -1   -1    0    0    0  501 -0.00000000000E+00 -0.00000000000E+00 -0.25114049919E+03  0.25114049919E+03  0.00000000000E+00 0.  1.
         23    2    1    2    0    0 -0.44573232330E+02  0.11263842185E+03 -0.20420300622E+03  0.25400744690E+03  0.90259227885E+02 0.  0.
         23    2    1    2    0    0  0.26531463441E+02 -0.10355006517E+03  0.22052290102E+03  0.26078253414E+03  0.89166393291E+02 0.  0.
        -11    1    4    4    0    0 -0.32070479172E+01 -0.81890546695E+02  0.76412194819E+02  0.11204985637E+03  0.00000000000E+00 0.  1.
         11    1    4    4    0    0  0.29738511358E+02 -0.21659518474E+02  0.14411070620E+03  0.14873267778E+03  0.00000000000E+00 0. -1.
        -13    1    3    3    0    0 -0.37829882889E+02  0.72941461827E+02 -0.53576286778E+02  0.98091668340E+02  0.00000000000E+00 0.  1.
         13    1    3    3    0    0 -0.67433494409E+01  0.39696960021E+02 -0.15062671944E+03  0.15591577856E+03  0.00000000000E+00 0. -1.
         21    1    1    2  502  501  0.18041768889E+02 -0.90883566790E+01  0.51638634855E+02  0.55449546990E+02  0.00000000000E+00 0. -1.
<scales pt_clust_5="13000.00000" pt_clust_6="13000.00000" pt_clust_7="13000.00000" pt_clust_8="13000.00000" pt_clust_9="20.20158"></scales>
<clustering>
<clus scale="   20.202">  1  9  2 -1</clus>
<clus scale="   89.166">  5  6 -1 -1</clus>
<clus scale="   90.259">  7  8 -1 -1</clus>
<clus scale="  149.284">  1  5  2 -1</clus>
<clus scale="   20.202">  1  5  2 -1</clus>
</clustering>
</event>
<event>
 9    1  0.1296032E-005  0.1049179E+03  0.7546771E-02  0.1271476E+00
         -2   -1    0    0    0  501 -0.00000000000E+00  0.00000000000E+00  0.41049118329E+03  0.41049118329E+03  0.00000000000E+00 0.  1.
          2   -1    0    0  502    0  0.00000000000E+00 -0.00000000000E+00 -0.12226831662E+03  0.12226831662E+03  0.00000000000E+00 0. -1.
         23    2    1    2    0    0  0.36199665483E+02  0.36046664101E+02  0.36538280727E+03  0.38024213732E+03  0.92031023977E+02 0.  0.
         23    2    1    2    0    0 -0.10737248144E+02 -0.48526977019E+02 -0.52264878885E+02  0.11478333278E+03  0.89294120314E+02 0.  0.
        -11    1    3    3    0    0  0.54465628788E+02  0.55760943656E+02  0.28608476796E+03  0.29651354440E+03  0.00000000000E+00 0.  1.
         11    1    3    3    0    0 -0.18265963305E+02 -0.19714279554E+02  0.79298039311E+02  0.83728592920E+02  0.00000000000E+00 0. -1.
        -13    1    4    4    0    0  0.28737284844E+02 -0.28622897044E+02  0.66757830411E+01  0.41105569630E+02  0.00000000000E+00 0.  1.
         13    1    4    4    0    0 -0.39474532988E+02 -0.19904079975E+02 -0.58940661926E+02  0.73677763149E+02  0.00000000000E+00 0. -1.
         21    1    1    2  502  501 -0.25462417339E+02  0.12480312918E+02 -0.24895061714E+02  0.37734029801E+02  0.00000000000E+00 0. -1.
<scales pt_clust_5="13000.00000" pt_clust_6="13000.00000" pt_clust_7="13000.00000" pt_clust_8="13000.00000" pt_clust_9="28.35653"></scales>
<clustering>
<clus scale="   28.357">  2  9  1 -1</clus>
<clus scale="   89.294">  7  8 -1 -1</clus>
<clus scale="   92.031">  5  6 -1 -1</clus>
<clus scale="  102.526">  2  7  1 -1</clus>
<clus scale="   28.357">  2  5  1 -1</clus>
</clustering>
</event>
<event>
 9    1  0.1296032E-005  0.1103448E+03  0.7546771E-02  0.1260538E+00
         -2   -1    0    0    0  501 -0.00000000000E+00  0.00000000000E+00  0.24762758541E+03  0.24762758541E+03  0.00000000000E+00 0.  1.
          2   -1    0    0  502    0  0.00000000000E+00 -0.00000000000E+00 -0.85807842847E+02  0.85807842847E+02  0.00000000000E+00 0. -1.
         23    2    1    2    0    0 -0.31586075548E+02  0.46632218735E+02  0.13119468369E+03  0.16826934199E+03  0.89052133222E+02 0.  0.
         23    2    1    2    0    0  0.30148261126E+02 -0.71392067888E+02  0.54156687269E+02  0.13097756516E+03  0.90644529856E+02 0.  0.
        -11    1    3    3    0    0 -0.27171556886E+02  0.21808822713E+02  0.13785652435E+03  0.14219120774E+03  0.00000000000E+00 0.  1.
         11    1    3    3    0    0 -0.44145186618E+01  0.24823396022E+02 -0.66618406582E+01  0.26078134251E+02  0.00000000000E+00 0. -1.
        -11    1    4    4    0    0 -0.20554697630E+02  0.95484714988E+01  0.17658616797E+02  0.28731440093E+02  0.00000000000E+00 0. -1.
         11    1    4    4    0    0  0.50702958756E+02 -0.80940539387E+02  0.36498070471E+02  0.10224612507E+03  0.00000000000E+00 0.  1.
         21    1    1    2  502  501  0.14378144221E+01  0.24759849154E+02 -0.23531628400E+02  0.34188521108E+02  0.00000000000E+00 0. -1.
<scales pt_clust_5="13000.00000" pt_clust_6="13000.00000" pt_clust_7="13000.00000" pt_clust_8="13000.00000" pt_clust_9="24.80156"></scales>
<clustering>
<clus scale="   24.802">  2  9  1 -1</clus>
<clus scale="   89.052">  5  6 -1 -1</clus>
<clus scale="   90.645">  7  8 -1 -1</clus>
<clus scale="  109.040">  1  5  2 -1</clus>
<clus scale="   24.802">  2  5  1 -1</clus>
</clustering>
</event>
<event>
 9    1  0.1296032E-005  0.2037417E+03  0.7546771E-02  0.1176404E+00
          3   -1    0    0  502    0  0.00000000000E+00  0.00000000000E+00  0.17745582111E+03  0.17745582111E+03  0.00000000000E+00 0. -1.
         -3   -1    0    0    0  501 -0.00000000000E+00 -0.00000000000E+00 -0.90235056931E+03  0.90235056931E+03  0.00000000000E+00 0.  1.
         23    2    1    2    0    0  0.45098364654E+02  0.83951053638E+01 -0.29809460299E+03  0.31507210869E+03  0.91135619017E+02 0.  0.
         23    2    1    2    0    0 -0.15154513104E+03 -0.16248820623E+03 -0.50914793416E+03  0.56014504411E+03  0.71850592792E+02 0.  0.
        -13    1    3    3    0    0  0.32626030122E+01 -0.37669743286E+02 -0.14415192057E+03  0.14902828705E+03  0.00000000000E+00 0.  1.
         13    1    3    3    0    0  0.41835761642E+02  0.46064848650E+02 -0.15394268242E+03  0.16604382164E+03  0.00000000000E+00 0. -1.
        -13    1    4    4    0    0 -0.83428419032E+02 -0.10735294845E+03 -0.22598325631E+03  0.26372976467E+03  0.00000000000E+00 0. -1.
         13    1    4    4    0    0 -0.68116712009E+02 -0.55135257777E+02 -0.28316467785E+03  0.29641527944E+03  0.00000000000E+00 0.  1.
         21    1    1    2  502  501  0.10644676639E+03  0.15409310086E+03  0.82347788944E+02  0.20458923762E+03  0.00000000000E+00 0. -1.
<scales pt_clust_5="13000.00000" pt_clust_6="13000.00000" pt_clust_7="13000.00000" pt_clust_8="13000.00000" pt_clust_9="190.65197"></scales>
<clustering>
<clus scale="   71.851">  7  8 -1 -1</clus>
<clus scale="   91.136">  5  6 -1 -1</clus>
<clus scale="  102.030">  2  5  1 -1</clus>
<clus scale="  190.652">  1  9  2 -1</clus>
<clus scale="  190.652">  1  5  2 -1</clus>
</clustering>
</event>
<event>
 9    1  0.1296032E-005  0.1444827E+03  0.7546771E-02  0.1207574E+00
          1   -1    0    0  502    0  0.00000000000E+00  0.00000000000E+00  0.41640931739E+03  0.41640931739E+03  0.00000000000E+00 0. -1.
         -1   -1    0    0    0  501 -0.00000000000E+00 -0.00000000000E+00 -0.81122311877E+02  0.81122311877E+02  0.00000000000E+00 0.  1.
         23    2    1    2    0    0 -0.11598145463E+03  0.64850023778E+01  0.27320532413E+02  0.15056760813E+03  0.91817427835E+02 0.  0.
         23    2    1    2    0    0  0.96574912729E+02  0.72547755966E+01  0.28193810596E+03  0.31170964178E+03  0.91073924105E+02 0.  0.
        -13    1    3    3    0    0 -0.34029886228E+02 -0.23297526545E+01  0.54054040840E+02  0.63916353426E+02  0.00000000000E+00 0. -1.
         13    1    3    3    0    0 -0.81951568401E+02  0.88147550323E+01 -0.26733508427E+02  0.86651254708E+02  0.00000000000E+00 0.  1.
        -13    1    4    4    0    0  0.53114240447E+02  0.27364415405E+02  0.24226166077E+03  0.24952083289E+03  0.00000000000E+00 0. -1.
         13    1    4    4    0    0  0.43460672282E+02 -0.20109639808E+02  0.39676445188E+02  0.62188808890E+02  0.00000000000E+00 0.  1.
         21    1    1    2  502  501  0.19406541900E+02 -0.13739777974E+02  0.26028367141E+02  0.35254379350E+02  0.00000000000E+00 0.  1.
<scales pt_clust_5="13000.00000" pt_clust_6="13000.00000" pt_clust_7="13000.00000" pt_clust_8="13000.00000" pt_clust_9="23.77804"></scales>
<clustering>
<clus scale="   23.778">  1  9  2 -1</clus>
<clus scale="   91.074">  7  8 -1 -1</clus>
<clus scale="   91.817">  5  6 -1 -1</clus>
<clus scale="  144.011">  1  7  2 -1</clus>
<clus scale="   23.778">  1  5  2 -1</clus>
</clustering>
</event>
<event>
 9    1  0.1296032E-005  0.9533250E+02  0.7546771E-02  0.1300996E+00
         -1   -1    0    0    0  501 -0.00000000000E+00  0.00000000000E+00  0.13904344390E+03  0.13904344390E+03  0.00000000000E+00 0.  1.
          1   -1    0    0  502    0  0.00000000000E+00 -0.00000000000E+00 -0.12985916013E+03  0.12985916013E+03  0.00000000000E+00 0. -1.
         23    2    1    2    0    0 -0.48072875353E+00  0.25897999441E+02  0.59245248278E+02  0.11067823266E+03  0.89826133530E+02 0.  0.
         23    2    1    2    0    0  0.27917487664E+02 -0.34398336481E+02  0.16474447161E+02  0.85753739565E+02  0.71551832750E+02 0.  0.
        -11    1    3    3    0    0  0.28705721119E+02  0.48518437033E+02  0.32360969281E+02  0.65002226808E+02  0.00000000000E+00 0.  1.
         11    1    3    3    0    0 -0.29186449873E+02 -0.22620437592E+02  0.26884278996E+02  0.45676005848E+02  0.00000000000E+00 0. -1.
        -13    1    4    4    0    0  0.49600738369E+02 -0.33245971531E+02  0.21696214237E+01  0.59751444559E+02  0.00000000000E+00 0.  1.
         13    1    4    4    0    0 -0.21683250706E+02 -0.11523649505E+01  0.14304825738E+02  0.26002295005E+02  0.00000000000E+00 0. -1.
         21    1    1    2  502  501 -0.27436758910E+02  0.85003370404E+01 -0.66535411671E+02  0.72470631814E+02  0.00000000000E+00 0. -1.
<scales pt_clust_5="13000.00000" pt_clust_6="13000.00000" pt_clust_7="13000.00000" pt_clust_8="13000.00000" pt_clust_9="28.72336"></scales>
<clustering>
<clus scale="   28.723">  2  9  1 -1</clus>
<clus scale="   71.552">  7  8 -1 -1</clus>
<clus scale="   78.353">  2  7  1 -1</clus>
<clus scale="   89.826">  5  6 -1 -1</clus>
<clus scale="   28.723">  2  5  1 -1</clus>
</clustering>
</event>
<event>
 9    1  0.1296032E-005  0.9421932E+02  0.7546771E-02  0.1294592E+00
         -2   -1    0    0    0  501 -0.00000000000E+00  0.00000000000E+00  0.24877043513E+03  0.24877043513E+03  0.00000000000E+00 0.  1.
          2   -1    0    0  502    0  0.00000000000E+00 -0.00000000000E+00 -0.69676086343E+02  0.69676086343E+02  0.00000000000E+00 0. -1.
         23    2    1    2    0    0 -0.13575875139E+02 -0.10516743453E+01  0.13917046065E+03  0.16780910836E+03  0.92768902787E+02 0.  0.
         23    2    1    2    0    0  0.14027990471E+02 -0.27040952883E+02  0.63313169553E+02  0.11407980654E+03  0.89875731831E+02 0.  0.
        -11    1    4    4    0    0 -0.26255369697E+02 -0.19180726606E+02 -0.64405567728E+01  0.33147028262E+02  0.00000000000E+00 0. -1.
         11    1    4    4    0    0  0.40283360168E+02 -0.78602262767E+01  0.69753726326E+02  0.80932778279E+02  0.00000000000E+00 0.  1.
        -13    1    3    3    0    0  0.20164188271E+02 -0.95144899838E+01  0.12991398472E+03  0.13181336591E+03  0.00000000000E+00 0.  1.
         13    1    3    3    0    0 -0.33740063410E+02  0.84628156385E+01  0.92564759387E+01  0.35995742446E+02  0.00000000000E+00 0. -1.
         21    1    1    2  502  501 -0.45211533214E+00  0.28092627228E+02 -0.23389281422E+02  0.36557606573E+02  0.00000000000E+00 0. -1.
<scales pt_clust_5="13000.00000" pt_clust_6="13000.00000" pt_clust_7="13000.00000" pt_clust_8="13000.00000" pt_clust_9="28.09627"></scales>
<clustering>
<clus scale="   28.096">  2  9  1 -1</clus>
<clus scale="   89.876">  5  6 -1 -1</clus>
<clus scale="   91.372">  2  5  1 -1</clus>
<clus scale="   92.769">  7  8 -1 -1</clus>
<clus scale="   28.096">  2  5  1 -1</clus>
</clustering>
</event>
<event>
 9    1  0.1296032E-005  0.2462275E+03  0.7546771E-02  0.1115897E+00
          1   -1    0    0  502    0  0.00000000000E+00  0.00000000000E+00  0.33707501531E+03  0.33707501531E+03  0.00000000000E+00 0. -1.
         -1   -1    0    0    0  501 -0.00000000000E+00 -0.00000000000E+00 -0.31505628783E+03  0.31505628783E+03  0.00000000000E+00 0.  1.
         23    2    1    2    0    0  0.48731129368E+02 -0.21702713895E+03 -0.11524844559E+03  0.26488509501E+03  0.86060486507E+02 0.  0.
         23    2    1    2    0    0 -0.68259150427E+02  0.23269354803E+03  0.11125687293E+02  0.25864428586E+03  0.89260779631E+02 0.  0.
        -13    1    4    4    0    0 -0.30023980288E+02  0.18834043631E+03  0.37582615276E+02  0.19438624517E+03  0.00000000000E+00 0. -1.
         13    1    4    4    0    0 -0.38235170139E+02  0.44353111715E+02 -0.26456927984E+02  0.64258040685E+02  0.00000000000E+00 0.  1.
        -13    1    3    3    0    0  0.46010473084E+02 -0.85500340819E+02 -0.86916241268E+02  0.13031387075E+03  0.00000000000E+00 0.  1.
         13    1    3    3    0    0  0.27206562840E+01 -0.13152679813E+03 -0.28332204319E+02  0.13457122426E+03  0.00000000000E+00 0. -1.
         21    1    1    2  502  501  0.19528021059E+02 -0.15666409074E+02  0.12614148577E+03  0.12860192228E+03  0.00000000000E+00 0. -1.
<scales pt_clust_5="13000.00000" pt_clust_6="13000.00000" pt_clust_7="13000.00000" pt_clust_8="13000.00000" pt_clust_9="25.03557"></scales>
<clustering>
<clus scale="   25.036">  1  9  2 -1</clus>
<clus scale="   86.060">  7  8 -1 -1</clus>
<clus scale="   89.261">  5  6 -1 -1</clus>
<clus scale="  245.085">  2  7  1 -1</clus>
<clus scale="   25.036">  1  5  2 -1</clus>
</clustering>
</event>
<event>
 9    1  0.1296032E-005  0.9457425E+02  0.7546771E-02  0.1292227E+00
         -1   -1    0    0    0  501 -0.00000000000E+00  0.00000000000E+00  0.70519293145E+02  0.70519293145E+02  0.00000000000E+00 0.  1.
          1   -1    0    0  502    0  0.00000000000E+00 -0.00000000000E+00 -0.20440485274E+03  0.20440485274E+03  0.00000000000E+00 0. -1.
         23    2    1    2    0    0  0.69633223907E+00 -0.20578500882E+02 -0.59230116813E+00  0.93476129417E+02  0.91178266999E+02 0.  0.
         23    2    1    2    0    0  0.16818933294E+02  0.35208172434E+02 -0.97299186009E+02  0.13882894719E+03  0.91015674793E+02 0.  0.
        -11    1    3    3    0    0 -0.40452397469E+01  0.31329520161E+02 -0.20523658436E+02  0.37671253679E+02  0.00000000000E+00 0.  1.
         11    1    3    3    0    0  0.47415719860E+01 -0.51908021043E+02  0.19931357268E+02  0.55804875738E+02  0.00000000000E+00 0. -1.
        -11    1    4    4    0    0 -0.25694340049E+02  0.59671784124E+00  0.16011175498E+01  0.25751092407E+02  0.00000000000E+00 0.  1.
         11    1    4    4    0    0  0.42513273344E+02  0.34611454593E+02 -0.98900303558E+02  0.11307785479E+03  0.00000000000E+00 0. -1.
         21    1    1    2  502  501 -0.17515265534E+02 -0.14629671552E+02 -0.35994072421E+02  0.42619069275E+02  0.00000000000E+00 0. -1.
<scales pt_clust_5="13000.00000" pt_clust_6="13000.00000" pt_clust_7="13000.00000" pt_clust_8="13000.00000" pt_clust_9="22.82130"></scales>
<clustering>
<clus scale="   22.821">  2  9  1 -1</clus>
<clus scale="   91.016">  7  8 -1 -1</clus>
<clus scale="   91.178">  5  6 -1 -1</clus>
<clus scale="   94.418">  2  7  1 -1</clus>
<clus scale="   22.821">  2  5  1 -1</clus>
</clustering>
</event>
<event>
 9    1  0.1296032E-005  0.1339562E+03  0.7546771E-02  0.1222200E+00
         -1   -1    0    0    0  501 -0.00000000000E+00  0.00000000000E+00  0.24935613284E+03  0.24935613284E+03  0.00000000000E+00 0.  1.
          1   -1    0    0  502    0  0.00000000000E+00 -0.00000000000E+00 -0.12812018049E+03  0.12812018049E+03  0.00000000000E+00 0. -1.
         23    2    1    2    0    0 -0.10476352050E+03  0.55789382813E+02  0.13654820271E+03  0.20177025805E+03  0.89319510238E+02 0.  0.
         23    2    1    2    0    0  0.52022620404E+02 -0.42043215924E+02  0.13528923602E+02  0.11404267098E+03  0.91371297414E+02 0.  0.
        -11    1    4    4    0    0  0.14697105229E+02 -0.52598224431E+02  0.39466150399E+02  0.67380673362E+02  0.00000000000E+00 0.  1.
         11    1    4    4    0    0  0.37325515176E+02  0.10555008507E+02 -0.25937226797E+02  0.46661997617E+02  0.00000000000E+00 0. -1.
        -13    1    3    3    0    0 -0.75549764611E+02  0.37842300343E+02  0.29714858465E+02  0.89569969530E+02  0.00000000000E+00 0.  1.
         13    1    3    3    0    0 -0.29213755893E+02  0.17947082471E+02  0.10683334424E+03  0.11220028852E+03  0.00000000000E+00 0. -1.
         21    1    1    2  502  501  0.52740900100E+02 -0.13746166889E+02 -0.28841173956E+02  0.61663384294E+02  0.00000000000E+00 0. -1.
<scales pt_clust_5="13000.00000" pt_clust_6="13000.00000" pt_clust_7="13000.00000" pt_clust_8="13000.00000" pt_clust_9="54.50284"></scales>
<clustering>
<clus scale="   54.503">  2  9  1 -1</clus>
<clus scale="   89.320">  7  8 -1 -1</clus>
<clus scale="   91.371">  5  6 -1 -1</clus>
<clus scale="  132.565">  1  7  2 -1</clus>
<clus scale="   54.503">  2  5  1 -1</clus>
</clustering>
</event>
<event>
 9    1  0.1296032E-005  0.1562469E+03  0.7546771E-02  0.1198600E+00
          1   -1    0    0  502    0  0.00000000000E+00  0.00000000000E+00  0.94297027596E+02  0.94297027596E+02  0.00000000000E+00 0. -1.
         -1   -1    0    0    0  501 -0.00000000000E+00 -0.00000000000E+00 -0.33647224360E+03  0.33647224360E+03  0.00000000000E+00 0.  1.
         23    2    1    2    0    0  0.35332680215E+02 -0.87735745552E+02 -0.19990227727E+03  0.23931642515E+03  0.91462951786E+02 0.  0.
         23    2    1    2    0    0 -0.57406595702E+02  0.91295811685E+02 -0.20733140666E+02  0.16040619218E+03  0.11691809486E+03 0.  0.
        -13    1    4    4    0    0  0.29153185154E+02  0.59096337291E+02 -0.16621333423E+02  0.67959944162E+02  0.00000000000E+00 0.  1.
         13    1    4    4    0    0 -0.86559780856E+02  0.32199474395E+02 -0.41118072425E+01  0.92446248014E+02  0.00000000000E+00 0. -1.
        -13    1    3    3    0    0  0.29216550800E+02 -0.58743602545E+02 -0.19914780718E+03  0.20967657663E+03  0.00000000000E+00 0.  1.
         13    1    3    3    0    0  0.61161294153E+01 -0.28992143007E+02 -0.75447008618E+00  0.29639848520E+02  0.00000000000E+00 0. -1.
         21    1    1    2  502  501  0.22073915487E+02 -0.35600661335E+01 -0.21539798069E+02  0.31046653872E+02  0.00000000000E+00 0.  1.
<scales pt_clust_5="13000.00000" pt_clust_6="13000.00000" pt_clust_7="13000.00000" pt_clust_8="13000.00000" pt_clust_9="22.35916"></scales>
<clustering>
<clus scale="   22.359">  2  9  1 -1</clus>
<clus scale="   91.463">  7  8 -1 -1</clus>
<clus scale="  116.918">  5  6 -1 -1</clus>
<clus scale="  138.234">  2  7  1 -1</clus>
<clus scale="  156.247">  1  5  2 -1</clus>
</clustering>
</event>
<event>
 9    1  0.1296032E-005  0.1848090E+03  0.7546771E-02  0.1164201E+00
         -2   -1    0    0    0  501 -0.00000000000E+00  0.00000000000E+00  0.10848372032E+03  0.10848372032E+03  0.00000000000E+00 0.  1.
          2   -1    0    0  502    0  0.00000000000E+00 -0.00000000000E+00 -0.40159554046E+03  0.40159554046E+03  0.00000000000E+00 0. -1.
         23    2    1    2    0    0  0.95137256383E+02  0.14569951070E+03 -0.81709004461E+02  0.20924822818E+03  0.82637852195E+02 0.  0.
         23    2    1    2    0    0 -0.75876935621E+02 -0.12331368019E+03 -0.13209497363E+03  0.21620350059E+03  0.91275947127E+02 0.  0.
        -11    1    4    4    0    0 -0.58834523096E+01 -0.68047712434E+02 -0.16610596021E+02  0.70292375680E+02  0.00000000000E+00 0.  1.
         11    1    4    4    0    0 -0.69993483311E+02 -0.55265967759E+02 -0.11548437761E+03  0.14591112491E+03  0.00000000000E+00 0. -1.
        -11    1    3    3    0    0  0.44899125503E+02  0.90217083907E+01 -0.29875963431E+02  0.54679940419E+02  0.00000000000E+00 0. -1.
         11    1    3    3    0    0  0.50238130880E+02  0.13667780231E+03 -0.51833041029E+02  0.15456828776E+03  0.00000000000E+00 0.  1.
         21    1    1    2  502  501 -0.19260320762E+02 -0.22385830509E+02 -0.79307842045E+02  0.84627532005E+02  0.00000000000E+00 0.  1.
<scales pt_clust_5="13000.00000" pt_clust_6="13000.00000" pt_clust_7="13000.00000" pt_clust_8="13000.00000" pt_clust_9="29.53109"></scales>
<clustering>
<clus scale="   29.531">  2  9  1 -1</clus>
<clus scale="   82.638">  7  8 -1 -1</clus>
<clus scale="   91.276">  5  6 -1 -1</clus>
<clus scale="  180.699">  1  7  2 -1</clus>
<clus scale="   29.531">  2  5  1 -1</clus>
</clustering>
</event>
<event>
 9    1  0.1296032E-005  0.1743980E+03  0.7546771E-02  0.1173780E+00
          2   -1    0    0  502    0  0.00000000000E+00  0.00000000000E+00  0.80562739291E+03  0.80562739291E+03  0.00000000000E+00 0. -1.
         -2   -1    0    0    0  501 -0.00000000000E+00 -0.00000000000E+00 -0.10479381898E+03  0.10479381898E+03  0.00000000000E+00 0.  1.
         23    2    1    2    0    0  0.13007801992E+03  0.59374633991E+02 -0.12984135435E+01  0.17116030900E+03  0.94066609759E+02 0.  0.
         23    2    1    2    0    0 -0.15465754051E+03 -0.73972842770E+02  0.52214024396E+03  0.55701302700E+03  0.90786241202E+02 0.  0.
        -11    1    3    3    0    0  0.12246786194E+03  0.81691678697E+02  0.27333360942E+01  0.14723918875E+03  0.00000000000E+00 0.  1.
         11    1    3    3    0    0  0.76101579733E+01 -0.22317044707E+02 -0.40317496377E+01  0.23921120249E+02  0.00000000000E+00 0. -1.
        -11    1    4    4    0    0 -0.59092626725E+02  0.16933960944E+02  0.18740962089E+03  0.19723352546E+03  0.00000000000E+00 0.  1.
         11    1    4    4    0    0 -0.95564913781E+02 -0.90906803715E+02  0.33473062307E+03  0.35977950154E+03  0.00000000000E+00 0. -1.
         21    1    1    2  502  501  0.24579520591E+02  0.14598208780E+02  0.17999174351E+03  0.18224787588E+03  0.00000000000E+00 0.  1.
<scales pt_clust_5="13000.00000" pt_clust_6="13000.00000" pt_clust_7="13000.00000" pt_clust_8="13000.00000" pt_clust_9="28.58777"></scales>
<clustering>
<clus scale="   28.588">  1  9  2 -1</clus>
<clus scale="   90.786">  7  8 -1 -1</clus>
<clus scale="   94.067">  5  6 -1 -1</clus>
<clus scale="  172.651">  1  7  2 -1</clus>
<clus scale="   28.588">  1  5  2 -1</clus>
</clustering>
</event>
<event>
 9    1  0.1296032E-005  0.1115845E+03  0.7546771E-02  0.1267388E+00
         -2   -1    0    0    0  501 -0.00000000000E+00  0.00000000000E+00  0.50284219436E+03  0.50284219436E+03  0.00000000000E+00 0.  1.
          2   -1    0    0  502    0  0.00000000000E+00 -0.00000000000E+00 -0.44733453708E+02  0.44733453708E+02  0.00000000000E+00 0. -1.
         23    2    1    2    0    0 -0.86644689061E+01 -0.39263784045E+01  0.38653838733E+03  0.40220406529E+03  0.11075060172E+03 0.  0.
         23    2    1    2    0    0  0.30263019666E+02 -0.14243089393E+02  0.63262129786E+02  0.11594959214E+03  0.91233189671E+02 0.  0.
        -11    1    3    3    0    0  0.38806233981E+02 -0.34399058669E+02  0.14003249543E+03  0.14932621608E+03  0.00000000000E+00 0. -1.
         11    1    3    3    0    0 -0.47470702887E+02  0.30472680264E+02  0.24650589190E+03  0.25287784921E+03  0.00000000000E+00 0.  1.
        -13    1    4    4    0    0  0.82058852855E+01 -0.52060499568E+02  0.41372631199E+02  0.67002438619E+02  0.00000000000E+00 0. -1.
         13    1    4    4    0    0  0.22057134381E+02  0.37817410175E+02  0.21889498587E+02  0.48947153521E+02  0.00000000000E+00 0.  1.
         21    1    1    2  502  501 -0.21598550760E+02  0.18169467798E+02  0.83082235320E+01  0.29421990641E+02  0.00000000000E+00 0.  1.
<scales pt_clust_5="13000.00000" pt_clust_6="13000.00000" pt_clust_7="13000.00000" pt_clust_8="13000.00000" pt_clust_9="28.22458"></scales>
<clustering>
<clus scale="   28.225">  2  9  1 -1</clus>
<clus scale="   91.233">  7  8 -1 -1</clus>
<clus scale="   92.244">  2  7  1 -1</clus>
<clus scale="  110.751">  5  6 -1 -1</clus>
<clus scale="   28.225">  2  5  1 -1</clus>
</clustering>
</event>
<event>
 9    1  0.1296032E-005  0.9711883E+02  0.7546771E-02  0.1287936E+00
         -1   -1    0    0    0  501 -0.00000000000E+00  0.00000000000E+00  0.22587294901E+03  0.22587294901E+03  0.00000000000E+00 0.  1.
          1   -1    0    0  502    0  0.00000000000E+00 -0.00000000000E+00 -0.12911189024E+03  0.12911189024E+03  0.00000000000E+00 0. -1.
         23    2    1    2    0    0 -0.13835652389E+02  0.38569181780E+02  0.16662398860E+03  0.19464819882E+03  0.91898643439E+02 0.  0.
         23    2    1    2    0    0 -0.73043670220E+01  0.77364335659E+01 -0.26792402816E+02  0.93656952890E+02  0.89109964617E+02 0.  0.
        -11    1    3    3    0    0  0.22048088326E+02  0.51435736136E+02  0.13108548246E+03  0.14253124872E+03  0.00000000000E+00 0. -1.
         11    1    3    3    0    0 -0.35883740715E+02 -0.12866554356E+02  0.35538506146E+02  0.52116950101E+02  0.00000000000E+00 0.  1.
        -11    1    4    4    0    0  0.16786007367E+02 -0.35291713298E+02 -0.19929700125E+02  0.43868759019E+02  0.00000000000E+00 0. -1.
         11    1    4    4    0    0 -0.24090374389E+02  0.43028146864E+02 -0.68627026910E+01  0.49788193871E+02  0.00000000000E+00 0.  1.
         21    1    1    2  502  501  0.21140019411E+02 -0.46305615346E+02 -0.43070527011E+02  0.66679687539E+02  0.00000000000E+00 0. -1.
<scales pt_clust_5="13000.00000" pt_clust_6="13000.00000" pt_clust_7="13000.00000" pt_clust_8="13000.00000" pt_clust_9="50.90295"></scales>
<clustering>
<clus scale="   50.903">  2  9  1 -1</clus>
<clus scale="   89.110">  7  8 -1 -1</clus>
<clus scale="   91.899">  5  6 -1 -1</clus>
<clus scale="   94.484">  2  7  1 -1</clus>
<clus scale="   50.903">  2  5  1 -1</clus>
</clustering>
</event>
<event>
 9    1  0.1296032E-005  0.9803657E+02  0.7546771E-02  0.1286473E+00
         -1   -1    0    0    0  501 -0.00000000000E+00  0.00000000000E+00  0.12984726529E+03  0.12984726529E+03  0.00000000000E+00 0.  1.
          1   -1    0    0  502    0  0.00000000000E+00 -0.00000000000E+00 -0.12040302631E+03  0.12040302631E+03  0.00000000000E+00 0. -1.
         23    2    1    2    0    0 -0.11451697998E+02  0.25743792594E+02  0.64678071141E+02  0.11393972130E+03  0.89471352724E+02 0.  0.
         23    2    1    2    0    0 -0.49601119615E+01 -0.40604383289E+02 -0.50425318388E+02  0.11365430260E+03  0.93280593437E+02 0.  0.
        -11    1    4    4    0    0  0.36695467657E+02  0.75524179571E+01 -0.25279728843E+02  0.45195807924E+02  0.00000000000E+00 0.  1.
         11    1    4    4    0    0 -0.41655579619E+02 -0.48156801246E+02 -0.25145589545E+02  0.68458494675E+02  0.00000000000E+00 0. -1.
        -13    1    3    3    0    0 -0.39202678569E+02  0.35642861821E+02  0.13163292731E+02  0.54594284328E+02  0.00000000000E+00 0. -1.
         13    1    3    3    0    0  0.27750980571E+02 -0.98990692265E+01  0.51514778410E+02  0.59345436968E+02  0.00000000000E+00 0.  1.
         21    1    1    2  502  501  0.16411809960E+02  0.14860590695E+02 -0.48085137743E+01  0.22656267713E+02  0.00000000000E+00 0.  1.
<scales pt_clust_5="13000.00000" pt_clust_6="13000.00000" pt_clust_7="13000.00000" pt_clust_8="13000.00000" pt_clust_9="22.14011"></scales>
<clustering>
<clus scale="   22.140">  2  9  1 -1</clus>
<clus scale="   89.471">  7  8 -1 -1</clus>
<clus scale="   93.281">  5  6 -1 -1</clus>
<clus scale="   94.419">  1  7  2 -1</clus>
<clus scale="   22.140">  2  5  1 -1</clus>
</clustering>
</event>
<event>
 9    1  0.1296032E-005  0.1648192E+03  0.7546771E-02  0.1206401E+00
          2   -1    0    0  502    0  0.00000000000E+00  0.00000000000E+00  0.12668763231E+04  0.12668763231E+04  0.00000000000E+00 0. -1.
         -2   -1    0    0    0  501 -0.00000000000E+00 -0.00000000000E+00 -0.33313412702E+02  0.33313412702E+02  0.00000000000E+00 0.  1.
         23    2    1    2    0    0  0.15958789124E+02 -0.52202774937E+02  0.23303697323E+03  0.25338330540E+03  0.83168839715E+02 0.  0.
         23    2    1    2    0    0 -0.48535480024E+02  0.16077690896E+03  0.70496579269E+03  0.73025409291E+03  0.89940892158E+02 0.  0.
        -11    1    4    4    0    0 -0.19559456484E+02  0.15449402636E+03  0.64258526144E+03  0.66118590028E+03  0.00000000000E+00 0. -1.
         11    1    4    4    0    0 -0.28976023540E+02  0.62828825963E+01  0.62380531252E+02  0.69068192630E+02  0.00000000000E+00 0.  1.
        -13    1    3    3    0    0  0.29385752265E+02 -0.70057013573E+00  0.16186033773E+03  0.16450769637E+03  0.00000000000E+00 0. -1.
         13    1    3    3    0    0 -0.13426963141E+02 -0.51502204801E+02  0.71176635499E+02  0.88875609025E+02  0.00000000000E+00 0.  1.
         21    1    1    2  502  501  0.32576690900E+02 -0.10857413402E+03  0.29556014450E+03  0.31655233752E+03  0.00000000000E+00 0.  1.
<scales pt_clust_5="13000.00000" pt_clust_6="13000.00000" pt_clust_7="13000.00000" pt_clust_8="13000.00000" pt_clust_9="138.11594"></scales>
<clustering>
<clus scale="   83.169">  7  8 -1 -1</clus>
<clus scale="   89.941">  5  6 -1 -1</clus>
<clus scale="   99.483">  2  7  1 -1</clus>
<clus scale="  138.116">  1  9  2 -1</clus>
<clus scale="  138.116">  1  5  2 -1</clus>
</clustering>
</event>
<event>
 9    1  0.1296032E-005  0.1123140E+03  0.7546771E-02  0.1256893E+00
          1   -1    0    0  502    0  0.00000000000E+00  0.00000000000E+00  0.19858594041E+03  0.19858594041E+03  0.00000000000E+00 0. -1.
         -1   -1    0    0    0  501 -0.00000000000E+00 -0.00000000000E+00 -0.29106946566E+03  0.29106946566E+03  0.00000000000E+00 0.  1.
         23    2    1    2    0    0 -0.47664029148E+02 -0.69729647281E+02 -0.18363631596E+03  0.22137852294E+03  0.90288817111E+02 0.  0.
         23    2    1    2    0    0  0.11420088297E+02  0.33842390841E+02 -0.55475206246E+02  0.11303098812E+03  0.91775704484E+02 0.  0.
        -11    1    3    3    0    0 -0.17779754517E+01  0.20342352325E+02 -0.17437982945E+02  0.26852481152E+02  0.00000000000E+00 0.  1.
         11    1    3    3    0    0 -0.45886053696E+02 -0.90071999606E+02 -0.16619833302E+03  0.19452604179E+03  0.00000000000E+00 0. -1.
        -11    1    4    4    0    0  0.43278010740E+02  0.86650739563E+01  0.18011098880E+00  0.44137310297E+02  0.00000000000E+00 0. -1.
         11    1    4    4    0    0 -0.31857922443E+02  0.25177316885E+02 -0.55655317235E+02  0.68893677826E+02  0.00000000000E+00 0.  1.
         21    1    1    2  502  501  0.36243940851E+02  0.35887256440E+02  0.14662799696E+03  0.15524589501E+03  0.00000000000E+00 0. -1.
<scales pt_clust_5="13000.00000" pt_clust_6="13000.00000" pt_clust_7="13000.00000" pt_clust_8="13000.00000" pt_clust_9="51.00508"></scales>
<clustering>
<clus scale="   51.005">  1  9  2 -1</clus>
<clus scale="   90.289">  5  6 -1 -1</clus>
<clus scale="   91.776">  7  8 -1 -1</clus>
<clus scale="  111.102">  2  5  1 -1</clus>
<clus scale="   51.005">  1  5  2 -1</clus>
</clustering>
</event>
<event>
 9    1  0.1296032E-005  0.9380417E+02  0.7546771E-02  0.1295889E+00
          1   -1    0    0  502    0  0.00000000000E+00  0.00000000000E+00  0.12862806149E+03  0.12862806149E+03  0.00000000000E+00 0. -1.
         -1   -1    0    0    0  501 -0.00000000000E+00 -0.00000000000E+00 -0.83772739565E+02  0.83772739565E+02  0.00000000000E+00 0.  1.
         23    2    1    2    0    0  0.58260976267E+01 -0.22451120979E+00  0.81808280987E+01  0.89582840812E+02  0.89017782497E+02 0.  0.
         23    2    1    2    0    0 -0.19409390283E+02 -0.15197749421E+02  0.35985716247E+02  0.10225521780E+03  0.92484927285E+02 0.  0.
        -11    1    3    3    0    0  0.57667526229E+01  0.35399511136E+02 -0.22692626618E+02  0.42442150362E+02  0.00000000000E+00 0.  1.
         11    1    3    3    0    0  0.59345003760E-01 -0.35624022346E+02  0.30873454717E+02  0.47140690450E+02  0.00000000000E+00 0. -1.
        -13    1    4    4    0    0  0.25028434516E+02 -0.35463341599E+02  0.30622987173E+02  0.53120979613E+02  0.00000000000E+00 0.  1.
         13    1    4    4    0    0 -0.44437824798E+02  0.20265592177E+02  0.53627290739E+01  0.49134238187E+02  0.00000000000E+00 0. -1.
         21    1    1    2  502  501  0.13583292656E+02  0.15422260631E+02  0.68877758233E+00  0.20562742446E+02  0.00000000000E+00 0.  1.
<scales pt_clust_5="13000.00000" pt_clust_6="13000.00000" pt_clust_7="13000.00000" pt_clust_8="13000.00000" pt_clust_9="20.55120"></scales>
<clustering>
<clus scale="   20.551">  2  9  1 -1</clus>
<clus scale="   89.018">  5  6 -1 -1</clus>
<clus scale="   90.388">  2  5  1 -1</clus>
<clus scale="   92.485">  7  8 -1 -1</clus>
<clus scale="   93.804">  1  5  2 -1</clus>
</clustering>
</event>
<event>
 9    1  0.1296032E-005  0.1358263E+03  0.7546771E-02  0.1219301E+00
         -2   -1    0    0    0  501 -0.00000000000E+00  0.00000000000E+00  0.44806906178E+03  0.44806906178E+03  0.00000000000E+00 0.  1.
          2   -1    0    0  502    0  0.00000000000E+00 -0.00000000000E+00 -0.66506796914E+02  0.66506796914E+02  0.00000000000E+00 0. -1.
         23    2    1    2    0    0 -0.10532061276E+03 -0.36493731695E+01  0.33013066317E+03  0.35865393271E+03  0.92415579235E+02 0.  0.
         23    2    1    2    0    0  0.81975673416E+02  0.79667454776E+01  0.47383648334E+02  0.13183849136E+03  0.91393093886E+02 0.  0.
        -11    1    4    4    0    0  0.58658850985E+02 -0.14154489229E+02  0.70089520218E+02  0.92486492033E+02  0.00000000000E+00 0.  1.
         11    1    4    4    0    0  0.23316822431E+02  0.22121234707E+02 -0.22705871884E+02  0.39351999330E+02  0.00000000000E+00 0. -1.
        -13    1    3    3    0    0 -0.78866140546E+02 -0.43609023409E+02  0.24365368492E+03  0.25978593731E+03  0.00000000000E+00 0. -1.
         13    1    3    3    0    0 -0.26454472216E+02  0.39959650239E+02  0.86476978245E+02  0.98867995397E+02  0.00000000000E+00 0.  1.
         21    1    1    2  502  501  0.23344939346E+02 -0.43173723082E+01  0.40479533596E+01  0.24083434620E+02  0.00000000000E+00 0.  1.
<scales pt_clust_5="13000.00000" pt_clust_6="13000.00000" pt_clust_7="13000.00000" pt_clust_8="13000.00000" pt_clust_9="23.74081"></scales>
<clustering>
<clus scale="   23.741">  2  9  1 -1</clus>
<clus scale="   91.393">  5  6 -1 -1</clus>
<clus scale="   92.416">  7  8 -1 -1</clus>
<clus scale="  135.133">  2  5  1 -1</clus>
<clus scale="   23.741">  2  5  1 -1</clus>
</clustering>
</event>
<event>
 9    1  0.1296032E-005  0.2862038E+03  0.7546771E-02  0.1094078E+00
          1   -1    0    0  502    0  0.00000000000E+00  0.00000000000E+00  0.50230384975E+03  0.50230384975E+03  0.00000000000E+00 0. -1.
         -1   -1    0    0    0  501 -0.00000000000E+00 -0.00000000000E+00 -0.48757008147E+03  0.48757008147E+03  0.00000000000E+00 0.  1.
         23    2    1    2    0    0 -0.14654694118E+03 -0.21924514496E+03 -0.37980308697E+03  0.47916618309E+03  0.12571955529E+03 0.  0.
         23    2    1    2    0    0  0.16996955155E+03  0.14534042601E+03  0.25966900019E+03  0.35514469182E+03  0.93200185528E+02 0.  0.
        -11    1    4    4    0    0  0.59447458382E+02  0.11331001625E+02  0.31043663011E+02  0.68015446180E+02  0.00000000000E+00 0.  1.
         11    1    4    4    0    0  0.11052209317E+03  0.13400942439E+03  0.22862533718E+03  0.28712924564E+03  0.00000000000E+00 0. -1.
        -13    1    3    3    0    0 -0.11131275602E+03 -0.19374729021E+03 -0.22008929783E+03  0.31363647928E+03  0.00000000000E+00 0.  1.
         13    1    3    3    0    0 -0.35234185166E+02 -0.25497854752E+02 -0.15971378914E+03  0.16552970381E+03  0.00000000000E+00 0. -1.
         21    1    1    2  502  501 -0.23422610364E+02  0.73904718944E+02  0.13486785507E+03  0.15556305631E+03  0.00000000000E+00 0.  1.
<scales pt_clust_5="13000.00000" pt_clust_6="13000.00000" pt_clust_7="13000.00000" pt_clust_8="13000.00000" pt_clust_9="77.52758"></scales>
<clustering>
<clus scale="   77.528">  1  9  2 -1</clus>
<clus scale="   93.200">  5  6 -1 -1</clus>
<clus scale="  125.720">  7  8 -1 -1</clus>
<clus scale="  273.484">  1  5  2 -1</clus>
<clus scale="   77.528">  1  5  2 -1</clus>
</clustering>
</event>
<event>
 9    1  0.1296032E-005  0.1508578E+03  0.7546771E-02  0.1199506E+00
          4   -1    0    0  502    0  0.00000000000E+00  0.00000000000E+00  0.97657438271E+03  0.97657438271E+03  0.00000000000E+00 0.  1.
         -4   -1    0    0    0  501 -0.00000000000E+00 -0.00000000000E+00 -0.29752700691E+02  0.29752700691E+02  0.00000000000E+00 0. -1.
         23    2    1    2    0    0  0.13155991633E+03  0.50311553598E+01  0.32119968399E+03  0.35883284767E+03  0.90876022505E+02 0.  0.
         23    2    1    2    0    0 -0.10260005889E+03 -0.61166013660E+01  0.49878503471E+03  0.51738863707E+03  0.91325275945E+02 0.  0.
        -11    1    4    4    0    0 -0.81356222772E+02 -0.10272014206E+02  0.48464422777E+03  0.49153268129E+03  0.00000000000E+00 0.  1.
         11    1    4    4    0    0 -0.21243836115E+02  0.41554128403E+01  0.14140806935E+02  0.25855955785E+02  0.00000000000E+00 0. -1.
        -13    1    3    3    0    0  0.22042038531E+02 -0.55954711330E+01  0.39993332898E+01  0.23090158652E+02  0.00000000000E+00 0.  1.
         13    1    3    3    0    0  0.10951787780E+03  0.10626626493E+02  0.31720035070E+03  0.33574268902E+03  0.00000000000E+00 0. -1.
         21    1    1    2  502  501 -0.28959857445E+02  0.10854460062E+01  0.12683696332E+03  0.13010559865E+03  0.00000000000E+00 0.  1.
<scales pt_clust_5="13000.00000" pt_clust_6="13000.00000" pt_clust_7="13000.00000" pt_clust_8="13000.00000" pt_clust_9="28.98019"></scales>
<clustering>
<clus scale="   28.980">  1  9  2 -1</clus>
<clus scale="   90.876">  7  8 -1 -1</clus>
<clus scale="   91.325">  5  6 -1 -1</clus>
<clus scale="  150.586">  2  7  1 -1</clus>
<clus scale="   28.980">  1  5  2 -1</clus>
</clustering>
</event>
<event>
 9    1  0.1296032E-005  0.1069477E+03  0.7546771E-02  0.1266492E+00
         -1   -1    0    0    0  501 -0.00000000000E+00  0.00000000000E+00  0.57554924167E+02  0.57554924167E+02  0.00000000000E+00 0.  1.
          1   -1    0    0  502    0  0.00000000000E+00 -0.00000000000E+00 -0.30206994550E+03  0.30206994550E+03  0.00000000000E+00 0. -1.
         23    2    1    2    0    0  0.40701462451E+02 -0.43119368270E+02 -0.37822100705E+02  0.11719185353E+03  0.93741827731E+02 0.  0.
         23    2    1    2    0    0 -0.29492928577E+02  0.18589608143E+02 -0.15918395969E+03  0.18780297191E+03  0.93354254678E+02 0.  0.
        -11    1    4    4    0    0 -0.57783153917E+02  0.73595167526E+01 -0.58243739039E+02  0.82373469641E+02  0.00000000000E+00 0. -1.
         11    1    4    4    0    0  0.28290225340E+02  0.11230091391E+02 -0.10094022065E+03  0.10542950226E+03  0.00000000000E+00 0.  1.
        -11    1    3    3    0    0  0.67958851938E+02 -0.47796933211E+02 -0.25447771643E+02  0.86893851696E+02  0.00000000000E+00 0.  1.
         11    1    3    3    0    0 -0.27257389486E+02  0.46775649407E+01 -0.12374329062E+02  0.30298001834E+02  0.00000000000E+00 0. -1.
         21    1    1    2  502  501 -0.11208533874E+02  0.24529760126E+02 -0.47508960937E+02  0.54630044232E+02  0.00000000000E+00 0. -1.
<scales pt_clust_5="13000.00000" pt_clust_6="13000.00000" pt_clust_7="13000.00000" pt_clust_8="13000.00000" pt_clust_9="26.96925"></scales>
<clustering>
<clus scale="   26.969">  2  9  1 -1</clus>
<clus scale="   93.354">  5  6 -1 -1</clus>
<clus scale="   93.742">  7  8 -1 -1</clus>
<clus scale="  106.608">  2  5  1 -1</clus>
<clus scale="   26.969">  2  5  1 -1</clus>
</clustering>
</event>
<event>
 9    1  0.1296032E-005  0.9785137E+02  0.7546771E-02  0.1285206E+00
          1   -1    0    0  502    0  0.00000000000E+00  0.00000000000E+00  0.65103142209E+03  0.65103142209E+03  0.00000000000E+00 0. -1.
         -1   -1    0    0    0  501 -0.00000000000E+00 -0.00000000000E+00 -0.33336742042E+02  0.33336742042E+02  0.00000000000E+00 0.  1.
         23    2    1    2    0    0 -0.34413634207E+02 -0.26778842695E+02  0.92547685431E+02  0.13584712840E+03  0.89375408140E+02 0.  0.
         23    2    1    2    0    0  0.39713763707E+02 -0.27905064926E+02  0.37257151319E+03  0.38635538383E+03  0.90028187224E+02 0.  0.
        -11    1    4    4    0    0 -0.22878319229E+02 -0.26891835117E+00  0.34282139944E+02  0.41215954763E+02  0.00000000000E+00 0.  1.
         11    1    4    4    0    0  0.62592082936E+02 -0.27636146575E+02  0.33828937324E+03  0.34513942906E+03  0.00000000000E+00 0. -1.
        -11    1    3    3    0    0 -0.53067792658E+02 -0.82790813680E+01  0.17745321851E+02  0.56565274272E+02  0.00000000000E+00 0.  1.
         11    1    3    3    0    0  0.18654158450E+02 -0.18499761327E+02  0.74802363580E+02  0.79281854127E+02  0.00000000000E+00 0. -1.
         21    1    1    2  502  501 -0.53001294998E+01  0.54683907621E+02  0.15257548143E+03  0.16216565191E+03  0.00000000000E+00 0. -1.
<scales pt_clust_5="13000.00000" pt_clust_6="13000.00000" pt_clust_7="13000.00000" pt_clust_8="13000.00000" pt_clust_9="54.94016"></scales>
<clustering>
<clus scale="   54.940">  1  9  2 -1</clus>
<clus scale="   89.375">  7  8 -1 -1</clus>
<clus scale="   90.028">  5  6 -1 -1</clus>
<clus scale="   97.251">  2  7  1 -1</clus>
<clus scale="   54.940">  1  5  2 -1</clus>
</clustering>
</event>
<event>
 9    1  0.1296032E-005  0.1799598E+03  0.7546771E-02  0.1167856E+00
         -1   -1    0    0    0  501 -0.00000000000E+00  0.00000000000E+00  0.14722431062E+03  0.14722431062E+03  0.00000000000E+00 0.  1.
          1   -1    0    0  502    0  0.00000000000E+00 -0.00000000000E+00 -0.33999219807E+03  0.33999219807E+03  0.00000000000E+00 0. -1.
         23    2    1    2    0    0 -0.45266004001E+02  0.14253728051E+03 -0.59942179228E+01  0.17617995190E+03  0.92938460007E+02 0.  0.
         23    2    1    2    0    0  0.21990220268E+01 -0.16669566080E+03 -0.11174927795E+03  0.22121978994E+03  0.93048456788E+02 0.  0.
        -11    1    4    4    0    0  0.43676617332E+02 -0.11587876153E+03 -0.85910600929E+02  0.15071882970E+03  0.00000000000E+00 0. -1.
         11    1    4    4    0    0 -0.41477595306E+02 -0.50816899274E+02 -0.25838677017E+02  0.70500960236E+02  0.00000000000E+00 0.  1.
        -13    1    3    3    0    0  0.99525877669E+01  0.71464512689E+02 -0.36870285330E+02  0.81028689471E+02  0.00000000000E+00 0. -1.
         13    1    3    3    0    0 -0.55218591768E+02  0.71072767822E+02  0.30876067407E+02  0.95151262426E+02  0.00000000000E+00 0.  1.
         21    1    1    2  502  501  0.43066981974E+02  0.24158380292E+02 -0.75024391582E+02  0.89816766848E+02  0.00000000000E+00 0.  1.
<scales pt_clust_5="13000.00000" pt_clust_6="13000.00000" pt_clust_7="13000.00000" pt_clust_8="13000.00000" pt_clust_9="49.38008"></scales>
<clustering>
<clus scale="   49.380">  2  9  1 -1</clus>
<clus scale="   92.938">  7  8 -1 -1</clus>
<clus scale="   93.048">  5  6 -1 -1</clus>
<clus scale="  179.903">  1  7  2 -1</clus>
<clus scale="   49.380">  2  5  1 -1</clus>
</clustering>
</event>
<event>
 9    1  0.1296032E-005  0.1134412E+03  0.7546771E-02  0.1263385E+00
          1   -1    0    0  502    0  0.00000000000E+00  0.00000000000E+00  0.22379673857E+03  0.22379673857E+03  0.00000000000E+00 0. -1.
         -1   -1    0    0    0  501 -0.00000000000E+00 -0.00000000000E+00 -0.95329449821E+02  0.95329449821E+02  0.00000000000E+00 0.  1.
         23    2    1    2    0    0 -0.66259802077E+01  0.29681445115E+02  0.48750938309E+01  0.91813487464E+02  0.86493110376E+02 0.  0.
         23    2    1    2    0    0  0.49269345863E+01 -0.51376606239E+02  0.18250252163E+02  0.11974648097E+03  0.10650031760E+03 0.  0.
        -11    1    3    3    0    0  0.28807911772E+02 -0.16486166439E+02 -0.17607544196E+01  0.33238377226E+02  0.00000000000E+00 0.  1.
         11    1    3    3    0    0 -0.35433891979E+02  0.46167611554E+02  0.66358482505E+01  0.58575110238E+02  0.00000000000E+00 0. -1.
        -13    1    4    4    0    0  0.26891965406E+02 -0.85330315867E+01 -0.36956402792E+02  0.46494796900E+02  0.00000000000E+00 0.  1.
         13    1    4    4    0    0 -0.21965030820E+02 -0.42843574652E+02  0.55206654955E+02  0.73251684071E+02  0.00000000000E+00 0. -1.
         21    1    1    2  502  501  0.16990456213E+01  0.21695161123E+02  0.10534194275E+03  0.10756621995E+03  0.00000000000E+00 0. -1.
<scales pt_clust_5="13000.00000" pt_clust_6="13000.00000" pt_clust_7="13000.00000" pt_clust_8="13000.00000" pt_clust_9="21.76159"></scales>
<clustering>
<clus scale="   21.762">  1  9  2 -1</clus>
<clus scale="   86.493">  5  6 -1 -1</clus>
<clus scale="   94.909">  2  5  1 -1</clus>
<clus scale="  106.500">  7  8 -1 -1</clus>
<clus scale="   21.762">  1  5  2 -1</clus>
</clustering>
</event>
<event>
 9    1  0.1296032E-005  0.1058085E+03  0.7546771E-02  0.1268643E+00
         -1   -1    0    0    0  501 -0.00000000000E+00  0.00000000000E+00  0.30168775493E+03  0.30168775493E+03  0.00000000000E+00 0.  1.
          1   -1    0    0  502    0  0.00000000000E+00 -0.00000000000E+00 -0.61140512952E+02  0.61140512952E+02  0.00000000000E+00 0. -1.
         23    2    1    2    0    0 -0.37822231247E+02 -0.49161286355E+02  0.18083787933E+03  0.21186879819E+03  0.91316459588E+02 0.  0.
         23    2    1    2    0    0  0.16292121784E+02  0.35343601691E+02  0.71764095951E+02  0.12267890007E+03  0.91571958816E+02 0.  0.
        -11    1    3    3    0    0 -0.14122750778E+00  0.25412556591E+02  0.57831376913E+02  0.63168711664E+02  0.00000000000E+00 0. -1.
         11    1    3    3    0    0 -0.37681003739E+02 -0.74573842947E+02  0.12300650242E+03  0.14870008652E+03  0.00000000000E+00 0.  1.
        -13    1    4    4    0    0  0.69007394828E+01 -0.20357662351E+02  0.61654176557E+02  0.65293890286E+02  0.00000000000E+00 0.  1.
         13    1    4    4    0    0  0.93913823009E+01  0.55701264042E+02  0.10109919394E+02  0.57385009781E+02  0.00000000000E+00 0. -1.
         21    1    1    2  502  501  0.21530109463E+02  0.13817684664E+02 -0.12054733310E+02  0.28280569622E+02  0.00000000000E+00 0. -1.
<scales pt_clust_5="13000.00000" pt_clust_6="13000.00000" pt_clust_7="13000.00000" pt_clust_8="13000.00000" pt_clust_9="25.58269"></scales>
<clustering>
<clus scale="   25.583">  2  9  1 -1</clus>
<clus scale="   91.316">  5  6 -1 -1</clus>
<clus scale="   91.572">  7  8 -1 -1</clus>
<clus scale="  105.587">  1  5  2 -1</clus>
<clus scale="   25.583">  2  5  1 -1</clus>
</clustering>
</event>
<event>
 9    1  0.1296032E-005  0.1197429E+03  0.7546771E-02  0.1244173E+00
         -1   -1    0    0    0  501 -0.00000000000E+00  0.00000000000E+00  0.85436554780E+03  0.85436554780E+03  0.00000000000E+00 0.  1.
          1   -1    0    0  502    0  0.00000000000E+00 -0.00000000000E+00 -0.23806707750E+02  0.23806707750E+02  0.00000000000E+00 0. -1.
         23    2    1    2    0    0  0.19541014038E+02  0.66663069549E+02  0.43953511874E+03  0.45427500473E+03  0.91372004750E+02 0.  0.
         23    2    1    2    0    0 -0.37854085813E+02 -0.80568417514E+02  0.37561731161E+03  0.39621901461E+03  0.89313722565E+02 0.  0.
        -13    1    3    3    0    0  0.50225397416E+02  0.57855437972E+02  0.36873869784E+03  0.37661395292E+03  0.00000000000E+00 0.  1.
         13    1    3    3    0    0 -0.30684383378E+02  0.88076315768E+01  0.70796420897E+02  0.77661051816E+02  0.00000000000E+00 0. -1.
        -13    1    4    4    0    0 -0.63494544526E+02 -0.66527197677E+02  0.23015407742E+03  0.24784738161E+03  0.00000000000E+00 0. -1.
         13    1    4    4    0    0  0.25640458713E+02 -0.14041219837E+02  0.14546323419E+03  0.14837163300E+03  0.00000000000E+00 0.  1.
         21    1    1    2  502  501  0.18313071775E+02  0.13905347965E+02  0.15406409700E+02  0.27678236210E+02  0.00000000000E+00 0. -1.
<scales pt_clust_5="13000.00000" pt_clust_6="13000.00000" pt_clust_7="13000.00000" pt_clust_8="13000.00000" pt_clust_9="22.99407"></scales>
<clustering>
<clus scale="   22.994">  2  9  1 -1</clus>
<clus scale="   89.314">  7  8 -1 -1</clus>
<clus scale="   91.372">  5  6 -1 -1</clus>
<clus scale="  118.180">  2  7  1 -1</clus>
<clus scale="   22.994">  2  5  1 -1</clus>
</clustering>
</event>
<event>
 9    1  0.1296032E-005  0.1070694E+03  0.7546771E-02  0.1267199E+00
          1   -1    0    0  502    0  0.00000000000E+00  0.00000000000E+00  0.33801475095E+03  0.33801475095E+03  0.00000000000E+00 0. -1.
         -1   -1    0    0    0  501 -0.00000000000E+00 -0.00000000000E+00 -0.66737883794E+02  0.66737883794E+02  0.00000000000E+00 0.  1.
         23    2    1    2    0    0  0.55233134303E+02 -0.40656361647E+02  0.35597963837E+02  0.12001959683E+03  0.91835993633E+02 0.  0.
         23    2    1    2    0    0 -0.26302510435E+02 -0.11859175537E+02  0.13015854204E+03  0.16336826013E+03  0.94421820843E+02 0.  0.
        -11    1    3    3    0    0 -0.18409845956E+02  0.95260798088E+01  0.21377001873E+02  0.29776581969E+02  0.00000000000E+00 0. -1.
         11    1    3    3    0    0  0.73642980259E+02 -0.50182441456E+02  0.14220961963E+02  0.90243014860E+02  0.00000000000E+00 0.  1.
        -13    1    4    4    0    0  0.27374467859E+02  0.21663054409E+02  0.54632057780E+02  0.64832948060E+02  0.00000000000E+00 0.  1.
         13    1    4    4    0    0 -0.53676978294E+02 -0.33522229946E+02  0.75526484259E+02  0.98535312065E+02  0.00000000000E+00 0. -1.
         21    1    1    2  502  501 -0.28930623868E+02  0.52515537184E+02  0.10552036128E+03  0.12136477779E+03  0.00000000000E+00 0. -1.
<scales pt_clust_5="13000.00000" pt_clust_6="13000.00000" pt_clust_7="13000.00000" pt_clust_8="13000.00000" pt_clust_9="59.95717"></scales>
<clustering>
<clus scale="   59.957">  1  9  2 -1</clus>
<clus scale="   91.836">  5  6 -1 -1</clus>
<clus scale="   94.422">  7  8 -1 -1</clus>
<clus scale="  104.796">  2  5  1 -1</clus>
<clus scale="   59.957">  1  5  2 -1</clus>
</clustering>
</event>
<event>
 9    1  0.1296032E-005  0.1008468E+03  0.7546771E-02  0.1282818E+00
          4   -1    0    0  502    0  0.00000000000E+00  0.00000000000E+00  0.73641548749E+02  0.73641548749E+02  0.00000000000E+00 0. -1.
         -4   -1    0    0    0  501 -0.00000000000E+00 -0.00000000000E+00 -0.29914505065E+03  0.29914505065E+03  0.00000000000E+00 0.  1.
         23    2    1    2    0    0 -0.10650981521E+02  0.16389896063E+02 -0.22349723910E+03  0.24547720822E+03  0.99629171278E+02 0.  0.
         23    2    1    2    0    0  0.16026611267E+02  0.15835627667E+02  0.21437523246E+01  0.94376058517E+02  0.91622188223E+02 0.  0.
        -11    1    4    4    0    0 -0.22329121720E+02  0.39178183655E+02 -0.13099760901E+02  0.46958742391E+02  0.00000000000E+00 0.  1.
         11    1    4    4    0    0  0.38355732988E+02 -0.23342555988E+02  0.15243513225E+02  0.47417316125E+02  0.00000000000E+00 0. -1.
        -13    1    3    3    0    0 -0.33100318538E+02 -0.30537755848E+02 -0.68456962906E+02  0.81942305251E+02  0.00000000000E+00 0. -1.
         13    1    3    3    0    0  0.22449337018E+02  0.46927651911E+02 -0.15504027620E+03  0.16353490297E+03  0.00000000000E+00 0.  1.
         21    1    1    2  502  501 -0.53756297467E+01 -0.32225523730E+02 -0.41500151271E+01  0.32933332665E+02  0.00000000000E+00 0. -1.
<scales pt_clust_5="13000.00000" pt_clust_6="13000.00000" pt_clust_7="13000.00000" pt_clust_8="13000.00000" pt_clust_9="32.67081"></scales>
<clustering>
<clus scale="   32.671">  1  9  2 -1</clus>
<clus scale="   91.622">  5  6 -1 -1</clus>
<clus scale="   92.945">  1  5  2 -1</clus>
<clus scale="   99.629">  7  8 -1 -1</clus>
<clus scale="   32.671">  1  5  2 -1</clus>
</clustering>
</event>
<event>
 9    1  0.1296032E-005  0.1039358E+03  0.7546771E-02  0.1272629E+00
         -3   -1    0    0    0  501 -0.00000000000E+00  0.00000000000E+00  0.97929640038E+02  0.97929640038E+02  0.00000000000E+00 0.  1.
          3   -1    0    0  502    0  0.00000000000E+00 -0.00000000000E+00 -0.25610428627E+03  0.25610428627E+03  0.00000000000E+00 0. -1.
         23    2    1    2    0    0 -0.66942168627E+02  0.24160255420E+02  0.18598451006E+01  0.11499346893E+03  0.90305409533E+02 0.  0.
         23    2    1    2    0    0  0.26863784782E+02 -0.14100967552E+02 -0.24754570926E+02  0.97590384949E+02  0.89390123806E+02 0.  0.
        -11    1    3    3    0    0 -0.59538150678E+02 -0.24020839477E+02 -0.96077243715E+01  0.64916103418E+02  0.00000000000E+00 0.  1.
         11    1    3    3    0    0 -0.74040179491E+01  0.48181094898E+02  0.11467569472E+02  0.50077365515E+02  0.00000000000E+00 0. -1.
        -11    1    4    4    0    0  0.48072200079E+02 -0.38578256646E+02 -0.12074244121E+02  0.62809280185E+02  0.00000000000E+00 0. -1.
         11    1    4    4    0    0 -0.21208415297E+02  0.24477289093E+02 -0.12680326804E+02  0.34781104764E+02  0.00000000000E+00 0.  1.
         21    1    1    2  502  501  0.40078383846E+02 -0.10059287868E+02 -0.13527992040E+03  0.14145007242E+03  0.00000000000E+00 0. -1.
<scales pt_clust_5="13000.00000" pt_clust_6="13000.00000" pt_clust_7="13000.00000" pt_clust_8="13000.00000" pt_clust_9="41.32150"></scales>
<clustering>
<clus scale="   41.321">  2  9  1 -1</clus>
<clus scale="   89.390">  7  8 -1 -1</clus>
<clus scale="   90.305">  5  6 -1 -1</clus>
<clus scale="  103.142">  2  7  1 -1</clus>
<clus scale="   41.321">  2  5  1 -1</clus>
</clustering>
</event>
<event>
 9    1  0.1296032E-005  0.1143021E+03  0.7546771E-02  0.1252867E+00
         -1   -1    0    0    0  501 -0.00000000000E+00  0.00000000000E+00  0.56726373141E+03  0.56726373141E+03  0.00000000000E+00 0.  1.
          1   -1    0    0  502    0  0.00000000000E+00 -0.00000000000E+00 -0.62938599719E+02  0.62938599719E+02  0.00000000000E+00 0. -1.
         23    2    1    2    0    0 -0.64570311915E+02 -0.32246500415E+02  0.48342545931E+03  0.49714359201E+03  0.90787743652E+02 0.  0.
         23    2    1    2    0    0  0.39407850503E+02  0.37078233250E+02  0.20055587395E+02  0.10742267886E+03  0.90607015648E+02 0.  0.
        -11    1    3    3    0    0 -0.87376722642E+02 -0.24706547270E+02  0.35085649116E+03  0.36241603514E+03  0.00000000000E+00 0.  1.
         11    1    3    3    0    0  0.22806410727E+02 -0.75399531453E+01  0.13256896815E+03  0.13472755687E+03  0.00000000000E+00 0. -1.
        -13    1    4    4    0    0 -0.25632599548E+02  0.87964800177E+01 -0.11943158415E+02  0.29614983593E+02  0.00000000000E+00 0. -1.
         13    1    4    4    0    0  0.65040450051E+02  0.28281753233E+02  0.31998745810E+02  0.77807695263E+02  0.00000000000E+00 0.  1.
         21    1    1    2  502  501  0.25162461412E+02 -0.48317328354E+01  0.84408498940E+00  0.25636060266E+02  0.00000000000E+00 0. -1.
<scales pt_clust_5="13000.00000" pt_clust_6="13000.00000" pt_clust_7="13000.00000" pt_clust_8="13000.00000" pt_clust_9="25.62216"></scales>
<clustering>
<clus scale="   25.622">  2  9  1 -1</clus>
<clus scale="   90.607">  7  8 -1 -1</clus>
<clus scale="   90.788">  5  6 -1 -1</clus>
<clus scale="  114.159">  2  7  1 -1</clus>
<clus scale="   25.622">  2  5  1 -1</clus>
</clustering>
</event>
<event>
 9    1  0.1296032E-005  0.9716187E+02  0.7546771E-02  0.1287731E+00
          3   -1    0    0  502    0  0.00000000000E+00  0.00000000000E+00  0.33248094802E+02  0.33248094802E+02  0.00000000000E+00 0. -1.
         -3   -1    0    0    0  501 -0.00000000000E+00 -0.00000000000E+00 -0.43767956594E+03  0.43767956594E+03  0.00000000000E+00 0.  1.
         23    2    1    2    0    0  0.15806210152E+02  0.19272567963E+02 -0.21443577832E+03  0.23390998098E+03  0.90055027752E+02 0.  0.
         23    2    1    2    0    0 -0.19932314052E+02 -0.50562794729E+02 -0.17264178142E+03  0.20100016645E+03  0.87418469832E+02 0.  0.
        -11    1    3    3    0    0  0.13061805809E+02  0.52647731136E+02 -0.16882776050E+03  0.17732796474E+03  0.00000000000E+00 0.  1.
         11    1    3    3    0    0  0.27444043430E+01 -0.33375163173E+02 -0.45608017821E+02  0.56582016238E+02  0.00000000000E+00 0. -1.
        -11    1    4    4    0    0 -0.53103244442E+02 -0.19737695310E+02 -0.81866020735E+02  0.99556901003E+02  0.00000000000E+00 0. -1.
         11    1    4    4    0    0  0.33170930390E+02 -0.30825099418E+02 -0.90775760684E+02  0.10144326545E+03  0.00000000000E+00 0.  1.
         21    1    1    2  502  501  0.41261039000E+01  0.31290226765E+02 -0.17353911406E+02  0.36017513317E+02  0.00000000000E+00 0.  1.
<scales pt_clust_5="13000.00000" pt_clust_6="13000.00000" pt_clust_7="13000.00000" pt_clust_8="13000.00000" pt_clust_9="31.56110"></scales>
<clustering>
<clus scale="   31.561">  1  9  2 -1</clus>
<clus scale="   87.418">  7  8 -1 -1</clus>
<clus scale="   90.055">  5  6 -1 -1</clus>
<clus scale="   94.723">  1  7  2 -1</clus>
<clus scale="   31.561">  1  5  2 -1</clus>
</clustering>
</event>
<event>
 9    1  0.1296032E-005  0.9536365E+02  0.7546771E-02  0.1290466E+00
         -1   -1    0    0    0  501 -0.00000000000E+00  0.00000000000E+00  0.16910387984E+03  0.16910387984E+03  0.00000000000E+00 0.  1.
          1   -1    0    0  502    0  0.00000000000E+00 -0.00000000000E+00 -0.14611939802E+03  0.14611939802E+03  0.00000000000E+00 0. -1.
         23    2    1    2    0    0  0.25152639531E+02  0.23163105727E+02  0.11287556004E+03  0.14853415188E+03  0.90290184842E+02 0.  0.
         23    2    1    2    0    0 -0.28587657719E+02  0.79426142524E+01 -0.30629780213E+02  0.99672213132E+02  0.90088996774E+02 0.  0.
        -11    1    3    3    0    0 -0.97779635388E+01 -0.29209591793E+02  0.54908307083E+02  0.62958168734E+02  0.00000000000E+00 0. -1.
         11    1    3    3    0    0  0.34930603069E+02  0.52372697520E+02  0.57967252957E+02  0.85575983147E+02  0.00000000000E+00 0.  1.
        -13    1    4    4    0    0 -0.14282800899E+02 -0.23158186289E+02 -0.52442470760E+02  0.59080561381E+02  0.00000000000E+00 0. -1.
         13    1    4    4    0    0 -0.14304856820E+02  0.31100800541E+02  0.21812690547E+02  0.40591651751E+02  0.00000000000E+00 0.  1.
         21    1    1    2  502  501  0.34350181887E+01 -0.31105719979E+02 -0.59261298012E+02  0.67016912846E+02  0.00000000000E+00 0. -1.
<scales pt_clust_5="13000.00000" pt_clust_6="13000.00000" pt_clust_7="13000.00000" pt_clust_8="13000.00000" pt_clust_9="31.29481"></scales>
<clustering>
<clus scale="   31.295">  2  9  1 -1</clus>
<clus scale="   90.089">  7  8 -1 -1</clus>
<clus scale="   90.290">  5  6 -1 -1</clus>
<clus scale="   95.173">  2  7  1 -1</clus>
<clus scale="   31.295">  2  5  1 -1</clus>
</clustering>
</event>
<event>
 9    1  0.1296032E-005  0.9891508E+02  0.7546771E-02  0.1283733E+00
          2   -1    0    0  502    0  0.00000000000E+00  0.00000000000E+00  0.20864746536E+03  0.20864746536E+03  0.00000000000E+00 0. -1.
         -2   -1    0    0    0  501 -0.00000000000E+00 -0.00000000000E+00 -0.73944976966E+02  0.73944976966E+02  0.00000000000E+00 0.  1.
         23    2    1    2    0    0  0.74422158369E+01  0.39028211947E+02  0.13321689124E-01  0.10169077780E+03  0.93607831975E+02 0.  0.
         23    2    1    2    0    0  0.55548810263E+01 -0.14143099390E+02  0.10576199475E+03  0.14059069045E+03  0.91374278351E+02 0.  0.
        -11    1    3    3    0    0 -0.26821422616E+02 -0.14740349325E+01 -0.30378065013E+02  0.40551058236E+02  0.00000000000E+00 0. -1.
         11    1    3    3    0    0  0.34263638453E+02  0.40502246879E+02  0.30391386702E+02  0.61139719561E+02  0.00000000000E+00 0.  1.
        -11    1    4    4    0    0 -0.62199459765E+00 -0.44631403701E+02  0.19165614591E+02  0.48576433136E+02  0.00000000000E+00 0.  1.
         11    1    4    4    0    0  0.61768756240E+01  0.30488304311E+02  0.86596380164E+02  0.92014257317E+02  0.00000000000E+00 0. -1.
         21    1    1    2  502  501 -0.12997096863E+02 -0.24885112557E+02  0.28927171949E+02  0.40310974075E+02  0.00000000000E+00 0.  1.
<scales pt_clust_5="13000.00000" pt_clust_6="13000.00000" pt_clust_7="13000.00000" pt_clust_8="13000.00000" pt_clust_9="28.07478"></scales>
<clustering>
<clus scale="   28.075">  1  9  2 -1</clus>
<clus scale="   91.374">  7  8 -1 -1</clus>
<clus scale="   93.608">  5  6 -1 -1</clus>
<clus scale="   96.804">  1  7  2 -1</clus>
<clus scale="   28.075">  1  5  2 -1</clus>
</clustering>
</event>
<event>
 9    1  0.1296032E-005  0.3042574E+03  0.7546771E-02  0.1083143E+00
         -2   -1    0    0    0  501 -0.00000000000E+00  0.00000000000E+00  0.29985008693E+03  0.29985008693E+03  0.00000000000E+00 0.  1.
          2   -1    0    0  502    0  0.00000000000E+00 -0.00000000000E+00 -0.94037813901E+03  0.94037813901E+03  0.00000000000E+00 0. -1.
         23    2    1    2    0    0  0.29215968755E+03  0.14667661726E+03  0.14572841515E+03  0.36946061898E+03  0.91613672095E+02 0.  0.
         23    2    1    2    0    0 -0.13890773020E+03 -0.11448944077E+03 -0.31587957373E+03  0.37500899765E+03  0.91916558127E+02 0.  0.
        -11    1    4    4    0    0 -0.11767951435E+03 -0.46203371485E+02 -0.16343679896E+03  0.20662721720E+03  0.00000000000E+00 0.  1.
         11    1    4    4    0    0 -0.21228215858E+02 -0.68286069286E+02 -0.15244277477E+03  0.16838178045E+03  0.00000000000E+00 0. -1.
        -13    1    3    3    0    0  0.24779831162E+03  0.15640168746E+03  0.13583392913E+03  0.32298041331E+03  0.00000000000E+00 0.  1.
         13    1    3    3    0    0  0.44361375936E+02 -0.97250702032E+01  0.98944860222E+01  0.46480205669E+02  0.00000000000E+00 0. -1.
         21    1    1    2  502  501 -0.15325195735E+03 -0.32187176488E+02 -0.47037689350E+03  0.49575860931E+03  0.00000000000E+00 0. -1.
<scales pt_clust_5="13000.00000" pt_clust_6="13000.00000" pt_clust_7="13000.00000" pt_clust_8="13000.00000" pt_clust_9="156.59558"></scales>
<clustering>
<clus scale="   91.614">  7  8 -1 -1</clus>
<clus scale="   91.917">  5  6 -1 -1</clus>
<clus scale="  156.596">  2  9  1 -1</clus>
<clus scale="  304.166">  1  7  2 -1</clus>
<clus scale="  156.596">  2  5  1 -1</clus>
</clustering>
</event>
<event>
 9    1  0.1296032E-005  0.1095736E+03  0.7546771E-02  0.1261857E+00
          1   -1    0    0  502    0  0.00000000000E+00  0.00000000000E+00  0.34555410847E+03  0.34555410847E+03  0.00000000000E+00 0. -1.
         -1   -1    0    0    0  501 -0.00000000000E+00 -0.00000000000E+00 -0.14488885830E+03  0.14488885830E+03  0.00000000000E+00 0.  1.
         23    2    1    2    0    0  0.12146560432E+02  0.83674056306E+02 -0.89631520957E+02  0.15323106115E+03  0.91088209566E+02 0.  0.
         23    2    1    2    0    0 -0.25018089091E+02 -0.51373538901E+02  0.28094855754E+03  0.30120650642E+03  0.92347832907E+02 0.  0.
        -11    1    4    4    0    0 -0.44869774452E+02 -0.15643095809E+02  0.23479424344E+03  0.23955446115E+03  0.00000000000E+00 0. -1.
         11    1    4    4    0    0  0.19851685361E+02 -0.35730443092E+02  0.46154314106E+02  0.61652045269E+02  0.00000000000E+00 0.  1.
        -13    1    3    3    0    0 -0.16234011080E+02  0.41931671049E+02  0.57361245488E+01  0.45328923190E+02  0.00000000000E+00 0. -1.
         13    1    3    3    0    0  0.28380571512E+02  0.41742385257E+02 -0.95367645506E+02  0.10790213796E+03  0.00000000000E+00 0.  1.
         21    1    1    2  502  501  0.12871528659E+02 -0.32300517405E+02  0.93482135853E+01  0.36005399204E+02  0.00000000000E+00 0. -1.
<scales pt_clust_5="13000.00000" pt_clust_6="13000.00000" pt_clust_7="13000.00000" pt_clust_8="13000.00000" pt_clust_9="34.77067"></scales>
<clustering>
<clus scale="   34.771">  2  9  1 -1</clus>
<clus scale="   91.088">  7  8 -1 -1</clus>
<clus scale="   92.348">  5  6 -1 -1</clus>
<clus scale="  108.514">  2  7  1 -1</clus>
<clus scale="  109.574">  1  5  2 -1</clus>
</clustering>
</event>
<event>
 9    1  0.1296032E-005  0.1173588E+03  0.7546771E-02  0.1247522E+00
          3   -1    0    0  502    0  0.00000000000E+00  0.00000000000E+00  0.13947462679E+03  0.13947462679E+03  0.00000000000E+00 0. -1.
         -3   -1    0    0    0  501 -0.00000000000E+00 -0.00000000000E+00 -0.18452910773E+03  0.18452910773E+03  0.00000000000E+00 0.  1.
         23    2    1    2    0    0 -0.37906864160E+02  0.58191892398E+02 -0.96726292211E+02  0.15063197286E+03  0.92253937331E+02 0.  0.
         23    2    1    2    0    0  0.28032106965E+02 -0.76341759982E+02  0.58585375523E+01  0.12311457738E+03  0.92244313448E+02 0.  0.
        -11    1    4    4    0    0  0.26437384186E+02 -0.47712882680E+02 -0.40959505207E+02  0.68213895381E+02  0.00000000000E+00 0.  1.
         11    1    4    4    0    0  0.15947227797E+01 -0.28628877302E+02  0.46818042759E+02  0.54900682001E+02  0.00000000000E+00 0. -1.
        -13    1    3    3    0    0  0.18004433787E+02  0.55399682326E+02 -0.38297742965E+02  0.69713711378E+02  0.00000000000E+00 0. -1.
         13    1    3    3    0    0 -0.55911297947E+02  0.27922100715E+01 -0.58428549245E+02  0.80918261487E+02  0.00000000000E+00 0.  1.
         21    1    1    2  502  501  0.98747571948E+01  0.18149867585E+02  0.45813273715E+02  0.50257184277E+02  0.00000000000E+00 0. -1.
<scales pt_clust_5="13000.00000" pt_clust_6="13000.00000" pt_clust_7="13000.00000" pt_clust_8="13000.00000" pt_clust_9="20.66225"></scales>
<clustering>
<clus scale="   20.662">  1  9  2 -1</clus>
<clus scale="   92.244">  5  6 -1 -1</clus>
<clus scale="   92.254">  7  8 -1 -1</clus>
<clus scale="  117.351">  1  5  2 -1</clus>
<clus scale="   20.662">  1  5  2 -1</clus>
</clustering>
</event>
<event>
 9    1  0.1296032E-005  0.1078781E+03  0.7546771E-02  0.1264803E+00
          2   -1    0    0  502    0  0.00000000000E+00  0.00000000000E+00  0.84784495291E+03  0.84784495291E+03  0.00000000000E+00 0. -1.
         -2   -1    0    0    0  501 -0.00000000000E+00 -0.00000000000E+00 -0.48164069522E+02  0.48164069522E+02  0.00000000000E+00 0.  1.
         23    2    1    2    0    0 -0.52044173095E+02 -0.14601369916E+02  0.28666851210E+02  0.11095573858E+03  0.92561285690E+02 0.  0.
         23    2    1    2    0    0  0.70421044473E+02 -0.84370567139E+01  0.55327527359E+03  0.56532926265E+03  0.91942043750E+02 0.  0.
        -13    1    3    3    0    0 -0.15122823563E+02  0.13156018718E+02 -0.30127654866E+02  0.36186409172E+02  0.00000000000E+00 0.  1.
         13    1    3    3    0    0 -0.36921349532E+02 -0.27757388634E+02  0.58794506076E+02  0.74769329406E+02  0.00000000000E+00 0. -1.
        -13    1    4    4    0    0  0.48622514031E+02  0.39722570649E+02  0.32550026414E+03  0.33150030686E+03  0.00000000000E+00 0. -1.
         13    1    4    4    0    0  0.21798530441E+02 -0.48159627363E+02  0.22777500945E+03  0.23382895579E+03  0.00000000000E+00 0.  1.
         21    1    1    2  502  501 -0.18376871378E+02  0.23038426630E+02  0.21773875859E+03  0.21972402121E+03  0.00000000000E+00 0. -1.
<scales pt_clust_5="13000.00000" pt_clust_6="13000.00000" pt_clust_7="13000.00000" pt_clust_8="13000.00000" pt_clust_9="29.46996"></scales>
<clustering>
<clus scale="   29.470">  1  9  2 -1</clus>
<clus scale="   91.942">  7  8 -1 -1</clus>
<clus scale="   92.561">  5  6 -1 -1</clus>
<clus scale="  107.347">  1  7  2 -1</clus>
<clus scale="   29.470">  1  5  2 -1</clus>
</clustering>
</event>
<event>
 9    1  0.1296032E-005  0.1355073E+03  0.7546771E-02  0.1219560E+00
          1   -1    0    0  502    0  0.00000000000E+00  0.00000000000E+00  0.99622886827E+03  0.99622886827E+03  0.00000000000E+00 0. -1.
         -1   -1    0    0    0  501 -0.00000000000E+00 -0.00000000000E+00 -0.26879712245E+02  0.26879712245E+02  0.00000000000E+00 0.  1.
         23    2    1    2    0    0 -0.28592044060E+02  0.93213680257E+02  0.31386934419E+03  0.34104686000E+03  0.91064264813E+02 0.  0.
         23    2    1    2    0    0 -0.10722967925E+02 -0.10783106194E+03  0.43091160716E+03  0.45360993881E+03  0.91294268360E+02 0.  0.
        -11    1    3    3    0    0 -0.35774556013E+02  0.18362814453E+02  0.38778085925E+02  0.55863689106E+02  0.00000000000E+00 0. -1.
         11    1    3    3    0    0  0.71825119534E+01  0.74850865804E+02  0.27509125826E+03  0.28518317089E+03  0.00000000000E+00 0.  1.
        -11    1    4    4    0    0 -0.33510230576E+02 -0.51899719715E+02  0.10239471648E+03  0.11958760146E+03  0.00000000000E+00 0.  1.
         11    1    4    4    0    0  0.22787262652E+02 -0.55931342221E+02  0.32851689068E+03  0.33402233735E+03  0.00000000000E+00 0. -1.
         21    1    1    2  502  501  0.39315011984E+02  0.14617381678E+02  0.22456820468E+03  0.22845178171E+03  0.00000000000E+00 0.  1.
<scales pt_clust_5="13000.00000" pt_clust_6="13000.00000" pt_clust_7="13000.00000" pt_clust_8="13000.00000" pt_clust_9="41.94446"></scales>
<clustering>
<clus scale="   41.944">  1  9  2 -1</clus>
<clus scale="   91.064">  5  6 -1 -1</clus>
<clus scale="   91.294">  7  8 -1 -1</clus>
<clus scale="  135.352">  2  5  1 -1</clus>
<clus scale="   41.944">  1  5  2 -1</clus>
</clustering>
</event>
<event>
 9    1  0.1296032E-005  0.1007384E+03  0.7546771E-02  0.1278940E+00
          2   -1    0    0  502    0  0.00000000000E+00  0.00000000000E+00  0.29105463216E+03  0.29105463216E+03  0.00000000000E+00 0. -1.
         -2   -1    0    0    0  501 -0.00000000000E+00 -0.00000000000E+00 -0.54360667384E+02  0.54360667384E+02  0.00000000000E+00 0.  1.
         23    2    1    2    0    0  0.19345066521E+02  0.26388619286E+02  0.45196811383E+02  0.10736236307E+03  0.91724230262E+02 0.  0.
         23    2    1    2    0    0 -0.42123430830E+02 -0.36667256710E+02  0.11499311187E+03  0.15757081028E+03  0.92120971203E+02 0.  0.
        -11    1    3    3    0    0 -0.30990509840E+02  0.24473933135E+02 -0.29278046494E+00  0.39490135776E+02  0.00000000000E+00 0.  1.
         11    1    3    3    0    0  0.50335576361E+02  0.19146861512E+01  0.45489591848E+02  0.67872227289E+02  0.00000000000E+00 0. -1.
        -11    1    4    4    0    0 -0.60870788777E+02 -0.70406886263E+01  0.10420908747E+03  0.12088985952E+03  0.00000000000E+00 0.  1.
         11    1    4    4    0    0  0.18747357947E+02 -0.29626568084E+02  0.10784024394E+02  0.36680950759E+02  0.00000000000E+00 0. -1.
         21    1    1    2  502  501  0.22778364308E+02  0.10278637424E+02  0.76504041525E+02  0.80482126199E+02  0.00000000000E+00 0. -1.
<scales pt_clust_5="13000.00000" pt_clust_6="13000.00000" pt_clust_7="13000.00000" pt_clust_8="13000.00000" pt_clust_9="24.99008"></scales>
<clustering>
<clus scale="   24.990">  1  9  2 -1</clus>
<clus scale="   91.724">  5  6 -1 -1</clus>
<clus scale="   92.121">  7  8 -1 -1</clus>
<clus scale="  100.376">  2  5  1 -1</clus>
<clus scale="   24.990">  1  5  2 -1</clus>
</clustering>
</event>
<event>
 9    1  0.1296032E-005  0.2299317E+03  0.7546771E-02  0.1126789E+00
          1   -1    0    0  502    0  0.00000000000E+00  0.00000000000E+00  0.91829982811E+03  0.91829982811E+03  0.00000000000E+00 0. -1.
         -1   -1    0    0    0  501 -0.00000000000E+00 -0.00000000000E+00 -0.92361391794E+02  0.92361391794E+02  0.00000000000E+00 0.  1.
         23    2    1    2    0    0  0.72185576051E+02 -0.19429878351E+03  0.12707648357E+03  0.25994090800E+03  0.91967756913E+02 0.  0.
         23    2    1    2    0    0 -0.59898855412E+02  0.21323244689E+03  0.54498312851E+03  0.59519494529E+03  0.90523274640E+02 0.  0.
        -13    1    3    3    0    0 -0.22299217280E+02 -0.36876752304E+02  0.21706691567E+02  0.48252776195E+02  0.00000000000E+00 0.  1.
         13    1    3    3    0    0  0.94484793330E+02 -0.15742203121E+03  0.10536979201E+03  0.21168813181E+03  0.00000000000E+00 0. -1.
        -13    1    4    4    0    0  0.22617770766E+02  0.33098321724E+02  0.11417787372E+03  0.12101094703E+03  0.00000000000E+00 0. -1.
         13    1    4    4    0    0 -0.82516626178E+02  0.18013412517E+03  0.43080525479E+03  0.47418399825E+03  0.00000000000E+00 0.  1.
         21    1    1    2  502  501 -0.12286720639E+02 -0.18933663383E+02  0.15387882424E+03  0.15552536662E+03  0.00000000000E+00 0.  1.
<scales pt_clust_5="13000.00000" pt_clust_6="13000.00000" pt_clust_7="13000.00000" pt_clust_8="13000.00000" pt_clust_9="22.57094"></scales>
<clustering>
<clus scale="   22.571">  1  9  2 -1</clus>
<clus scale="   90.523">  7  8 -1 -1</clus>
<clus scale="   91.968">  5  6 -1 -1</clus>
<clus scale="  229.358">  1  7  2 -1</clus>
<clus scale="   22.571">  1  5  2 -1</clus>
</clustering>
</event>
<event>
 9    1  0.1296032E-005  0.2774112E+03  0.7546771E-02  0.1097269E+00
         -2   -1    0    0    0  501 -0.00000000000E+00  0.00000000000E+00  0.49247715884E+03  0.49247715884E+03  0.00000000000E+00 0.  1.
          2   -1    0    0  502    0  0.00000000000E+00 -0.00000000000E+00 -0.70278962573E+03  0.70278962573E+03  0.00000000000E+00 0. -1.
         23    2    1    2    0    0 -0.19101410061E+03  0.17805279723E+03  0.41082524970E+03  0.49552059301E+03  0.92596366392E+02 0.  0.
         23    2    1    2    0    0  0.18149983356E+03 -0.19703845314E+03 -0.61640962381E+03  0.67799001383E+03  0.89125153247E+02 0.  0.
        -11    1    4    4    0    0  0.24774963015E+02 -0.85700927558E+02 -0.22086298354E+03  0.23819929738E+03  0.00000000000E+00 0.  1.
         11    1    4    4    0    0  0.15672487054E+03 -0.11133752558E+03 -0.39554664027E+03  0.43979071645E+03  0.00000000000E+00 0. -1.
        -13    1    3    3    0    0 -0.16446047082E+03  0.10151453672E+03  0.25579215513E+03  0.32059643519E+03  0.00000000000E+00 0.  1.
         13    1    3    3    0    0 -0.26553629788E+02  0.76538260516E+02  0.15503309457E+03  0.17492415782E+03  0.00000000000E+00 0. -1.
         21    1    1    2  502  501  0.95142670529E+01  0.18985655907E+02 -0.47280927896E+01  0.21756177725E+02  0.00000000000E+00 0.  1.
<scales pt_clust_5="13000.00000" pt_clust_6="13000.00000" pt_clust_7="13000.00000" pt_clust_8="13000.00000" pt_clust_9="21.23621"></scales>
<clustering>
<clus scale="   21.236">  2  9  1 -1</clus>
<clus scale="   89.125">  5  6 -1 -1</clus>
<clus scale="   92.596">  7  8 -1 -1</clus>
<clus scale="  276.272">  2  5  1 -1</clus>
<clus scale="   21.236">  2  5  1 -1</clus>
</clustering>
</event>
<event>
 9    1  0.1296032E-005  0.9916421E+02  0.7546771E-02  0.1282564E+00
          1   -1    0    0  502    0  0.00000000000E+00  0.00000000000E+00  0.34803430784E+03  0.34803430784E+03  0.00000000000E+00 0. -1.
         -1   -1    0    0    0  501 -0.00000000000E+00 -0.00000000000E+00 -0.46878991319E+02  0.46878991319E+02  0.00000000000E+00 0.  1.
         23    2    1    2    0    0  0.14723468410E+02 -0.29924831803E+01  0.65115244168E+02  0.11281039488E+03  0.90887043585E+02 0.  0.
         23    2    1    2    0    0 -0.23329814702E+02  0.48615254235E+02  0.18163174092E+03  0.21057827241E+03  0.91898837337E+02 0.  0.
        -13    1    3    3    0    0  0.24631675562E+02  0.39750377585E+02  0.23493318364E+02  0.52333048515E+02  0.00000000000E+00 0.  1.
         13    1    3    3    0    0 -0.99082071521E+01 -0.42742860765E+02  0.41621925805E+02  0.60477346362E+02  0.00000000000E+00 0. -1.
        -13    1    4    4    0    0  0.23694187338E+02  0.53673727906E+02  0.11141101975E+03  0.12591544346E+03  0.00000000000E+00 0.  1.
         13    1    4    4    0    0 -0.47024002040E+02 -0.50584736714E+01  0.70220721167E+02  0.84662828945E+02  0.00000000000E+00 0. -1.
         21    1    1    2  502  501  0.86063462917E+01 -0.45622771054E+02  0.54408331437E+02  0.71524631875E+02  0.00000000000E+00 0. -1.
<scales pt_clust_5="13000.00000" pt_clust_6="13000.00000" pt_clust_7="13000.00000" pt_clust_8="13000.00000" pt_clust_9="46.42743"></scales>
<clustering>
<clus scale="   46.427">  2  9  1 -1</clus>
<clus scale="   90.887">  5  6 -1 -1</clus>
<clus scale="   91.899">  7  8 -1 -1</clus>
<clus scale="   98.227">  2  5  1 -1</clus>
<clus scale="   99.164">  1  5  2 -1</clus>
</clustering>
</event>
<event>
 9    1  0.1296032E-005  0.5094783E+03  0.7546771E-02  0.1011335E+00
          2   -1    0    0  502    0  0.00000000000E+00  0.00000000000E+00  0.22101979470E+03  0.22101979470E+03  0.00000000000E+00 0. -1.
         -2   -1    0    0    0  501 -0.00000000000E+00 -0.00000000000E+00 -0.14565028369E+04  0.14565028369E+04  0.00000000000E+00 0.  1.
         23    2    1    2    0    0 -0.23507410648E+03 -0.44047203766E+03 -0.81120185559E+03  0.95689727656E+03  0.91260593186E+02 0.  0.
         23    2    1    2    0    0  0.28300570149E+03  0.41965139116E+03 -0.42676033914E+03  0.66830821329E+03  0.91169971551E+02 0.  0.
        -11    1    4    4    0    0  0.20256170160E+03  0.34015896568E+03 -0.28950294424E+03  0.49046031400E+03  0.00000000000E+00 0.  1.
         11    1    4    4    0    0  0.80443999884E+02  0.79492425476E+02 -0.13725739490E+03  0.17784789928E+03  0.00000000000E+00 0. -1.
        -13    1    3    3    0    0 -0.28654406713E+02 -0.12655869262E+02 -0.35840423624E+02  0.47600231264E+02  0.00000000000E+00 0.  1.
         13    1    3    3    0    0 -0.20641969976E+03 -0.42781616840E+03 -0.77536143197E+03  0.90929704529E+03  0.00000000000E+00 0. -1.
         21    1    1    2  502  501 -0.47931595010E+02  0.20820646504E+02  0.24791525673E+01  0.52317141727E+02  0.00000000000E+00 0. -1.
<scales pt_clust_5="13000.00000" pt_clust_6="13000.00000" pt_clust_7="13000.00000" pt_clust_8="13000.00000" pt_clust_9="52.25837"></scales>
<clustering>
<clus scale="   52.258">  1  9  2 -1</clus>
<clus scale="   91.170">  5  6 -1 -1</clus>
<clus scale="   91.261">  7  8 -1 -1</clus>
<clus scale="  509.462">  1  5  2 -1</clus>
<clus scale="   52.258">  1  5  2 -1</clus>
</clustering>
</event>
<event>
 9    1  0.1296032E-005  0.9594160E+02  0.7546771E-02  0.1290876E+00
         -2   -1    0    0    0  501 -0.00000000000E+00  0.00000000000E+00  0.27003301437E+03  0.27003301437E+03  0.00000000000E+00 0.  1.
          2   -1    0    0  502    0  0.00000000000E+00 -0.00000000000E+00 -0.68087159629E+02  0.68087159629E+02  0.00000000000E+00 0. -1.
         23    2    1    2    0    0  0.25248380573E+01  0.24898045110E+02  0.18951547879E+03  0.21278051578E+03  0.93451290719E+02 0.  0.
         23    2    1    2    0    0 -0.21404700583E+02 -0.38850815832E+01 -0.36597017751E+01  0.92829898968E+02  0.90170625257E+02 0.  0.
        -11    1    3    3    0    0 -0.32025282152E+02 -0.14849180330E+02  0.12285866261E+03  0.12782944822E+03  0.00000000000E+00 0.  1.
         11    1    3    3    0    0  0.34550120209E+02  0.39747225440E+02  0.66656816181E+02  0.84951067563E+02  0.00000000000E+00 0. -1.
        -13    1    4    4    0    0 -0.44458854620E+02 -0.31424275253E+02  0.80910535917E+01  0.55041257049E+02  0.00000000000E+00 0.  1.
         13    1    4    4    0    0  0.23054154037E+02  0.27539193670E+02 -0.11750755367E+02  0.37788641919E+02  0.00000000000E+00 0. -1.
         21    1    1    2  502  501  0.18879862526E+02 -0.21012963527E+02  0.16090077722E+02  0.32509759247E+02  0.00000000000E+00 0. -1.
<scales pt_clust_5="13000.00000" pt_clust_6="13000.00000" pt_clust_7="13000.00000" pt_clust_8="13000.00000" pt_clust_9="28.24878"></scales>
<clustering>
<clus scale="   28.249">  2  9  1 -1</clus>
<clus scale="   90.171">  7  8 -1 -1</clus>
<clus scale="   92.749">  2  7  1 -1</clus>
<clus scale="   93.451">  5  6 -1 -1</clus>
<clus scale="   28.249">  2  5  1 -1</clus>
</clustering>
</event>
<event>
 9    1  0.1296032E-005  0.1000965E+03  0.7546771E-02  0.1280495E+00
          1   -1    0    0  502    0  0.00000000000E+00  0.00000000000E+00  0.58495535478E+03  0.58495535478E+03  0.00000000000E+00 0. -1.
         -1   -1    0    0    0  501 -0.00000000000E+00 -0.00000000000E+00 -0.31602676950E+02  0.31602676950E+02  0.00000000000E+00 0.  1.
         23    2    1    2    0    0  0.11017301830E+02 -0.43508216937E+02  0.83602755520E+02  0.13140885915E+03  0.90909414546E+02 0.  0.
         23    2    1    2    0    0  0.16393272396E+01  0.26218675617E+02  0.32166896847E+03  0.33552602133E+03  0.91742462187E+02 0.  0.
        -11    1    3    3    0    0  0.25171323627E+02 -0.15015541772E+02  0.93583074830E+02  0.98065559309E+02  0.00000000000E+00 0. -1.
         11    1    3    3    0    0 -0.14154021796E+02 -0.28492675165E+02 -0.99803193103E+01  0.33343299846E+02  0.00000000000E+00 0.  1.
        -13    1    4    4    0    0 -0.27816479096E+02 -0.21127035868E+02  0.17841955995E+03  0.18180662124E+03  0.00000000000E+00 0.  1.
         13    1    4    4    0    0  0.29455806335E+02  0.47345711485E+02  0.14324940853E+03  0.15371940010E+03  0.00000000000E+00 0. -1.
         21    1    1    2  502  501 -0.12656629070E+02  0.17289541320E+02  0.14808095383E+03  0.14962315124E+03  0.00000000000E+00 0. -1.
<scales pt_clust_5="13000.00000" pt_clust_6="13000.00000" pt_clust_7="13000.00000" pt_clust_8="13000.00000" pt_clust_9="21.42705"></scales>
<clustering>
<clus scale="   21.427">  1  9  2 -1</clus>
<clus scale="   90.909">  5  6 -1 -1</clus>
<clus scale="   91.742">  7  8 -1 -1</clus>
<clus scale="   99.333">  2  5  1 -1</clus>
<clus scale="   21.427">  1  5  2 -1</clus>
</clustering>
</event>
<event>
 9    1  0.1296032E-005  0.1186318E+03  0.7546771E-02  0.1246196E+00
          1   -1    0    0  502    0  0.00000000000E+00  0.00000000000E+00  0.14026289521E+03  0.14026289521E+03  0.00000000000E+00 0. -1.
         -1   -1    0    0    0  501 -0.00000000000E+00 -0.00000000000E+00 -0.42423927439E+03  0.42423927439E+03  0.00000000000E+00 0.  1.
         23    2    1    2    0    0  0.11756227550E+02  0.77214485098E+02 -0.37033225840E+03  0.38985985797E+03  0.93511719287E+02 0.  0.
         23    2    1    2    0    0  0.26100051841E+01 -0.39832250595E+02  0.26919128708E+02  0.10297260108E+03  0.91023605555E+02 0.  0.
        -11    1    3    3    0    0  0.17696441045E+02 -0.93251451747E+01 -0.17681814400E+02  0.26697732463E+02  0.00000000000E+00 0. -1.
         11    1    3    3    0    0 -0.59402134952E+01  0.86539630273E+02 -0.35265044400E+03  0.36316212550E+03  0.00000000000E+00 0.  1.
        -13    1    4    4    0    0 -0.12233318983E+02  0.22723294300E+02 -0.11306055720E+02  0.28174972815E+02  0.00000000000E+00 0.  1.
         13    1    4    4    0    0  0.14843324167E+02 -0.62555544896E+02  0.38225184428E+02  0.74797628265E+02  0.00000000000E+00 0. -1.
         21    1    1    2  502  501 -0.14366232734E+02 -0.37382234503E+02  0.59436750516E+02  0.71669710557E+02  0.00000000000E+00 0. -1.
<scales pt_clust_5="13000.00000" pt_clust_6="13000.00000" pt_clust_7="13000.00000" pt_clust_8="13000.00000" pt_clust_9="40.04772"></scales>
<clustering>
<clus scale="   40.048">  1  9  2 -1</clus>
<clus scale="   91.024">  7  8 -1 -1</clus>
<clus scale="   93.512">  5  6 -1 -1</clus>
<clus scale="  116.681">  1  7  2 -1</clus>
<clus scale="   40.048">  1  5  2 -1</clus>
</clustering>
</event>
<event>
 9    1  0.1296032E-005  0.9578807E+02  0.7546771E-02  0.1289926E+00
         -1   -1    0    0    0  501 -0.00000000000E+00  0.00000000000E+00  0.41127649875E+02  0.41127649875E+02  0.00000000000E+00 0.  1.
          1   -1    0    0  502    0  0.00000000000E+00 -0.00000000000E+00 -0.30134453695E+03  0.30134453695E+03  0.00000000000E+00 0. -1.
         23    2    1    2    0    0 -0.13393293048E+01 -0.14013018495E+02 -0.87801789440E+02  0.12698344988E+03  0.90650338248E+02 0.  0.
         23    2    1    2    0    0 -0.15471653494E+02  0.37200020554E+02 -0.14186020814E+03  0.17360977469E+03  0.91612344281E+02 0.  0.
        -11    1    3    3    0    0 -0.24576375299E+02 -0.41988586797E+02 -0.72982567471E+02  0.87712569217E+02  0.00000000000E+00 0.  1.
         11    1    3    3    0    0  0.23237045994E+02  0.27975568302E+02 -0.14819221970E+02  0.39270880664E+02  0.00000000000E+00 0. -1.
        -13    1    4    4    0    0  0.11633847537E+02  0.29305817561E+02 -0.27349264073E+01  0.31648967975E+02  0.00000000000E+00 0.  1.
         13    1    4    4    0    0 -0.27105501031E+02  0.78942029924E+01 -0.13912528173E+03  0.14196080672E+03  0.00000000000E+00 0. -1.
         21    1    1    2  502  501  0.16810982798E+02 -0.23187002059E+02 -0.30554889498E+02  0.41878962253E+02  0.00000000000E+00 0.  1.
<scales pt_clust_5="13000.00000" pt_clust_6="13000.00000" pt_clust_7="13000.00000" pt_clust_8="13000.00000" pt_clust_9="28.63994"></scales>
<clustering>
<clus scale="   28.640">  1  9  2 -1</clus>
<clus scale="   90.650">  5  6 -1 -1</clus>
<clus scale="   91.612">  7  8 -1 -1</clus>
<clus scale="   94.868">  1  5  2 -1</clus>
<clus scale="   95.788">  2  5  1 -1</clus>
</clustering>
</event>
<event>
 9    1  0.1296032E-005  0.1115603E+03  0.7546771E-02  0.1258876E+00
         -1   -1    0    0    0  501 -0.00000000000E+00  0.00000000000E+00  0.30147781177E+03  0.30147781177E+03  0.00000000000E+00 0.  1.
          1   -1    0    0  502    0  0.00000000000E+00 -0.00000000000E+00 -0.10644333448E+03  0.10644333448E+03  0.00000000000E+00 0. -1.
         23    2    1    2    0    0  0.64097213618E+02 -0.43255862693E+01  0.23703906125E+03  0.26132449543E+03  0.89307400962E+02 0.  0.
         23    2    1    2    0    0 -0.48769608040E+02  0.30834796725E+02 -0.39517140030E+02  0.11587432816E+03  0.92390455205E+02 0.  0.
        -11    1    4    4    0    0 -0.62545429974E+02  0.50095977445E+02 -0.14516177864E+02  0.81438671321E+02  0.00000000000E+00 0. -1.
         11    1    4    4    0    0  0.13775821934E+02 -0.19261180720E+02 -0.25000962166E+02  0.34435656839E+02  0.00000000000E+00 0.  1.
        -13    1    3    3    0    0  0.25978225644E+02  0.30662235056E+02  0.17949545083E+03  0.18393927730E+03  0.00000000000E+00 0.  1.
         13    1    3    3    0    0  0.38118987974E+02 -0.34987821325E+02  0.57543610416E+02  0.77385218129E+02  0.00000000000E+00 0. -1.
         21    1    1    2  502  501 -0.15327605578E+02 -0.26509210456E+02 -0.24874439234E+01  0.30722322650E+02  0.00000000000E+00 0. -1.
<scales pt_clust_5="13000.00000" pt_clust_6="13000.00000" pt_clust_7="13000.00000" pt_clust_8="13000.00000" pt_clust_9="30.62146"></scales>
<clustering>
<clus scale="   30.621">  2  9  1 -1</clus>
<clus scale="   89.307">  7  8 -1 -1</clus>
<clus scale="   92.390">  5  6 -1 -1</clus>
<clus scale="  109.021">  1  7  2 -1</clus>
<clus scale="   30.621">  2  5  1 -1</clus>
</clustering>
</event>
<event>
 9    1  0.1296032E-005  0.9674591E+02  0.7546771E-02  0.1289917E+00
         -2   -1    0    0    0  501 -0.00000000000E+00  0.00000000000E+00  0.68173765868E+02  0.68173765868E+02  0.00000000000E+00 0.  1.
          2   -1    0    0  502    0  0.00000000000E+00 -0.00000000000E+00 -0.32764975281E+03  0.32764975281E+03  0.00000000000E+00 0. -1.
         23    2    1    2    0    0  0.34979306748E+01  0.13267722496E+00  0.94791142094E+01  0.97159695083E+02  0.96632808198E+02 0.  0.
         23    2    1    2    0    0  0.16531553815E+02 -0.24706441206E+02 -0.18139655718E+03  0.20554267268E+03  0.91974881505E+02 0.  0.
        -13    1    4    4    0    0  0.46712553834E+02  0.11610457319E+02 -0.74714096519E+02  0.88876665237E+02  0.00000000000E+00 0.  1.
         13    1    4    4    0    0 -0.30181000019E+02 -0.36316898525E+02 -0.10668246066E+03  0.11666600744E+03  0.00000000000E+00 0. -1.
        -13    1    3    3    0    0 -0.36036543136E+02  0.56164558655E+01 -0.25162958226E+02  0.44309722233E+02  0.00000000000E+00 0. -1.
         13    1    3    3    0    0  0.39534473811E+02 -0.54837786406E+01  0.34642072435E+02  0.52849972850E+02  0.00000000000E+00 0.  1.
         21    1    1    2  502  501 -0.20029484490E+02  0.24573763981E+02 -0.87558543976E+02  0.93121150918E+02  0.00000000000E+00 0. -1.
<scales pt_clust_5="13000.00000" pt_clust_6="13000.00000" pt_clust_7="13000.00000" pt_clust_8="13000.00000" pt_clust_9="31.70253"></scales>
<clustering>
<clus scale="   31.703">  2  9  1 -1</clus>
<clus scale="   91.975">  5  6 -1 -1</clus>
<clus scale="   92.094">  2  5  1 -1</clus>
<clus scale="   96.633">  7  8 -1 -1</clus>
<clus scale="   31.703">  2  5  1 -1</clus>
</clustering>
</event>
<event>
 9    1  0.1296032E-005  0.1066314E+03  0.7546771E-02  0.1267373E+00
         -3   -1    0    0    0  501 -0.00000000000E+00  0.00000000000E+00  0.36668535653E+03  0.36668535653E+03  0.00000000000E+00 0.  1.
          3   -1    0    0  502    0  0.00000000000E+00 -0.00000000000E+00 -0.68516356076E+02  0.68516356076E+02  0.00000000000E+00 0. -1.
         23    2    1    2    0    0 -0.18059564105E+02  0.34024731634E+02  0.23588329371E+03  0.25926394609E+03  0.10046409943E+03 0.  0.
         23    2    1    2    0    0 -0.17928704153E+02 -0.37298624895E+02  0.81396957579E+02  0.13505850848E+03  0.99512361829E+02 0.  0.
        -13    1    3    3    0    0  0.30385277211E+02  0.44777864026E+02  0.15705869939E+03  0.16611970754E+03  0.00000000000E+00 0.  1.
         13    1    3    3    0    0 -0.48444841316E+02 -0.10753132392E+02  0.78824594313E+02  0.93144238549E+02  0.00000000000E+00 0. -1.
        -13    1    4    4    0    0 -0.21840340404E+02 -0.59678080801E+02  0.15580172556E+02  0.65430998571E+02  0.00000000000E+00 0. -1.
         13    1    4    4    0    0  0.39116362508E+01  0.22379455906E+02  0.65816785022E+02  0.69627509905E+02  0.00000000000E+00 0.  1.
         21    1    1    2  502  501  0.35988268258E+02  0.32738932609E+01 -0.19111250834E+02  0.40879258038E+02  0.00000000000E+00 0. -1.
<scales pt_clust_5="13000.00000" pt_clust_6="13000.00000" pt_clust_7="13000.00000" pt_clust_8="13000.00000" pt_clust_9="36.13688"></scales>
<clustering>
<clus scale="   36.137">  2  9  1 -1</clus>
<clus scale="   99.512">  7  8 -1 -1</clus>
<clus scale="  100.464">  5  6 -1 -1</clus>
<clus scale="  105.735">  2  7  1 -1</clus>
<clus scale="   36.137">  2  5  1 -1</clus>
</clustering>
</event>
<event>
 9    1  0.1296032E-005  0.1297194E+03  0.7546771E-02  0.1232966E+00
         -2   -1    0    0    0  501 -0.00000000000E+00  0.00000000000E+00  0.34538888921E+03  0.34538888921E+03  0.00000000000E+00 0.  1.
          2   -1    0    0  502    0  0.00000000000E+00 -0.00000000000E+00 -0.33142539702E+03  0.33142539702E+03  0.00000000000E+00 0. -1.
         23    2    1    2    0    0  0.38089842932E+02  0.79988647278E+02  0.27829148585E+03  0.31112065605E+03  0.10724221044E+03 0.  0.
         23    2    1    2    0    0 -0.56897934060E+02 -0.45279629499E+02 -0.29401707846E+03  0.31629826639E+03  0.91164308536E+02 0.  0.
        -11    1    4    4    0    0  0.15216094312E+02 -0.31057254893E+02 -0.15748668572E+03  0.16123938349E+03  0.00000000000E+00 0.  1.
         11    1    4    4    0    0 -0.72114028372E+02 -0.14222374606E+02 -0.13653039273E+03  0.15505888290E+03  0.00000000000E+00 0. -1.
        -13    1    3    3    0    0  0.56093397466E+02  0.97102693761E+02  0.24622219247E+03  0.27055640898E+03  0.00000000000E+00 0.  1.
         13    1    3    3    0    0 -0.18003554535E+02 -0.17114046483E+02  0.32069293377E+02  0.40564247073E+02  0.00000000000E+00 0. -1.
         21    1    1    2  502  501  0.18808091129E+02 -0.34709017778E+02  0.29689084795E+02  0.49395363780E+02  0.00000000000E+00 0. -1.
<scales pt_clust_5="13000.00000" pt_clust_6="13000.00000" pt_clust_7="13000.00000" pt_clust_8="13000.00000" pt_clust_9="39.47734"></scales>
<clustering>
<clus scale="   39.477">  1  9  2 -1</clus>
<clus scale="   91.164">  5  6 -1 -1</clus>
<clus scale="  107.242">  7  8 -1 -1</clus>
<clus scale="  116.778">  2  5  1 -1</clus>
<clus scale="  116.778">  2  5  1 -1</clus>
</clustering>
</event>
<event>
 9    1  0.1296032E-005  0.9420158E+02  0.7546771E-02  0.1293627E+00
          1   -1    0    0  502    0  0.00000000000E+00  0.00000000000E+00  0.55485608016E+03  0.55485608016E+03  0.00000000000E+00 0. -1.
         -1   -1    0    0    0  501 -0.00000000000E+00 -0.00000000000E+00 -0.50423565264E+02  0.50423565264E+02  0.00000000000E+00 0.  1.
         23    2    1    2    0    0  0.25507826392E+02  0.65548000995E+01  0.20169229197E+02  0.97151563935E+02  0.91312726150E+02 0.  0.
         23    2    1    2    0    0  0.24072195506E+02 -0.15258514681E+02  0.24066972617E+03  0.25938774406E+03  0.92454268744E+02 0.  0.
        -11    1    4    4    0    0  0.58101795056E+02  0.21250552945E+01  0.15646679587E+03  0.16691971920E+03  0.00000000000E+00 0.  1.
         11    1    4    4    0    0 -0.34029599551E+02 -0.17383569976E+02  0.84202930304E+02  0.92468024865E+02  0.00000000000E+00 0. -1.
        -11    1    3    3    0    0  0.37022633521E+02 -0.27824306865E+02 -0.12903764114E+02  0.48076757104E+02  0.00000000000E+00 0.  1.
         11    1    3    3    0    0 -0.11514807129E+02  0.34379106965E+02  0.33072993311E+02  0.49074806831E+02  0.00000000000E+00 0. -1.
         21    1    1    2  502  501 -0.49580021897E+02  0.87037145818E+01  0.24359355952E+03  0.24874033742E+03  0.00000000000E+00 0. -1.
<scales pt_clust_5="13000.00000" pt_clust_6="13000.00000" pt_clust_7="13000.00000" pt_clust_8="13000.00000" pt_clust_9="50.33819"></scales>
<clustering>
<clus scale="   50.338">  1  9  2 -1</clus>
<clus scale="   91.313">  7  8 -1 -1</clus>
<clus scale="   92.454">  5  6 -1 -1</clus>
<clus scale="   93.081">  2  7  1 -1</clus>
<clus scale="   50.338">  1  5  2 -1</clus>
</clustering>
</event>
<event>
 9    1  0.1296032E-005  0.9465325E+02  0.7546771E-02  0.1310706E+00
          3   -1    0    0  502    0  0.00000000000E+00  0.00000000000E+00  0.27618347182E+02  0.27618347182E+02  0.00000000000E+00 0. -1.
         -3   -1    0    0    0  501 -0.00000000000E+00 -0.00000000000E+00 -0.54552744332E+03  0.54552744332E+03  0.00000000000E+00 0.  1.
         23    2    1    2    0    0 -0.21782531460E+02 -0.37278149855E+01 -0.44148077470E+03  0.45128914160E+03  0.90929860974E+02 0.  0.
         23    2    1    2    0    0  0.39532794911E+02  0.13733111856E+02 -0.60277991763E+02  0.95856438004E+02  0.61673172296E+02 0.  0.
        -11    1    3    3    0    0 -0.16716063793E+02  0.43213758605E+02 -0.22422508489E+03  0.22896232095E+03  0.00000000000E+00 0. -1.
         11    1    3    3    0    0 -0.50664676664E+01 -0.46941573591E+02 -0.21725568981E+03  0.22232682065E+03  0.00000000000E+00 0.  1.
        -13    1    4    4    0    0  0.25817291228E+02  0.29264985337E+02 -0.63848213012E+02  0.74830249218E+02  0.00000000000E+00 0.  1.
         13    1    4    4    0    0  0.13715503683E+02 -0.15531873481E+02  0.35702212496E+01  0.21026188786E+02  0.00000000000E+00 0. -1.
         21    1    1    2  502  501 -0.17750263452E+02 -0.10005296871E+02 -0.16150329679E+02  0.26000210900E+02  0.00000000000E+00 0. -1.
<scales pt_clust_5="13000.00000" pt_clust_6="13000.00000" pt_clust_7="13000.00000" pt_clust_8="13000.00000" pt_clust_9="20.37591"></scales>
<clustering>
<clus scale="   20.376">  1  9  2 -1</clus>
<clus scale="   61.673">  7  8 -1 -1</clus>
<clus scale="   67.042">  1  7  2 -1</clus>
<clus scale="   90.930">  5  6 -1 -1</clus>
<clus scale="   20.376">  1  5  2 -1</clus>
</clustering>
</event>
<event>
 9    1  0.1296032E-005  0.9870533E+02  0.7546771E-02  0.1294379E+00
         -1   -1    0    0    0  501 -0.00000000000E+00  0.00000000000E+00  0.32959054325E+02  0.32959054325E+02  0.00000000000E+00 0.  1.
          1   -1    0    0  502    0  0.00000000000E+00 -0.00000000000E+00 -0.35937637337E+03  0.35937637337E+03  0.00000000000E+00 0. -1.
         23    2    1    2    0    0  0.73829452615E+01 -0.15539989172E+02 -0.10811349529E+03  0.14558247527E+03  0.95967338705E+02 0.  0.
         23    2    1    2    0    0 -0.35683041862E+02  0.67644394684E+01 -0.14795774631E+03  0.17042159352E+03  0.76373999022E+02 0.  0.
        -11    1    4    4    0    0  0.10507760869E+02 -0.22902927818E+02 -0.74978848461E+02  0.79099841073E+02  0.00000000000E+00 0.  1.
         11    1    4    4    0    0 -0.46190802731E+02  0.29667367286E+02 -0.72978897846E+02  0.91321752444E+02  0.00000000000E+00 0. -1.
        -13    1    3    3    0    0 -0.26628205409E+02 -0.28407692719E+02 -0.10138047542E+03  0.10860045638E+03  0.00000000000E+00 0. -1.
         13    1    3    3    0    0  0.34011150671E+02  0.12867703548E+02 -0.67330198627E+01  0.36982018888E+02  0.00000000000E+00 0.  1.
         21    1    1    2  502  501  0.28300096600E+02  0.87755497034E+01 -0.70346077456E+02  0.76331358914E+02  0.00000000000E+00 0. -1.
<scales pt_clust_5="13000.00000" pt_clust_6="13000.00000" pt_clust_7="13000.00000" pt_clust_8="13000.00000" pt_clust_9="29.62947"></scales>
<clustering>
<clus scale="   29.629">  2  9  1 -1</clus>
<clus scale="   76.374">  5  6 -1 -1</clus>
<clus scale="   79.787">  2  5  1 -1</clus>
<clus scale="   95.967">  7  8 -1 -1</clus>
<clus scale="   29.629">  2  5  1 -1</clus>
</clustering>
</event>
<event>
 9    1  0.1296032E-005  0.1124569E+03  0.7546771E-02  0.1258357E+00
         -1   -1    0    0    0  501 -0.00000000000E+00  0.00000000000E+00  0.25496911054E+03  0.25496911054E+03  0.00000000000E+00 0.  1.
          1   -1    0    0  502    0  0.00000000000E+00 -0.00000000000E+00 -0.92559135866E+02  0.92559135866E+02  0.00000000000E+00 0. -1.
         23    2    1    2    0    0  0.33816344490E+02 -0.40887949965E+02  0.16058110212E+03  0.19219205098E+03  0.91302379462E+02 0.  0.
         23    2    1    2    0    0 -0.24427860387E+02  0.67862300711E+02  0.18400749548E+02  0.12231519698E+03  0.97058784289E+02 0.  0.
        -11    1    3    3    0    0  0.44574942716E+02 -0.65193696422E+02  0.11768461343E+03  0.14172794999E+03  0.00000000000E+00 0.  1.
         11    1    3    3    0    0 -0.10758598226E+02  0.24305746456E+02  0.42896488687E+02  0.50464100985E+02  0.00000000000E+00 0. -1.
        -11    1    4    4    0    0  0.22367849017E+02  0.70039891713E+02  0.16913902128E+02  0.75445259533E+02  0.00000000000E+00 0.  1.
         11    1    4    4    0    0 -0.46795709403E+02 -0.21775910015E+01  0.14868474201E+01  0.46869937448E+02  0.00000000000E+00 0. -1.
         21    1    1    2  502  501 -0.93884841031E+01 -0.26974350746E+02 -0.16571876985E+02  0.33020998452E+02  0.00000000000E+00 0. -1.
<scales pt_clust_5="13000.00000" pt_clust_6="13000.00000" pt_clust_7="13000.00000" pt_clust_8="13000.00000" pt_clust_9="28.56150"></scales>
<clustering>
<clus scale="   28.561">  2  9  1 -1</clus>
<clus scale="   91.302">  5  6 -1 -1</clus>
<clus scale="   97.059">  7  8 -1 -1</clus>
<clus scale="  107.528">  1  5  2 -1</clus>
<clus scale="   28.561">  2  5  1 -1</clus>
</clustering>
</event>
<event>
 9    1  0.1296032E-005  0.1024585E+03  0.7546771E-02  0.1276026E+00
          1   -1    0    0  502    0  0.00000000000E+00  0.00000000000E+00  0.27925092574E+03  0.27925092574E+03  0.00000000000E+00 0. -1.
         -1   -1    0    0    0  501 -0.00000000000E+00 -0.00000000000E+00 -0.13060230408E+03  0.13060230408E+03  0.00000000000E+00 0.  1.
         23    2    1    2    0    0  0.39161987193E+02  0.21483202943E+02 -0.90353337757E+02  0.13483687460E+03  0.89565997229E+02 0.  0.
         23    2    1    2    0    0 -0.60729621575E+02 -0.15816675502E+02  0.17404878407E+03  0.20634185214E+03  0.91354948122E+02 0.  0.
        -13    1    3    3    0    0  0.54515613148E+02 -0.90544564076E+01 -0.83256289244E+02  0.99927698644E+02  0.00000000000E+00 0.  1.
         13    1    3    3    0    0 -0.15353625955E+02  0.30537659350E+02 -0.70970485129E+01  0.34909175959E+02  0.00000000000E+00 0. -1.
        -13    1    4    4    0    0 -0.49418253037E+02 -0.44758009444E+02  0.15773226373E+03  0.17124517559E+03  0.00000000000E+00 0. -1.
         13    1    4    4    0    0 -0.11311368538E+02  0.28941333941E+02  0.16316520344E+02  0.35096676547E+02  0.00000000000E+00 0.  1.
         21    1    1    2  502  501  0.21567634382E+02 -0.56665274405E+01  0.64953175342E+02  0.68674503078E+02  0.00000000000E+00 0.  1.
<scales pt_clust_5="13000.00000" pt_clust_6="13000.00000" pt_clust_7="13000.00000" pt_clust_8="13000.00000" pt_clust_9="22.29961"></scales>
<clustering>
<clus scale="   22.300">  1  9  2 -1</clus>
<clus scale="   89.566">  5  6 -1 -1</clus>
<clus scale="   91.355">  7  8 -1 -1</clus>
<clus scale="  100.867">  2  5  1 -1</clus>
<clus scale="   22.300">  1  5  2 -1</clus>
</clustering>
</event>
<event>
 9    1  0.1296032E-005  0.1430858E+03  0.7546771E-02  0.1209752E+00
         -1   -1    0    0    0  501 -0.00000000000E+00  0.00000000000E+00  0.17974199610E+03  0.17974199610E+03  0.00000000000E+00 0.  1.
          1   -1    0    0  502    0  0.00000000000E+00 -0.00000000000E+00 -0.58913460206E+03  0.58913460206E+03  0.00000000000E+00 0. -1.
         23    2    1    2    0    0 -0.84885909991E+02 -0.73219222791E+02  0.13458326887E+03  0.19679696708E+03  0.89720218959E+02 0.  0.
         23    2    1    2    0    0  0.82390823390E+02  0.23409059150E+02 -0.35524458338E+03  0.37687005592E+03  0.92174254570E+02 0.  0.
        -13    1    3    3    0    0 -0.19746990772E+02  0.19025917747E+02  0.11432540853E+02  0.29709126224E+02  0.00000000000E+00 0. -1.
         13    1    3    3    0    0 -0.65138919220E+02 -0.92245140538E+02  0.12315072801E+03  0.16708784085E+03  0.00000000000E+00 0.  1.
        -13    1    4    4    0    0  0.54767296458E+02 -0.25521861873E+02 -0.25390248438E+03  0.26099289985E+03  0.00000000000E+00 0. -1.
         13    1    4    4    0    0  0.27623526932E+02  0.48930921023E+02 -0.10134209899E+03  0.11587715608E+03  0.00000000000E+00 0.  1.
         21    1    1    2  502  501  0.24950866010E+01  0.49810163641E+02 -0.18873129146E+03  0.19520957516E+03  0.00000000000E+00 0.  1.
<scales pt_clust_5="13000.00000" pt_clust_6="13000.00000" pt_clust_7="13000.00000" pt_clust_8="13000.00000" pt_clust_9="49.87262"></scales>
<clustering>
<clus scale="   49.873">  2  9  1 -1</clus>
<clus scale="   89.720">  5  6 -1 -1</clus>
<clus scale="   92.174">  7  8 -1 -1</clus>
<clus scale="  141.517">  1  5  2 -1</clus>
<clus scale="   49.873">  2  5  1 -1</clus>
</clustering>
</event>
<event>
 9    1  0.1296032E-005  0.1226621E+03  0.7546771E-02  0.1239506E+00
          1   -1    0    0  502    0  0.00000000000E+00  0.00000000000E+00  0.37365897412E+03  0.37365897412E+03  0.00000000000E+00 0. -1.
         -1   -1    0    0    0  501 -0.00000000000E+00 -0.00000000000E+00 -0.51264733313E+02  0.51264733313E+02  0.00000000000E+00 0.  1.
         23    2    1    2    0    0 -0.41850824791E+02 -0.61083905454E+02  0.12732888847E+03  0.17355875950E+03  0.91800120473E+02 0.  0.
         23    2    1    2    0    0  0.62861431323E+02  0.63413527789E+02  0.12317417425E+03  0.17643021490E+03  0.89347123482E+02 0.  0.
        -11    1    4    4    0    0  0.41472116340E+02  0.39244471474E+01  0.10130724302E+03  0.10953764287E+03  0.00000000000E+00 0.  1.
         11    1    4    4    0    0  0.21389314983E+02  0.59489080642E+02  0.21866931232E+02  0.66892572028E+02  0.00000000000E+00 0. -1.
        -11    1    3    3    0    0 -0.57767687658E+02 -0.25699609762E+02  0.11766131051E+03  0.13357304994E+03  0.00000000000E+00 0.  1.
         11    1    3    3    0    0  0.15916862868E+02 -0.35384295692E+02  0.96675779554E+01  0.39985709556E+02  0.00000000000E+00 0. -1.
         21    1    1    2  502  501 -0.21010606533E+02 -0.23296223346E+01  0.71891178097E+02  0.74934733036E+02  0.00000000000E+00 0.  1.
<scales pt_clust_5="13000.00000" pt_clust_6="13000.00000" pt_clust_7="13000.00000" pt_clust_8="13000.00000" pt_clust_9="21.13936"></scales>
<clustering>
<clus scale="   21.139">  1  9  2 -1</clus>
<clus scale="   89.347">  5  6 -1 -1</clus>
<clus scale="   91.800">  7  8 -1 -1</clus>
<clus scale="  120.837">  1  5  2 -1</clus>
<clus scale="   21.139">  1  5  2 -1</clus>
</clustering>
</event>
<event>
 9    1  0.1296032E-005  0.9582031E+02  0.7546771E-02  0.1292847E+00
         -1   -1    0    0    0  501 -0.00000000000E+00  0.00000000000E+00  0.14553267915E+03  0.14553267915E+03  0.00000000000E+00 0.  1.
          1   -1    0    0  502    0  0.00000000000E+00 -0.00000000000E+00 -0.11223442975E+03  0.11223442975E+03  0.00000000000E+00 0. -1.
         23    2    1    2    0    0 -0.14251293480E+02 -0.18684260938E+02  0.77691863266E+02  0.12417817123E+03  0.93978676415E+02 0.  0.
         23    2    1    2    0    0  0.20987985924E+02 -0.14852265224E+02 -0.27930830337E+02  0.95627050817E+02  0.87768537810E+02 0.  0.
        -11    1    4    4    0    0 -0.24357984642E+02 -0.32687736010E+02 -0.22595159800E+02  0.46608376368E+02  0.00000000000E+00 0.  1.
         11    1    4    4    0    0  0.45345970566E+02  0.17835470786E+02 -0.53356705373E+01  0.49018674450E+02  0.00000000000E+00 0. -1.
        -11    1    3    3    0    0 -0.32015434332E+02  0.23306798987E+02  0.66229069067E+02  0.77165306350E+02  0.00000000000E+00 0.  1.
         11    1    3    3    0    0  0.17764140852E+02 -0.41991059925E+02  0.11462794198E+02  0.47012864884E+02  0.00000000000E+00 0. -1.
         21    1    1    2  502  501 -0.67366924439E+01  0.33536526162E+02 -0.16462783528E+02  0.37961886855E+02  0.00000000000E+00 0.  1.
<scales pt_clust_5="13000.00000" pt_clust_6="13000.00000" pt_clust_7="13000.00000" pt_clust_8="13000.00000" pt_clust_9="34.20646"></scales>
<clustering>
<clus scale="   34.206">  2  9  1 -1</clus>
<clus scale="   87.769">  5  6 -1 -1</clus>
<clus scale="   89.738">  2  5  1 -1</clus>
<clus scale="   93.979">  7  8 -1 -1</clus>
<clus scale="   34.206">  2  5  1 -1</clus>
</clustering>
</event>
<event>
 9    1  0.1296032E-005  0.1352856E+03  0.7546771E-02  0.1220159E+00
          2   -1    0    0  502    0  0.00000000000E+00  0.00000000000E+00  0.31076712534E+03  0.31076712534E+03  0.00000000000E+00 0. -1.
         -2   -1    0    0    0  501 -0.00000000000E+00 -0.00000000000E+00 -0.35589137109E+03  0.35589137109E+03  0.00000000000E+00 0.  1.
         23    2    1    2    0    0  0.95891430723E+02  0.61814614709E+01 -0.27497428807E+03  0.30411173828E+03  0.87405453540E+02 0.  0.
         23    2    1    2    0    0 -0.16562048629E+03 -0.31379714858E+02  0.10563201622E+03  0.21788435400E+03  0.88885526844E+02 0.  0.
        -13    1    4    4    0    0 -0.13680053957E+03  0.10073971137E+02  0.93357242748E+02  0.16592602959E+03  0.00000000000E+00 0. -1.
         13    1    4    4    0    0 -0.28819946720E+02 -0.41453685995E+02  0.12274773470E+02  0.51958324408E+02  0.00000000000E+00 0.  1.
        -13    1    3    3    0    0  0.75300801889E+02 -0.32233918268E+01 -0.27080042007E+03  0.28109334487E+03  0.00000000000E+00 0.  1.
         13    1    3    3    0    0  0.20590628834E+02  0.94048532977E+01 -0.41738680053E+01  0.23018393416E+02  0.00000000000E+00 0. -1.
         21    1    1    2  502  501  0.69729055572E+02  0.25198253387E+02  0.12421802610E+03  0.14466240415E+03  0.00000000000E+00 0. -1.
<scales pt_clust_5="13000.00000" pt_clust_6="13000.00000" pt_clust_7="13000.00000" pt_clust_8="13000.00000" pt_clust_9="74.14238"></scales>
<clustering>
<clus scale="   74.142">  1  9  2 -1</clus>
<clus scale="   87.405">  7  8 -1 -1</clus>
<clus scale="   88.886">  5  6 -1 -1</clus>
<clus scale="  134.318">  2  7  1 -1</clus>
<clus scale="   74.142">  1  5  2 -1</clus>
</clustering>
</event>
<event>
 9    1  0.1296032E-005  0.9903502E+02  0.7546771E-02  0.1283519E+00
          1   -1    0    0  502    0  0.00000000000E+00  0.00000000000E+00  0.85605250029E+03  0.85605250029E+03  0.00000000000E+00 0. -1.
         -1   -1    0    0    0  501 -0.00000000000E+00 -0.00000000000E+00 -0.17631861939E+02  0.17631861939E+02  0.00000000000E+00 0.  1.
         23    2    1    2    0    0  0.64284978900E+01 -0.42527281959E+02  0.20608132162E+03  0.22962239229E+03  0.91689893780E+02 0.  0.
         23    2    1    2    0    0  0.16015100496E+02  0.25843007586E+02  0.49016500821E+03  0.49916333599E+03  0.89319405703E+02 0.  0.
        -13    1    4    4    0    0  0.22135136043E+01 -0.33379518064E+02  0.16367688863E+03  0.16706051521E+03  0.00000000000E+00 0.  1.
         13    1    4    4    0    0  0.13801586892E+02  0.59222525649E+02  0.32648811958E+03  0.33210282078E+03  0.00000000000E+00 0. -1.
        -13    1    3    3    0    0  0.34922128872E+02 -0.22092676958E+02  0.32604318926E+02  0.52637278356E+02  0.00000000000E+00 0.  1.
         13    1    3    3    0    0 -0.28493630982E+02 -0.20434605001E+02  0.17347700270E+03  0.17698511393E+03  0.00000000000E+00 0. -1.
         21    1    1    2  502  501 -0.22443598386E+02  0.16684274373E+02  0.14217430851E+03  0.14489863395E+03  0.00000000000E+00 0. -1.
<scales pt_clust_5="13000.00000" pt_clust_6="13000.00000" pt_clust_7="13000.00000" pt_clust_8="13000.00000" pt_clust_9="27.96570"></scales>
<clustering>
<clus scale="   27.966">  1  9  2 -1</clus>
<clus scale="   89.319">  5  6 -1 -1</clus>
<clus scale="   91.690">  7  8 -1 -1</clus>
<clus scale="   96.844">  1  5  2 -1</clus>
<clus scale="   27.966">  1  5  2 -1</clus>
</clustering>
</event>
<event>
 9    1  0.1296032E-005  0.2121623E+03  0.7546771E-02  0.1140071E+00
         -2   -1    0    0    0  501 -0.00000000000E+00  0.00000000000E+00  0.41739872027E+03  0.41739872027E+03  0.00000000000E+00 0.  1.
          2   -1    0    0  502    0  0.00000000000E+00 -0.00000000000E+00 -0.13821468135E+03  0.13821468135E+03  0.00000000000E+00 0. -1.
         23    2    1    2    0    0 -0.41193750408E+01  0.19920509653E+03  0.18169999133E+03  0.28686321176E+03  0.97856914302E+02 0.  0.
         23    2    1    2    0    0 -0.34793202474E+01 -0.17646674626E+03  0.12166208946E+03  0.23470095416E+03  0.95552371321E+02 0.  0.
        -11    1    4    4    0    0 -0.27525678388E+02 -0.56304800528E+01  0.14637784302E+02  0.31680120038E+02  0.00000000000E+00 0.  1.
         11    1    4    4    0    0  0.24046358141E+02 -0.17083626621E+03  0.10702430516E+03  0.20302083412E+03  0.00000000000E+00 0. -1.
        -13    1    3    3    0    0  0.21388507275E-01  0.16408280776E+03  0.18948123673E+03  0.25065176507E+03  0.00000000000E+00 0.  1.
         13    1    3    3    0    0 -0.41407635481E+01  0.35122288771E+02 -0.77812454009E+01  0.36211446688E+02  0.00000000000E+00 0. -1.
         21    1    1    2  502  501  0.75986952882E+01 -0.22738350267E+02 -0.24178041874E+02  0.34049235701E+02  0.00000000000E+00 0. -1.
<scales pt_clust_5="13000.00000" pt_clust_6="13000.00000" pt_clust_7="13000.00000" pt_clust_8="13000.00000" pt_clust_9="23.97442"></scales>
<clustering>
<clus scale="   23.974">  2  9  1 -1</clus>
<clus scale="   95.552">  5  6 -1 -1</clus>
<clus scale="   97.857">  7  8 -1 -1</clus>
<clus scale="  211.109">  2  5  1 -1</clus>
<clus scale="   23.974">  2  5  1 -1</clus>
</clustering>
</event>
<event>
 9    1  0.1296032E-005  0.1105378E+03  0.7546771E-02  0.1261562E+00
         -1   -1    0    0    0  501 -0.00000000000E+00  0.00000000000E+00  0.44084447820E+02  0.44084447820E+02  0.00000000000E+00 0.  1.
          1   -1    0    0  502    0  0.00000000000E+00 -0.00000000000E+00 -0.38411929408E+03  0.38411929408E+03  0.00000000000E+00 0. -1.
         23    2    1    2    0    0 -0.15726976287E+02 -0.38026265074E+02 -0.85564644991E+02  0.12972881007E+03  0.88402042228E+02 0.  0.
         23    2    1    2    0    0  0.42649553565E+02  0.57106752165E+02 -0.22668154985E+03  0.25533447167E+03  0.93439829956E+02 0.  0.
        -11    1    3    3    0    0 -0.49133012231E+02 -0.38477280628E+02 -0.43787307847E+02  0.76235702553E+02  0.00000000000E+00 0.  1.
         11    1    3    3    0    0  0.33406035944E+02  0.45101555328E+00 -0.41777337145E+02  0.53493107513E+02  0.00000000000E+00 0. -1.
        -13    1    4    4    0    0 -0.21039523137E+02  0.33450431589E+02 -0.38120194890E+02  0.54906667771E+02  0.00000000000E+00 0.  1.
         13    1    4    4    0    0  0.63689076702E+02  0.23656320576E+02 -0.18856135496E+03  0.20042780390E+03  0.00000000000E+00 0. -1.
         21    1    1    2  502  501 -0.26922577278E+02 -0.19080487090E+02 -0.27788651425E+02  0.43140460161E+02  0.00000000000E+00 0.  1.
<scales pt_clust_5="13000.00000" pt_clust_6="13000.00000" pt_clust_7="13000.00000" pt_clust_8="13000.00000" pt_clust_9="32.99834"></scales>
<clustering>
<clus scale="   32.998">  1  9  2 -1</clus>
<clus scale="   88.402">  5  6 -1 -1</clus>
<clus scale="   93.440">  7  8 -1 -1</clus>
<clus scale="  106.313">  1  5  2 -1</clus>
<clus scale="  110.538">  2  5  1 -1</clus>
</clustering>
</event>
<event>
 9    1  0.1296032E-005  0.9361261E+02  0.7546771E-02  0.1295088E+00
          2   -1    0    0  502    0  0.00000000000E+00  0.00000000000E+00  0.15788967787E+03  0.15788967787E+03  0.00000000000E+00 0. -1.
         -2   -1    0    0    0  501 -0.00000000000E+00 -0.00000000000E+00 -0.78933243070E+02  0.78933243070E+02  0.00000000000E+00 0.  1.
         23    2    1    2    0    0 -0.40679505530E+01  0.70170575963E+01  0.15471185337E+02  0.94838156855E+02  0.93215508908E+02 0.  0.
         23    2    1    2    0    0  0.13104446505E+02  0.11307665929E+02  0.22496243258E+02  0.96185720633E+02  0.91902241899E+02 0.  0.
        -11    1    3    3    0    0  0.39223988651E+02 -0.75471663074E+01  0.26391487975E+02  0.47874749529E+02  0.00000000000E+00 0.  1.
         11    1    3    3    0    0 -0.43291939204E+02  0.14564223904E+02 -0.10920302639E+02  0.46963407326E+02  0.00000000000E+00 0. -1.
        -13    1    4    4    0    0 -0.34813417668E+02  0.93527618212E+01  0.30922127479E+02  0.47493432928E+02  0.00000000000E+00 0. -1.
         13    1    4    4    0    0  0.47917864173E+02  0.19549041078E+01 -0.84258842217E+01  0.48692287705E+02  0.00000000000E+00 0.  1.
         21    1    1    2  502  501 -0.90364959519E+01 -0.18324723525E+02  0.40989006203E+02  0.45799043449E+02  0.00000000000E+00 0. -1.
<scales pt_clust_5="13000.00000" pt_clust_6="13000.00000" pt_clust_7="13000.00000" pt_clust_8="13000.00000" pt_clust_9="20.43168"></scales>
<clustering>
<clus scale="   20.432">  1  9  2 -1</clus>
<clus scale="   91.902">  7  8 -1 -1</clus>
<clus scale="   92.305">  1  7  2 -1</clus>
<clus scale="   93.216">  5  6 -1 -1</clus>
<clus scale="   20.432">  1  5  2 -1</clus>
</clustering>
</event>
<event>
 9    1  0.1296032E-005  0.1048017E+03  0.7546771E-02  0.1270939E+00
          2   -1    0    0  502    0  0.00000000000E+00  0.00000000000E+00  0.80210016993E+02  0.80210016993E+02  0.00000000000E+00 0. -1.
         -2   -1    0    0    0  501 -0.00000000000E+00 -0.00000000000E+00 -0.21567894901E+03  0.21567894901E+03  0.00000000000E+00 0.  1.
         23    2    1    2    0    0 -0.43321352879E+02  0.35039744925E+02 -0.92408891508E+02  0.14235646126E+03  0.92851685455E+02 0.  0.
         23    2    1    2    0    0  0.41346475441E+02 -0.11353999153E+02 -0.65612930582E+02  0.12076746935E+03  0.91876442386E+02 0.  0.
        -11    1    3    3    0    0 -0.36280824699E+02 -0.25070314158E+02 -0.57585052072E+02  0.72531766247E+02  0.00000000000E+00 0.  1.
         11    1    3    3    0    0 -0.70405281803E+01  0.60110059083E+02 -0.34823839436E+02  0.69824695009E+02  0.00000000000E+00 0. -1.
        -13    1    4    4    0    0 -0.13966969302E+02 -0.37333059010E+02 -0.31316856545E+02  0.50691015282E+02  0.00000000000E+00 0.  1.
         13    1    4    4    0    0  0.55313444742E+02  0.25979059857E+02 -0.34296074037E+02  0.70076454067E+02  0.00000000000E+00 0. -1.
         21    1    1    2  502  501  0.19748774387E+01 -0.23685745772E+02  0.22552890075E+02  0.32765035395E+02  0.00000000000E+00 0. -1.
<scales pt_clust_5="13000.00000" pt_clust_6="13000.00000" pt_clust_7="13000.00000" pt_clust_8="13000.00000" pt_clust_9="23.76793"></scales>
<clustering>
<clus scale="   23.768">  1  9  2 -1</clus>
<clus scale="   91.876">  7  8 -1 -1</clus>
<clus scale="   92.852">  5  6 -1 -1</clus>
<clus scale="  103.939">  1  7  2 -1</clus>
<clus scale="   23.768">  1  5  2 -1</clus>
</clustering>
</event>
<event>
 9    1  0.1296032E-005  0.1840642E+03  0.7546771E-02  0.1187623E+00
         -1   -1    0    0    0  501 -0.00000000000E+00  0.00000000000E+00  0.83649936832E+02  0.83649936832E+02  0.00000000000E+00 0.  1.
          1   -1    0    0  502    0  0.00000000000E+00 -0.00000000000E+00 -0.86202898126E+03  0.86202898126E+03  0.00000000000E+00 0. -1.
         23    2    1    2    0    0 -0.11841732460E+02 -0.52365108696E+02 -0.40357937286E+02  0.11494238252E+03  0.93277312141E+02 0.  0.
         23    2    1    2    0    0  0.14182518190E+03  0.12730179870E+03 -0.29336109123E+03  0.36144586405E+03  0.90896934030E+02 0.  0.
        -11    1    3    3    0    0  0.38296949908E+02 -0.27598987841E+02 -0.22276161123E+01  0.47258044560E+02  0.00000000000E+00 0. -1.
         11    1    3    3    0    0 -0.50138682368E+02 -0.24766120855E+02 -0.38130321173E+02  0.67684337956E+02  0.00000000000E+00 0.  1.
        -11    1    4    4    0    0  0.45113044670E+02  0.47400047257E+02 -0.34930378428E+02  0.74176024540E+02  0.00000000000E+00 0.  1.
         11    1    4    4    0    0  0.96712137225E+02  0.79901751440E+02 -0.25843071280E+03  0.28726983951E+03  0.00000000000E+00 0. -1.
         21    1    1    2  502  501 -0.12998344944E+03 -0.74936690001E+02 -0.44466001591E+03  0.46929067153E+03  0.00000000000E+00 0.  1.
<scales pt_clust_5="13000.00000" pt_clust_6="13000.00000" pt_clust_7="13000.00000" pt_clust_8="13000.00000" pt_clust_9="160.05427"></scales>
<clustering>
<clus scale="   90.897">  7  8 -1 -1</clus>
<clus scale="   93.277">  5  6 -1 -1</clus>
<clus scale="  107.624">  1  5  2 -1</clus>
<clus scale="  160.054">  2  9  1 -1</clus>
<clus scale="  160.054">  2  5  1 -1</clus>
</clustering>
</event>
<event>
 9    1  0.1296032E-005  0.1022947E+03  0.7546771E-02  0.1277839E+00
          2   -1    0    0  502    0  0.00000000000E+00  0.00000000000E+00  0.21722022717E+03  0.21722022717E+03  0.00000000000E+00 0. -1.
         -2   -1    0    0    0  501 -0.00000000000E+00 -0.00000000000E+00 -0.82233100597E+02  0.82233100597E+02  0.00000000000E+00 0.  1.
         23    2    1    2    0    0  0.17808026739E+02 -0.25470258722E+02 -0.19049054749E+02  0.10060753414E+03  0.93771795029E+02 0.  0.
         23    2    1    2    0    0  0.35272256029E+01  0.24023934874E+02  0.10794957292E+03  0.14803968849E+03  0.98351656354E+02 0.  0.
        -11    1    4    4    0    0  0.51864304655E+01 -0.21536099282E+02 -0.79189289572E+01  0.23524711881E+02  0.00000000000E+00 0.  1.
         11    1    4    4    0    0 -0.16592048627E+01  0.45560034156E+02  0.11586850187E+03  0.12451497661E+03  0.00000000000E+00 0. -1.
        -11    1    3    3    0    0  0.51597313127E+02 -0.31946806724E+02  0.11770805102E+01  0.60698160601E+02  0.00000000000E+00 0.  1.
         11    1    3    3    0    0 -0.33789286388E+02  0.64765480021E+01 -0.20226135259E+02  0.39909373538E+02  0.00000000000E+00 0. -1.
         21    1    1    2  502  501 -0.21335252342E+02  0.14463238481E+01  0.46086608410E+02  0.50806105144E+02  0.00000000000E+00 0.  1.
<scales pt_clust_5="13000.00000" pt_clust_6="13000.00000" pt_clust_7="13000.00000" pt_clust_8="13000.00000" pt_clust_9="21.38422"></scales>
<clustering>
<clus scale="   21.384">  1  9  2 -1</clus>
<clus scale="   93.772">  7  8 -1 -1</clus>
<clus scale="   97.899">  2  7  1 -1</clus>
<clus scale="   98.352">  5  6 -1 -1</clus>
<clus scale="   21.384">  1  5  2 -1</clus>
</clustering>
</event>
<event>
 9    1  0.1296032E-005  0.2244590E+03  0.7546771E-02  0.1131580E+00
         -1   -1    0    0    0  501 -0.00000000000E+00  0.00000000000E+00  0.70318357473E+02  0.70318357473E+02  0.00000000000E+00 0.  1.
          1   -1    0    0  502    0  0.00000000000E+00 -0.00000000000E+00 -0.94037863078E+03  0.94037863078E+03  0.00000000000E+00 0. -1.
         23    2    1    2    0    0 -0.18923271394E+03  0.67532012903E+02 -0.22520872711E+03  0.31923383795E+03  0.10402730284E+03 0.  0.
         23    2    1    2    0    0  0.19047398914E+03 -0.45341819140E+02 -0.49824880886E+03  0.54318534327E+03  0.91990328361E+02 0.  0.
        -11    1    3    3    0    0 -0.17382138718E+03  0.28285343012E+02 -0.14304447558E+03  0.22688247456E+03  0.00000000000E+00 0.  1.
         11    1    3    3    0    0 -0.15411326757E+02  0.39246669891E+02 -0.82164251529E+02  0.92351363386E+02  0.00000000000E+00 0. -1.
        -11    1    4    4    0    0  0.35447423479E+02  0.18969149257E+02 -0.47654640153E+02  0.62348321413E+02  0.00000000000E+00 0.  1.
         11    1    4    4    0    0  0.15502656566E+03 -0.64310968397E+02 -0.45059416870E+03  0.48083702185E+03  0.00000000000E+00 0. -1.
         21    1    1    2  502  501 -0.12412751987E+01 -0.22190193763E+02 -0.14660273734E+03  0.14827780703E+03  0.00000000000E+00 0.  1.
<scales pt_clust_5="13000.00000" pt_clust_6="13000.00000" pt_clust_7="13000.00000" pt_clust_8="13000.00000" pt_clust_9="22.22488"></scales>
<clustering>
<clus scale="   22.225">  2  9  1 -1</clus>
<clus scale="   91.990">  7  8 -1 -1</clus>
<clus scale="  104.027">  5  6 -1 -1</clus>
<clus scale="  219.140">  2  7  1 -1</clus>
<clus scale="   22.225">  2  5  1 -1</clus>
</clustering>
</event>
<event>
 9    1  0.1296032E-005  0.1069779E+03  0.7546771E-02  0.1267211E+00
          3   -1    0    0  502    0  0.00000000000E+00  0.00000000000E+00  0.49896237035E+03  0.49896237035E+03  0.00000000000E+00 0. -1.
         -3   -1    0    0    0  501 -0.00000000000E+00 -0.00000000000E+00 -0.80790554878E+02  0.80790554878E+02  0.00000000000E+00 0.  1.
         23    2    1    2    0    0 -0.49751774387E+02 -0.78793089922E+01 -0.26229628930E+02  0.11005618433E+03  0.94271139332E+02 0.  0.
         23    2    1    2    0    0  0.10880549484E+02  0.36089637393E+02  0.28530678934E+03  0.30351038760E+03  0.96424805168E+02 0.  0.
        -11    1    3    3    0    0  0.15936318550E+02  0.27093535077E+02 -0.90036481195E+00  0.31445771555E+02  0.00000000000E+00 0. -1.
         11    1    3    3    0    0 -0.65688092937E+02 -0.34972844069E+02 -0.25329264118E+02  0.78610412776E+02  0.00000000000E+00 0.  1.
        -13    1    4    4    0    0  0.52268608071E+02  0.17814479253E+02  0.19248390370E+03  0.20024838638E+03  0.00000000000E+00 0. -1.
         13    1    4    4    0    0 -0.41388058587E+02  0.18275158140E+02  0.92822885639E+02  0.10326200123E+03  0.00000000000E+00 0.  1.
         21    1    1    2  502  501  0.38871224903E+02 -0.28210328400E+02  0.15909465506E+03  0.16618635330E+03  0.00000000000E+00 0. -1.
<scales pt_clust_5="13000.00000" pt_clust_6="13000.00000" pt_clust_7="13000.00000" pt_clust_8="13000.00000" pt_clust_9="48.02910"></scales>
<clustering>
<clus scale="   48.029">  1  9  2 -1</clus>
<clus scale="   94.271">  5  6 -1 -1</clus>
<clus scale="   96.425">  7  8 -1 -1</clus>
<clus scale="  105.041">  2  5  1 -1</clus>
<clus scale="   48.029">  1  5  2 -1</clus>
</clustering>
</event>
<event>
 9    1  0.1296032E-005  0.1122968E+03  0.7546771E-02  0.1257506E+00
          2   -1    0    0  502    0  0.00000000000E+00  0.00000000000E+00  0.33983745665E+03  0.33983745665E+03  0.00000000000E+00 0. -1.
         -2   -1    0    0    0  501 -0.00000000000E+00 -0.00000000000E+00 -0.45589425056E+02  0.45589425056E+02  0.00000000000E+00 0.  1.
         23    2    1    2    0    0 -0.62010004511E+02  0.34941376586E+02  0.12735474633E+03  0.17379087800E+03  0.94434619742E+02 0.  0.
         23    2    1    2    0    0  0.37140594277E+02 -0.35667534841E+02  0.12909911065E+03  0.16638763903E+03  0.91469499106E+02 0.  0.
        -13    1    3    3    0    0  0.12632104628E+02  0.31714262563E+02  0.11668034755E+02  0.36076412686E+02  0.00000000000E+00 0.  1.
         13    1    3    3    0    0 -0.74642109138E+02  0.32271140228E+01  0.11568671158E+03  0.13771446532E+03  0.00000000000E+00 0. -1.
        -13    1    4    4    0    0  0.36393663050E+02 -0.65310995031E+02  0.99816855658E+02  0.12471338924E+03  0.00000000000E+00 0. -1.
         13    1    4    4    0    0  0.74693122777E+00  0.29643460190E+02  0.29282254992E+02  0.41674249791E+02  0.00000000000E+00 0.  1.
         21    1    1    2  502  501  0.24869410233E+02  0.72615825551E+00  0.37794174615E+02  0.45248364678E+02  0.00000000000E+00 0. -1.
<scales pt_clust_5="13000.00000" pt_clust_6="13000.00000" pt_clust_7="13000.00000" pt_clust_8="13000.00000" pt_clust_9="24.88001"></scales>
<clustering>
<clus scale="   24.880">  1  9  2 -1</clus>
<clus scale="   91.469">  7  8 -1 -1</clus>
<clus scale="   94.435">  5  6 -1 -1</clus>
<clus scale="  109.815">  1  7  2 -1</clus>
<clus scale="   24.880">  1  5  2 -1</clus>
</clustering>
</event>
<event>
 9    1  0.1296032E-005  0.1014412E+03  0.7546771E-02  0.1278923E+00
          1   -1    0    0  502    0  0.00000000000E+00  0.00000000000E+00  0.27153351323E+03  0.27153351323E+03  0.00000000000E+00 0. -1.
         -1   -1    0    0    0  501 -0.00000000000E+00 -0.00000000000E+00 -0.10760027073E+03  0.10760027073E+03  0.00000000000E+00 0.  1.
         23    2    1    2    0    0  0.64563915097E+01  0.36886773066E+02 -0.60011413530E+02  0.11422081490E+03  0.89681133941E+02 0.  0.
         23    2    1    2    0    0 -0.17999635674E+02 -0.54488103089E+02  0.13610823370E+03  0.17458971407E+03  0.93076187691E+02 0.  0.
        -11    1    4    4    0    0 -0.38744952627E+02 -0.65369633321E+01  0.13894814478E+02  0.41676961418E+02  0.00000000000E+00 0.  1.
         11    1    4    4    0    0  0.20745316953E+02 -0.47951139756E+02  0.12221341922E+03  0.13291275265E+03  0.00000000000E+00 0. -1.
        -13    1    3    3    0    0 -0.35341302285E+02 -0.74063606259E+01 -0.25682345834E+02  0.44310774226E+02  0.00000000000E+00 0. -1.
         13    1    3    3    0    0  0.41797693795E+02  0.44293133692E+02 -0.34329067696E+02  0.69910040679E+02  0.00000000000E+00 0.  1.
         21    1    1    2  502  501  0.11543244165E+02  0.17601330022E+02  0.87836422331E+02  0.90323254991E+02  0.00000000000E+00 0.  1.
<scales pt_clust_5="13000.00000" pt_clust_6="13000.00000" pt_clust_7="13000.00000" pt_clust_8="13000.00000" pt_clust_9="21.04883"></scales>
<clustering>
<clus scale="   21.049">  1  9  2 -1</clus>
<clus scale="   89.681">  7  8 -1 -1</clus>
<clus scale="   93.076">  5  6 -1 -1</clus>
<clus scale="   98.335">  2  7  1 -1</clus>
<clus scale="   21.049">  1  5  2 -1</clus>
</clustering>
</event>
<event>
 9    1  0.1296032E-005  0.1068321E+03  0.7546771E-02  0.1266888E+00
          2   -1    0    0  502    0  0.00000000000E+00  0.00000000000E+00  0.25589360060E+03  0.25589360060E+03  0.00000000000E+00 0. -1.
         -2   -1    0    0    0  501 -0.00000000000E+00 -0.00000000000E+00 -0.57424448968E+02  0.57424448968E+02  0.00000000000E+00 0.  1.
         23    2    1    2    0    0  0.17517119703E+02  0.58611057415E+02  0.60777144621E+02  0.12623768552E+03  0.92195370838E+02 0.  0.
         23    2    1    2    0    0 -0.27729450206E+02 -0.36411187434E+02  0.11187313690E+03  0.15153124345E+03  0.91386114929E+02 0.  0.
        -11    1    4    4    0    0  0.18115973468E+02 -0.27786850302E+02  0.97082713992E+02  0.10259313281E+03  0.00000000000E+00 0.  1.
         11    1    4    4    0    0 -0.45845423673E+02 -0.86243371321E+01  0.14790422911E+02  0.48938110636E+02  0.00000000000E+00 0. -1.
        -13    1    3    3    0    0  0.49538114435E+02  0.83205013222E+01  0.35342476288E+02  0.61419428150E+02  0.00000000000E+00 0. -1.
         13    1    3    3    0    0 -0.32020994732E+02  0.50290556093E+02  0.25434668333E+02  0.64818257374E+02  0.00000000000E+00 0.  1.
         21    1    1    2  502  501  0.10212330502E+02 -0.22199869981E+02  0.25818870111E+02  0.35549120597E+02  0.00000000000E+00 0. -1.
<scales pt_clust_5="13000.00000" pt_clust_6="13000.00000" pt_clust_7="13000.00000" pt_clust_8="13000.00000" pt_clust_9="24.43616"></scales>
<clustering>
<clus scale="   24.436">  1  9  2 -1</clus>
<clus scale="   91.386">  5  6 -1 -1</clus>
<clus scale="   92.195">  7  8 -1 -1</clus>
<clus scale="  106.135">  1  5  2 -1</clus>
<clus scale="   24.436">  1  5  2 -1</clus>
</clustering>
</event>
<event>
 9    1  0.1296032E-005  0.9573233E+02  0.7546771E-02  0.1289595E+00
          2   -1    0    0  502    0  0.00000000000E+00  0.00000000000E+00  0.14922396523E+03  0.14922396523E+03  0.00000000000E+00 0. -1.
         -2   -1    0    0    0  501 -0.00000000000E+00 -0.00000000000E+00 -0.48642473212E+03  0.48642473212E+03  0.00000000000E+00 0.  1.
         23    2    1    2    0    0 -0.24963705969E+02  0.13617875441E+02 -0.37828408004E+03  0.38975285220E+03  0.89441642678E+02 0.  0.
         23    2    1    2    0    0  0.49149056191E+02 -0.45099554640E+02 -0.67469959508E+02  0.13031106978E+03  0.89326255476E+02 0.  0.
        -13    1    4    4    0    0  0.23914256378E+02  0.24323734573E+02 -0.69364933264E+01  0.34808772764E+02  0.00000000000E+00 0.  1.
         13    1    4    4    0    0  0.25234799814E+02 -0.69423289213E+02 -0.60533466182E+02  0.95502297013E+02  0.00000000000E+00 0. -1.
        -13    1    3    3    0    0  0.24665719209E+02  0.29304296019E+02 -0.11031432886E+03  0.11677495717E+03  0.00000000000E+00 0. -1.
         13    1    3    3    0    0 -0.49629425177E+02 -0.15686420578E+02 -0.26796975117E+03  0.27297789504E+03  0.00000000000E+00 0.  1.
         21    1    1    2  502  501 -0.24185350222E+02  0.31481679199E+02  0.10855327266E+03  0.11558477536E+03  0.00000000000E+00 0. -1.
<scales pt_clust_5="13000.00000" pt_clust_6="13000.00000" pt_clust_7="13000.00000" pt_clust_8="13000.00000" pt_clust_9="39.69921"></scales>
<clustering>
<clus scale="   39.699">  1  9  2 -1</clus>
<clus scale="   89.326">  5  6 -1 -1</clus>
<clus scale="   89.442">  7  8 -1 -1</clus>
<clus scale="   95.625">  1  5  2 -1</clus>
<clus scale="   39.699">  1  5  2 -1</clus>
</clustering>
</event>
<event>
 9    1  0.1296032E-005  0.9591500E+02  0.7546771E-02  0.1289702E+00
         -4   -1    0    0    0  501 -0.00000000000E+00  0.00000000000E+00  0.29106170757E+03  0.29106170757E+03  0.00000000000E+00 0.  1.
          4   -1    0    0  502    0  0.00000000000E+00 -0.00000000000E+00 -0.57108183267E+02  0.57108183267E+02  0.00000000000E+00 0. -1.
         23    2    1    2    0    0  0.24588746929E+02  0.62719120222E+00  0.19013330445E+03  0.21268400898E+03  0.92080477695E+02 0.  0.
         23    2    1    2    0    0 -0.29290337398E+02 -0.25983273622E+02  0.46712544659E+02  0.10953590283E+03  0.91010976297E+02 0.  0.
        -11    1    3    3    0    0 -0.28892798378E+02  0.21200601609E+02  0.52158422802E+02  0.63283176089E+02  0.00000000000E+00 0. -1.
         11    1    3    3    0    0  0.53481545307E+02 -0.20573410407E+02  0.13797488165E+03  0.14940083290E+03  0.00000000000E+00 0.  1.
        -11    1    4    4    0    0  0.21100217044E+02  0.56266151036E+01  0.45009284602E+02  0.50027129212E+02  0.00000000000E+00 0.  1.
         11    1    4    4    0    0 -0.50390554442E+02 -0.31609888726E+02  0.17032600571E+01  0.59508773614E+02  0.00000000000E+00 0. -1.
         21    1    1    2  502  501  0.47015904687E+01  0.25356082420E+02 -0.28923248058E+01  0.25949979025E+02  0.00000000000E+00 0.  1.
<scales pt_clust_5="13000.00000" pt_clust_6="13000.00000" pt_clust_7="13000.00000" pt_clust_8="13000.00000" pt_clust_9="25.78829"></scales>
<clustering>
<clus scale="   25.788">  2  9  1 -1</clus>
<clus scale="   91.011">  7  8 -1 -1</clus>
<clus scale="   92.080">  5  6 -1 -1</clus>
<clus scale="   94.889">  2  7  1 -1</clus>
<clus scale="   25.788">  2  5  1 -1</clus>
</clustering>
</event>
<event>
 9    1  0.1296032E-005  0.1103266E+03  0.7546771E-02  0.1261193E+00
          2   -1    0    0  502    0  0.00000000000E+00  0.00000000000E+00  0.42434351067E+03  0.42434351067E+03  0.00000000000E+00 0. -1.
         -2   -1    0    0    0  501 -0.00000000000E+00 -0.00000000000E+00 -0.34671673319E+02  0.34671673319E+02  0.00000000000E+00 0.  1.
         23    2    1    2    0    0  0.27254732429E+02 -0.60848893686E+02  0.15602419865E+03  0.19398360800E+03  0.94024897268E+02 0.  0.
         23    2    1    2    0    0 -0.28203528103E+02  0.39107572467E+02  0.18412244720E+03  0.21093601374E+03  0.90929011365E+02 0.  0.
        -13    1    3    3    0    0  0.18747717851E+02  0.23282382307E+02  0.51395889459E+02  0.59456569896E+02  0.00000000000E+00 0.  1.
         13    1    3    3    0    0  0.85070145775E+01 -0.84131275993E+02  0.10462830919E+03  0.13452703810E+03  0.00000000000E+00 0. -1.
        -13    1    4    4    0    0  0.23559625633E+02  0.25645785674E+02  0.24468533767E+02  0.42561384229E+02  0.00000000000E+00 0.  1.
         13    1    4    4    0    0 -0.51763153736E+02  0.13461786793E+02  0.15965391343E+03  0.16837462951E+03  0.00000000000E+00 0. -1.
         21    1    1    2  502  501  0.94879567468E+00  0.21741321218E+02  0.49525191499E+02  0.54095562245E+02  0.00000000000E+00 0.  1.
<scales pt_clust_5="13000.00000" pt_clust_6="13000.00000" pt_clust_7="13000.00000" pt_clust_8="13000.00000" pt_clust_9="21.76201"></scales>
<clustering>
<clus scale="   21.762">  1  9  2 -1</clus>
<clus scale="   90.929">  7  8 -1 -1</clus>
<clus scale="   94.025">  5  6 -1 -1</clus>
<clus scale="  107.700">  1  7  2 -1</clus>
<clus scale="   21.762">  1  5  2 -1</clus>
</clustering>
</event>
<event>
 9    1  0.1296032E-005  0.1598164E+03  0.7546771E-02  0.1189085E+00
          2   -1    0    0  502    0  0.00000000000E+00  0.00000000000E+00  0.39109304662E+03  0.39109304662E+03  0.00000000000E+00 0. -1.
         -2   -1    0    0    0  501 -0.00000000000E+00 -0.00000000000E+00 -0.11399777009E+03  0.11399777009E+03  0.00000000000E+00 0.  1.
         23    2    1    2    0    0  0.10668228770E+03 -0.64213376167E+02 -0.24557117071E+00  0.15448103619E+03  0.91432281218E+02 0.  0.
         23    2    1    2    0    0 -0.12448967482E+03  0.83565136944E+02  0.18535470270E+03  0.25493823536E+03  0.90312384460E+02 0.  0.
        -11    1    3    3    0    0  0.78501344904E+02 -0.66409569667E+02 -0.35963535699E+02  0.10893148303E+03  0.00000000000E+00 0.  1.
         11    1    3    3    0    0  0.28180942797E+02  0.21961935006E+01  0.35717964529E+02  0.45549553158E+02  0.00000000000E+00 0. -1.
        -13    1    4    4    0    0 -0.13078956824E+03  0.55991178681E+02  0.12974113614E+03  0.19254528210E+03  0.00000000000E+00 0. -1.
         13    1    4    4    0    0  0.62998934229E+01  0.27573958263E+02  0.55613566564E+02  0.62392953267E+02  0.00000000000E+00 0.  1.
         21    1    1    2  502  501  0.17807387115E+02 -0.19351760777E+02  0.91986145000E+02  0.95671545158E+02  0.00000000000E+00 0. -1.
<scales pt_clust_5="13000.00000" pt_clust_6="13000.00000" pt_clust_7="13000.00000" pt_clust_8="13000.00000" pt_clust_9="26.29817"></scales>
<clustering>
<clus scale="   26.298">  1  9  2 -1</clus>
<clus scale="   90.312">  7  8 -1 -1</clus>
<clus scale="   91.432">  5  6 -1 -1</clus>
<clus scale="  159.178">  1  7  2 -1</clus>
<clus scale="   26.298">  1  5  2 -1</clus>
</clustering>
</event>
<event>
 9    1  0.1296032E-005  0.1053672E+03  0.7546771E-02  0.1276574E+00
          1   -1    0    0  502    0  0.00000000000E+00  0.00000000000E+00  0.23436344164E+03  0.23436344164E+03  0.00000000000E+00 0. -1.
         -1   -1    0    0    0  501 -0.00000000000E+00 -0.00000000000E+00 -0.19609556222E+03  0.19609556222E+03  0.00000000000E+00 0.  1.
         23    2    1    2    0    0  0.12150683833E+02 -0.28975125804E+02 -0.81653628064E+02  0.12618910851E+03  0.90935026796E+02 0.  0.
         23    2    1    2    0    0  0.26370706108E+00 -0.16285709691E+02 -0.57669873863E+02  0.12058168380E+03  0.10463667730E+03 0.  0.
        -11    1    3    3    0    0 -0.37915953629E+02 -0.13687409994E+02 -0.19058088290E+02  0.44588961203E+02  0.00000000000E+00 0.  1.
         11    1    3    3    0    0  0.50066637461E+02 -0.15287715810E+02 -0.62595539774E+02  0.81600147310E+02  0.00000000000E+00 0. -1.
        -11    1    4    4    0    0  0.36192606991E+02  0.13703066569E+02  0.84145980676E+01  0.39604094420E+02  0.00000000000E+00 0. -1.
         11    1    4    4    0    0 -0.35928899930E+02 -0.29988776260E+02 -0.66084471931E+02  0.80977589382E+02  0.00000000000E+00 0.  1.
         21    1    1    2  502  501 -0.12414390894E+02  0.45260835496E+02  0.17759138135E+03  0.18368821155E+03  0.00000000000E+00 0. -1.
<scales pt_clust_5="13000.00000" pt_clust_6="13000.00000" pt_clust_7="13000.00000" pt_clust_8="13000.00000" pt_clust_9="46.93251"></scales>
<clustering>
<clus scale="   46.933">  1  9  2 -1</clus>
<clus scale="   90.935">  5  6 -1 -1</clus>
<clus scale="   91.775">  2  5  1 -1</clus>
<clus scale="  104.637">  7  8 -1 -1</clus>
<clus scale="   46.933">  1  5  2 -1</clus>
</clustering>
</event>
<event>
 9    1  0.1472082E-005  0.1130327E+03  0.7546771E-02  0.1256753E+00
         -1   -1    0    0    0  501 -0.00000000000E+00  0.00000000000E+00  0.40357133957E+02  0.40357133957E+02  0.00000000000E+00 0.  1.
          1   -1    0    0  502    0  0.00000000000E+00 -0.00000000000E+00 -0.65294945692E+03  0.65294945692E+03  0.00000000000E+00 0. -1.
         23    2    1    2    0    0 -0.18150366318E+02  0.67993415369E+02 -0.68110576230E+02  0.13402044985E+03  0.91487103208E+02 0.  0.
         23    2    1    2    0    0  0.19342971361E+02 -0.43479263678E+02 -0.48381216539E+03  0.49384025467E+03  0.86829654179E+02 0.  0.
        -11    1    4    4    0    0  0.45666318769E+02  0.21359256935E+01 -0.25284905372E+03  0.25694866961E+03  0.00000000000E+00 0. -1.
         11    1    4    4    0    0 -0.26323347408E+02 -0.45615189371E+02 -0.23096311167E+03  0.23689158506E+03  0.00000000000E+00 0.  1.
        -13    1    3    3    0    0  0.13649238078E+02  0.74606203506E+02 -0.24620943221E+02  0.79740693167E+02  0.00000000000E+00 0.  1.
         13    1    3    3    0    0 -0.31799604396E+02 -0.66127881362E+01 -0.43489633009E+02  0.54279756687E+02  0.00000000000E+00 0. -1.
         21    1    1    2  502  501 -0.11926050428E+01 -0.24514151692E+02 -0.60669581346E+02  0.65445886354E+02  0.00000000000E+00 0. -1.
<scales pt_clust_5="13000.00000" pt_clust_6="13000.00000" pt_clust_7="13000.00000" pt_clust_8="13000.00000" pt_clust_9="24.54314"></scales>
<clustering>
<clus scale="   24.543">  2  9  1 -1</clus>
<clus scale="   86.830">  5  6 -1 -1</clus>
<clus scale="   91.487">  7  8 -1 -1</clus>
<clus scale="  109.297">  2  5  1 -1</clus>
<clus scale="   24.543">  2  5  1 -1</clus>
</clustering>
</event>
<event>
 9    1  0.1296032E-005  0.9406342E+02  0.7546771E-02  0.1294815E+00
         -2   -1    0    0    0  501 -0.00000000000E+00  0.00000000000E+00  0.99772314136E+02  0.99772314136E+02  0.00000000000E+00 0.  1.
          2   -1    0    0  502    0  0.00000000000E+00 -0.00000000000E+00 -0.45758593877E+03  0.45758593877E+03  0.00000000000E+00 0. -1.
         23    2    1    2    0    0  0.26549530318E+02 -0.89700597363E+01  0.54749690161E+02  0.10809232175E+03  0.88888030218E+02 0.  0.
         23    2    1    2    0    0  0.26148805852E+02 -0.41764699626E+02 -0.22217763232E+03  0.24531044941E+03  0.91576558714E+02 0.  0.
        -11    1    4    4    0    0  0.57700413904E+02 -0.25333741672E+02 -0.10124977610E+03  0.11925876652E+03  0.00000000000E+00 0.  1.
         11    1    4    4    0    0 -0.31551608053E+02 -0.16430957953E+02 -0.12092785622E+03  0.12605168289E+03  0.00000000000E+00 0. -1.
        -11    1    3    3    0    0 -0.18319564102E+02  0.11885809304E+02 -0.12067045444E+02  0.24949799146E+02  0.00000000000E+00 0. -1.
         11    1    3    3    0    0  0.44869094420E+02 -0.20855869041E+02  0.66816735605E+02  0.83142522600E+02  0.00000000000E+00 0.  1.
         21    1    1    2  502  501 -0.52698336170E+02  0.50734759362E+02 -0.19038568248E+03  0.20395548175E+03  0.00000000000E+00 0. -1.
<scales pt_clust_5="13000.00000" pt_clust_6="13000.00000" pt_clust_7="13000.00000" pt_clust_8="13000.00000" pt_clust_9="73.15142"></scales>
<clustering>
<clus scale="   73.151">  2  9  1 -1</clus>
<clus scale="   88.888">  7  8 -1 -1</clus>
<clus scale="   91.448">  1  7  2 -1</clus>
<clus scale="   91.577">  5  6 -1 -1</clus>
<clus scale="   73.151">  2  5  1 -1</clus>
</clustering>
</event>
<event>
 9    1  0.1296032E-005  0.1253868E+03  0.7546771E-02  0.1237278E+00
          1   -1    0    0  502    0  0.00000000000E+00  0.00000000000E+00  0.38205795754E+03  0.38205795754E+03  0.00000000000E+00 0. -1.
         -1   -1    0    0    0  501 -0.00000000000E+00 -0.00000000000E+00 -0.53304112928E+02  0.53304112928E+02  0.00000000000E+00 0.  1.
         23    2    1    2    0    0  0.91030347522E+02 -0.33652196718E+02  0.11573843004E+03  0.17220473587E+03  0.82704850860E+02 0.  0.
         23    2    1    2    0    0 -0.75166579303E+02  0.19961540742E+02  0.20959928690E+03  0.24192615159E+03  0.92454983667E+02 0.  0.
        -11    1    4    4    0    0 -0.95263321074E+02  0.50098569600E+01  0.17334422833E+03  0.19785959796E+03  0.00000000000E+00 0. -1.
         11    1    4    4    0    0  0.20096741771E+02  0.14951683782E+02  0.36255058565E+02  0.44066553635E+02  0.00000000000E+00 0.  1.
        -11    1    3    3    0    0  0.70954922602E+02  0.11327070973E+02  0.94122603600E+02  0.11841439138E+03  0.00000000000E+00 0.  1.
         11    1    3    3    0    0  0.20075424920E+02 -0.44979267691E+02  0.21615826436E+02  0.53790344489E+02  0.00000000000E+00 0. -1.
         21    1    1    2  502  501 -0.15863768218E+02  0.13690655976E+02  0.34161276758E+01  0.21231182997E+02  0.00000000000E+00 0. -1.
<scales pt_clust_5="13000.00000" pt_clust_6="13000.00000" pt_clust_7="13000.00000" pt_clust_8="13000.00000" pt_clust_9="20.95455"></scales>
<clustering>
<clus scale="   20.955">  2  9  1 -1</clus>
<clus scale="   82.705">  7  8 -1 -1</clus>
<clus scale="   92.455">  5  6 -1 -1</clus>
<clus scale="  118.381">  2  7  1 -1</clus>
<clus scale="  125.387">  1  5  2 -1</clus>
</clustering>
</event>
<event>
 9    1  0.1296032E-005  0.1398211E+03  0.7546771E-02  0.1215151E+00
          2   -1    0    0  502    0  0.00000000000E+00  0.00000000000E+00  0.71081196960E+03  0.71081196960E+03  0.00000000000E+00 0. -1.
         -2   -1    0    0    0  501 -0.00000000000E+00 -0.00000000000E+00 -0.50099243798E+02  0.50099243798E+02  0.00000000000E+00 0.  1.
         23    2    1    2    0    0 -0.67788522499E+02  0.72665474545E+02  0.10719974127E+03  0.17190582955E+03  0.90466981447E+02 0.  0.
         23    2    1    2    0    0  0.10828179707E+03 -0.78473834855E+02  0.47578453278E+03  0.50116943137E+03  0.83167222984E+02 0.  0.
        -11    1    3    3    0    0 -0.13465756936E+02  0.62903189092E+02  0.17636794022E+02  0.66702281154E+02  0.00000000000E+00 0.  1.
         11    1    3    3    0    0 -0.54322765563E+02  0.97622854534E+01  0.89562947251E+02  0.10520354840E+03  0.00000000000E+00 0. -1.
        -13    1    4    4    0    0 -0.25296532061E+01 -0.23409017845E+02  0.27905798313E+02  0.36511845219E+02  0.00000000000E+00 0.  1.
         13    1    4    4    0    0  0.11081145028E+03 -0.55064817009E+02  0.44787873446E+03  0.46465758615E+03  0.00000000000E+00 0. -1.
         21    1    1    2  502  501 -0.40493274571E+02  0.58083603095E+01  0.77728451753E+02  0.87835952473E+02  0.00000000000E+00 0. -1.
<scales pt_clust_5="13000.00000" pt_clust_6="13000.00000" pt_clust_7="13000.00000" pt_clust_8="13000.00000" pt_clust_9="40.90773"></scales>
<clustering>
<clus scale="   40.908">  1  9  2 -1</clus>
<clus scale="   83.167">  7  8 -1 -1</clus>
<clus scale="   90.467">  5  6 -1 -1</clus>
<clus scale="  135.213">  1  7  2 -1</clus>
<clus scale="   40.908">  1  5  2 -1</clus>
</clustering>
</event>
<event>
 9    1  0.1296032E-005  0.1307787E+03  0.7546771E-02  0.1226567E+00
         -1   -1    0    0    0  501 -0.00000000000E+00  0.00000000000E+00  0.24494105388E+03  0.24494105388E+03  0.00000000000E+00 0.  1.
          1   -1    0    0  502    0  0.00000000000E+00 -0.00000000000E+00 -0.38070347298E+03  0.38070347298E+03  0.00000000000E+00 0. -1.
         23    2    1    2    0    0  0.29392108531E+02 -0.59507739251E+02  0.18453896695E+03  0.21634351802E+03  0.91349988466E+02 0.  0.
         23    2    1    2    0    0 -0.69404591009E+02  0.64092283806E+02 -0.33978104309E+03  0.36456317428E+03  0.92359800246E+02 0.  0.
        -11    1    4    4    0    0  0.19192946938E+02  0.26680311129E+02 -0.12472046392E+03  0.12897830180E+03  0.00000000000E+00 0.  1.
         11    1    4    4    0    0 -0.88597537947E+02  0.37411972677E+02 -0.21506057917E+03  0.23558487248E+03  0.00000000000E+00 0. -1.
        -11    1    3    3    0    0 -0.20963106243E+02 -0.51215667991E+02  0.13184350025E+03  0.14298673025E+03  0.00000000000E+00 0.  1.
         11    1    3    3    0    0  0.50355214774E+02 -0.82920712601E+01  0.52695466699E+02  0.73356787766E+02  0.00000000000E+00 0. -1.
         21    1    1    2  502  501  0.40012482477E+02 -0.45845445544E+01  0.19479657046E+02  0.44737834563E+02  0.00000000000E+00 0.  1.
<scales pt_clust_5="13000.00000" pt_clust_6="13000.00000" pt_clust_7="13000.00000" pt_clust_8="13000.00000" pt_clust_9="40.27427"></scales>
<clustering>
<clus scale="   40.274">  1  9  2 -1</clus>
<clus scale="   91.350">  7  8 -1 -1</clus>
<clus scale="   92.360">  5  6 -1 -1</clus>
<clus scale="  130.068">  1  7  2 -1</clus>
<clus scale="  130.779">  2  5  1 -1</clus>
</clustering>
</event>
<event>
 9    1  0.1296032E-005  0.2861171E+03  0.7546771E-02  0.1092432E+00
         -1   -1    0    0    0  501 -0.00000000000E+00  0.00000000000E+00  0.24988383377E+03  0.24988383377E+03  0.00000000000E+00 0.  1.
          1   -1    0    0  502    0  0.00000000000E+00 -0.00000000000E+00 -0.43905240205E+03  0.43905240205E+03  0.00000000000E+00 0. -1.
         23    2    1    2    0    0  0.29553476323E+03  0.23817615721E+02  0.13237092287E+02  0.31167211924E+03  0.95164143488E+02 0.  0.
         23    2    1    2    0    0 -0.23162287722E+03 -0.85257663796E+01 -0.14046008380E+03  0.28695451403E+03  0.94297465708E+02 0.  0.
        -11    1    4    4    0    0 -0.15265311098E+03  0.86886306875E+01 -0.40054013032E+02  0.15805944627E+03  0.00000000000E+00 0.  1.
         11    1    4    4    0    0 -0.78969766233E+02 -0.17214397067E+02 -0.10040607077E+03  0.12889506776E+03  0.00000000000E+00 0. -1.
        -13    1    3    3    0    0  0.14898765289E+03  0.55223124246E+02  0.26986822245E+02  0.16116824359E+03  0.00000000000E+00 0. -1.
         13    1    3    3    0    0  0.14654711033E+03 -0.31405508525E+02 -0.13749729959E+02  0.15050387565E+03  0.00000000000E+00 0.  1.
         21    1    1    2  502  501 -0.63911886013E+02 -0.15291849341E+02 -0.61945576767E+02  0.90309602540E+02  0.00000000000E+00 0.  1.
<scales pt_clust_5="13000.00000" pt_clust_6="13000.00000" pt_clust_7="13000.00000" pt_clust_8="13000.00000" pt_clust_9="65.71583"></scales>
<clustering>
<clus scale="   65.716">  2  9  1 -1</clus>
<clus scale="   94.297">  5  6 -1 -1</clus>
<clus scale="   95.164">  7  8 -1 -1</clus>
<clus scale="  285.830">  2  5  1 -1</clus>
<clus scale="   65.716">  2  5  1 -1</clus>
</clustering>
</event>
<event>
 9    1  0.1296032E-005  0.1004084E+03  0.7546771E-02  0.1280224E+00
          2   -1    0    0  502    0  0.00000000000E+00  0.00000000000E+00  0.27508508555E+03  0.27508508555E+03  0.00000000000E+00 0. -1.
         -2   -1    0    0    0  501 -0.00000000000E+00 -0.00000000000E+00 -0.87220077021E+02  0.87220077021E+02  0.00000000000E+00 0.  1.
         23    2    1    2    0    0  0.25407955131E+02  0.11019377669E+02  0.36229515007E+02  0.10128202515E+03  0.90434948956E+02 0.  0.
         23    2    1    2    0    0  0.49446823235E+02 -0.53690534274E+02  0.12332451003E+03  0.17032816933E+03  0.92060244917E+02 0.  0.
        -11    1    4    4    0    0  0.17980125488E+02 -0.49941955217E+02  0.11782411619E+02  0.54371950737E+02  0.00000000000E+00 0.  1.
         11    1    4    4    0    0  0.31466697746E+02 -0.37485790576E+01  0.11154209841E+03  0.11595621859E+03  0.00000000000E+00 0. -1.
        -11    1    3    3    0    0 -0.34077733405E+02  0.30526238656E+01  0.90065189616E+01  0.35379765549E+02  0.00000000000E+00 0.  1.
         11    1    3    3    0    0  0.59485688536E+02  0.79667538029E+01  0.27222996045E+02  0.65902259601E+02  0.00000000000E+00 0. -1.
         21    1    1    2  502  501 -0.74854778366E+02  0.42671156606E+02  0.28310983486E+02  0.90694968086E+02  0.00000000000E+00 0.  1.
<scales pt_clust_5="13000.00000" pt_clust_6="13000.00000" pt_clust_7="13000.00000" pt_clust_8="13000.00000" pt_clust_9="86.16302"></scales>
<clustering>
<clus scale="   86.163">  2  9  1 -1</clus>
<clus scale="   90.435">  7  8 -1 -1</clus>
<clus scale="   92.060">  5  6 -1 -1</clus>
<clus scale="   98.920">  2  7  1 -1</clus>
<clus scale="  100.408">  1  5  2 -1</clus>
</clustering>
</event>
<event>
 9    1  0.1296032E-005  0.1044318E+03  0.7546771E-02  0.1275180E+00
         -4   -1    0    0    0  501 -0.00000000000E+00  0.00000000000E+00  0.18489959642E+02  0.18489959642E+02  0.00000000000E+00 0.  1.
          4   -1    0    0  502    0  0.00000000000E+00 -0.00000000000E+00 -0.88363115480E+03  0.88363115480E+03  0.00000000000E+00 0. -1.
         23    2    1    2    0    0 -0.41805276198E+02 -0.42102227762E+02 -0.23012447583E+03  0.25450456821E+03  0.91077012274E+02 0.  0.
         23    2    1    2    0    0  0.97273434258E+01  0.40376928478E+02 -0.40359268966E+03  0.41397354519E+03  0.82232106885E+02 0.  0.
        -11    1    3    3    0    0 -0.15311343791E+02  0.27226522440E+02 -0.99258583314E+02  0.10405761450E+03  0.00000000000E+00 0. -1.
         11    1    3    3    0    0 -0.26493932406E+02 -0.69328750203E+02 -0.13086589251E+03  0.15044695371E+03  0.00000000000E+00 0.  1.
        -13    1    4    4    0    0 -0.17227509801E+02 -0.18948421599E+02 -0.84497263102E+02  0.88292792723E+02  0.00000000000E+00 0.  1.
         13    1    4    4    0    0  0.26954853227E+02  0.59325350078E+02 -0.31909542656E+03  0.32568075246E+03  0.00000000000E+00 0. -1.
         21    1    1    2  502  501  0.32077932772E+02  0.17252992841E+01 -0.23142402967E+03  0.23364300104E+03  0.00000000000E+00 0. -1.
<scales pt_clust_5="13000.00000" pt_clust_6="13000.00000" pt_clust_7="13000.00000" pt_clust_8="13000.00000" pt_clust_9="32.12430"></scales>
<clustering>
<clus scale="   32.124">  2  9  1 -1</clus>
<clus scale="   82.232">  7  8 -1 -1</clus>
<clus scale="   91.077">  5  6 -1 -1</clus>
<clus scale="   96.815">  2  7  1 -1</clus>
<clus scale="   32.124">  2  5  1 -1</clus>
</clustering>
</event>
<event>
 9    1  0.1296032E-005  0.1159330E+03  0.7546771E-02  0.1250916E+00
         -1   -1    0    0    0  501 -0.00000000000E+00  0.00000000000E+00  0.14799614044E+03  0.14799614044E+03  0.00000000000E+00 0.  1.
          1   -1    0    0  502    0  0.00000000000E+00 -0.00000000000E+00 -0.65164359681E+03  0.65164359681E+03  0.00000000000E+00 0. -1.
         23    2    1    2    0    0  0.76292460443E+01 -0.65909800383E+02  0.91464280904E+02  0.14506164284E+03  0.90966248473E+02 0.  0.
         23    2    1    2    0    0 -0.93476933823E+02  0.68101844566E+02 -0.19477203904E+03  0.24513151116E+03  0.93688378040E+02 0.  0.
        -11    1    4    4    0    0 -0.32584069161E+02 -0.15101629299E+02 -0.17254711635E+02  0.39843516965E+02  0.00000000000E+00 0.  1.
         11    1    4    4    0    0 -0.60892864662E+02  0.83203473865E+02 -0.17751732741E+03  0.20528799419E+03  0.00000000000E+00 0. -1.
        -13    1    3    3    0    0  0.35614122175E+02 -0.74838196888E+02  0.62457294510E+02  0.10377877938E+03  0.00000000000E+00 0.  1.
         13    1    3    3    0    0 -0.27984876131E+02  0.89283965045E+01  0.29006986394E+02  0.41282863465E+02  0.00000000000E+00 0. -1.
         21    1    1    2  502  501  0.85847687779E+02 -0.21920441830E+01 -0.40033969823E+03  0.40944658325E+03  0.00000000000E+00 0. -1.
<scales pt_clust_5="13000.00000" pt_clust_6="13000.00000" pt_clust_7="13000.00000" pt_clust_8="13000.00000" pt_clust_9="85.87567"></scales>
<clustering>
<clus scale="   85.876">  2  9  1 -1</clus>
<clus scale="   90.966">  7  8 -1 -1</clus>
<clus scale="   93.688">  5  6 -1 -1</clus>
<clus scale="  113.744">  1  7  2 -1</clus>
<clus scale="   85.876">  2  5  1 -1</clus>
</clustering>
</event>
<event>
 9    1  0.1296032E-005  0.1069438E+03  0.7546771E-02  0.1267796E+00
         -4   -1    0    0    0  501 -0.00000000000E+00  0.00000000000E+00  0.15507272115E+03  0.15507272115E+03  0.00000000000E+00 0.  1.
          4   -1    0    0  502    0  0.00000000000E+00 -0.00000000000E+00 -0.11078962007E+03  0.11078962007E+03  0.00000000000E+00 0. -1.
         23    2    1    2    0    0  0.46612313597E+02  0.25124297310E+02  0.37431708071E+02  0.11352830210E+03  0.93185860058E+02 0.  0.
         23    2    1    2    0    0 -0.57765891736E+02  0.11354844301E+02  0.24835004514E+02  0.11016129483E+03  0.89737966844E+02 0.  0.
        -11    1    4    4    0    0  0.35852276314E+01  0.21213899687E+02 -0.23185735451E+02  0.31630076281E+02  0.00000000000E+00 0. -1.
         11    1    4    4    0    0 -0.61351119368E+02 -0.98590553864E+01  0.48020739965E+02  0.78531218554E+02  0.00000000000E+00 0.  1.
        -11    1    3    3    0    0  0.48497128359E+02 -0.11673432638E+02 -0.12546619972E+02  0.51435961752E+02  0.00000000000E+00 0.  1.
         11    1    3    3    0    0 -0.18848147623E+01  0.36797729949E+02  0.49978328043E+02  0.62092340349E+02  0.00000000000E+00 0. -1.
         21    1    1    2  502  501  0.11153578139E+02 -0.36479141611E+02 -0.17983611502E+02  0.42172744287E+02  0.00000000000E+00 0. -1.
<scales pt_clust_5="13000.00000" pt_clust_6="13000.00000" pt_clust_7="13000.00000" pt_clust_8="13000.00000" pt_clust_9="38.14617"></scales>
<clustering>
<clus scale="   38.146">  2  9  1 -1</clus>
<clus scale="   89.738">  5  6 -1 -1</clus>
<clus scale="   93.186">  7  8 -1 -1</clus>
<clus scale="  103.953">  2  5  1 -1</clus>
<clus scale="   38.146">  2  5  1 -1</clus>
</clustering>
</event>
<event>
 9    1  0.1296032E-005  0.9696246E+02  0.7546771E-02  0.1287800E+00
          2   -1    0    0  502    0  0.00000000000E+00  0.00000000000E+00  0.41731835562E+03  0.41731835562E+03  0.00000000000E+00 0. -1.
         -2   -1    0    0    0  501 -0.00000000000E+00 -0.00000000000E+00 -0.30471640377E+02  0.30471640377E+02  0.00000000000E+00 0.  1.
         23    2    1    2    0    0  0.11987370737E+01 -0.27293685437E+02  0.13465131155E+03  0.16518982517E+03  0.91707799023E+02 0.  0.
         23    2    1    2    0    0  0.19934688314E+02  0.19687700107E+02  0.23444971224E+03  0.25397531718E+03  0.93551038650E+02 0.  0.
        -11    1    3    3    0    0  0.22413003207E+02 -0.54562127341E+02  0.10098701947E+03  0.11695189847E+03  0.00000000000E+00 0.  1.
         11    1    3    3    0    0 -0.21214266133E+02  0.27268441904E+02  0.33664292075E+02  0.48237926701E+02  0.00000000000E+00 0. -1.
        -13    1    4    4    0    0  0.41872127773E+02  0.13308490102E+02  0.22500395390E+03  0.22925350654E+03  0.00000000000E+00 0. -1.
         13    1    4    4    0    0 -0.21937439460E+02  0.63792100050E+01  0.94457583412E+01  0.24721810633E+02  0.00000000000E+00 0.  1.
         21    1    1    2  502  501 -0.21133425387E+02  0.76059853292E+01  0.17745691453E+02  0.28624853652E+02  0.00000000000E+00 0.  1.
<scales pt_clust_5="13000.00000" pt_clust_6="13000.00000" pt_clust_7="13000.00000" pt_clust_8="13000.00000" pt_clust_9="22.46047"></scales>
<clustering>
<clus scale="   22.460">  2  9  1 -1</clus>
<clus scale="   91.708">  5  6 -1 -1</clus>
<clus scale="   93.551">  7  8 -1 -1</clus>
<clus scale="   95.185">  2  5  1 -1</clus>
<clus scale="   96.962">  1  5  2 -1</clus>
</clustering>
</event>
<event>
 9    1  0.1296032E-005  0.9267624E+02  0.7546771E-02  0.1298026E+00
          1   -1    0    0  502    0  0.00000000000E+00  0.00000000000E+00  0.53535417552E+02  0.53535417552E+02  0.00000000000E+00 0. -1.
         -1   -1    0    0    0  501 -0.00000000000E+00 -0.00000000000E+00 -0.41675248892E+03  0.41675248892E+03  0.00000000000E+00 0.  1.
         23    2    1    2    0    0  0.45646200150E+01  0.50959480869E+01 -0.32676222830E+03  0.33965749464E+03  0.92449204331E+02 0.  0.
         23    2    1    2    0    0  0.24565108115E+02 -0.14480315742E+02 -0.22107972595E+02  0.96830410207E+02  0.89856784986E+02 0.  0.
        -13    1    3    3    0    0 -0.25861890938E+02 -0.34043483188E+02 -0.13619967876E+03  0.14275205303E+03  0.00000000000E+00 0. -1.
         13    1    3    3    0    0  0.30426510953E+02  0.39139431275E+02 -0.19056254954E+03  0.19690544161E+03  0.00000000000E+00 0.  1.
        -13    1    4    4    0    0  0.53333221854E+02  0.10362893437E+01 -0.32582693447E+02  0.62507106485E+02  0.00000000000E+00 0.  1.
         13    1    4    4    0    0 -0.28768113739E+02 -0.15516605085E+02  0.10474720852E+02  0.34323303722E+02  0.00000000000E+00 0. -1.
         21    1    1    2  502  501 -0.29129728130E+02  0.93843676547E+01 -0.14346870472E+02  0.33800001620E+02  0.00000000000E+00 0. -1.
<scales pt_clust_5="13000.00000" pt_clust_6="13000.00000" pt_clust_7="13000.00000" pt_clust_8="13000.00000" pt_clust_9="30.60404"></scales>
<clustering>
<clus scale="   30.604">  1  9  2 -1</clus>
<clus scale="   89.857">  7  8 -1 -1</clus>
<clus scale="   90.090">  1  7  2 -1</clus>
<clus scale="   92.449">  5  6 -1 -1</clus>
<clus scale="   30.604">  1  5  2 -1</clus>
</clustering>
</event>
<event>
 9    1  0.1296032E-005  0.9673521E+02  0.7546771E-02  0.1287940E+00
         -1   -1    0    0    0  501 -0.00000000000E+00  0.00000000000E+00  0.14586895031E+03  0.14586895031E+03  0.00000000000E+00 0.  1.
          1   -1    0    0  502    0  0.00000000000E+00 -0.00000000000E+00 -0.16511435657E+03  0.16511435657E+03  0.00000000000E+00 0. -1.
         23    2    1    2    0    0 -0.21977045515E+02 -0.26072856335E+02  0.44927106275E+02  0.10751838464E+03  0.91536734647E+02 0.  0.
         23    2    1    2    0    0  0.18382132819E+01  0.23316411964E+02  0.35306001062E+02  0.10193096135E+03  0.92716627825E+02 0.  0.
        -11    1    3    3    0    0  0.12123091118E+02  0.29799097550E+02  0.16511465439E+02  0.36160531578E+02  0.00000000000E+00 0. -1.
         11    1    3    3    0    0 -0.34100136633E+02 -0.55871953884E+02  0.28415640836E+02  0.71357853060E+02  0.00000000000E+00 0.  1.
        -11    1    4    4    0    0 -0.39166295543E+02 -0.30044469784E+01 -0.37843971539E+01  0.39463236943E+02  0.00000000000E+00 0. -1.
         11    1    4    4    0    0  0.41004508825E+02  0.26320858943E+02  0.39090398216E+02  0.62467724404E+02  0.00000000000E+00 0.  1.
         21    1    1    2  502  501  0.20138832233E+02  0.27564443703E+01 -0.99478513589E+02  0.10153396090E+03  0.00000000000E+00 0. -1.
<scales pt_clust_5="13000.00000" pt_clust_6="13000.00000" pt_clust_7="13000.00000" pt_clust_8="13000.00000" pt_clust_9="20.32660"></scales>
<clustering>
<clus scale="   20.327">  2  9  1 -1</clus>
<clus scale="   91.537">  5  6 -1 -1</clus>
<clus scale="   92.717">  7  8 -1 -1</clus>
<clus scale="   95.605">  1  5  2 -1</clus>
<clus scale="   20.327">  2  5  1 -1</clus>
</clustering>
</event>
<event>
 9    1  0.1296032E-005  0.9338389E+02  0.7546771E-02  0.1297322E+00
          1   -1    0    0  502    0  0.00000000000E+00  0.00000000000E+00  0.24957819811E+03  0.24957819811E+03  0.00000000000E+00 0. -1.
         -1   -1    0    0    0  501 -0.00000000000E+00 -0.00000000000E+00 -0.43357053465E+02  0.43357053465E+02  0.00000000000E+00 0.  1.
         23    2    1    2    0    0 -0.19353238817E+02 -0.56691494009E+01  0.64108437084E+02  0.11036678851E+03  0.87545697739E+02 0.  0.
         23    2    1    2    0    0  0.13455416684E+02 -0.14224624802E+02  0.11620341396E+03  0.14937451704E+03  0.91793925376E+02 0.  0.
        -11    1    4    4    0    0  0.42506336337E+02  0.11539335686E+02  0.25945603890E+02  0.51118678172E+02  0.00000000000E+00 0. -1.
         11    1    4    4    0    0 -0.29050919653E+02 -0.25763960488E+02  0.90257810074E+02  0.98255838870E+02  0.00000000000E+00 0.  1.
        -11    1    3    3    0    0 -0.49988746013E+02  0.15655177893E+02  0.34502421944E+02  0.62724607952E+02  0.00000000000E+00 0. -1.
         11    1    3    3    0    0  0.30635507195E+02 -0.21324327294E+02  0.29606015140E+02  0.47642180556E+02  0.00000000000E+00 0.  1.
         21    1    1    2  502  501  0.58978221334E+01  0.19893774202E+02  0.25909293594E+02  0.33193946021E+02  0.00000000000E+00 0. -1.
<scales pt_clust_5="13000.00000" pt_clust_6="13000.00000" pt_clust_7="13000.00000" pt_clust_8="13000.00000" pt_clust_9="20.74962"></scales>
<clustering>
<clus scale="   20.750">  1  9  2 -1</clus>
<clus scale="   87.546">  7  8 -1 -1</clus>
<clus scale="   89.211">  2  7  1 -1</clus>
<clus scale="   91.794">  5  6 -1 -1</clus>
<clus scale="   20.750">  1  5  2 -1</clus>
</clustering>
</event>
<event>
 9    1  0.1296032E-005  0.9837447E+02  0.7546771E-02  0.1285912E+00
         -2   -1    0    0    0  501 -0.00000000000E+00  0.00000000000E+00  0.48581478093E+03  0.48581478093E+03  0.00000000000E+00 0.  1.
          2   -1    0    0  502    0  0.00000000000E+00 -0.00000000000E+00 -0.42625647943E+02  0.42625647943E+02  0.00000000000E+00 0. -1.
         23    2    1    2    0    0 -0.45028739201E+01 -0.36720181446E+02  0.38248512033E+03  0.39432617201E+03  0.88485112054E+02 0.  0.
         23    2    1    2    0    0  0.11522341396E+02  0.12558989955E+02  0.51050441512E+02  0.10716564774E+03  0.92670577299E+02 0.  0.
        -11    1    3    3    0    0  0.40973588805E+02 -0.10538617298E+02  0.14125534662E+03  0.14745497748E+03  0.00000000000E+00 0.  1.
         11    1    3    3    0    0 -0.45476462725E+02 -0.26181564147E+02  0.24122977372E+03  0.24687119453E+03  0.00000000000E+00 0. -1.
        -13    1    4    4    0    0  0.46426466666E+02 -0.69653840511E+01  0.47865871680E+02  0.67045320894E+02  0.00000000000E+00 0.  1.
         13    1    4    4    0    0 -0.34904125270E+02  0.19524374006E+02  0.31845698320E+01  0.40120326845E+02  0.00000000000E+00 0. -1.
         21    1    1    2  502  501 -0.70194674760E+01  0.24161191491E+02  0.96535711398E+01  0.26948609123E+02  0.00000000000E+00 0. -1.
<scales pt_clust_5="13000.00000" pt_clust_6="13000.00000" pt_clust_7="13000.00000" pt_clust_8="13000.00000" pt_clust_9="25.16021"></scales>
<clustering>
<clus scale="   25.160">  2  9  1 -1</clus>
<clus scale="   88.485">  5  6 -1 -1</clus>
<clus scale="   92.671">  7  8 -1 -1</clus>
<clus scale="   94.442">  1  5  2 -1</clus>
<clus scale="   25.160">  2  5  1 -1</clus>
</clustering>
</event>
<event>
 9    1  0.1296032E-005  0.1241379E+03  0.7546771E-02  0.1236678E+00
          2   -1    0    0  502    0  0.00000000000E+00  0.00000000000E+00  0.58340802904E+03  0.58340802904E+03  0.00000000000E+00 0. -1.
         -2   -1    0    0    0  501 -0.00000000000E+00 -0.00000000000E+00 -0.70997304191E+02  0.70997304191E+02  0.00000000000E+00 0.  1.
         23    2    1    2    0    0  0.18649715149E+02 -0.77476385890E+02  0.78580920402E+01  0.12197443882E+03  0.92008759748E+02 0.  0.
         23    2    1    2    0    0 -0.23718163062E+02  0.10545763997E+03  0.42942618751E+03  0.45210267690E+03  0.91137889235E+02 0.  0.
        -11    1    4    4    0    0  0.34730339956E+02  0.48800244209E+02  0.18990403201E+03  0.19912609503E+03  0.00000000000E+00 0. -1.
         11    1    4    4    0    0 -0.58448503018E+02  0.56657395762E+02  0.23952215550E+03  0.25297658187E+03  0.00000000000E+00 0.  1.
        -13    1    3    3    0    0  0.37804900807E+02  0.39593495255E+01  0.40950372129E+01  0.38231613927E+02  0.00000000000E+00 0. -1.
         13    1    3    3    0    0 -0.19155185658E+02 -0.81435735415E+02  0.37630548272E+01  0.83742824898E+02  0.00000000000E+00 0.  1.
         21    1    1    2  502  501  0.50684479134E+01 -0.27981254081E+02  0.75126445301E+02  0.80328217507E+02  0.00000000000E+00 0. -1.
<scales pt_clust_5="13000.00000" pt_clust_6="13000.00000" pt_clust_7="13000.00000" pt_clust_8="13000.00000" pt_clust_9="28.43659"></scales>
<clustering>
<clus scale="   28.437">  1  9  2 -1</clus>
<clus scale="   91.138">  5  6 -1 -1</clus>
<clus scale="   92.009">  7  8 -1 -1</clus>
<clus scale="  123.494">  1  5  2 -1</clus>
<clus scale="   28.437">  1  5  2 -1</clus>
</clustering>
</event>
<event>
 9    1  0.1296032E-005  0.1203451E+03  0.7546771E-02  0.1248648E+00
          2   -1    0    0  502    0  0.00000000000E+00  0.00000000000E+00  0.24747732313E+03  0.24747732313E+03  0.00000000000E+00 0. -1.
         -2   -1    0    0    0  501 -0.00000000000E+00 -0.00000000000E+00 -0.12041552758E+03  0.12041552758E+03  0.00000000000E+00 0.  1.
         23    2    1    2    0    0  0.51131861914E+02  0.11267757418E+02 -0.60457193912E+02  0.12068156669E+03  0.90374435454E+02 0.  0.
         23    2    1    2    0    0 -0.75837087140E+02 -0.85682745930E+01  0.12992493724E+03  0.18448401554E+03  0.10643863752E+03 0.  0.
        -11    1    3    3    0    0  0.10820360463E+02 -0.34519150577E+02 -0.45022858966E+02  0.57755603941E+02  0.00000000000E+00 0.  1.
         11    1    3    3    0    0  0.40311501451E+02  0.45786907995E+02 -0.15434334946E+02  0.62925962752E+02  0.00000000000E+00 0. -1.
        -13    1    4    4    0    0 -0.32584196376E+02 -0.38304969011E+02  0.69390974712E+01  0.50765653528E+02  0.00000000000E+00 0.  1.
         13    1    4    4    0    0 -0.43252890764E+02  0.29736694418E+02  0.12298583977E+03  0.13371836201E+03  0.00000000000E+00 0. -1.
         21    1    1    2  502  501  0.24705225226E+02 -0.26994828254E+01  0.57594052213E+02  0.62727268483E+02  0.00000000000E+00 0. -1.
<scales pt_clust_5="13000.00000" pt_clust_6="13000.00000" pt_clust_7="13000.00000" pt_clust_8="13000.00000" pt_clust_9="24.85227"></scales>
<clustering>
<clus scale="   24.852">  1  9  2 -1</clus>
<clus scale="   90.374">  5  6 -1 -1</clus>
<clus scale="  106.402">  2  5  1 -1</clus>
<clus scale="  106.439">  7  8 -1 -1</clus>
<clus scale="   24.852">  1  5  2 -1</clus>
</clustering>
</event>
<event>
 9    1  0.1296032E-005  0.9906299E+02  0.7546771E-02  0.1282699E+00
          2   -1    0    0  502    0  0.00000000000E+00  0.00000000000E+00  0.11226901553E+03  0.11226901553E+03  0.00000000000E+00 0. -1.
         -2   -1    0    0    0  501 -0.00000000000E+00 -0.00000000000E+00 -0.29325022491E+03  0.29325022491E+03  0.00000000000E+00 0.  1.
         23    2    1    2    0    0  0.62045995890E+02 -0.70738957587E+02 -0.16531023502E+03  0.21130796745E+03  0.92031937831E+02 0.  0.
         23    2    1    2    0    0 -0.28304992153E+02  0.59808687324E+01  0.38674380249E+02  0.10318664460E+03  0.91185703727E+02 0.  0.
        -13    1    4    4    0    0 -0.43615492507E+02 -0.31604077827E+02  0.30117760688E+02  0.61710683279E+02  0.00000000000E+00 0.  1.
         13    1    4    4    0    0  0.15310500354E+02  0.37584946560E+02  0.85566195609E+01  0.41475961318E+02  0.00000000000E+00 0. -1.
        -13    1    3    3    0    0  0.83249898838E+02 -0.72327665063E+02 -0.13589762776E+03  0.17501429091E+03  0.00000000000E+00 0.  1.
         13    1    3    3    0    0 -0.21203902948E+02  0.15887074759E+01 -0.29412607252E+02  0.36293676543E+02  0.00000000000E+00 0. -1.
         21    1    1    2  502  501 -0.33741003737E+02  0.64758088855E+02 -0.54345354619E+02  0.91024628392E+02  0.00000000000E+00 0. -1.
<scales pt_clust_5="13000.00000" pt_clust_6="13000.00000" pt_clust_7="13000.00000" pt_clust_8="13000.00000" pt_clust_9="73.02099"></scales>
<clustering>
<clus scale="   73.021">  2  9  1 -1</clus>
<clus scale="   91.186">  5  6 -1 -1</clus>
<clus scale="   92.032">  7  8 -1 -1</clus>
<clus scale="   98.277">  1  5  2 -1</clus>
<clus scale="   98.277">  1  5  2 -1</clus>
</clustering>
</event>
<event>
 9    1  0.1296032E-005  0.1302521E+03  0.7546771E-02  0.1228192E+00
          1   -1    0    0  502    0  0.00000000000E+00  0.00000000000E+00  0.13348286734E+03  0.13348286734E+03  0.00000000000E+00 0. -1.
         -1   -1    0    0    0  501 -0.00000000000E+00 -0.00000000000E+00 -0.25006465855E+03  0.25006465855E+03  0.00000000000E+00 0.  1.
         23    2    1    2    0    0  0.32012579906E+02  0.92287470705E+02 -0.13375774445E+03  0.18936267259E+03  0.91789460440E+02 0.  0.
         23    2    1    2    0    0 -0.46915431091E+02 -0.71811977257E+02 -0.42212509748E+02  0.12962224539E+03  0.87532923906E+02 0.  0.
        -11    1    4    4    0    0 -0.24339384180E+02  0.84877824578E+01  0.13711719753E+02  0.29196906204E+02  0.00000000000E+00 0. -1.
         11    1    4    4    0    0 -0.22576046911E+02 -0.80299759714E+02 -0.55924229501E+02  0.10042533918E+03  0.00000000000E+00 0.  1.
        -11    1    3    3    0    0  0.12996257822E+02 -0.15773839351E+02 -0.40493029470E+02  0.45358595226E+02  0.00000000000E+00 0.  1.
         11    1    3    3    0    0  0.19016322085E+02  0.10806131006E+03 -0.93264714981E+02  0.14400407736E+03  0.00000000000E+00 0. -1.
         21    1    1    2  502  501  0.14902851184E+02 -0.20475493448E+02  0.59388462991E+02  0.64562607923E+02  0.00000000000E+00 0.  1.
<scales pt_clust_5="13000.00000" pt_clust_6="13000.00000" pt_clust_7="13000.00000" pt_clust_8="13000.00000" pt_clust_9="25.32471"></scales>
<clustering>
<clus scale="   25.325">  1  9  2 -1</clus>
<clus scale="   87.533">  5  6 -1 -1</clus>
<clus scale="   91.789">  7  8 -1 -1</clus>
<clus scale="  127.288">  1  5  2 -1</clus>
<clus scale="   25.325">  1  5  2 -1</clus>
</clustering>
</event>
<event>
 9    1  0.1296032E-005  0.1163221E+03  0.7546771E-02  0.1259118E+00
          1   -1    0    0  502    0  0.00000000000E+00  0.00000000000E+00  0.16135988773E+03  0.16135988773E+03  0.00000000000E+00 0. -1.
         -1   -1    0    0    0  501 -0.00000000000E+00 -0.00000000000E+00 -0.13434975460E+03  0.13434975460E+03  0.00000000000E+00 0.  1.
         23    2    1    2    0    0  0.58459133144E+01  0.21776430937E+02 -0.70577246999E+02  0.13521579017E+03  0.11310956843E+03 0.  0.
         23    2    1    2    0    0 -0.22449545639E+02 -0.38151716298E+02  0.90043210403E+02  0.13598375069E+03  0.91783795719E+02 0.  0.
        -13    1    4    4    0    0 -0.46294895406E+01  0.27922639104E+02  0.85499685200E+01  0.29567007114E+02  0.00000000000E+00 0.  1.
         13    1    4    4    0    0 -0.17820056098E+02 -0.66074355402E+02  0.81493241883E+02  0.10641674358E+03  0.00000000000E+00 0. -1.
        -13    1    3    3    0    0 -0.34740791813E+02  0.43599742793E+01  0.15637657492E+02  0.38346685950E+02  0.00000000000E+00 0. -1.
         13    1    3    3    0    0  0.40586705128E+02  0.17416456657E+02 -0.86214904491E+02  0.96869104218E+02  0.00000000000E+00 0.  1.
         21    1    1    2  502  501  0.16603632324E+02  0.16375285361E+02  0.75441697310E+01  0.24510101468E+02  0.00000000000E+00 0.  1.
<scales pt_clust_5="13000.00000" pt_clust_6="13000.00000" pt_clust_7="13000.00000" pt_clust_8="13000.00000" pt_clust_9="23.32018"></scales>
<clustering>
<clus scale="   23.320">  1  9  2 -1</clus>
<clus scale="   91.784">  5  6 -1 -1</clus>
<clus scale="   95.715">  1  5  2 -1</clus>
<clus scale="  113.110">  7  8 -1 -1</clus>
<clus scale="   23.320">  1  5  2 -1</clus>
</clustering>
</event>
<event>
 9    1  0.1296032E-005  0.9427553E+02  0.7546771E-02  0.1308080E+00
          2   -1    0    0  502    0  0.00000000000E+00  0.00000000000E+00  0.40123759947E+03  0.40123759947E+03  0.00000000000E+00 0. -1.
         -2   -1    0    0    0  501 -0.00000000000E+00 -0.00000000000E+00 -0.99774101788E+02  0.99774101788E+02  0.00000000000E+00 0.  1.
         23    2    1    2    0    0 -0.52984256658E+00  0.34778107192E+02 -0.65394981663E+02  0.97342816841E+02  0.63161086840E+02 0.  0.
         23    2    1    2    0    0 -0.54752799450E+02 -0.20367223688E+01  0.21784712197E+03  0.24139580157E+03  0.88388614542E+02 0.  0.
        -11    1    3    3    0    0 -0.27587742258E+02  0.31931385608E+02 -0.52145488463E+02  0.67080912910E+02  0.00000000000E+00 0. -1.
         11    1    3    3    0    0  0.27057899692E+02  0.28467215845E+01 -0.13249493200E+02  0.30261903932E+02  0.00000000000E+00 0.  1.
        -11    1    4    4    0    0 -0.21904396268E+02  0.39121567627E+02  0.14311627886E+03  0.14997522764E+03  0.00000000000E+00 0. -1.
         11    1    4    4    0    0 -0.32848403182E+02 -0.41158289996E+02  0.74730843107E+02  0.91420573934E+02  0.00000000000E+00 0.  1.
         21    1    1    2  502  501  0.55282642017E+02 -0.32741384824E+02  0.14901135737E+03  0.16227308284E+03  0.00000000000E+00 0.  1.
<scales pt_clust_5="13000.00000" pt_clust_6="13000.00000" pt_clust_7="13000.00000" pt_clust_8="13000.00000" pt_clust_9="64.25083"></scales>
<clustering>
<clus scale="   63.161">  5  6 -1 -1</clus>
<clus scale="   64.251">  1  9  2 -1</clus>
<clus scale="   71.166">  2  5  1 -1</clus>
<clus scale="   88.389">  7  8 -1 -1</clus>
<clus scale="   64.251">  1  5  2 -1</clus>
</clustering>
</event>
<event>
 9    1  0.1296032E-005  0.9215703E+02  0.7546771E-02  0.1298157E+00
          2   -1    0    0  502    0  0.00000000000E+00  0.00000000000E+00  0.31354569498E+03  0.31354569498E+03  0.00000000000E+00 0. -1.
         -2   -1    0    0    0  501 -0.00000000000E+00 -0.00000000000E+00 -0.34666892885E+02  0.34666892885E+02  0.00000000000E+00 0.  1.
         23    2    1    2    0    0  0.10058736948E+02  0.27600954207E+01  0.10319808273E+03  0.13733410218E+03  0.90011193893E+02 0.  0.
         23    2    1    2    0    0 -0.10069043000E+02 -0.23812208882E+02  0.13075675801E+03  0.16126645195E+03  0.90780679890E+02 0.  0.
        -11    1    4    4    0    0 -0.14411576895E+02  0.27173430137E+02  0.14011832248E+02  0.33799708533E+02  0.00000000000E+00 0. -1.
         11    1    4    4    0    0  0.43425338957E+01 -0.50985639019E+02  0.11674492576E+03  0.12746674342E+03  0.00000000000E+00 0.  1.
        -13    1    3    3    0    0  0.24172515773E+02 -0.28835609117E+02  0.11533497193E+02  0.39355106777E+02  0.00000000000E+00 0.  1.
         13    1    3    3    0    0 -0.14113778824E+02  0.31595704538E+02  0.91664585536E+02  0.97978995399E+02  0.00000000000E+00 0. -1.
         21    1    1    2  502  501  0.10306051347E-01  0.21052113461E+02  0.44923961360E+02  0.49612033739E+02  0.00000000000E+00 0.  1.
<scales pt_clust_5="13000.00000" pt_clust_6="13000.00000" pt_clust_7="13000.00000" pt_clust_8="13000.00000" pt_clust_9="21.05212"></scales>
<clustering>
<clus scale="   21.052">  1  9  2 -1</clus>
<clus scale="   90.011">  7  8 -1 -1</clus>
<clus scale="   90.781">  5  6 -1 -1</clus>
<clus scale="   91.399">  2  7  1 -1</clus>
<clus scale="   21.052">  1  5  2 -1</clus>
</clustering>
</event>
<event>
 9    1  0.1296032E-005  0.1212610E+03  0.7546771E-02  0.1241247E+00
         -1   -1    0    0    0  501 -0.00000000000E+00  0.00000000000E+00  0.99952747804E+02  0.99952747804E+02  0.00000000000E+00 0.  1.
          1   -1    0    0  502    0  0.00000000000E+00 -0.00000000000E+00 -0.32273583391E+03  0.32273583391E+03  0.00000000000E+00 0. -1.
         23    2    1    2    0    0  0.74602350561E+02 -0.44028210070E+02  0.30194907202E+02  0.12943869145E+03  0.91316200270E+02 0.  0.
         23    2    1    2    0    0 -0.48451145983E+02  0.32022093765E+02 -0.13956869686E+03  0.17624689522E+03  0.90612465445E+02 0.  0.
        -11    1    4    4    0    0  0.26790898934E+02  0.13728569058E+02 -0.35897092715E+02  0.46848982267E+02  0.00000000000E+00 0.  1.
         11    1    4    4    0    0 -0.75242044917E+02  0.18293524708E+02 -0.10367160415E+03  0.12939791295E+03  0.00000000000E+00 0. -1.
        -13    1    3    3    0    0 -0.10435232927E+02 -0.22489455764E+02  0.33472865830E+02  0.41654561019E+02  0.00000000000E+00 0. -1.
         13    1    3    3    0    0  0.85037583488E+02 -0.21538754307E+02 -0.32779586279E+01  0.87784130430E+02  0.00000000000E+00 0.  1.
         21    1    1    2  502  501 -0.26151204579E+02  0.12006116305E+02 -0.11340929644E+03  0.11700299504E+03  0.00000000000E+00 0.  1.
<scales pt_clust_5="13000.00000" pt_clust_6="13000.00000" pt_clust_7="13000.00000" pt_clust_8="13000.00000" pt_clust_9="28.77555"></scales>
<clustering>
<clus scale="   28.776">  2  9  1 -1</clus>
<clus scale="   90.612">  5  6 -1 -1</clus>
<clus scale="   91.316">  7  8 -1 -1</clus>
<clus scale="  120.732">  2  5  1 -1</clus>
<clus scale="   28.776">  2  5  1 -1</clus>
</clustering>
</event>
<event>
 9    1  0.1296032E-005  0.1794651E+03  0.7546771E-02  0.1168406E+00
          3   -1    0    0  502    0  0.00000000000E+00  0.00000000000E+00  0.22714496837E+03  0.22714496837E+03  0.00000000000E+00 0. -1.
         -3   -1    0    0    0  501 -0.00000000000E+00 -0.00000000000E+00 -0.22709417111E+03  0.22709417111E+03  0.00000000000E+00 0.  1.
         23    2    1    2    0    0 -0.16444917219E+03  0.26315803615E+02 -0.11490971958E+03  0.22143811297E+03  0.89969675247E+02 0.  0.
         23    2    1    2    0    0  0.12575494115E+03  0.88980942520E-01  0.95466490738E+02  0.18206175950E+03  0.90654951762E+02 0.  0.
        -11    1    3    3    0    0 -0.17943300920E+02  0.37519397044E+02 -0.17337715236E+02  0.45058446179E+02  0.00000000000E+00 0. -1.
         11    1    3    3    0    0 -0.14650587127E+03 -0.11203593430E+02 -0.97572004348E+02  0.17637966679E+03  0.00000000000E+00 0.  1.
        -13    1    4    4    0    0  0.23412725558E+02 -0.13607265635E+02 -0.14913881260E+02  0.30915000410E+02  0.00000000000E+00 0.  1.
         13    1    4    4    0    0  0.10234221559E+03  0.13696246578E+02  0.11038037200E+03  0.15114675909E+03  0.00000000000E+00 0. -1.
         21    1    1    2  502  501  0.38694231045E+02 -0.26404784557E+02  0.19494026105E+02  0.50739267017E+02  0.00000000000E+00 0.  1.
<scales pt_clust_5="13000.00000" pt_clust_6="13000.00000" pt_clust_7="13000.00000" pt_clust_8="13000.00000" pt_clust_9="46.84502"></scales>
<clustering>
<clus scale="   46.845">  1  9  2 -1</clus>
<clus scale="   89.970">  5  6 -1 -1</clus>
<clus scale="   90.655">  7  8 -1 -1</clus>
<clus scale="  179.120">  2  5  1 -1</clus>
<clus scale="   46.845">  1  5  2 -1</clus>
</clustering>
</event>
<event>
 9    1  0.2465546E-005  0.1110552E+03  0.7546771E-02  0.1259499E+00
          1   -1    0    0  502    0  0.00000000000E+00  0.00000000000E+00  0.36582425605E+03  0.36582425605E+03  0.00000000000E+00 0. -1.
         -1   -1    0    0    0  501 -0.00000000000E+00 -0.00000000000E+00 -0.15280876565E+03  0.15280876565E+03  0.00000000000E+00 0.  1.
         23    2    1    2    0    0 -0.56486918500E+01  0.61232289654E+02 -0.11983402367E+03  0.16261120737E+03  0.91109332779E+02 0.  0.
         23    2    1    2    0    0  0.15153507256E+02 -0.40305462588E+02  0.28393176341E+03  0.30197350319E+03  0.93362686660E+02 0.  0.
        -11    1    4    4    0    0  0.54465982725E+02 -0.18737039257E+02  0.17230096887E+03  0.18167345372E+03  0.00000000000E+00 0.  1.
         11    1    4    4    0    0 -0.39312475469E+02 -0.21568423331E+02  0.11163079454E+03  0.12030004947E+03  0.00000000000E+00 0. -1.
        -11    1    3    3    0    0 -0.45038564828E+02  0.44722421993E+02 -0.50203903098E+02  0.80925887310E+02  0.00000000000E+00 0. -1.
         11    1    3    3    0    0  0.39389872978E+02  0.16509867661E+02 -0.69630120571E+02  0.81685320065E+02  0.00000000000E+00 0.  1.
         21    1    1    2  502  501 -0.95048154057E+01 -0.20926827065E+02  0.48917750666E+02  0.54048311140E+02  0.00000000000E+00 0.  1.
<scales pt_clust_5="13000.00000" pt_clust_6="13000.00000" pt_clust_7="13000.00000" pt_clust_8="13000.00000" pt_clust_9="22.98420"></scales>
<clustering>
<clus scale="   22.984">  1  9  2 -1</clus>
<clus scale="   91.109">  7  8 -1 -1</clus>
<clus scale="   93.363">  5  6 -1 -1</clus>
<clus scale="  109.168">  2  7  1 -1</clus>
<clus scale="   22.984">  1  5  2 -1</clus>
</clustering>
</event>
<event>
 9    1  0.1296032E-005  0.9746665E+02  0.7546771E-02  0.1287660E+00
         -1   -1    0    0    0  501 -0.00000000000E+00  0.00000000000E+00  0.12364063691E+03  0.12364063691E+03  0.00000000000E+00 0.  1.
          1   -1    0    0  502    0  0.00000000000E+00 -0.00000000000E+00 -0.99480714964E+02  0.99480714964E+02  0.00000000000E+00 0. -1.
         23    2    1    2    0    0 -0.11469867138E+02  0.39085356389E+02  0.44285732703E+02  0.10632487683E+03  0.87661453190E+02 0.  0.
         23    2    1    2    0    0  0.13004300327E+02 -0.18590990817E+02 -0.13157144588E+02  0.95095419458E+02  0.91407284073E+02 0.  0.
        -13    1    4    4    0    0 -0.29485434276E+02 -0.94556080132E+01  0.22990872566E+02  0.38566560369E+02  0.00000000000E+00 0.  1.
         13    1    4    4    0    0  0.42489734604E+02 -0.91353828039E+01 -0.36148017154E+02  0.56528859088E+02  0.00000000000E+00 0. -1.
        -13    1    3    3    0    0 -0.66669322330E+01 -0.28039542304E+02  0.82058097613E+01  0.29966635311E+02  0.00000000000E+00 0. -1.
         13    1    3    3    0    0 -0.48029349053E+01  0.67124898693E+02  0.36079922941E+02  0.76358241518E+02  0.00000000000E+00 0.  1.
         21    1    1    2  502  501 -0.15344331890E+01 -0.20494365572E+02 -0.69686661690E+01  0.21701055587E+02  0.00000000000E+00 0. -1.
<scales pt_clust_5="13000.00000" pt_clust_6="13000.00000" pt_clust_7="13000.00000" pt_clust_8="13000.00000" pt_clust_9="20.55173"></scales>
<clustering>
<clus scale="   20.552">  2  9  1 -1</clus>
<clus scale="   87.661">  7  8 -1 -1</clus>
<clus scale="   91.407">  5  6 -1 -1</clus>
<clus scale="   93.963">  1  7  2 -1</clus>
<clus scale="   20.552">  2  5  1 -1</clus>
</clustering>
</event>
<event>
 9    1  0.1296032E-005  0.1345611E+03  0.7546771E-02  0.1232511E+00
          1   -1    0    0  502    0  0.00000000000E+00  0.00000000000E+00  0.26855433630E+03  0.26855433630E+03  0.00000000000E+00 0. -1.
         -1   -1    0    0    0  501 -0.00000000000E+00 -0.00000000000E+00 -0.18850288254E+03  0.18850288254E+03  0.00000000000E+00 0.  1.
         23    2    1    2    0    0  0.29316380465E+02  0.90790316016E+02 -0.10012246195E+03  0.16510908898E+03  0.90189645918E+02 0.  0.
         23    2    1    2    0    0 -0.16976261844E+02  0.30210580071E+02  0.62495419893E+02  0.12270947069E+03  0.99755020302E+02 0.  0.
        -11    1    4    4    0    0  0.68240776610E+01 -0.31311420769E+02  0.30121493113E+00  0.32047836696E+02  0.00000000000E+00 0. -1.
         11    1    4    4    0    0 -0.23800339505E+02  0.61522000840E+02  0.62194204962E+02  0.90661633995E+02  0.00000000000E+00 0.  1.
        -13    1    3    3    0    0  0.28237499044E+02  0.26126656893E+02  0.78373770019E+01  0.39260451232E+02  0.00000000000E+00 0. -1.
         13    1    3    3    0    0  0.10788814210E+01  0.64663659123E+02 -0.10795983895E+03  0.12584863775E+03  0.00000000000E+00 0.  1.
         21    1    1    2  502  501 -0.12340118621E+02 -0.12100089609E+03  0.11767849582E+03  0.16923865917E+03  0.00000000000E+00 0. -1.
<scales pt_clust_5="13000.00000" pt_clust_6="13000.00000" pt_clust_7="13000.00000" pt_clust_8="13000.00000" pt_clust_9="99.86248"></scales>
<clustering>
<clus scale="   90.190">  7  8 -1 -1</clus>
<clus scale="   99.755">  5  6 -1 -1</clus>
<clus scale="  105.603">  1  5  2 -1</clus>
<clus scale="   99.862">  1  9  2 -1</clus>
<clus scale="  105.603">  1  5  2 -1</clus>
</clustering>
</event>
<event>
 9    1  0.1296032E-005  0.9323649E+02  0.7546771E-02  0.1299313E+00
          1   -1    0    0  502    0  0.00000000000E+00  0.00000000000E+00  0.14637451651E+03  0.14637451651E+03  0.00000000000E+00 0. -1.
         -1   -1    0    0    0  501 -0.00000000000E+00 -0.00000000000E+00 -0.74512498593E+02  0.74512498593E+02  0.00000000000E+00 0.  1.
         23    2    1    2    0    0  0.15797389082E+02  0.47060743875E+01  0.14186048809E+02  0.95233278502E+02  0.92716927879E+02 0.  0.
         23    2    1    2    0    0 -0.43305149586E+00  0.14485093468E+02  0.45206080175E+02  0.98088143502E+02  0.85835241856E+02 0.  0.
        -11    1    4    4    0    0 -0.21575200485E+02 -0.30453218890E+02  0.21280188945E+02  0.42962009476E+02  0.00000000000E+00 0.  1.
         11    1    4    4    0    0  0.21142148989E+02  0.44938312358E+02  0.23925891230E+02  0.55126134026E+02  0.00000000000E+00 0. -1.
        -11    1    3    3    0    0 -0.34536534840E+02 -0.15656185106E+01  0.25872679512E+02  0.43181233716E+02  0.00000000000E+00 0.  1.
         11    1    3    3    0    0  0.50333923922E+02  0.62716928981E+01 -0.11686630702E+02  0.52052044786E+02  0.00000000000E+00 0. -1.
         21    1    1    2  502  501 -0.15364337586E+02 -0.19191167856E+02  0.12469888936E+02  0.27565593104E+02  0.00000000000E+00 0. -1.
<scales pt_clust_5="13000.00000" pt_clust_6="13000.00000" pt_clust_7="13000.00000" pt_clust_8="13000.00000" pt_clust_9="24.58381"></scales>
<clustering>
<clus scale="   24.584">  1  9  2 -1</clus>
<clus scale="   85.835">  5  6 -1 -1</clus>
<clus scale="   86.396">  1  5  2 -1</clus>
<clus scale="   92.717">  7  8 -1 -1</clus>
<clus scale="   24.584">  1  5  2 -1</clus>
</clustering>
</event>
<event>
 9    1  0.1296032E-005  0.9227138E+02  0.7546771E-02  0.1299562E+00
          1   -1    0    0  502    0  0.00000000000E+00  0.00000000000E+00  0.34757376080E+03  0.34757376080E+03  0.00000000000E+00 0. -1.
         -1   -1    0    0    0  501 -0.00000000000E+00 -0.00000000000E+00 -0.64373726576E+02  0.64373726576E+02  0.00000000000E+00 0.  1.
         23    2    1    2    0    0  0.13750381635E+02 -0.87056543626E+01 -0.16745446357E+02  0.90775135546E+02  0.87720316043E+02 0.  0.
         23    2    1    2    0    0  0.16129691922E+01 -0.73893175751E+01  0.22333478757E+03  0.24139592076E+03  0.91303666616E+02 0.  0.
        -13    1    3    3    0    0 -0.25430148598E+02 -0.28313719073E+02  0.10121643983E+02  0.39380284692E+02  0.00000000000E+00 0. -1.
         13    1    3    3    0    0  0.39180530233E+02  0.19608064710E+02 -0.26867090339E+02  0.51394850854E+02  0.00000000000E+00 0.  1.
        -13    1    4    4    0    0 -0.20918460624E+02  0.25911419528E+02  0.17674812121E+03  0.17985794952E+03  0.00000000000E+00 0.  1.
         13    1    4    4    0    0  0.22531429816E+02 -0.33300737104E+02  0.46586666363E+02  0.61537971237E+02  0.00000000000E+00 0. -1.
         21    1    1    2  502  501 -0.15363350827E+02  0.16094971938E+02  0.76610693009E+02  0.79776431066E+02  0.00000000000E+00 0. -1.
<scales pt_clust_5="13000.00000" pt_clust_6="13000.00000" pt_clust_7="13000.00000" pt_clust_8="13000.00000" pt_clust_9="22.25041"></scales>
<clustering>
<clus scale="   22.250">  1  9  2 -1</clus>
<clus scale="   87.720">  5  6 -1 -1</clus>
<clus scale="   88.727">  2  5  1 -1</clus>
<clus scale="   91.304">  7  8 -1 -1</clus>
<clus scale="   22.250">  1  5  2 -1</clus>
</clustering>
</event>
<event>
 9    1  0.1296032E-005  0.3323773E+03  0.7546771E-02  0.1070324E+00
          1   -1    0    0  502    0  0.00000000000E+00  0.00000000000E+00  0.15513289164E+04  0.15513289164E+04  0.00000000000E+00 0. -1.
         -1   -1    0    0    0  501 -0.00000000000E+00 -0.00000000000E+00 -0.80497059262E+02  0.80497059262E+02  0.00000000000E+00 0.  1.
         23    2    1    2    0    0  0.22310397600E+03  0.21989102487E+03  0.52037561159E+03  0.61424755164E+03  0.91552338182E+02 0.  0.
         23    2    1    2    0    0 -0.22320142787E+03 -0.24284879476E+03  0.88054193536E+03  0.94399120051E+03  0.83491749329E+02 0.  0.
        -11    1    4    4    0    0 -0.18656940027E+03 -0.19668770709E+03  0.79630716980E+03  0.84118922004E+03  0.00000000000E+00 0. -1.
         11    1    4    4    0    0 -0.36632027601E+02 -0.46161087667E+02  0.84234765557E+02  0.10280198047E+03  0.00000000000E+00 0.  1.
        -13    1    3    3    0    0  0.16548119713E+03  0.17230249013E+03  0.45936672006E+03  0.51777404165E+03  0.00000000000E+00 0. -1.
         13    1    3    3    0    0  0.57622778866E+02  0.47588534741E+02  0.61008891535E+02  0.96473509988E+02  0.00000000000E+00 0.  1.
         21    1    1    2  502  501  0.97451874744E-01  0.22957769886E+02  0.69914310227E+02  0.73587223548E+02  0.00000000000E+00 0.  1.
<scales pt_clust_5="13000.00000" pt_clust_6="13000.00000" pt_clust_7="13000.00000" pt_clust_8="13000.00000" pt_clust_9="22.95798"></scales>
<clustering>
<clus scale="   22.958">  1  9  2 -1</clus>
<clus scale="   83.492">  5  6 -1 -1</clus>
<clus scale="   91.552">  7  8 -1 -1</clus>
<clus scale="  330.248">  1  5  2 -1</clus>
<clus scale="   22.958">  1  5  2 -1</clus>
</clustering>
</event>
<event>
 9    1  0.1296032E-005  0.9661507E+02  0.7546771E-02  0.1288576E+00
          3   -1    0    0  502    0  0.00000000000E+00  0.00000000000E+00  0.31468234400E+03  0.31468234400E+03  0.00000000000E+00 0. -1.
         -3   -1    0    0    0  501 -0.00000000000E+00 -0.00000000000E+00 -0.52535464746E+02  0.52535464746E+02  0.00000000000E+00 0.  1.
         23    2    1    2    0    0 -0.11417601172E+02 -0.76169184109E+01  0.52618571558E+02  0.10711834592E+03  0.92288931608E+02 0.  0.
         23    2    1    2    0    0  0.14494533850E+02 -0.42834642335E+02  0.16049808177E+03  0.18968078242E+03  0.90411652291E+02 0.  0.
        -11    1    4    4    0    0  0.33065965601E+02 -0.63971477468E+02  0.12638858874E+03  0.14546402777E+03  0.00000000000E+00 0. -1.
         11    1    4    4    0    0 -0.18571431751E+02  0.21136835134E+02  0.34109493035E+02  0.44216754651E+02  0.00000000000E+00 0.  1.
        -13    1    3    3    0    0 -0.78985110909E+01 -0.48678088133E+02  0.41448035938E+02  0.64419581067E+02  0.00000000000E+00 0. -1.
         13    1    3    3    0    0 -0.35190900809E+01  0.41061169723E+02  0.11170535620E+02  0.42698764854E+02  0.00000000000E+00 0.  1.
         21    1    1    2  502  501 -0.30769326778E+01  0.50451560746E+02  0.49030225920E+02  0.70418680406E+02  0.00000000000E+00 0. -1.
<scales pt_clust_5="13000.00000" pt_clust_6="13000.00000" pt_clust_7="13000.00000" pt_clust_8="13000.00000" pt_clust_9="50.54530"></scales>
<clustering>
<clus scale="   50.545">  2  9  1 -1</clus>
<clus scale="   90.412">  5  6 -1 -1</clus>
<clus scale="   92.289">  7  8 -1 -1</clus>
<clus scale="   94.823">  1  5  2 -1</clus>
<clus scale="   94.823">  1  5  2 -1</clus>
</clustering>
</event>
<event>
 9    1  0.1296032E-005  0.9205995E+02  0.7546771E-02  0.1298855E+00
          1   -1    0    0  502    0  0.00000000000E+00  0.00000000000E+00  0.53245123732E+03  0.53245123732E+03  0.00000000000E+00 0. -1.
         -1   -1    0    0    0  501 -0.00000000000E+00 -0.00000000000E+00 -0.25671715041E+02  0.25671715041E+02  0.00000000000E+00 0.  1.
         23    2    1    2    0    0 -0.25211684605E+02 -0.13498137748E+02  0.13259448633E+03  0.16206528791E+03  0.88690647632E+02 0.  0.
         23    2    1    2    0    0 -0.10137645990E+02  0.14027998154E+02  0.23199851392E+03  0.24954192136E+03  0.90267953661E+02 0.  0.
        -11    1    4    4    0    0 -0.33750201391E+01  0.43085355714E+02  0.20433784475E+03  0.20885807007E+03  0.00000000000E+00 0.  1.
         11    1    4    4    0    0 -0.67626258512E+01 -0.29057357560E+02  0.27660669169E+02  0.40683851288E+02  0.00000000000E+00 0. -1.
        -11    1    3    3    0    0 -0.43905562443E+02  0.19811680983E+02  0.42613430378E+02  0.64312561490E+02  0.00000000000E+00 0.  1.
         11    1    3    3    0    0  0.18693877838E+02 -0.33309818731E+02  0.89981055954E+02  0.97752726423E+02  0.00000000000E+00 0. -1.
         21    1    1    2  502  501  0.35349330595E+02 -0.52986040629E+00  0.14218652203E+03  0.14651574308E+03  0.00000000000E+00 0. -1.
<scales pt_clust_5="13000.00000" pt_clust_6="13000.00000" pt_clust_7="13000.00000" pt_clust_8="13000.00000" pt_clust_9="35.35330"></scales>
<clustering>
<clus scale="   35.353">  1  9  2 -1</clus>
<clus scale="   88.691">  7  8 -1 -1</clus>
<clus scale="   90.268">  5  6 -1 -1</clus>
<clus scale="   90.514">  2  7  1 -1</clus>
<clus scale="   35.353">  1  5  2 -1</clus>
</clustering>
</event>
<event>
 9    1  0.1296032E-005  0.1060804E+03  0.7546771E-02  0.1268632E+00
          3   -1    0    0  502    0  0.00000000000E+00  0.00000000000E+00  0.11717706349E+03  0.11717706349E+03  0.00000000000E+00 0. -1.
         -3   -1    0    0    0  501 -0.00000000000E+00 -0.00000000000E+00 -0.13886043245E+03  0.13886043245E+03  0.00000000000E+00 0.  1.
         23    2    1    2    0    0  0.60509907577E+02  0.32325159530E+02 -0.54845880896E+02  0.12559824960E+03  0.89780202701E+02 0.  0.
         23    2    1    2    0    0 -0.43397027173E+02 -0.20996301931E+02  0.36821776425E+02  0.10959257018E+03  0.91271800449E+02 0.  0.
        -11    1    4    4    0    0 -0.68480111245E+02 -0.21379899090E+02  0.92785285484E+01  0.72337520093E+02  0.00000000000E+00 0. -1.
         11    1    4    4    0    0  0.25083084071E+02  0.38359715879E+00  0.27543247877E+02  0.37255050086E+02  0.00000000000E+00 0.  1.
        -13    1    3    3    0    0  0.13341314651E+02  0.49006494594E+02  0.76230845076E+00  0.50795750838E+02  0.00000000000E+00 0.  1.
         13    1    3    3    0    0  0.47168592926E+02 -0.16681335064E+02 -0.55608189347E+02  0.74802498759E+02  0.00000000000E+00 0. -1.
         21    1    1    2  502  501 -0.17112880404E+02 -0.11328857599E+02 -0.36592644913E+01  0.20846676158E+02  0.00000000000E+00 0. -1.
<scales pt_clust_5="13000.00000" pt_clust_6="13000.00000" pt_clust_7="13000.00000" pt_clust_8="13000.00000" pt_clust_9="20.52300"></scales>
<clustering>
<clus scale="   20.523">  2  9  1 -1</clus>
<clus scale="   89.780">  7  8 -1 -1</clus>
<clus scale="   91.272">  5  6 -1 -1</clus>
<clus scale="  104.800">  2  7  1 -1</clus>
<clus scale="  106.080">  1  5  2 -1</clus>
</clustering>
</event>
<event>
 9    1  0.1296032E-005  0.1296758E+03  0.7546771E-02  0.1228059E+00
         -2   -1    0    0    0  501 -0.00000000000E+00  0.00000000000E+00  0.15496999747E+03  0.15496999747E+03  0.00000000000E+00 0.  1.
          2   -1    0    0  502    0  0.00000000000E+00 -0.00000000000E+00 -0.26871479960E+03  0.26871479960E+03  0.00000000000E+00 0. -1.
         23    2    1    2    0    0  0.80642859190E+02 -0.48788740857E+02  0.99133043407E+02  0.16408579534E+03  0.90626574273E+02 0.  0.
         23    2    1    2    0    0 -0.81323391714E+02  0.28022274695E+02 -0.16009194225E+03  0.20287104717E+03  0.90158138227E+02 0.  0.
        -11    1    3    3    0    0  0.92937060174E+02 -0.22933598731E+02  0.51994193880E+02  0.10893412368E+03  0.00000000000E+00 0.  1.
         11    1    3    3    0    0 -0.12294200984E+02 -0.25855142126E+02  0.47138849527E+02  0.55151671661E+02  0.00000000000E+00 0. -1.
        -13    1    4    4    0    0 -0.33432442268E+02  0.24695096984E+02 -0.14749488923E+03  0.15323941517E+03  0.00000000000E+00 0. -1.
         13    1    4    4    0    0 -0.47890949447E+02  0.33271777113E+01 -0.12597053011E+02  0.49631632000E+02  0.00000000000E+00 0.  1.
         21    1    1    2  502  501  0.68053252471E+00  0.20766466162E+02 -0.52785903297E+02  0.56727954557E+02  0.00000000000E+00 0. -1.
<scales pt_clust_5="13000.00000" pt_clust_6="13000.00000" pt_clust_7="13000.00000" pt_clust_8="13000.00000" pt_clust_9="20.77761"></scales>
<clustering>
<clus scale="   20.778">  2  9  1 -1</clus>
<clus scale="   90.158">  7  8 -1 -1</clus>
<clus scale="   90.627">  5  6 -1 -1</clus>
<clus scale="  129.349">  2  7  1 -1</clus>
<clus scale="   20.778">  2  5  1 -1</clus>
</clustering>
</event>
<event>
 9    1  0.1296032E-005  0.9786958E+02  0.7546771E-02  0.1285240E+00
          1   -1    0    0  502    0  0.00000000000E+00  0.00000000000E+00  0.16377540536E+03  0.16377540536E+03  0.00000000000E+00 0. -1.
         -1   -1    0    0    0  501 -0.00000000000E+00 -0.00000000000E+00 -0.85911461783E+02  0.85911461783E+02  0.00000000000E+00 0.  1.
         23    2    1    2    0    0 -0.35144692990E+02 -0.12097603428E+02 -0.15355067377E+02  0.98734481784E+02  0.90173268462E+02 0.  0.
         23    2    1    2    0    0  0.36631180452E+02 -0.80986226836E+01  0.75157906730E+02  0.12381752439E+03  0.90965033559E+02 0.  0.
        -11    1    4    4    0    0 -0.25710081116E+02 -0.22685791614E+02  0.28677801786E+02  0.44699773237E+02  0.00000000000E+00 0.  1.
         11    1    4    4    0    0  0.62341261568E+02  0.14587168931E+02  0.46480104944E+02  0.79117751149E+02  0.00000000000E+00 0. -1.
        -13    1    3    3    0    0 -0.42669338123E+02 -0.30885462063E+02 -0.40508805779E+02  0.66449586367E+02  0.00000000000E+00 0.  1.
         13    1    3    3    0    0  0.75246451338E+01  0.18787858635E+02  0.25153738402E+02  0.32284895417E+02  0.00000000000E+00 0. -1.
         21    1    1    2  502  501 -0.14864874622E+01  0.20196226112E+02  0.18061104221E+02  0.27134860969E+02  0.00000000000E+00 0.  1.
<scales pt_clust_5="13000.00000" pt_clust_6="13000.00000" pt_clust_7="13000.00000" pt_clust_8="13000.00000" pt_clust_9="20.25086"></scales>
<clustering>
<clus scale="   20.251">  1  9  2 -1</clus>
<clus scale="   90.173">  7  8 -1 -1</clus>
<clus scale="   90.965">  5  6 -1 -1</clus>
<clus scale="   97.134">  2  7  1 -1</clus>
<clus scale="   20.251">  1  5  2 -1</clus>
</clustering>
</event>
<event>
 9    1  0.1296032E-005  0.1180630E+03  0.7546771E-02  0.1247051E+00
          1   -1    0    0  502    0  0.00000000000E+00  0.00000000000E+00  0.32118249362E+03  0.32118249362E+03  0.00000000000E+00 0. -1.
         -1   -1    0    0    0  501 -0.00000000000E+00 -0.00000000000E+00 -0.57972166962E+02  0.57972166962E+02  0.00000000000E+00 0.  1.
         23    2    1    2    0    0 -0.60337683475E+02  0.44086205244E+02  0.63892612141E+02  0.13267537439E+03  0.89085686519E+02 0.  0.
         23    2    1    2    0    0  0.45681635355E+02 -0.62441182727E+02  0.15030072408E+03  0.19212516679E+03  0.91302020494E+02 0.  0.
        -11    1    3    3    0    0  0.19359164290E+02  0.23327138675E+02  0.32754085349E+02  0.44629169249E+02  0.00000000000E+00 0.  1.
         11    1    3    3    0    0 -0.79696847765E+02  0.20759066569E+02  0.31138526793E+02  0.88046205138E+02  0.00000000000E+00 0. -1.
        -11    1    4    4    0    0  0.52712789867E+02 -0.17039672530E+02  0.29243557353E+02  0.62643230298E+02  0.00000000000E+00 0.  1.
         11    1    4    4    0    0 -0.70311545118E+01 -0.45401510196E+02  0.12105716673E+03  0.12948193650E+03  0.00000000000E+00 0. -1.
         21    1    1    2  502  501  0.14656048120E+02  0.18354977483E+02  0.49016990435E+02  0.54354119404E+02  0.00000000000E+00 0. -1.
<scales pt_clust_5="13000.00000" pt_clust_6="13000.00000" pt_clust_7="13000.00000" pt_clust_8="13000.00000" pt_clust_9="23.48840"></scales>
<clustering>
<clus scale="   23.488">  1  9  2 -1</clus>
<clus scale="   89.086">  5  6 -1 -1</clus>
<clus scale="   91.302">  7  8 -1 -1</clus>
<clus scale="  116.358">  2  5  1 -1</clus>
<clus scale="   23.488">  1  5  2 -1</clus>
</clustering>
</event>
<event>
 9    1  0.1296032E-005  0.1249324E+03  0.7546771E-02  0.1245817E+00
         -2   -1    0    0    0  501 -0.00000000000E+00  0.00000000000E+00  0.40771586415E+03  0.40771586415E+03  0.00000000000E+00 0.  1.
          2   -1    0    0  502    0  0.00000000000E+00 -0.00000000000E+00 -0.16141818785E+03  0.16141818785E+03  0.00000000000E+00 0. -1.
         23    2    1    2    0    0  0.46556680967E+02  0.26430953746E+02  0.20206287719E+03  0.22791322023E+03  0.90823508836E+02 0.  0.
         23    2    1    2    0    0 -0.11056037295E+02 -0.32509441314E+02  0.17062531000E+03  0.20979859258E+03  0.11714671699E+03 0.  0.
        -11    1    4    4    0    0  0.26566891722E+02 -0.58657248740E+02  0.14162013169E+03  0.15557227988E+03  0.00000000000E+00 0.  1.
         11    1    4    4    0    0 -0.37622929017E+02  0.26147807426E+02  0.29005178309E+02  0.54226312706E+02  0.00000000000E+00 0. -1.
        -11    1    3    3    0    0  0.63582865712E+02  0.43439714065E+02  0.17770243534E+03  0.19366968037E+03  0.00000000000E+00 0.  1.
         11    1    3    3    0    0 -0.17026184746E+02 -0.17008760319E+02  0.24360441854E+02  0.34243539857E+02  0.00000000000E+00 0. -1.
         21    1    1    2  502  501 -0.35500643672E+02  0.60784875685E+01 -0.12639051089E+03  0.13142223919E+03  0.00000000000E+00 0. -1.
<scales pt_clust_5="13000.00000" pt_clust_6="13000.00000" pt_clust_7="13000.00000" pt_clust_8="13000.00000" pt_clust_9="36.01727"></scales>
<clustering>
<clus scale="   36.017">  2  9  1 -1</clus>
<clus scale="   90.824">  7  8 -1 -1</clus>
<clus scale="  100.666">  1  7  2 -1</clus>
<clus scale="  117.147">  5  6 -1 -1</clus>
<clus scale="   36.017">  2  5  1 -1</clus>
</clustering>
</event>
<event>
 9    1  0.1296032E-005  0.1076101E+03  0.7546771E-02  0.1265500E+00
         -2   -1    0    0    0  501 -0.00000000000E+00  0.00000000000E+00  0.27235106272E+02  0.27235106272E+02  0.00000000000E+00 0.  1.
          2   -1    0    0  502    0  0.00000000000E+00 -0.00000000000E+00 -0.58019922372E+03  0.58019922372E+03  0.00000000000E+00 0. -1.
         23    2    1    2    0    0 -0.66742249737E+02 -0.79834636466E+00 -0.22651065899E+03  0.25349382147E+03  0.92178487885E+02 0.  0.
         23    2    1    2    0    0  0.44867410420E+02 -0.22367400064E+02 -0.26600776572E+03  0.28561158219E+03  0.91106856807E+02 0.  0.
        -11    1    4    4    0    0  0.59018705555E+02 -0.41629282594E+02 -0.14189236468E+03  0.15921572765E+03  0.00000000000E+00 0.  1.
         11    1    4    4    0    0 -0.14151295135E+02  0.19261882530E+02 -0.12411540103E+03  0.12639585454E+03  0.00000000000E+00 0. -1.
        -13    1    3    3    0    0  0.16070397419E+02 -0.18476130735E+02 -0.25392319510E+02  0.35275982909E+02  0.00000000000E+00 0.  1.
         13    1    3    3    0    0 -0.82812647156E+02  0.17677784371E+02 -0.20111833948E+03  0.21821783856E+03  0.00000000000E+00 0. -1.
         21    1    1    2  502  501  0.21874839317E+02  0.23165746429E+02 -0.60445692740E+02  0.68328926331E+02  0.00000000000E+00 0.  1.
<scales pt_clust_5="13000.00000" pt_clust_6="13000.00000" pt_clust_7="13000.00000" pt_clust_8="13000.00000" pt_clust_9="31.86158"></scales>
<clustering>
<clus scale="   31.862">  1  9  2 -1</clus>
<clus scale="   91.107">  5  6 -1 -1</clus>
<clus scale="   92.178">  7  8 -1 -1</clus>
<clus scale="  106.694">  2  5  1 -1</clus>
<clus scale="  106.694">  2  5  1 -1</clus>
</clustering>
</event>
<event>
 9    1  0.1296032E-005  0.1510593E+03  0.7546771E-02  0.1199359E+00
          1   -1    0    0  502    0  0.00000000000E+00  0.00000000000E+00  0.57091637963E+03  0.57091637963E+03  0.00000000000E+00 0. -1.
         -1   -1    0    0    0  501 -0.00000000000E+00 -0.00000000000E+00 -0.52277410224E+02  0.52277410224E+02  0.00000000000E+00 0.  1.
         23    2    1    2    0    0  0.97023769665E+02  0.48401830889E+02  0.16367763091E+03  0.21675535705E+03  0.91848619133E+02 0.  0.
         23    2    1    2    0    0 -0.12613343608E+03 -0.55549761328E+02  0.27140312307E+03  0.31766658505E+03  0.90867950143E+02 0.  0.
        -13    1    4    4    0    0 -0.69175544077E+02 -0.28403603571E+02  0.23085580491E+03  0.24266524938E+03  0.00000000000E+00 0.  1.
         13    1    4    4    0    0 -0.56957892004E+02 -0.27146157756E+02  0.40547318157E+02  0.75001335669E+02  0.00000000000E+00 0. -1.
        -13    1    3    3    0    0  0.64770845108E+02  0.42399803351E+02  0.16671128625E+03  0.18380875568E+03  0.00000000000E+00 0. -1.
         13    1    3    3    0    0  0.32252924558E+02  0.60020275373E+01 -0.30336553459E+01  0.32946601370E+02  0.00000000000E+00 0.  1.
         21    1    1    2  502  501  0.29109666416E+02  0.71479304388E+01  0.83558215429E+02  0.88771847756E+02  0.00000000000E+00 0. -1.
<scales pt_clust_5="13000.00000" pt_clust_6="13000.00000" pt_clust_7="13000.00000" pt_clust_8="13000.00000" pt_clust_9="29.97442"></scales>
<clustering>
<clus scale="   29.974">  1  9  2 -1</clus>
<clus scale="   90.868">  5  6 -1 -1</clus>
<clus scale="   91.849">  7  8 -1 -1</clus>
<clus scale="  150.465">  1  5  2 -1</clus>
<clus scale="   29.974">  1  5  2 -1</clus>
</clustering>
</event>
<event>
 9    1  0.1296032E-005  0.9817930E+02  0.7546771E-02  0.1286966E+00
         -1   -1    0    0    0  501 -0.00000000000E+00  0.00000000000E+00  0.41309990733E+03  0.41309990733E+03  0.00000000000E+00 0.  1.
          1   -1    0    0  502    0  0.00000000000E+00 -0.00000000000E+00 -0.48844284290E+02  0.48844284290E+02  0.00000000000E+00 0. -1.
         23    2    1    2    0    0 -0.12195678793E+02 -0.37968848725E+02  0.30435786609E+03  0.31893824284E+03  0.86588244233E+02 0.  0.
         23    2    1    2    0    0 -0.52901192055E+01  0.98205277383E+01  0.27486488769E+02  0.96653263736E+02  0.91988685172E+02 0.  0.
        -13    1    3    3    0    0  0.25331891657E+02 -0.42829978274E+02  0.23206937039E+03  0.23734427409E+03  0.00000000000E+00 0.  1.
         13    1    3    3    0    0 -0.37527570449E+02  0.48611295491E+01  0.72288495703E+02  0.81593968743E+02  0.00000000000E+00 0. -1.
        -13    1    4    4    0    0  0.24967341659E+02 -0.13286073528E+02  0.46247772923E+02  0.54210187231E+02  0.00000000000E+00 0.  1.
         13    1    4    4    0    0 -0.30257460865E+02  0.23106601266E+02 -0.18761284154E+02  0.42443076505E+02  0.00000000000E+00 0. -1.
         21    1    1    2  502  501  0.17485797998E+02  0.28148320986E+02  0.32411268188E+02  0.46352685052E+02  0.00000000000E+00 0. -1.
<scales pt_clust_5="13000.00000" pt_clust_6="13000.00000" pt_clust_7="13000.00000" pt_clust_8="13000.00000" pt_clust_9="33.13731"></scales>
<clustering>
<clus scale="   33.137">  2  9  1 -1</clus>
<clus scale="   86.588">  5  6 -1 -1</clus>
<clus scale="   91.989">  7  8 -1 -1</clus>
<clus scale="   93.138">  1  5  2 -1</clus>
<clus scale="   33.137">  2  5  1 -1</clus>
</clustering>
</event>
<event>
 9    1  0.1296032E-005  0.1413229E+03  0.7546771E-02  0.1224452E+00
          1   -1    0    0  502    0  0.00000000000E+00  0.00000000000E+00  0.22773396478E+03  0.22773396478E+03  0.00000000000E+00 0. -1.
         -1   -1    0    0    0  501 -0.00000000000E+00 -0.00000000000E+00 -0.19826063093E+03  0.19826063093E+03  0.00000000000E+00 0.  1.
         23    2    1    2    0    0 -0.35174711656E+02 -0.97797832199E+02 -0.83956290845E+02  0.16138042404E+03  0.90516883333E+02 0.  0.
         23    2    1    2    0    0  0.49127571839E+02 -0.28272552030E+02  0.77783336547E+02  0.13286030286E+03  0.91590158416E+02 0.  0.
        -11    1    3    3    0    0 -0.60762303808E+02 -0.48927896337E+02 -0.69190068298E+02  0.10427493541E+03  0.00000000000E+00 0.  1.
         11    1    3    3    0    0  0.25587592152E+02 -0.48869935862E+02 -0.14766222548E+02  0.57105488630E+02  0.00000000000E+00 0. -1.
        -13    1    4    4    0    0  0.11337154814E+02  0.32835753417E+02  0.16647538844E+02  0.38520881756E+02  0.00000000000E+00 0.  1.
         13    1    4    4    0    0  0.37790417025E+02 -0.61108305446E+02  0.61135797702E+02  0.94339421103E+02  0.00000000000E+00 0. -1.
         21    1    1    2  502  501 -0.13952860184E+02  0.12607038423E+03  0.35646288148E+02  0.13175386881E+03  0.00000000000E+00 0.  1.
<scales pt_clust_5="13000.00000" pt_clust_6="13000.00000" pt_clust_7="13000.00000" pt_clust_8="13000.00000" pt_clust_9="108.53041"></scales>
<clustering>
<clus scale="   90.517">  5  6 -1 -1</clus>
<clus scale="   91.590">  7  8 -1 -1</clus>
<clus scale="  107.711">  1  7  2 -1</clus>
<clus scale="  108.530">  1  9  2 -1</clus>
<clus scale="  107.711">  1  5  2 -1</clus>
</clustering>
</event>
<event>
 9    1  0.1296032E-005  0.1293942E+03  0.7546771E-02  0.1233446E+00
          2   -1    0    0  502    0  0.00000000000E+00  0.00000000000E+00  0.31604780910E+03  0.31604780910E+03  0.00000000000E+00 0. -1.
         -2   -1    0    0    0  501 -0.00000000000E+00 -0.00000000000E+00 -0.11470496893E+03  0.11470496893E+03  0.00000000000E+00 0.  1.
         23    2    1    2    0    0 -0.30724382268E+02  0.71160954409E+02 -0.56120085216E+02  0.13072521355E+03  0.89060363769E+02 0.  0.
         23    2    1    2    0    0  0.45583268063E+02 -0.46899829145E+02  0.19092946815E+03  0.22766673517E+03  0.10535963265E+03 0.  0.
        -11    1    3    3    0    0  0.24181185443E+02  0.56159304656E+02 -0.28527944510E+02  0.67471778151E+02  0.00000000000E+00 0.  1.
         11    1    3    3    0    0 -0.54905567711E+02  0.15001649753E+02 -0.27592140706E+02  0.63253435398E+02  0.00000000000E+00 0. -1.
        -13    1    4    4    0    0 -0.21618571925E+02 -0.43908338454E+02  0.12153734938E+03  0.13102149492E+03  0.00000000000E+00 0. -1.
         13    1    4    4    0    0  0.67201839988E+02 -0.29914906902E+01  0.69392118773E+02  0.96645240245E+02  0.00000000000E+00 0.  1.
         21    1    1    2  502  501 -0.14858885795E+02 -0.24261125264E+02  0.66533457242E+02  0.72360829312E+02  0.00000000000E+00 0. -1.
<scales pt_clust_5="13000.00000" pt_clust_6="13000.00000" pt_clust_7="13000.00000" pt_clust_8="13000.00000" pt_clust_9="28.44976"></scales>
<clustering>
<clus scale="   28.450">  1  9  2 -1</clus>
<clus scale="   89.060">  5  6 -1 -1</clus>
<clus scale="  105.360">  7  8 -1 -1</clus>
<clus scale="  116.507">  2  5  1 -1</clus>
<clus scale="   28.450">  1  5  2 -1</clus>
</clustering>
</event>
<event>
 9    1  0.1296032E-005  0.1297563E+03  0.7546771E-02  0.1228542E+00
          3   -1    0    0  502    0  0.00000000000E+00  0.00000000000E+00  0.22034494380E+03  0.22034494380E+03  0.00000000000E+00 0. -1.
         -3   -1    0    0    0  501 -0.00000000000E+00 -0.00000000000E+00 -0.23209057122E+03  0.23209057122E+03  0.00000000000E+00 0.  1.
         23    2    1    2    0    0  0.38847159918E+02 -0.76400393449E+02 -0.16346211528E+03  0.20551687255E+03  0.90394689090E+02 0.  0.
         23    2    1    2    0    0 -0.54414035867E+02  0.10714769021E+03  0.91204707441E+02  0.17728101288E+03  0.93106090310E+02 0.  0.
        -11    1    4    4    0    0 -0.25076757573E+02  0.69842262489E+02 -0.29182261496E+00  0.74208291723E+02  0.00000000000E+00 0.  1.
         11    1    4    4    0    0 -0.29337278294E+02  0.37305427720E+02  0.91496530056E+02  0.10307272116E+03  0.00000000000E+00 0. -1.
        -13    1    3    3    0    0  0.18717897264E+02 -0.32126029745E+02 -0.15072217777E+03  0.15524051126E+03  0.00000000000E+00 0.  1.
         13    1    3    3    0    0  0.20129262654E+02 -0.44274363704E+02 -0.12739937516E+02  0.50276361288E+02  0.00000000000E+00 0. -1.
         21    1    1    2  502  501  0.15566875949E+02 -0.30747296760E+02  0.60511780425E+02  0.69637629591E+02  0.00000000000E+00 0.  1.
<scales pt_clust_5="13000.00000" pt_clust_6="13000.00000" pt_clust_7="13000.00000" pt_clust_8="13000.00000" pt_clust_9="34.46337"></scales>
<clustering>
<clus scale="   34.463">  1  9  2 -1</clus>
<clus scale="   90.395">  7  8 -1 -1</clus>
<clus scale="   93.106">  5  6 -1 -1</clus>
<clus scale="  127.825">  2  7  1 -1</clus>
<clus scale="   34.463">  1  5  2 -1</clus>
</clustering>
</event>
<event>
 9    1  0.1296032E-005  0.1080079E+03  0.7546771E-02  0.1269910E+00
          3   -1    0    0  502    0  0.00000000000E+00  0.00000000000E+00  0.81484198976E+02  0.81484198976E+02  0.00000000000E+00 0. -1.
         -3   -1    0    0    0  501 -0.00000000000E+00 -0.00000000000E+00 -0.23879849413E+03  0.23879849413E+03  0.00000000000E+00 0.  1.
         23    2    1    2    0    0  0.22819430425E+02  0.29596204107E+02 -0.16517127292E+03  0.19202771876E+03  0.90534157492E+02 0.  0.
         23    2    1    2    0    0 -0.27404630599E+01 -0.24095054827E+02  0.14947399881E+02  0.10626175585E+03  0.10237213580E+03 0.  0.
        -13    1    4    4    0    0 -0.24142658128E+02 -0.43841132235E+02  0.42883611759E+02  0.65908398362E+02  0.00000000000E+00 0. -1.
         13    1    4    4    0    0  0.21402195068E+02  0.19746077408E+02 -0.27936211879E+02  0.40353357492E+02  0.00000000000E+00 0.  1.
        -13    1    3    3    0    0  0.40657287122E+02  0.48506534596E+02 -0.14774562297E+03  0.16073166458E+03  0.00000000000E+00 0.  1.
         13    1    3    3    0    0 -0.17837856698E+02 -0.18910330490E+02 -0.17425649954E+02  0.31296054178E+02  0.00000000000E+00 0. -1.
         21    1    1    2  502  501 -0.20078967365E+02 -0.55011492794E+01 -0.70904221184E+01  0.21993218492E+02  0.00000000000E+00 0.  1.
<scales pt_clust_5="13000.00000" pt_clust_6="13000.00000" pt_clust_7="13000.00000" pt_clust_8="13000.00000" pt_clust_9="20.81892"></scales>
<clustering>
<clus scale="   20.819">  1  9  2 -1</clus>
<clus scale="   90.534">  7  8 -1 -1</clus>
<clus scale="   96.861">  2  7  1 -1</clus>
<clus scale="  102.372">  5  6 -1 -1</clus>
<clus scale="   20.819">  1  5  2 -1</clus>
</clustering>
</event>
<event>
 9    1  0.1296032E-005  0.1110298E+03  0.7546771E-02  0.1259071E+00
          2   -1    0    0  502    0  0.00000000000E+00  0.00000000000E+00  0.41915731060E+03  0.41915731060E+03  0.00000000000E+00 0. -1.
         -2   -1    0    0    0  501 -0.00000000000E+00 -0.00000000000E+00 -0.99714412229E+02  0.99714412229E+02  0.00000000000E+00 0.  1.
         23    2    1    2    0    0  0.48662152150E+02  0.25494027706E+02 -0.47837144803E+02  0.11700118221E+03  0.91558362338E+02 0.  0.
         23    2    1    2    0    0 -0.64290444527E+02  0.19652933407E+01  0.34698554062E+03  0.36431891391E+03  0.90510673391E+02 0.  0.
        -11    1    3    3    0    0  0.12686853664E+02  0.15836070067E+02 -0.70525327725E+02  0.73386369455E+02  0.00000000000E+00 0.  1.
         11    1    3    3    0    0  0.35975298486E+02  0.96579576388E+01  0.22688182922E+02  0.43614812750E+02  0.00000000000E+00 0. -1.
        -13    1    4    4    0    0 -0.13638652881E+01  0.27241440215E+02  0.31682711567E+02  0.41806104886E+02  0.00000000000E+00 0.  1.
         13    1    4    4    0    0 -0.62926579239E+02 -0.25276146874E+02  0.31530282905E+03  0.32251280902E+03  0.00000000000E+00 0. -1.
         21    1    1    2  502  501  0.15628292378E+02 -0.27459321047E+02  0.20294502556E+02  0.37551626716E+02  0.00000000000E+00 0. -1.
<scales pt_clust_5="13000.00000" pt_clust_6="13000.00000" pt_clust_7="13000.00000" pt_clust_8="13000.00000" pt_clust_9="31.59522"></scales>
<clustering>
<clus scale="   31.595">  2  9  1 -1</clus>
<clus scale="   90.511">  7  8 -1 -1</clus>
<clus scale="   91.558">  5  6 -1 -1</clus>
<clus scale="  110.167">  1  7  2 -1</clus>
<clus scale="  110.167">  1  5  2 -1</clus>
</clustering>
</event>
<event>
 9    1  0.1296032E-005  0.1771427E+03  0.7546771E-02  0.1170734E+00
          1   -1    0    0  502    0  0.00000000000E+00  0.00000000000E+00  0.14286626533E+03  0.14286626533E+03  0.00000000000E+00 0. -1.
         -1   -1    0    0    0  501 -0.00000000000E+00 -0.00000000000E+00 -0.37235780908E+03  0.37235780908E+03  0.00000000000E+00 0.  1.
         23    2    1    2    0    0  0.46010647846E+02  0.13332091956E+03 -0.17353772013E+03  0.24226870869E+03  0.93205898945E+02 0.  0.
         23    2    1    2    0    0 -0.30039733617E+02 -0.16529868639E+03 -0.10006980348E+03  0.21617625555E+03  0.92152952089E+02 0.  0.
        -11    1    3    3    0    0 -0.21952476490E+02  0.37380734063E+01 -0.29336605805E+02  0.36830976867E+02  0.00000000000E+00 0. -1.
         11    1    3    3    0    0  0.67963124336E+02  0.12958284615E+03 -0.14420111432E+03  0.20543773183E+03  0.00000000000E+00 0.  1.
        -13    1    4    4    0    0 -0.34214650396E+02 -0.14340055866E+03 -0.11697768238E+03  0.18819707942E+03  0.00000000000E+00 0.  1.
         13    1    4    4    0    0  0.41749167794E+01 -0.21898127731E+02  0.16907878904E+02  0.27979176136E+02  0.00000000000E+00 0. -1.
         21    1    1    2  502  501 -0.15970914229E+02  0.31977766832E+02  0.44115979855E+02  0.56779110168E+02  0.00000000000E+00 0. -1.
<scales pt_clust_5="13000.00000" pt_clust_6="13000.00000" pt_clust_7="13000.00000" pt_clust_8="13000.00000" pt_clust_9="35.74420"></scales>
<clustering>
<clus scale="   35.744">  1  9  2 -1</clus>
<clus scale="   92.153">  7  8 -1 -1</clus>
<clus scale="   93.206">  5  6 -1 -1</clus>
<clus scale="  176.591">  1  7  2 -1</clus>
<clus scale="   35.744">  1  5  2 -1</clus>
</clustering>
</event>
<event>
 9    1  0.2160272E-005  0.9125449E+02  0.7546771E-02  0.1301125E+00
         -1   -1    0    0    0  501 -0.00000000000E+00  0.00000000000E+00  0.18652193871E+03  0.18652193871E+03  0.00000000000E+00 0.  1.
          1   -1    0    0  502    0  0.00000000000E+00 -0.00000000000E+00 -0.26765411850E+03  0.26765411850E+03  0.00000000000E+00 0. -1.
         23    2    1    2    0    0  0.11756085920E+01 -0.35377121111E+01  0.15308514724E+03  0.17813829392E+03  0.91018086068E+02 0.  0.
         23    2    1    2    0    0  0.29614514290E+01  0.48249112093E+02 -0.16189786358E+03  0.19091238900E+03  0.88881241152E+02 0.  0.
        -13    1    4    4    0    0  0.37955925620E+02  0.53190256521E+02 -0.95871528054E+02  0.11602243563E+03  0.00000000000E+00 0. -1.
         13    1    4    4    0    0 -0.34994474191E+02 -0.49411444275E+01 -0.66026335531E+02  0.74889953370E+02  0.00000000000E+00 0.  1.
        -13    1    3    3    0    0  0.18556379631E+02  0.39624357232E+02  0.62384448282E+02  0.76198742106E+02  0.00000000000E+00 0. -1.
         13    1    3    3    0    0 -0.17380771039E+02 -0.43162069343E+02  0.90700698959E+02  0.10193955181E+03  0.00000000000E+00 0.  1.
         21    1    1    2  502  501 -0.41370600210E+01 -0.44711399982E+02 -0.72319463447E+02  0.85125374285E+02  0.00000000000E+00 0.  1.
<scales pt_clust_5="13000.00000" pt_clust_6="13000.00000" pt_clust_7="13000.00000" pt_clust_8="13000.00000" pt_clust_9="44.90239"></scales>
<clustering>
<clus scale="   44.902">  2  9  1 -1</clus>
<clus scale="   88.881">  5  6 -1 -1</clus>
<clus scale="   89.123">  2  5  1 -1</clus>
<clus scale="   91.018">  7  8 -1 -1</clus>
<clus scale="   44.902">  2  5  1 -1</clus>
</clustering>
</event>
<event>
 9    1  0.1296032E-005  0.1744468E+03  0.7546771E-02  0.1173502E+00
         -1   -1    0    0    0  501 -0.00000000000E+00  0.00000000000E+00  0.82316969606E+02  0.82316969606E+02  0.00000000000E+00 0.  1.
          1   -1    0    0  502    0  0.00000000000E+00 -0.00000000000E+00 -0.75848090981E+03  0.75848090981E+03  0.00000000000E+00 0. -1.
         23    2    1    2    0    0 -0.14331564608E+03  0.99080918395E+01 -0.62678676209E+02  0.18384644039E+03  0.96090335097E+02 0.  0.
         23    2    1    2    0    0  0.14270102321E+03 -0.61296564506E+02 -0.48913293115E+03  0.52239789738E+03  0.97609876602E+02 0.  0.
        -13    1    4    4    0    0  0.51782840380E+02  0.16629122087E+02 -0.85107955976E+02  0.10100175459E+03  0.00000000000E+00 0. -1.
         13    1    4    4    0    0  0.90918182832E+02 -0.77925686593E+02 -0.40402497517E+03  0.42139614280E+03  0.00000000000E+00 0.  1.
        -13    1    3    3    0    0 -0.11139195399E+03 -0.13761242578E+02 -0.31646949536E+01  0.11228336700E+03  0.00000000000E+00 0.  1.
         13    1    3    3    0    0 -0.31923692087E+02  0.23669334418E+02 -0.59513981256E+02  0.71563073391E+02  0.00000000000E+00 0. -1.
         21    1    1    2  502  501  0.61462286428E+00  0.51388472666E+02 -0.12435233284E+03  0.13455354164E+03  0.00000000000E+00 0. -1.
<scales pt_clust_5="13000.00000" pt_clust_6="13000.00000" pt_clust_7="13000.00000" pt_clust_8="13000.00000" pt_clust_9="51.39215"></scales>
<clustering>
<clus scale="   51.392">  2  9  1 -1</clus>
<clus scale="   96.090">  7  8 -1 -1</clus>
<clus scale="   97.610">  5  6 -1 -1</clus>
<clus scale="  173.601">  1  7  2 -1</clus>
<clus scale="   51.392">  2  5  1 -1</clus>
</clustering>
</event>
<event>
 9    1  0.1296032E-005  0.1164592E+03  0.7546771E-02  0.1250626E+00
          1   -1    0    0  502    0  0.00000000000E+00  0.00000000000E+00  0.20691963176E+03  0.20691963176E+03  0.00000000000E+00 0. -1.
         -1   -1    0    0    0  501 -0.00000000000E+00 -0.00000000000E+00 -0.23002618290E+03  0.23002618290E+03  0.00000000000E+00 0.  1.
         23    2    1    2    0    0 -0.38551350976E+01 -0.67798305655E+02 -0.17981134940E+03  0.21214556565E+03  0.89789461171E+02 0.  0.
         23    2    1    2    0    0  0.37312881283E+02  0.70447258167E+02  0.14197775814E+03  0.18814887195E+03  0.94272195876E+02 0.  0.
        -11    1    3    3    0    0 -0.41056004526E+02 -0.44368612174E+02 -0.14134467875E+03  0.15372861628E+03  0.00000000000E+00 0.  1.
         11    1    3    3    0    0  0.37200869429E+02 -0.23429693481E+02 -0.38466670654E+02  0.58416949374E+02  0.00000000000E+00 0. -1.
        -13    1    4    4    0    0  0.49622593215E+02  0.31093531882E+02  0.24202077297E+02  0.63363633322E+02  0.00000000000E+00 0. -1.
         13    1    4    4    0    0 -0.12309711932E+02  0.39353726285E+02  0.11777568085E+03  0.12478523863E+03  0.00000000000E+00 0.  1.
         21    1    1    2  502  501 -0.33457746186E+02 -0.26489525121E+01  0.14727040123E+02  0.36651377055E+02  0.00000000000E+00 0. -1.
<scales pt_clust_5="13000.00000" pt_clust_6="13000.00000" pt_clust_7="13000.00000" pt_clust_8="13000.00000" pt_clust_9="33.56245"></scales>
<clustering>
<clus scale="   33.562">  1  9  2 -1</clus>
<clus scale="   89.789">  5  6 -1 -1</clus>
<clus scale="   94.272">  7  8 -1 -1</clus>
<clus scale="  112.861">  2  5  1 -1</clus>
<clus scale="   33.562">  1  5  2 -1</clus>
</clustering>
</event>
<event>
 9    1  0.1296032E-005  0.1364790E+03  0.7546771E-02  0.1218758E+00
         -2   -1    0    0    0  501 -0.00000000000E+00  0.00000000000E+00  0.50340165845E+02  0.50340165845E+02  0.00000000000E+00 0.  1.
          2   -1    0    0  502    0  0.00000000000E+00 -0.00000000000E+00 -0.45568055876E+03  0.45568055876E+03  0.00000000000E+00 0. -1.
         23    2    1    2    0    0  0.10097418410E+03  0.37474832453E+02 -0.17008217910E+03  0.22025992752E+03  0.89366319738E+02 0.  0.
         23    2    1    2    0    0 -0.94956015011E+02 -0.91459013651E+01 -0.18191239388E+03  0.22506052360E+03  0.91977322959E+02 0.  0.
        -13    1    4    4    0    0 -0.30925813609E+01 -0.35820396166E+02 -0.38546420482E+02  0.52711396993E+02  0.00000000000E+00 0.  1.
         13    1    4    4    0    0 -0.91863433650E+02  0.26674494801E+02 -0.14336597340E+03  0.17234912661E+03  0.00000000000E+00 0. -1.
        -13    1    3    3    0    0  0.81460970528E+02  0.86181113620E+01 -0.51717068707E+02  0.96875263914E+02  0.00000000000E+00 0.  1.
         13    1    3    3    0    0  0.19513213573E+02  0.28856721091E+02 -0.11836511039E+03  0.12338466361E+03  0.00000000000E+00 0. -1.
         21    1    1    2  502  501 -0.60181690901E+01 -0.28328931088E+02 -0.53345819942E+02  0.60700273484E+02  0.00000000000E+00 0.  1.
<scales pt_clust_5="13000.00000" pt_clust_6="13000.00000" pt_clust_7="13000.00000" pt_clust_8="13000.00000" pt_clust_9="28.96112"></scales>
<clustering>
<clus scale="   28.961">  2  9  1 -1</clus>
<clus scale="   89.366">  7  8 -1 -1</clus>
<clus scale="   91.977">  5  6 -1 -1</clus>
<clus scale="  134.733">  1  7  2 -1</clus>
<clus scale="   28.961">  2  5  1 -1</clus>
</clustering>
</event>
<event>
 9    1  0.1296032E-005  0.9227269E+02  0.7546771E-02  0.1298132E+00
         -3   -1    0    0    0  501 -0.00000000000E+00  0.00000000000E+00  0.13056660380E+03  0.13056660380E+03  0.00000000000E+00 0.  1.
          3   -1    0    0  502    0  0.00000000000E+00 -0.00000000000E+00 -0.12192327258E+03  0.12192327258E+03  0.00000000000E+00 0. -1.
         23    2    1    2    0    0 -0.19580576806E+02 -0.15445950384E+02  0.29741676457E+02  0.98960397537E+02  0.91030855159E+02 0.  0.
         23    2    1    2    0    0 -0.17797219981E+02 -0.13419599757E+02  0.12344216378E+02  0.95661313113E+02  0.92205642190E+02 0.  0.
        -13    1    3    3    0    0 -0.83431956544E+01  0.33919386773E+02  0.33230625606E+02  0.48212116641E+02  0.00000000000E+00 0.  1.
         13    1    3    3    0    0 -0.11237381151E+02 -0.49365337157E+02 -0.34889491489E+01  0.50748280896E+02  0.00000000000E+00 0. -1.
        -13    1    4    4    0    0  0.25904637855E+02  0.22191492885E+02 -0.91705504710E+01  0.35321546042E+02  0.00000000000E+00 0.  1.
         13    1    4    4    0    0 -0.43701857836E+02 -0.35611092642E+02  0.21514766849E+02  0.60339767070E+02  0.00000000000E+00 0. -1.
         21    1    1    2  502  501  0.37377796787E+02  0.28865550141E+02 -0.33442561615E+02  0.57868165730E+02  0.00000000000E+00 0. -1.
<scales pt_clust_5="13000.00000" pt_clust_6="13000.00000" pt_clust_7="13000.00000" pt_clust_8="13000.00000" pt_clust_9="47.22626"></scales>
<clustering>
<clus scale="   47.226">  2  9  1 -1</clus>
<clus scale="   91.031">  5  6 -1 -1</clus>
<clus scale="   91.099">  1  5  2 -1</clus>
<clus scale="   92.206">  7  8 -1 -1</clus>
<clus scale="   47.226">  2  5  1 -1</clus>
</clustering>
</event>
<event>
 9    1  0.1296032E-005  0.1078246E+03  0.7546771E-02  0.1264655E+00
          1   -1    0    0  502    0  0.00000000000E+00  0.00000000000E+00  0.48457819307E+03  0.48457819307E+03  0.00000000000E+00 0. -1.
         -1   -1    0    0    0  501 -0.00000000000E+00 -0.00000000000E+00 -0.40211709291E+02  0.40211709291E+02  0.00000000000E+00 0.  1.
         23    2    1    2    0    0 -0.43304013622E+02  0.55226137008E+02  0.15985045124E+03  0.19687109224E+03  0.90999430727E+02 0.  0.
         23    2    1    2    0    0 -0.10858831558E+02 -0.55632402656E+02  0.16602106000E+03  0.19763129205E+03  0.91006905147E+02 0.  0.
        -11    1    3    3    0    0 -0.17220874363E+01  0.39998184238E+02  0.10921684368E+02  0.41498235106E+02  0.00000000000E+00 0.  1.
         11    1    3    3    0    0 -0.41581926186E+02  0.15227952769E+02  0.14892876688E+03  0.15537285713E+03  0.00000000000E+00 0. -1.
        -13    1    4    4    0    0 -0.16324423927E+02 -0.79731564656E+02  0.11434694904E+03  0.14035253462E+03  0.00000000000E+00 0. -1.
         13    1    4    4    0    0  0.54655923684E+01  0.24099162000E+02  0.51674110961E+02  0.57278757430E+02  0.00000000000E+00 0.  1.
         21    1    1    2  502  501  0.54162845180E+02  0.40626564845E+00  0.11849497254E+03  0.13028751808E+03  0.00000000000E+00 0. -1.
<scales pt_clust_5="13000.00000" pt_clust_6="13000.00000" pt_clust_7="13000.00000" pt_clust_8="13000.00000" pt_clust_9="54.16437"></scales>
<clustering>
<clus scale="   54.164">  1  9  2 -1</clus>
<clus scale="   90.999">  5  6 -1 -1</clus>
<clus scale="   91.007">  7  8 -1 -1</clus>
<clus scale="  107.818">  2  5  1 -1</clus>
<clus scale="   54.164">  1  5  2 -1</clus>
</clustering>
</event>
<event>
 9    1  0.1296032E-005  0.1037184E+03  0.7546771E-02  0.1273961E+00
         -1   -1    0    0    0  501 -0.00000000000E+00  0.00000000000E+00  0.14620563950E+03  0.14620563950E+03  0.00000000000E+00 0.  1.
          1   -1    0    0  502    0  0.00000000000E+00 -0.00000000000E+00 -0.11114262754E+03  0.11114262754E+03  0.00000000000E+00 0. -1.
         23    2    1    2    0    0  0.30889639098E+01 -0.51705779585E+02  0.58626364130E+02  0.12218401900E+03  0.93855498437E+02 0.  0.
         23    2    1    2    0    0 -0.25856061257E+02  0.27086613096E+02 -0.97882606393E+01  0.98912389792E+02  0.91025437628E+02 0.  0.
        -11    1    3    3    0    0 -0.33027373725E+02 -0.52135038339E+02  0.11450858756E+02  0.62769354019E+02  0.00000000000E+00 0.  1.
         11    1    3    3    0    0  0.36116337634E+02  0.42925875380E+00  0.47175505374E+02  0.59414664979E+02  0.00000000000E+00 0. -1.
        -11    1    4    4    0    0 -0.35073693550E+02 -0.26559168005E+02 -0.44135119355E+01  0.44215749140E+02  0.00000000000E+00 0. -1.
         11    1    4    4    0    0  0.92176322935E+01  0.53645781101E+02 -0.53747487038E+01  0.54696640653E+02  0.00000000000E+00 0.  1.
         21    1    1    2  502  501  0.22767097347E+02  0.24619166489E+02 -0.13775091528E+02  0.36251858253E+02  0.00000000000E+00 0.  1.
<scales pt_clust_5="13000.00000" pt_clust_6="13000.00000" pt_clust_7="13000.00000" pt_clust_8="13000.00000" pt_clust_9="33.53273"></scales>
<clustering>
<clus scale="   33.533">  2  9  1 -1</clus>
<clus scale="   91.025">  7  8 -1 -1</clus>
<clus scale="   93.855">  5  6 -1 -1</clus>
<clus scale="  101.165">  2  7  1 -1</clus>
<clus scale="   33.533">  2  5  1 -1</clus>
</clustering>
</event>
<event>
 9    1  0.1296032E-005  0.1181019E+03  0.7546771E-02  0.1251754E+00
         -3   -1    0    0    0  501 -0.00000000000E+00  0.00000000000E+00  0.14380850280E+03  0.14380850280E+03  0.00000000000E+00 0.  1.
          3   -1    0    0  502    0  0.00000000000E+00 -0.00000000000E+00 -0.39260767444E+03  0.39260767444E+03  0.00000000000E+00 0. -1.
         23    2    1    2    0    0  0.58487197848E+02  0.37345422363E+02  0.10844666100E+03  0.15250697191E+03  0.81745124113E+02 0.  0.
         23    2    1    2    0    0 -0.24471910717E+02 -0.30846829219E+02 -0.28817294467E+03  0.30664126033E+03  0.97132976948E+02 0.  0.
        -11    1    3    3    0    0  0.51653571096E+02  0.54802092981E+01  0.10808112727E+03  0.11991519575E+03  0.00000000000E+00 0.  1.
         11    1    3    3    0    0  0.68336267522E+01  0.31865213065E+02  0.36553373127E+00  0.32591776159E+02  0.00000000000E+00 0. -1.
        -13    1    4    4    0    0 -0.16083632705E+02 -0.64777614709E+02 -0.22183984343E+03  0.23166298527E+03  0.00000000000E+00 0. -1.
         13    1    4    4    0    0 -0.83882780118E+01  0.33930785490E+02 -0.66333101238E+02  0.74978275066E+02  0.00000000000E+00 0.  1.
         21    1    1    2  502  501 -0.34015287132E+02 -0.64985931443E+01 -0.69072887968E+02  0.77267944995E+02  0.00000000000E+00 0. -1.
<scales pt_clust_5="13000.00000" pt_clust_6="13000.00000" pt_clust_7="13000.00000" pt_clust_8="13000.00000" pt_clust_9="34.63050"></scales>
<clustering>
<clus scale="   34.630">  2  9  1 -1</clus>
<clus scale="   81.745">  5  6 -1 -1</clus>
<clus scale="   97.133">  7  8 -1 -1</clus>
<clus scale="  105.809">  1  5  2 -1</clus>
<clus scale="   34.630">  2  5  1 -1</clus>
</clustering>
</event>
<event>
 9    1  0.1296032E-005  0.9639132E+02  0.7546771E-02  0.1290243E+00
         -4   -1    0    0    0  501 -0.00000000000E+00  0.00000000000E+00  0.14223229444E+03  0.14223229444E+03  0.00000000000E+00 0.  1.
          4   -1    0    0  502    0  0.00000000000E+00 -0.00000000000E+00 -0.19947713993E+03  0.19947713993E+03  0.00000000000E+00 0. -1.
         23    2    1    2    0    0  0.15539872050E+02  0.32708391703E+02  0.96755900018E+02  0.13970211382E+03  0.94040682192E+02 0.  0.
         23    2    1    2    0    0  0.29948814660E+01 -0.19871829888E+02 -0.15389965975E+03  0.17946126489E+03  0.90096511506E+02 0.  0.
        -13    1    3    3    0    0  0.37369413459E+02 -0.64141134828E+01  0.58610963428E+01  0.38366213840E+02  0.00000000000E+00 0. -1.
         13    1    3    3    0    0 -0.21829541409E+02  0.39122505186E+02  0.90894803675E+02  0.10133589998E+03  0.00000000000E+00 0.  1.
        -13    1    4    4    0    0  0.28630100506E+02 -0.46658258600E+02 -0.10067822571E+03  0.11459834590E+03  0.00000000000E+00 0. -1.
         13    1    4    4    0    0 -0.25635219040E+02  0.26786428712E+02 -0.53221434038E+02  0.64862918986E+02  0.00000000000E+00 0.  1.
         21    1    1    2  502  501 -0.18534753516E+02 -0.12836561815E+02 -0.10108575989E+00  0.22546055652E+02  0.00000000000E+00 0. -1.
<scales pt_clust_5="13000.00000" pt_clust_6="13000.00000" pt_clust_7="13000.00000" pt_clust_8="13000.00000" pt_clust_9="22.54583"></scales>
<clustering>
<clus scale="   22.546">  1  9  2 -1</clus>
<clus scale="   90.097">  7  8 -1 -1</clus>
<clus scale="   92.547">  2  7  1 -1</clus>
<clus scale="   94.041">  5  6 -1 -1</clus>
<clus scale="   92.547">  2  5  1 -1</clus>
</clustering>
</event>
<event>
 9    1  0.1296032E-005  0.1251853E+03  0.7546771E-02  0.1234788E+00
         -3   -1    0    0    0  501 -0.00000000000E+00  0.00000000000E+00  0.54417678668E+02  0.54417678668E+02  0.00000000000E+00 0.  1.
          3   -1    0    0  502    0  0.00000000000E+00 -0.00000000000E+00 -0.43300691998E+03  0.43300691998E+03  0.00000000000E+00 0. -1.
         23    2    1    2    0    0 -0.34267258648E+02 -0.70017474521E+02 -0.66304324829E+02  0.13709008708E+03  0.91218072394E+02 0.  0.
         23    2    1    2    0    0  0.22188335963E+02  0.86207494043E+02 -0.30174475492E+03  0.32755047963E+03  0.91188624870E+02 0.  0.
        -11    1    3    3    0    0 -0.27061533177E+02 -0.38994669467E+02  0.14993320340E+02  0.49776605745E+02  0.00000000000E+00 0.  1.
         11    1    3    3    0    0 -0.72057254716E+01 -0.31022805054E+02 -0.81297645168E+02  0.87313481336E+02  0.00000000000E+00 0. -1.
        -13    1    4    4    0    0  0.68147357966E+01 -0.18888688405E+02 -0.65907993487E+02  0.68899105794E+02  0.00000000000E+00 0.  1.
         13    1    4    4    0    0  0.15373600166E+02  0.10509618245E+03 -0.23583676143E+03  0.25865137384E+03  0.00000000000E+00 0. -1.
         21    1    1    2  502  501  0.12078922685E+02 -0.16190019522E+02 -0.10540161566E+02  0.22784031934E+02  0.00000000000E+00 0.  1.
<scales pt_clust_5="13000.00000" pt_clust_6="13000.00000" pt_clust_7="13000.00000" pt_clust_8="13000.00000" pt_clust_9="20.19943"></scales>
<clustering>
<clus scale="   20.199">  1  9  2 -1</clus>
<clus scale="   91.189">  7  8 -1 -1</clus>
<clus scale="   91.218">  5  6 -1 -1</clus>
<clus scale="  125.164">  2  7  1 -1</clus>
<clus scale="  125.164">  2  5  1 -1</clus>
</clustering>
</event>
<event>
 9    1  0.1296032E-005  0.1047600E+03  0.7546771E-02  0.1276379E+00
          1   -1    0    0  502    0  0.00000000000E+00  0.00000000000E+00  0.16729376647E+03  0.16729376647E+03  0.00000000000E+00 0. -1.
         -1   -1    0    0    0  501 -0.00000000000E+00 -0.00000000000E+00 -0.29285985875E+03  0.29285985875E+03  0.00000000000E+00 0.  1.
         23    2    1    2    0    0  0.61166561132E+02 -0.15815894589E+02 -0.25288525886E+03  0.27043328339E+03  0.72053562672E+02 0.  0.
         23    2    1    2    0    0 -0.32970773947E+02 -0.13248595530E+02  0.58421050764E+02  0.10980352654E+03  0.85913899055E+02 0.  0.
        -13    1    4    4    0    0  0.64561447128E+00 -0.22197740919E+02 -0.16189347032E+02  0.27481839044E+02  0.00000000000E+00 0.  1.
         13    1    4    4    0    0 -0.33616388418E+02  0.89491453881E+01  0.74610397796E+02  0.82321687499E+02  0.00000000000E+00 0. -1.
        -13    1    3    3    0    0  0.41916639386E+02 -0.37625768619E+02 -0.21724465899E+03  0.22442803965E+03  0.00000000000E+00 0.  1.
         13    1    3    3    0    0  0.19249921747E+02  0.21809874030E+02 -0.35640599873E+02  0.46005243742E+02  0.00000000000E+00 0. -1.
         21    1    1    2  502  501 -0.28195787186E+02  0.29064490119E+02  0.68898115825E+02  0.79916815284E+02  0.00000000000E+00 0. -1.
<scales pt_clust_5="13000.00000" pt_clust_6="13000.00000" pt_clust_7="13000.00000" pt_clust_8="13000.00000" pt_clust_9="40.49379"></scales>
<clustering>
<clus scale="   40.494">  1  9  2 -1</clus>
<clus scale="   72.054">  7  8 -1 -1</clus>
<clus scale="   85.914">  5  6 -1 -1</clus>
<clus scale="   93.729">  2  7  1 -1</clus>
<clus scale="   40.494">  1  5  2 -1</clus>
</clustering>
</event>
<event>
 9    1  0.1296032E-005  0.1009811E+03  0.7546771E-02  0.1279291E+00
         -1   -1    0    0    0  501 -0.00000000000E+00  0.00000000000E+00  0.20475799340E+03  0.20475799340E+03  0.00000000000E+00 0.  1.
          1   -1    0    0  502    0  0.00000000000E+00 -0.00000000000E+00 -0.11355703019E+03  0.11355703019E+03  0.00000000000E+00 0. -1.
         23    2    1    2    0    0 -0.30863098157E+02  0.12973243093E+02  0.11460963361E+03  0.15028952499E+03  0.91272872980E+02 0.  0.
         23    2    1    2    0    0  0.60925401754E+02 -0.37362119629E+02  0.12938159434E+02  0.11492510844E+03  0.89064875337E+02 0.  0.
        -11    1    4    4    0    0  0.30344218057E+02  0.28307074083E+02  0.10178075986E+01  0.41510214947E+02  0.00000000000E+00 0.  1.
         11    1    4    4    0    0  0.30581183697E+02 -0.65669193712E+02  0.11920351836E+02  0.73414893495E+02  0.00000000000E+00 0. -1.
        -13    1    3    3    0    0 -0.52119932197E+02 -0.61504416789E+01  0.28849357994E+02  0.59888235253E+02  0.00000000000E+00 0.  1.
         13    1    3    3    0    0  0.21256834040E+02  0.19123684772E+02  0.85760275617E+02  0.90401289740E+02  0.00000000000E+00 0. -1.
         21    1    1    2  502  501 -0.30062303597E+02  0.24388876536E+02 -0.36346829830E+02  0.53100390157E+02  0.00000000000E+00 0.  1.
<scales pt_clust_5="13000.00000" pt_clust_6="13000.00000" pt_clust_7="13000.00000" pt_clust_8="13000.00000" pt_clust_9="38.71123"></scales>
<clustering>
<clus scale="   38.711">  2  9  1 -1</clus>
<clus scale="   89.065">  5  6 -1 -1</clus>
<clus scale="   91.273">  7  8 -1 -1</clus>
<clus scale="   98.990">  2  5  1 -1</clus>
<clus scale="   38.711">  2  5  1 -1</clus>
</clustering>
</event>
<event>
 9    1  0.1296032E-005  0.9381545E+02  0.7546771E-02  0.1294205E+00
         -1   -1    0    0    0  501 -0.00000000000E+00  0.00000000000E+00  0.10316820286E+03  0.10316820286E+03  0.00000000000E+00 0.  1.
          1   -1    0    0  502    0  0.00000000000E+00 -0.00000000000E+00 -0.16442276080E+03  0.16442276080E+03  0.00000000000E+00 0. -1.
         23    2    1    2    0    0 -0.11162294589E+02 -0.79547922703E+01  0.20594978897E+02  0.94677619826E+02  0.91388308878E+02 0.  0.
         23    2    1    2    0    0  0.13243685701E+02  0.31292597058E+02 -0.10129241874E+02  0.97462790280E+02  0.90784206262E+02 0.  0.
        -11    1    4    4    0    0 -0.31309974846E+02  0.25641009401E+02 -0.27909970798E+02  0.49160373858E+02  0.00000000000E+00 0.  1.
         11    1    4    4    0    0  0.44553660546E+02  0.56515876572E+01  0.17780728924E+02  0.48302416422E+02  0.00000000000E+00 0. -1.
        -11    1    3    3    0    0 -0.38593837130E+02  0.22077701568E+02  0.29079321847E+02  0.53127357642E+02  0.00000000000E+00 0.  1.
         11    1    3    3    0    0  0.27431542541E+02 -0.30032493838E+02 -0.84843429495E+01  0.41550262184E+02  0.00000000000E+00 0. -1.
         21    1    1    2  502  501 -0.20813911115E+01 -0.23337804788E+02 -0.71720294963E+02  0.75450553549E+02  0.00000000000E+00 0.  1.
<scales pt_clust_5="13000.00000" pt_clust_6="13000.00000" pt_clust_7="13000.00000" pt_clust_8="13000.00000" pt_clust_9="23.43044"></scales>
<clustering>
<clus scale="   23.430">  2  9  1 -1</clus>
<clus scale="   90.784">  5  6 -1 -1</clus>
<clus scale="   91.388">  7  8 -1 -1</clus>
<clus scale="   93.227">  2  5  1 -1</clus>
<clus scale="   23.430">  2  5  1 -1</clus>
</clustering>
</event>
<event>
 9    1  0.1296032E-005  0.1133045E+03  0.7546771E-02  0.1254809E+00
         -2   -1    0    0    0  501 -0.00000000000E+00  0.00000000000E+00  0.26832364226E+02  0.26832364226E+02  0.00000000000E+00 0.  1.
          2   -1    0    0  502    0  0.00000000000E+00 -0.00000000000E+00 -0.74137138370E+03  0.74137138370E+03  0.00000000000E+00 0. -1.
         23    2    1    2    0    0 -0.52564680028E+02  0.65537105603E+02 -0.23729218115E+03  0.26787875037E+03  0.91614888888E+02 0.  0.
         23    2    1    2    0    0  0.42214785296E+02 -0.25357798168E+02 -0.27365717667E+03  0.29255048661E+03  0.90952904559E+02 0.  0.
        -13    1    4    4    0    0 -0.20884945847E+02 -0.23838529025E+02 -0.43028236461E+02  0.53440486169E+02  0.00000000000E+00 0.  1.
         13    1    4    4    0    0  0.63099731143E+02 -0.15192691429E+01 -0.23062894021E+03  0.23911000044E+03  0.00000000000E+00 0. -1.
        -13    1    3    3    0    0  0.51012726192E+01 -0.19413170651E+02 -0.56588485111E+02  0.60042908192E+02  0.00000000000E+00 0. -1.
         13    1    3    3    0    0 -0.57665952647E+02  0.84950276254E+02 -0.18070369604E+03  0.20783584217E+03  0.00000000000E+00 0.  1.
         21    1    1    2  502  501  0.10349894731E+02 -0.40179307436E+02 -0.20358966165E+03  0.20777451095E+03  0.00000000000E+00 0. -1.
<scales pt_clust_5="13000.00000" pt_clust_6="13000.00000" pt_clust_7="13000.00000" pt_clust_8="13000.00000" pt_clust_9="41.49093"></scales>
<clustering>
<clus scale="   41.491">  2  9  1 -1</clus>
<clus scale="   90.953">  5  6 -1 -1</clus>
<clus scale="   91.615">  7  8 -1 -1</clus>
<clus scale="  112.770">  2  5  1 -1</clus>
<clus scale="   41.491">  2  5  1 -1</clus>
</clustering>
</event>
<event>
 9    1  0.1296032E-005  0.1010219E+03  0.7546771E-02  0.1278416E+00
         -3   -1    0    0    0  501 -0.00000000000E+00  0.00000000000E+00  0.50150252913E+03  0.50150252913E+03  0.00000000000E+00 0.  1.
          3   -1    0    0  502    0  0.00000000000E+00 -0.00000000000E+00 -0.32068386194E+02  0.32068386194E+02  0.00000000000E+00 0. -1.
         23    2    1    2    0    0 -0.43795849327E+00  0.30295989701E+02  0.23821720229E+03  0.25720478219E+03  0.92134823588E+02 0.  0.
         23    2    1    2    0    0  0.63721019536E+01 -0.55334965517E+02  0.22596088922E+03  0.25010227117E+03  0.91598365138E+02 0.  0.
        -11    1    4    4    0    0 -0.20197191064E+00  0.23064125612E+02  0.91063271606E+02  0.93938885018E+02  0.00000000000E+00 0.  1.
         11    1    4    4    0    0  0.65740738642E+01 -0.78399091129E+02  0.13489761762E+03  0.15616338615E+03  0.00000000000E+00 0. -1.
        -13    1    3    3    0    0  0.35891856147E+02  0.29100924447E+02  0.19656041594E+03  0.20191851390E+03  0.00000000000E+00 0.  1.
         13    1    3    3    0    0 -0.36329814641E+02  0.11950652542E+01  0.41656786344E+02  0.55286268289E+02  0.00000000000E+00 0. -1.
         21    1    1    2  502  501 -0.59341434603E+01  0.25038975816E+02  0.52560514311E+01  0.26263861962E+02  0.00000000000E+00 0. -1.
<scales pt_clust_5="13000.00000" pt_clust_6="13000.00000" pt_clust_7="13000.00000" pt_clust_8="13000.00000" pt_clust_9="25.73255"></scales>
<clustering>
<clus scale="   25.733">  2  9  1 -1</clus>
<clus scale="   91.598">  5  6 -1 -1</clus>
<clus scale="   92.135">  7  8 -1 -1</clus>
<clus scale="  100.533">  2  5  1 -1</clus>
<clus scale="   25.733">  2  5  1 -1</clus>
</clustering>
</event>
<event>
 9    1  0.1296032E-005  0.1236911E+03  0.7546771E-02  0.1239577E+00
         -2   -1    0    0    0  501 -0.00000000000E+00  0.00000000000E+00  0.41776088283E+02  0.41776088283E+02  0.00000000000E+00 0.  1.
          2   -1    0    0  502    0  0.00000000000E+00 -0.00000000000E+00 -0.68693058434E+03  0.68693058434E+03  0.00000000000E+00 0. -1.
         23    2    1    2    0    0 -0.99573308597E+01 -0.62029298649E+02 -0.11001213070E+03  0.16067766949E+03  0.98832495889E+02 0.  0.
         23    2    1    2    0    0  0.24163009153E+02  0.10738074373E+03 -0.40433077574E+03  0.42885204080E+03  0.91193319633E+02 0.  0.
        -11    1    4    4    0    0  0.52046756387E+02  0.76713868979E+02 -0.20111378551E+03  0.22145120742E+03  0.00000000000E+00 0.  1.
         11    1    4    4    0    0 -0.27883747234E+02  0.30666874754E+02 -0.20321699023E+03  0.20740083338E+03  0.00000000000E+00 0. -1.
        -13    1    3    3    0    0  0.11106626273E+02 -0.63996477552E+02 -0.19632853484E+02  0.67855399359E+02  0.00000000000E+00 0.  1.
         13    1    3    3    0    0 -0.21063957133E+02  0.19671789022E+01 -0.90379277213E+02  0.92822270132E+02  0.00000000000E+00 0. -1.
         21    1    1    2  502  501 -0.14205678293E+02 -0.45351445084E+02 -0.13081158962E+03  0.13917696233E+03  0.00000000000E+00 0.  1.
<scales pt_clust_5="13000.00000" pt_clust_6="13000.00000" pt_clust_7="13000.00000" pt_clust_8="13000.00000" pt_clust_9="47.52426"></scales>
<clustering>
<clus scale="   47.524">  2  9  1 -1</clus>
<clus scale="   91.193">  5  6 -1 -1</clus>
<clus scale="   98.832">  7  8 -1 -1</clus>
<clus scale="  117.677">  2  5  1 -1</clus>
<clus scale="   47.524">  2  5  1 -1</clus>
</clustering>
</event>
<event>
 9    1  0.1296032E-005  0.1051142E+03  0.7546771E-02  0.1271450E+00
          3   -1    0    0  502    0  0.00000000000E+00  0.00000000000E+00  0.60093367127E+02  0.60093367127E+02  0.00000000000E+00 0. -1.
         -3   -1    0    0    0  501 -0.00000000000E+00 -0.00000000000E+00 -0.28063214547E+03  0.28063214547E+03  0.00000000000E+00 0.  1.
         23    2    1    2    0    0  0.49546131467E+02 -0.43401240500E+00 -0.12826467340E+03  0.16309919788E+03  0.87718381173E+02 0.  0.
         23    2    1    2    0    0 -0.50444287334E+02  0.37280759838E+02 -0.85978637084E+02  0.14023483981E+03  0.91318142135E+02 0.  0.
        -11    1    3    3    0    0  0.69523620604E+02  0.16291909797E+02 -0.73623840545E+02  0.10256427274E+03  0.00000000000E+00 0. -1.
         11    1    3    3    0    0 -0.19977489138E+02 -0.16725922202E+02 -0.54640832857E+02  0.60534925135E+02  0.00000000000E+00 0.  1.
        -13    1    4    4    0    0 -0.72023701671E+02  0.13275968370E+02 -0.77981830277E+02  0.10698051595E+03  0.00000000000E+00 0.  1.
         13    1    4    4    0    0  0.21579414337E+02  0.24004791468E+02 -0.79968068069E+01  0.33254323865E+02  0.00000000000E+00 0. -1.
         21    1    1    2  502  501  0.89815586741E+00 -0.36846747433E+02 -0.62954678579E+01  0.37391474909E+02  0.00000000000E+00 0.  1.
<scales pt_clust_5="13000.00000" pt_clust_6="13000.00000" pt_clust_7="13000.00000" pt_clust_8="13000.00000" pt_clust_9="36.85769"></scales>
<clustering>
<clus scale="   36.858">  1  9  2 -1</clus>
<clus scale="   87.718">  5  6 -1 -1</clus>
<clus scale="   91.318">  7  8 -1 -1</clus>
<clus scale="  102.003">  2  5  1 -1</clus>
<clus scale="   36.858">  1  5  2 -1</clus>
</clustering>
</event>
<event>
 9    1  0.1296032E-005  0.1136427E+03  0.7546771E-02  0.1254083E+00
         -3   -1    0    0    0  501 -0.00000000000E+00  0.00000000000E+00  0.54690204145E+02  0.54690204145E+02  0.00000000000E+00 0.  1.
          3   -1    0    0  502    0  0.00000000000E+00 -0.00000000000E+00 -0.39152666271E+03  0.39152666271E+03  0.00000000000E+00 0. -1.
         23    2    1    2    0    0 -0.53392822525E+02 -0.39434506636E+02 -0.62590723836E+02  0.12961911227E+03  0.92074110061E+02 0.  0.
         23    2    1    2    0    0  0.67263504557E+02  0.16374345802E+02 -0.14899367733E+03  0.18848747116E+03  0.92390002997E+02 0.  0.
        -13    1    3    3    0    0 -0.39555821447E+02 -0.66947282957E+02 -0.26446476210E+02  0.82134145211E+02  0.00000000000E+00 0.  1.
         13    1    3    3    0    0 -0.13837001078E+02  0.27512776321E+02 -0.36144247626E+02  0.47484967055E+02  0.00000000000E+00 0. -1.
        -13    1    4    4    0    0 -0.22166243037E+02  0.31202204225E+01 -0.47857960567E+02  0.52834292798E+02  0.00000000000E+00 0.  1.
         13    1    4    4    0    0  0.89429747594E+02  0.13254125379E+02 -0.10113571676E+03  0.13565317836E+03  0.00000000000E+00 0. -1.
         21    1    1    2  502  501 -0.13870682032E+02  0.23060160834E+02 -0.12525205740E+03  0.12811028343E+03  0.00000000000E+00 0. -1.
<scales pt_clust_5="13000.00000" pt_clust_6="13000.00000" pt_clust_7="13000.00000" pt_clust_8="13000.00000" pt_clust_9="26.91035"></scales>
<clustering>
<clus scale="   26.910">  2  9  1 -1</clus>
<clus scale="   92.074">  5  6 -1 -1</clus>
<clus scale="   92.390">  7  8 -1 -1</clus>
<clus scale="  113.386">  1  5  2 -1</clus>
<clus scale="   26.910">  2  5  1 -1</clus>
</clustering>
</event>
<event>
 9    1  0.1296032E-005  0.1067641E+03  0.7546771E-02  0.1267064E+00
          2   -1    0    0  502    0  0.00000000000E+00  0.00000000000E+00  0.39255874348E+03  0.39255874348E+03  0.00000000000E+00 0. -1.
         -2   -1    0    0    0  501 -0.00000000000E+00 -0.00000000000E+00 -0.67793420643E+02  0.67793420643E+02  0.00000000000E+00 0.  1.
         23    2    1    2    0    0  0.46550444016E+02  0.22098762295E+02  0.65871533013E+01  0.10446667616E+03  0.90634412368E+02 0.  0.
         23    2    1    2    0    0 -0.50390738842E+02 -0.45810553837E+02  0.16366197094E+03  0.19951332756E+03  0.91555959597E+02 0.  0.
        -11    1    3    3    0    0  0.16998229727E+02 -0.12295827109E+02  0.41988441836E+02  0.46937793152E+02  0.00000000000E+00 0. -1.
         11    1    3    3    0    0  0.29552214289E+02  0.34394589404E+02 -0.35401288535E+02  0.57528883003E+02  0.00000000000E+00 0.  1.
        -11    1    4    4    0    0 -0.49099120108E+02 -0.71380487097E+02  0.14007175470E+03  0.16469970855E+03  0.00000000000E+00 0. -1.
         11    1    4    4    0    0 -0.12916187338E+01  0.25569933260E+02  0.23590216240E+02  0.34813619004E+02  0.00000000000E+00 0.  1.
         21    1    1    2  502  501  0.38402948265E+01  0.23711791542E+02  0.15451619860E+03  0.15637216041E+03  0.00000000000E+00 0.  1.
<scales pt_clust_5="13000.00000" pt_clust_6="13000.00000" pt_clust_7="13000.00000" pt_clust_8="13000.00000" pt_clust_9="24.02076"></scales>
<clustering>
<clus scale="   24.021">  1  9  2 -1</clus>
<clus scale="   90.634">  5  6 -1 -1</clus>
<clus scale="   91.556">  7  8 -1 -1</clus>
<clus scale="  105.975">  2  5  1 -1</clus>
<clus scale="   24.021">  1  5  2 -1</clus>
</clustering>
</event>
<event>
 9    1  0.1296032E-005  0.1493518E+03  0.7546771E-02  0.1205379E+00
          2   -1    0    0  502    0  0.00000000000E+00  0.00000000000E+00  0.10156110807E+04  0.10156110807E+04  0.00000000000E+00 0.  1.
         -2   -1    0    0    0  501 -0.00000000000E+00 -0.00000000000E+00 -0.31921349769E+02  0.31921349769E+02  0.00000000000E+00 0. -1.
         23    2    1    2    0    0 -0.29452717482E+02  0.77165303826E+02  0.30659822877E+03  0.33491319833E+03  0.10650084435E+03 0.  0.
         23    2    1    2    0    0  0.47769252956E+02 -0.12381198221E+03  0.39058744251E+03  0.42176534396E+03  0.87841599767E+02 0.  0.
        -13    1    4    4    0    0  0.72212018787E+01 -0.11795215423E+03  0.29129563901E+03  0.31435331356E+03  0.00000000000E+00 0. -1.
         13    1    4    4    0    0  0.40548051077E+02 -0.58598279783E+01  0.99291803506E+02  0.10741203039E+03  0.00000000000E+00 0.  1.
        -13    1    3    3    0    0 -0.37314879768E+01  0.92235193282E+02  0.15495153916E+03  0.18036417152E+03  0.00000000000E+00 0.  1.
         13    1    3    3    0    0 -0.25721229506E+02 -0.15069889456E+02  0.15164668961E+03  0.15454902680E+03  0.00000000000E+00 0. -1.
         21    1    1    2  502  501 -0.18316535474E+02  0.46646678382E+02  0.28650405967E+03  0.29085388820E+03  0.00000000000E+00 0.  1.
<scales pt_clust_5="13000.00000" pt_clust_6="13000.00000" pt_clust_7="13000.00000" pt_clust_8="13000.00000" pt_clust_9="50.11395"></scales>
<clustering>
<clus scale="   50.114">  1  9  2 -1</clus>
<clus scale="   87.842">  5  6 -1 -1</clus>
<clus scale="  106.501">  7  8 -1 -1</clus>
<clus scale="  136.674">  1  5  2 -1</clus>
<clus scale="   50.114">  1  5  2 -1</clus>
</clustering>
</event>
<event>
 9    1  0.1296032E-005  0.9605414E+02  0.7546771E-02  0.1289892E+00
          1   -1    0    0  502    0  0.00000000000E+00  0.00000000000E+00  0.30237396089E+03  0.30237396089E+03  0.00000000000E+00 0. -1.
         -1   -1    0    0    0  501 -0.00000000000E+00 -0.00000000000E+00 -0.11951443203E+03  0.11951443203E+03  0.00000000000E+00 0.  1.
         23    2    1    2    0    0  0.21404332960E+02  0.13755463014E+02 -0.78462688836E+02  0.12218386725E+03  0.90139589771E+02 0.  0.
         23    2    1    2    0    0 -0.54084187881E+02  0.37889444772E+01  0.21704635330E+03  0.24194527257E+03  0.92135443547E+02 0.  0.
        -11    1    4    4    0    0 -0.44821296183E+02 -0.31165189851E+02  0.61425893587E+02  0.82178817544E+02  0.00000000000E+00 0. -1.
         11    1    4    4    0    0 -0.92628916979E+01  0.34954134328E+02  0.15562045972E+03  0.15976645503E+03  0.00000000000E+00 0.  1.
        -13    1    3    3    0    0  0.39641578548E+02 -0.24636264607E+02 -0.59554398424E+02  0.75664566708E+02  0.00000000000E+00 0.  1.
         13    1    3    3    0    0 -0.18237245588E+02  0.38391727621E+02 -0.18908290412E+02  0.46519300539E+02  0.00000000000E+00 0. -1.
         21    1    1    2  502  501  0.32679854921E+02 -0.17544407492E+02  0.44275864391E+02  0.57759253107E+02  0.00000000000E+00 0. -1.
<scales pt_clust_5="13000.00000" pt_clust_6="13000.00000" pt_clust_7="13000.00000" pt_clust_8="13000.00000" pt_clust_9="37.09150"></scales>
<clustering>
<clus scale="   37.091">  1  9  2 -1</clus>
<clus scale="   90.140">  7  8 -1 -1</clus>
<clus scale="   92.135">  5  6 -1 -1</clus>
<clus scale="   94.141">  2  7  1 -1</clus>
<clus scale="   37.091">  1  5  2 -1</clus>
</clustering>
</event>
<event>
 9    1  0.1296032E-005  0.9928432E+02  0.7546771E-02  0.1282400E+00
          1   -1    0    0  502    0  0.00000000000E+00  0.00000000000E+00  0.39748451001E+03  0.39748451001E+03  0.00000000000E+00 0. -1.
         -1   -1    0    0    0  501 -0.00000000000E+00 -0.00000000000E+00 -0.43402410857E+02  0.43402410857E+02  0.00000000000E+00 0.  1.
         23    2    1    2    0    0  0.21079099090E+02 -0.32545064013E+02  0.47276275884E+02  0.11011397800E+03  0.91578011982E+02 0.  0.
         23    2    1    2    0    0  0.45923274476E+01  0.30220491277E+02  0.24950747827E+03  0.26794360165E+03  0.92765426678E+02 0.  0.
        -13    1    3    3    0    0 -0.40350044593E+01 -0.52889204731E+02  0.23965299424E+00  0.53043441363E+02  0.00000000000E+00 0.  1.
         13    1    3    3    0    0  0.25114103550E+02  0.20344140718E+02  0.47036622890E+02  0.57070536633E+02  0.00000000000E+00 0. -1.
        -13    1    4    4    0    0 -0.23300649764E+02  0.49122628694E+02  0.91929321741E+02  0.10680333855E+03  0.00000000000E+00 0. -1.
         13    1    4    4    0    0  0.27892977212E+02 -0.18902137417E+02  0.15757815653E+03  0.16114026310E+03  0.00000000000E+00 0.  1.
         21    1    1    2  502  501 -0.25671426538E+02  0.23245727358E+01  0.57298344995E+02  0.62829341219E+02  0.00000000000E+00 0. -1.
<scales pt_clust_5="13000.00000" pt_clust_6="13000.00000" pt_clust_7="13000.00000" pt_clust_8="13000.00000" pt_clust_9="25.77646"></scales>
<clustering>
<clus scale="   25.776">  1  9  2 -1</clus>
<clus scale="   91.578">  5  6 -1 -1</clus>
<clus scale="   92.765">  7  8 -1 -1</clus>
<clus scale="   98.176">  2  5  1 -1</clus>
<clus scale="   25.776">  1  5  2 -1</clus>
</clustering>
</event>
<event>
 9    1  0.1296032E-005  0.1385459E+03  0.7546771E-02  0.1216253E+00
         -3   -1    0    0    0  501 -0.00000000000E+00  0.00000000000E+00  0.19501935798E+03  0.19501935798E+03  0.00000000000E+00 0.  1.
          3   -1    0    0  502    0  0.00000000000E+00 -0.00000000000E+00 -0.19958216669E+03  0.19958216669E+03  0.00000000000E+00 0. -1.
         23    2    1    2    0    0 -0.52397610810E+02 -0.95819146474E+02  0.12181718940E+03  0.18585588200E+03  0.88182553791E+02 0.  0.
         23    2    1    2    0    0  0.24943295498E+02  0.97846015688E+02 -0.76769770724E+02  0.15200921443E+03  0.83768686262E+02 0.  0.
        -11    1    3    3    0    0 -0.88537350174E+00 -0.66420733788E+02  0.22420348490E+02  0.70108271906E+02  0.00000000000E+00 0.  1.
         11    1    3    3    0    0 -0.51512237308E+02 -0.29398412686E+02  0.99396840909E+02  0.11574761010E+03  0.00000000000E+00 0. -1.
        -13    1    4    4    0    0  0.19719471596E+02  0.22171108136E+02  0.14753640018E+02  0.33137373007E+02  0.00000000000E+00 0.  1.
         13    1    4    4    0    0  0.52238239018E+01  0.75674907551E+02 -0.91523410742E+02  0.11887184142E+03  0.00000000000E+00 0. -1.
         21    1    1    2  502  501  0.27454315312E+02 -0.20268692139E+01 -0.49610227386E+02  0.56736428240E+02  0.00000000000E+00 0.  1.
<scales pt_clust_5="13000.00000" pt_clust_6="13000.00000" pt_clust_7="13000.00000" pt_clust_8="13000.00000" pt_clust_9="27.52903"></scales>
<clustering>
<clus scale="   27.529">  2  9  1 -1</clus>
<clus scale="   83.769">  7  8 -1 -1</clus>
<clus scale="   88.183">  5  6 -1 -1</clus>
<clus scale="  135.779">  2  7  1 -1</clus>
<clus scale="   27.529">  2  5  1 -1</clus>
</clustering>
</event>
<event>
 9    1  0.1296032E-005  0.9933210E+02  0.7546771E-02  0.1283191E+00
         -2   -1    0    0    0  501 -0.00000000000E+00  0.00000000000E+00  0.16378675671E+03  0.16378675671E+03  0.00000000000E+00 0.  1.
          2   -1    0    0  502    0  0.00000000000E+00 -0.00000000000E+00 -0.22957573523E+03  0.22957573523E+03  0.00000000000E+00 0. -1.
         23    2    1    2    0    0  0.30525034541E+02  0.20183635871E+02  0.11478870114E+03  0.14978979788E+03  0.89002139011E+02 0.  0.
         23    2    1    2    0    0 -0.48532497777E+02 -0.12376478736E+00 -0.60108386219E+02  0.12012425211E+03  0.91985864088E+02 0.  0.
        -11    1    4    4    0    0  0.97123326514E+01 -0.34710541846E+02 -0.17193685179E+02  0.39934620704E+02  0.00000000000E+00 0.  1.
         11    1    4    4    0    0 -0.58244830429E+02  0.34586777059E+02 -0.42914701041E+02  0.80189631402E+02  0.00000000000E+00 0. -1.
        -11    1    3    3    0    0  0.29173100113E+02 -0.19236929980E+02  0.78595155450E+01  0.35817610611E+02  0.00000000000E+00 0.  1.
         11    1    3    3    0    0  0.13519344277E+01  0.39420565851E+02  0.10692918559E+03  0.11397218726E+03  0.00000000000E+00 0. -1.
         21    1    1    2  502  501  0.18007463236E+02 -0.20059871084E+02 -0.12046929343E+03  0.12344844195E+03  0.00000000000E+00 0. -1.
<scales pt_clust_5="13000.00000" pt_clust_6="13000.00000" pt_clust_7="13000.00000" pt_clust_8="13000.00000" pt_clust_9="26.95676"></scales>
<clustering>
<clus scale="   26.957">  2  9  1 -1</clus>
<clus scale="   89.002">  7  8 -1 -1</clus>
<clus scale="   91.986">  5  6 -1 -1</clus>
<clus scale="   96.576">  1  7  2 -1</clus>
<clus scale="   26.957">  2  5  1 -1</clus>
</clustering>
</event>
<event>
 9    1  0.1296032E-005  0.1572985E+03  0.7546771E-02  0.1192072E+00
          3   -1    0    0  502    0  0.00000000000E+00  0.00000000000E+00  0.75542948196E+02  0.75542948196E+02  0.00000000000E+00 0. -1.
         -3   -1    0    0    0  501 -0.00000000000E+00 -0.00000000000E+00 -0.66715752238E+03  0.66715752238E+03  0.00000000000E+00 0.  1.
         23    2    1    2    0    0  0.11488711496E+03 -0.47679095518E+02 -0.50237762169E+03  0.52533901190E+03  0.90141318597E+02 0.  0.
         23    2    1    2    0    0 -0.13664965491E+03  0.40784555017E+02 -0.94145741634E+02  0.19401110440E+03  0.91871539912E+02 0.  0.
        -13    1    4    4    0    0 -0.17900781417E+02 -0.27375945305E+02 -0.18912235674E+02  0.37782972552E+02  0.00000000000E+00 0.  1.
         13    1    4    4    0    0 -0.11874887350E+03  0.68160500322E+02 -0.75233505961E+02  0.15622813185E+03  0.00000000000E+00 0. -1.
        -13    1    3    3    0    0  0.10487049798E+03 -0.71919366977E+02 -0.40527097480E+03  0.42475261000E+03  0.00000000000E+00 0.  1.
         13    1    3    3    0    0  0.10016616986E+02  0.24240271458E+02 -0.97106646891E+02  0.10058640190E+03  0.00000000000E+00 0. -1.
         21    1    1    2  502  501  0.21762539951E+02  0.68945405018E+01  0.49087891414E+01  0.23350354273E+02  0.00000000000E+00 0. -1.
<scales pt_clust_5="13000.00000" pt_clust_6="13000.00000" pt_clust_7="13000.00000" pt_clust_8="13000.00000" pt_clust_9="22.82855"></scales>
<clustering>
<clus scale="   22.829">  1  9  2 -1</clus>
<clus scale="   90.141">  7  8 -1 -1</clus>
<clus scale="   91.872">  5  6 -1 -1</clus>
<clus scale="  156.294">  2  7  1 -1</clus>
<clus scale="   22.829">  1  5  2 -1</clus>
</clustering>
</event>
<event>
 9    1  0.1296032E-005  0.1125195E+03  0.7546771E-02  0.1257222E+00
         -1   -1    0    0    0  501 -0.00000000000E+00  0.00000000000E+00  0.11081079886E+04  0.11081079886E+04  0.00000000000E+00 0.  1.
          1   -1    0    0  502    0  0.00000000000E+00 -0.00000000000E+00 -0.17946528683E+02  0.17946528683E+02  0.00000000000E+00 0. -1.
         23    2    1    2    0    0 -0.51975999069E+02 -0.16023483256E+02  0.56067430359E+03  0.57085714273E+03  0.92541591723E+02 0.  0.
         23    2    1    2    0    0  0.71358877965E+02  0.27902404094E+02  0.51497283803E+03  0.52822571925E+03  0.89189421701E+02 0.  0.
        -11    1    4    4    0    0  0.67546388949E+02 -0.15221550471E+02  0.38654554668E+03  0.39269793725E+03  0.00000000000E+00 0.  1.
         11    1    4    4    0    0  0.38124890158E+01  0.43123954566E+02  0.12842729135E+03  0.13552778200E+03  0.00000000000E+00 0. -1.
        -13    1    3    3    0    0 -0.11307118045E+02  0.37354480800E+02  0.16662688122E+03  0.17113657032E+03  0.00000000000E+00 0. -1.
         13    1    3    3    0    0 -0.40668881024E+02 -0.53377964056E+02  0.39404742237E+03  0.39972057241E+03  0.00000000000E+00 0.  1.
         21    1    1    2  502  501 -0.19382878896E+02 -0.11878920838E+02  0.14514318288E+02  0.26971655306E+02  0.00000000000E+00 0. -1.
<scales pt_clust_5="13000.00000" pt_clust_6="13000.00000" pt_clust_7="13000.00000" pt_clust_8="13000.00000" pt_clust_9="22.73334"></scales>
<clustering>
<clus scale="   22.733">  2  9  1 -1</clus>
<clus scale="   89.189">  5  6 -1 -1</clus>
<clus scale="   92.542">  7  8 -1 -1</clus>
<clus scale="  109.779">  2  5  1 -1</clus>
<clus scale="   22.733">  2  5  1 -1</clus>
</clustering>
</event>
<event>
 9    1  0.1296032E-005  0.1871614E+03  0.7546771E-02  0.1161344E+00
         -2   -1    0    0    0  501 -0.00000000000E+00  0.00000000000E+00  0.35736480286E+02  0.35736480286E+02  0.00000000000E+00 0.  1.
          2   -1    0    0  502    0  0.00000000000E+00 -0.00000000000E+00 -0.12382702126E+04  0.12382702126E+04  0.00000000000E+00 0. -1.
         23    2    1    2    0    0  0.14750957849E+03 -0.13238245483E+02 -0.46164163168E+03  0.49333522407E+03  0.91281544247E+02 0.  0.
         23    2    1    2    0    0 -0.18004977354E+03  0.16198344219E+02 -0.52423340165E+03  0.56156277815E+03  0.88610310303E+02 0.  0.
        -11    1    3    3    0    0  0.54773055221E+02 -0.19837143874E+02 -0.71288585979E+02  0.92063360498E+02  0.00000000000E+00 0.  1.
         11    1    3    3    0    0  0.92736523273E+02  0.65988983914E+01 -0.39035304570E+03  0.40127186358E+03  0.00000000000E+00 0. -1.
        -13    1    4    4    0    0 -0.78907514427E+02  0.43383374148E+02 -0.31445069723E+03  0.32708982554E+03  0.00000000000E+00 0. -1.
         13    1    4    4    0    0 -0.10114225911E+03 -0.27185029929E+02 -0.20978270442E+03  0.23447295260E+03  0.00000000000E+00 0.  1.
         21    1    1    2  502  501  0.32540195046E+02 -0.29600987365E+01 -0.21665869901E+03  0.21910869068E+03  0.00000000000E+00 0.  1.
<scales pt_clust_5="13000.00000" pt_clust_6="13000.00000" pt_clust_7="13000.00000" pt_clust_8="13000.00000" pt_clust_9="32.67455"></scales>
<clustering>
<clus scale="   32.675">  2  9  1 -1</clus>
<clus scale="   88.610">  7  8 -1 -1</clus>
<clus scale="   91.282">  5  6 -1 -1</clus>
<clus scale="  185.873">  2  7  1 -1</clus>
<clus scale="   32.675">  2  5  1 -1</clus>
</clustering>
</event>
<event>
 9    1  0.1296032E-005  0.1094916E+03  0.7546771E-02  0.1261678E+00
         -1   -1    0    0    0  501 -0.00000000000E+00  0.00000000000E+00  0.33990947607E+03  0.33990947607E+03  0.00000000000E+00 0.  1.
          1   -1    0    0  502    0  0.00000000000E+00 -0.00000000000E+00 -0.80577742622E+02  0.80577742622E+02  0.00000000000E+00 0. -1.
         23    2    1    2    0    0 -0.50946806706E+02  0.20107994190E+02  0.26098451260E+03  0.28286337167E+03  0.94333783294E+02 0.  0.
         23    2    1    2    0    0  0.46172481666E+02 -0.43250357325E+02  0.40438812996E+01  0.11331715883E+03  0.93925151248E+02 0.  0.
        -11    1    4    4    0    0  0.54302341411E+02 -0.63155497037E+02 -0.14957103819E+02  0.84623141300E+02  0.00000000000E+00 0. -1.
         11    1    4    4    0    0 -0.81298597454E+01  0.19905139712E+02  0.19000985119E+02  0.28694017529E+02  0.00000000000E+00 0.  1.
        -13    1    3    3    0    0 -0.55039611285E+02  0.51238451422E+02  0.15420387425E+03  0.17156215360E+03  0.00000000000E+00 0.  1.
         13    1    3    3    0    0  0.40928045789E+01 -0.31130457232E+02  0.10678063835E+03  0.11130121806E+03  0.00000000000E+00 0. -1.
         21    1    1    2  502  501  0.47743250406E+01  0.23142363135E+02 -0.56966604457E+01  0.24306688201E+02  0.00000000000E+00 0. -1.
<scales pt_clust_5="13000.00000" pt_clust_6="13000.00000" pt_clust_7="13000.00000" pt_clust_8="13000.00000" pt_clust_9="23.62971"></scales>
<clustering>
<clus scale="   23.630">  2  9  1 -1</clus>
<clus scale="   93.925">  5  6 -1 -1</clus>
<clus scale="   94.334">  7  8 -1 -1</clus>
<clus scale="  109.140">  2  5  1 -1</clus>
<clus scale="   23.630">  2  5  1 -1</clus>
</clustering>
</event>
<event>
 9    1  0.1510430E-005  0.5015486E+03  0.7546771E-02  0.1013392E+00
         -1   -1    0    0    0  501 -0.00000000000E+00  0.00000000000E+00  0.10985999315E+03  0.10985999315E+03  0.00000000000E+00 0.  1.
          1   -1    0    0  502    0  0.00000000000E+00 -0.00000000000E+00 -0.27578680946E+04  0.27578680946E+04  0.00000000000E+00 0. -1.
         23    2    1    2    0    0  0.30204164682E+03 -0.39564755321E+03 -0.81430492177E+03  0.95875447142E+03  0.91386476408E+02 0.  0.
         23    2    1    2    0    0 -0.26619949338E+03  0.40543310766E+03 -0.16871475405E+04  0.17577817765E+04  0.89954297022E+02 0.  0.
        -11    1    3    3    0    0  0.26461116708E+03 -0.30922983358E+03 -0.70875852702E+03  0.81730092949E+03  0.00000000000E+00 0.  1.
         11    1    3    3    0    0  0.37430479733E+02 -0.86417719627E+02 -0.10554639475E+03  0.14145354192E+03  0.00000000000E+00 0. -1.
        -11    1    4    4    0    0 -0.18387757174E+02  0.10413294976E+02 -0.33204633226E+02  0.39358531398E+02  0.00000000000E+00 0.  1.
         11    1    4    4    0    0 -0.24781173621E+03  0.39501981268E+03 -0.16539429072E+04  0.17184232451E+04  0.00000000000E+00 0. -1.
         21    1    1    2  502  501 -0.35842153436E+02 -0.97855544453E+01 -0.14655563926E+03  0.15119183985E+03  0.00000000000E+00 0. -1.
<scales pt_clust_5="13000.00000" pt_clust_6="13000.00000" pt_clust_7="13000.00000" pt_clust_8="13000.00000" pt_clust_9="37.15396"></scales>
<clustering>
<clus scale="   37.154">  2  9  1 -1</clus>
<clus scale="   89.954">  7  8 -1 -1</clus>
<clus scale="   91.386">  5  6 -1 -1</clus>
<clus scale="  501.290">  2  7  1 -1</clus>
<clus scale="   37.154">  2  5  1 -1</clus>
</clustering>
</event>
<event>
 9    1  0.1296032E-005  0.1206293E+03  0.7546771E-02  0.1243727E+00
          1   -1    0    0  502    0  0.00000000000E+00  0.00000000000E+00  0.47282208111E+03  0.47282208111E+03  0.00000000000E+00 0. -1.
         -1   -1    0    0    0  501 -0.00000000000E+00 -0.00000000000E+00 -0.77963639508E+02  0.77963639508E+02  0.00000000000E+00 0.  1.
         23    2    1    2    0    0 -0.55373508096E+02  0.42490927554E+02  0.26092963193E+02  0.12094476421E+03  0.95263261219E+02 0.  0.
         23    2    1    2    0    0  0.17679349185E+02 -0.10083497133E+03  0.16234764627E+03  0.21204931633E+03  0.90154886046E+02 0.  0.
        -13    1    4    4    0    0  0.52810552500E+02 -0.77879953869E+02  0.11911849414E+03  0.15180071579E+03  0.00000000000E+00 0.  1.
         13    1    4    4    0    0 -0.35131203315E+02 -0.22955017463E+02  0.43229152129E+02  0.60248600539E+02  0.00000000000E+00 0. -1.
        -13    1    3    3    0    0  0.22245599201E+02 -0.63915598498E+01 -0.57442394895E+01  0.23847746402E+02  0.00000000000E+00 0.  1.
         13    1    3    3    0    0 -0.77619107297E+02  0.48882487404E+02  0.31837202682E+02  0.97097017807E+02  0.00000000000E+00 0. -1.
         21    1    1    2  502  501  0.37694158911E+02  0.58344043779E+02  0.20641783214E+03  0.21779164007E+03  0.00000000000E+00 0. -1.
<scales pt_clust_5="13000.00000" pt_clust_6="13000.00000" pt_clust_7="13000.00000" pt_clust_8="13000.00000" pt_clust_9="69.46134"></scales>
<clustering>
<clus scale="   69.461">  1  9  2 -1</clus>
<clus scale="   90.155">  5  6 -1 -1</clus>
<clus scale="   95.263">  7  8 -1 -1</clus>
<clus scale="  116.637">  1  5  2 -1</clus>
<clus scale="   69.461">  1  5  2 -1</clus>
</clustering>
</event>
<event>
 9    1  0.1296032E-005  0.1104570E+03  0.7546771E-02  0.1259992E+00
         -1   -1    0    0    0  501 -0.00000000000E+00  0.00000000000E+00  0.44443946044E+03  0.44443946044E+03  0.00000000000E+00 0.  1.
          1   -1    0    0  502    0  0.00000000000E+00 -0.00000000000E+00 -0.48189885190E+02  0.48189885190E+02  0.00000000000E+00 0. -1.
         23    2    1    2    0    0  0.59886724120E+02 -0.15811674676E+02  0.30509932428E+03  0.32462350686E+03  0.91969531623E+02 0.  0.
         23    2    1    2    0    0 -0.47933934622E+02  0.42456168781E+02  0.77389701641E+02  0.13572347578E+03  0.91277092420E+02 0.  0.
        -11    1    3    3    0    0  0.11143777264E+02  0.37083473262E+02  0.96958924650E+02  0.10440498470E+03  0.00000000000E+00 0. -1.
         11    1    3    3    0    0  0.48742946857E+02 -0.52895147938E+02  0.20814039963E+03  0.22021852216E+03  0.00000000000E+00 0.  1.
        -13    1    4    4    0    0 -0.27949661663E+02 -0.20901647219E+02  0.15988151444E+01  0.34937353269E+02  0.00000000000E+00 0.  1.
         13    1    4    4    0    0 -0.19984272959E+02  0.63357816000E+02  0.75790886496E+02  0.10078612251E+03  0.00000000000E+00 0. -1.
         21    1    1    2  502  501 -0.11952789498E+02 -0.26644494105E+02  0.13760549333E+02  0.32282362999E+02  0.00000000000E+00 0.  1.
<scales pt_clust_5="13000.00000" pt_clust_6="13000.00000" pt_clust_7="13000.00000" pt_clust_8="13000.00000" pt_clust_9="29.20271"></scales>
<clustering>
<clus scale="   29.203">  2  9  1 -1</clus>
<clus scale="   91.277">  7  8 -1 -1</clus>
<clus scale="   91.970">  5  6 -1 -1</clus>
<clus scale="  109.881">  2  7  1 -1</clus>
<clus scale="   29.203">  2  5  1 -1</clus>
</clustering>
</event>
<event>
 9    1  0.1296032E-005  0.9416527E+02  0.7546771E-02  0.1294045E+00
         -1   -1    0    0    0  501 -0.00000000000E+00  0.00000000000E+00  0.17607189562E+03  0.17607189562E+03  0.00000000000E+00 0.  1.
          1   -1    0    0  502    0  0.00000000000E+00 -0.00000000000E+00 -0.14835560685E+03  0.14835560685E+03  0.00000000000E+00 0. -1.
         23    2    1    2    0    0  0.47505510835E+02 -0.46209731611E+02  0.77134397840E+02  0.13570527225E+03  0.89855955452E+02 0.  0.
         23    2    1    2    0    0  0.49761127012E+01  0.16413297413E+02 -0.78387889037E+02  0.12177899718E+03  0.91604066373E+02 0.  0.
        -11    1    4    4    0    0  0.23907521526E+02  0.48116232221E+02 -0.59961065653E+02  0.80511308417E+02  0.00000000000E+00 0.  1.
         11    1    4    4    0    0 -0.18931408825E+02 -0.31702934808E+02 -0.18426823384E+02  0.41267688760E+02  0.00000000000E+00 0. -1.
        -13    1    3    3    0    0  0.70053353514E+02 -0.20097942431E+02  0.68776004271E+02  0.10020747673E+03  0.00000000000E+00 0.  1.
         13    1    3    3    0    0 -0.22547842680E+02 -0.26111789180E+02  0.83583935695E+01  0.35497795519E+02  0.00000000000E+00 0. -1.
         21    1    1    2  502  501 -0.52481623536E+02  0.29796434197E+02  0.28969779965E+02  0.66943233049E+02  0.00000000000E+00 0. -1.
<scales pt_clust_5="13000.00000" pt_clust_6="13000.00000" pt_clust_7="13000.00000" pt_clust_8="13000.00000" pt_clust_9="60.35021"></scales>
<clustering>
<clus scale="   60.350">  1  9  2 -1</clus>
<clus scale="   89.856">  7  8 -1 -1</clus>
<clus scale="   91.604">  5  6 -1 -1</clus>
<clus scale="   92.466">  1  7  2 -1</clus>
<clus scale="   94.165">  2  5  1 -1</clus>
</clustering>
</event>
<event>
 9    1  0.1296032E-005  0.1110941E+03  0.7546771E-02  0.1258801E+00
          2   -1    0    0  502    0  0.00000000000E+00  0.00000000000E+00  0.41616987460E+03  0.41616987460E+03  0.00000000000E+00 0. -1.
         -2   -1    0    0    0  501 -0.00000000000E+00 -0.00000000000E+00 -0.57996327637E+02  0.57996327637E+02  0.00000000000E+00 0.  1.
         23    2    1    2    0    0  0.37343704212E+02  0.45592830214E+02  0.26178438045E+02  0.11130751712E+03  0.90723725329E+02 0.  0.
         23    2    1    2    0    0 -0.45252928080E+02 -0.65184737023E+02  0.24401329624E+03  0.27237554858E+03  0.91373263511E+02 0.  0.
        -11    1    3    3    0    0  0.15228178731E+02 -0.27565035279E+02  0.41178914460E+01  0.31759811513E+02  0.00000000000E+00 0. -1.
         11    1    3    3    0    0  0.22115525481E+02  0.73157865493E+02  0.22060546599E+02  0.79547705606E+02  0.00000000000E+00 0.  1.
        -11    1    4    4    0    0 -0.71181905611E+02 -0.42069977546E+02  0.19917846051E+03  0.21565900359E+03  0.00000000000E+00 0. -1.
         11    1    4    4    0    0  0.25928977532E+02 -0.23114759477E+02  0.44834835729E+02  0.56716544997E+02  0.00000000000E+00 0.  1.
         21    1    1    2  502  501  0.79092238679E+01  0.19591906809E+02  0.87981812685E+02  0.90483136539E+02  0.00000000000E+00 0.  1.
<scales pt_clust_5="13000.00000" pt_clust_6="13000.00000" pt_clust_7="13000.00000" pt_clust_8="13000.00000" pt_clust_9="21.12815"></scales>
<clustering>
<clus scale="   21.128">  1  9  2 -1</clus>
<clus scale="   90.724">  5  6 -1 -1</clus>
<clus scale="   91.373">  7  8 -1 -1</clus>
<clus scale="  110.561">  2  5  1 -1</clus>
<clus scale="   21.128">  1  5  2 -1</clus>
</clustering>
</event>
<event>
 9    1  0.1296032E-005  0.1163004E+03  0.7546771E-02  0.1253447E+00
          1   -1    0    0  502    0  0.00000000000E+00  0.00000000000E+00  0.46334174269E+03  0.46334174269E+03  0.00000000000E+00 0. -1.
         -1   -1    0    0    0  501 -0.00000000000E+00 -0.00000000000E+00 -0.14643564669E+03  0.14643564669E+03  0.00000000000E+00 0.  1.
         23    2    1    2    0    0  0.71629769968E+02  0.22378726962E+02 -0.10661459386E+03  0.15231274455E+03  0.78745597745E+02 0.  0.
         23    2    1    2    0    0 -0.34906275037E+02 -0.53185737107E+02  0.19828966079E+03  0.22718936737E+03  0.90824272089E+02 0.  0.
        -11    1    4    4    0    0 -0.29259680126E+02 -0.75211458853E+02  0.11259814940E+03  0.13853243545E+03  0.00000000000E+00 0. -1.
         11    1    4    4    0    0 -0.56465949117E+01  0.22025721745E+02  0.85691511397E+02  0.88656931923E+02  0.00000000000E+00 0.  1.
        -11    1    3    3    0    0  0.49927781553E+02  0.13562679300E+02 -0.11604934805E+03  0.12705975296E+03  0.00000000000E+00 0.  1.
         11    1    3    3    0    0  0.21701988415E+02  0.88160476616E+01  0.94347541932E+01  0.25252991590E+02  0.00000000000E+00 0. -1.
         21    1    1    2  502  501 -0.36723494931E+02  0.30807010146E+02  0.22523102906E+03  0.23027527745E+03  0.00000000000E+00 0. -1.
<scales pt_clust_5="13000.00000" pt_clust_6="13000.00000" pt_clust_7="13000.00000" pt_clust_8="13000.00000" pt_clust_9="47.93419"></scales>
<clustering>
<clus scale="   47.934">  1  9  2 -1</clus>
<clus scale="   78.746">  7  8 -1 -1</clus>
<clus scale="   90.824">  5  6 -1 -1</clus>
<clus scale="  107.134">  2  7  1 -1</clus>
<clus scale="   47.934">  1  5  2 -1</clus>
</clustering>
</event>
<event>
 9    1  0.1296032E-005  0.9895758E+02  0.7546771E-02  0.1293813E+00
          1   -1    0    0  502    0  0.00000000000E+00  0.00000000000E+00  0.41499458469E+03  0.41499458469E+03  0.00000000000E+00 0. -1.
         -1   -1    0    0    0  501 -0.00000000000E+00 -0.00000000000E+00 -0.31925472354E+02  0.31925472354E+02  0.00000000000E+00 0.  1.
         23    2    1    2    0    0  0.26390953545E+02 -0.46093957788E+02  0.96721144413E+02  0.13056319611E+03  0.69789920682E+02 0.  0.
         23    2    1    2    0    0 -0.23945795508E+02  0.22556728664E+02  0.27204545693E+03  0.28870651241E+03  0.90887361837E+02 0.  0.
        -11    1    4    4    0    0  0.34475363274E+02  0.56751021530E+01  0.11896535328E+03  0.12398997031E+03  0.00000000000E+00 0.  1.
         11    1    4    4    0    0 -0.58421158782E+02  0.16881626511E+02  0.15308010365E+03  0.16471654210E+03  0.00000000000E+00 0. -1.
        -13    1    3    3    0    0  0.36531528486E+02  0.25697776436E+01  0.29884330145E+02  0.47267637120E+02  0.00000000000E+00 0.  1.
         13    1    3    3    0    0 -0.10140574941E+02 -0.48663735432E+02  0.66836814268E+02  0.83295558992E+02  0.00000000000E+00 0. -1.
         21    1    1    2  502  501 -0.24451580367E+01  0.23537229124E+02  0.14302510993E+02  0.27650348522E+02  0.00000000000E+00 0.  1.
<scales pt_clust_5="13000.00000" pt_clust_6="13000.00000" pt_clust_7="13000.00000" pt_clust_8="13000.00000" pt_clust_9="23.66390"></scales>
<clustering>
<clus scale="   23.664">  2  9  1 -1</clus>
<clus scale="   69.790">  7  8 -1 -1</clus>
<clus scale="   80.017">  2  7  1 -1</clus>
<clus scale="   90.887">  5  6 -1 -1</clus>
<clus scale="   98.958">  1  5  2 -1</clus>
</clustering>
</event>
<event>
 9    1  0.1296032E-005  0.1018127E+03  0.7546771E-02  0.1277318E+00
         -2   -1    0    0    0  501 -0.00000000000E+00  0.00000000000E+00  0.17945665099E+03  0.17945665099E+03  0.00000000000E+00 0.  1.
          2   -1    0    0  502    0  0.00000000000E+00 -0.00000000000E+00 -0.14618429176E+03  0.14618429176E+03  0.00000000000E+00 0. -1.
         23    2    1    2    0    0  0.47043443608E+02 -0.15595585175E+02  0.11349355045E+03  0.15526636081E+03  0.93651208981E+02 0.  0.
         23    2    1    2    0    0 -0.23187397026E+01 -0.14687068482E+02 -0.66986854906E+02  0.11476445777E+03  0.91992149134E+02 0.  0.
        -13    1    3    3    0    0  0.17684827930E+02  0.37136939019E+02  0.68826976429E+02  0.80181407215E+02  0.00000000000E+00 0.  1.
         13    1    3    3    0    0  0.29358615678E+02 -0.52732524194E+02  0.44666574020E+02  0.75084953600E+02  0.00000000000E+00 0. -1.
        -13    1    4    4    0    0  0.29158577704E+02  0.12200931310E+02  0.47266753868E+01  0.31959769066E+02  0.00000000000E+00 0.  1.
         13    1    4    4    0    0 -0.31477317407E+02 -0.26887999792E+02 -0.71713530293E+02  0.82804688702E+02  0.00000000000E+00 0. -1.
         21    1    1    2  502  501 -0.44724703906E+02  0.30282653657E+02 -0.13234336309E+02  0.55610124164E+02  0.00000000000E+00 0. -1.
<scales pt_clust_5="13000.00000" pt_clust_6="13000.00000" pt_clust_7="13000.00000" pt_clust_8="13000.00000" pt_clust_9="54.01239"></scales>
<clustering>
<clus scale="   54.012">  2  9  1 -1</clus>
<clus scale="   91.992">  7  8 -1 -1</clus>
<clus scale="   93.651">  5  6 -1 -1</clus>
<clus scale="  100.289">  2  7  1 -1</clus>
<clus scale="   54.012">  2  5  1 -1</clus>
</clustering>
</event>
<event>
 9    1  0.1296032E-005  0.9870885E+02  0.7546771E-02  0.1286962E+00
          1   -1    0    0  502    0  0.00000000000E+00  0.00000000000E+00  0.14359522360E+03  0.14359522360E+03  0.00000000000E+00 0. -1.
         -1   -1    0    0    0  501 -0.00000000000E+00 -0.00000000000E+00 -0.29465648245E+03  0.29465648245E+03  0.00000000000E+00 0.  1.
         23    2    1    2    0    0 -0.93375340745E+01  0.70140802750E+00 -0.22684868267E+03  0.24751594341E+03  0.98570461589E+02 0.  0.
         23    2    1    2    0    0 -0.10392328734E+02  0.75876320549E+01 -0.18338140438E+02  0.94208059274E+02  0.91505728677E+02 0.  0.
        -11    1    4    4    0    0  0.55216263473E+01  0.38976920528E+02 -0.37300952074E+02  0.54231445832E+02  0.00000000000E+00 0.  1.
         11    1    4    4    0    0 -0.15913955081E+02 -0.31389288473E+02  0.18962811636E+02  0.39976613442E+02  0.00000000000E+00 0. -1.
        -13    1    3    3    0    0  0.31287000061E+02  0.17435348704E+02 -0.17902918978E+03  0.18257688394E+03  0.00000000000E+00 0. -1.
         13    1    3    3    0    0 -0.40624534136E+02 -0.16733940676E+02 -0.47819492889E+02  0.64939059467E+02  0.00000000000E+00 0.  1.
         21    1    1    2  502  501  0.19729862808E+02 -0.82890400824E+01  0.94125564253E+02  0.96527703370E+02  0.00000000000E+00 0. -1.
<scales pt_clust_5="13000.00000" pt_clust_6="13000.00000" pt_clust_7="13000.00000" pt_clust_8="13000.00000" pt_clust_9="21.40037"></scales>
<clustering>
<clus scale="   21.400">  1  9  2 -1</clus>
<clus scale="   91.506">  5  6 -1 -1</clus>
<clus scale="   91.655">  1  5  2 -1</clus>
<clus scale="   98.570">  7  8 -1 -1</clus>
<clus scale="   21.400">  1  5  2 -1</clus>
</clustering>
</event>
<event>
 9    1  0.1296032E-005  0.2733270E+03  0.7546771E-02  0.1099563E+00
          1   -1    0    0  502    0  0.00000000000E+00  0.00000000000E+00  0.92452369237E+03  0.92452369237E+03  0.00000000000E+00 0. -1.
         -1   -1    0    0    0  501 -0.00000000000E+00 -0.00000000000E+00 -0.12631782846E+03  0.12631782846E+03  0.00000000000E+00 0.  1.
         23    2    1    2    0    0 -0.24897693185E+03  0.41254176896E+02  0.10935979334E+03  0.28947379125E+03  0.90244621532E+02 0.  0.
         23    2    1    2    0    0  0.27379209546E+03 -0.28611615339E+02  0.56482779655E+03  0.63426084936E+03  0.86461836755E+02 0.  0.
        -13    1    4    4    0    0  0.19695317815E+02 -0.23331851853E+02  0.33810886448E+02  0.45557182717E+02  0.00000000000E+00 0.  1.
         13    1    4    4    0    0  0.25409677765E+03 -0.52797634853E+01  0.53101691010E+03  0.58870366665E+03  0.00000000000E+00 0. -1.
        -13    1    3    3    0    0 -0.15462826073E+03 -0.57631266994E+01  0.30222477353E+02  0.15765947730E+03  0.00000000000E+00 0.  1.
         13    1    3    3    0    0 -0.94348671117E+02  0.47017303596E+02  0.79137315983E+02  0.13181431394E+03  0.00000000000E+00 0. -1.
         21    1    1    2  502  501 -0.24815163611E+02 -0.12642561558E+02  0.12401827402E+03  0.12710688022E+03  0.00000000000E+00 0. -1.
<scales pt_clust_5="13000.00000" pt_clust_6="13000.00000" pt_clust_7="13000.00000" pt_clust_8="13000.00000" pt_clust_9="27.85008"></scales>
<clustering>
<clus scale="   27.850">  1  9  2 -1</clus>
<clus scale="   86.462">  5  6 -1 -1</clus>
<clus scale="   90.245">  7  8 -1 -1</clus>
<clus scale="  272.102">  1  5  2 -1</clus>
<clus scale="   27.850">  1  5  2 -1</clus>
</clustering>
</event>
<event>
 9    1  0.1296032E-005  0.1635031E+03  0.7546771E-02  0.1188410E+00
          1   -1    0    0  502    0  0.00000000000E+00  0.00000000000E+00  0.78541014719E+03  0.78541014719E+03  0.00000000000E+00 0. -1.
         -1   -1    0    0    0  501 -0.00000000000E+00 -0.00000000000E+00 -0.10975061058E+03  0.10975061058E+03  0.00000000000E+00 0.  1.
         23    2    1    2    0    0 -0.87285527134E+02  0.73997338697E+02 -0.71523782184E+01  0.15744639863E+03  0.10790663811E+03 0.  0.
         23    2    1    2    0    0  0.16138075614E+03 -0.72130854785E+02  0.40979215415E+03  0.45481265104E+03  0.87626076497E+02 0.  0.
        -13    1    4    4    0    0  0.12588246714E+03 -0.25431109481E+02  0.34113799608E+03  0.36451100015E+03  0.00000000000E+00 0. -1.
         13    1    4    4    0    0  0.35498289005E+02 -0.46699745304E+02  0.68654158070E+02  0.90301650894E+02  0.00000000000E+00 0.  1.
        -13    1    3    3    0    0 -0.33458294703E+02  0.93318043488E+02  0.38430681528E+01  0.99209293403E+02  0.00000000000E+00 0.  1.
         13    1    3    3    0    0 -0.53827232431E+02 -0.19320704791E+02 -0.10995446371E+02  0.58237105231E+02  0.00000000000E+00 0. -1.
         21    1    1    2  502  501 -0.74095229010E+02 -0.18664839119E+01  0.27301976068E+03  0.28290170810E+03  0.00000000000E+00 0. -1.
<scales pt_clust_5="13000.00000" pt_clust_6="13000.00000" pt_clust_7="13000.00000" pt_clust_8="13000.00000" pt_clust_9="74.11873"></scales>
<clustering>
<clus scale="   74.119">  1  9  2 -1</clus>
<clus scale="   87.626">  5  6 -1 -1</clus>
<clus scale="  107.907">  7  8 -1 -1</clus>
<clus scale="  150.890">  1  5  2 -1</clus>
<clus scale="   74.119">  1  5  2 -1</clus>
</clustering>
</event>
<event>
 9    1  0.1296032E-005  0.1112807E+03  0.7546771E-02  0.1265264E+00
          1   -1    0    0  502    0  0.00000000000E+00  0.00000000000E+00  0.91867374516E+03  0.91867374516E+03  0.00000000000E+00 0. -1.
         -1   -1    0    0    0  501 -0.00000000000E+00 -0.00000000000E+00 -0.16102133390E+02  0.16102133390E+02  0.00000000000E+00 0.  1.
         23    2    1    2    0    0 -0.35552581189E+02  0.76074161413E+01  0.29788441382E+03  0.31255848353E+03  0.87383195310E+02 0.  0.
         23    2    1    2    0    0  0.50632443248E+02  0.11823689872E+02  0.40870766538E+03  0.42470044053E+03  0.10307795351E+03 0.  0.
        -11    1    3    3    0    0 -0.12354071028E+02  0.45338200155E+02  0.19430429288E+03  0.19990581206E+03  0.00000000000E+00 0.  1.
         11    1    3    3    0    0 -0.23198510161E+02 -0.37730784014E+02  0.10358012094E+03  0.11265267147E+03  0.00000000000E+00 0. -1.
        -11    1    4    4    0    0  0.69910011254E+02 -0.11405565810E+02  0.36352395445E+03  0.37036085385E+03  0.00000000000E+00 0. -1.
         11    1    4    4    0    0 -0.19277568006E+02  0.23229255682E+02  0.45183710928E+02  0.54339586684E+02  0.00000000000E+00 0.  1.
         21    1    1    2  502  501 -0.15079862059E+02 -0.19431106013E+02  0.19597953258E+03  0.19751695449E+03  0.00000000000E+00 0. -1.
<scales pt_clust_5="13000.00000" pt_clust_6="13000.00000" pt_clust_7="13000.00000" pt_clust_8="13000.00000" pt_clust_9="24.59614"></scales>
<clustering>
<clus scale="   24.596">  1  9  2 -1</clus>
<clus scale="   87.383">  5  6 -1 -1</clus>
<clus scale="   96.923">  2  5  1 -1</clus>
<clus scale="  103.078">  7  8 -1 -1</clus>
<clus scale="   24.596">  1  5  2 -1</clus>
</clustering>
</event>
<event>
 9    1  0.1296032E-005  0.1279150E+03  0.7546771E-02  0.1230589E+00
          2   -1    0    0  502    0  0.00000000000E+00  0.00000000000E+00  0.41484299928E+02  0.41484299928E+02  0.00000000000E+00 0. -1.
         -2   -1    0    0    0  501 -0.00000000000E+00 -0.00000000000E+00 -0.59760299526E+03  0.59760299526E+03  0.00000000000E+00 0.  1.
         23    2    1    2    0    0 -0.24750067227E+02  0.87216895106E+02 -0.41029783047E+03  0.42988729118E+03  0.90771255428E+02 0.  0.
         23    2    1    2    0    0  0.44562492927E+02 -0.78736012391E+02 -0.12910368412E+03  0.18192507567E+03  0.90795354954E+02 0.  0.
        -11    1    3    3    0    0  0.30605182865E+02  0.30859600546E+02 -0.89341250654E+02  0.99352157664E+02  0.00000000000E+00 0. -1.
         11    1    3    3    0    0 -0.55355250092E+02  0.56357294560E+02 -0.32095657981E+03  0.33053513352E+03  0.00000000000E+00 0.  1.
        -11    1    4    4    0    0  0.17543460081E+02 -0.77687662388E+02 -0.40624274671E+02  0.89406250181E+02  0.00000000000E+00 0. -1.
         11    1    4    4    0    0  0.27019032846E+02 -0.10483500028E+01 -0.88479409445E+02  0.92518825486E+02  0.00000000000E+00 0.  1.
         21    1    1    2  502  501 -0.19812425700E+02 -0.84808827157E+01 -0.16717180746E+02  0.27274928338E+02  0.00000000000E+00 0. -1.
<scales pt_clust_5="13000.00000" pt_clust_6="13000.00000" pt_clust_7="13000.00000" pt_clust_8="13000.00000" pt_clust_9="21.55128"></scales>
<clustering>
<clus scale="   21.551">  1  9  2 -1</clus>
<clus scale="   90.771">  5  6 -1 -1</clus>
<clus scale="   90.795">  7  8 -1 -1</clus>
<clus scale="  127.898">  2  5  1 -1</clus>
<clus scale="   21.551">  1  5  2 -1</clus>
</clustering>
</event>
<event>
 9    1  0.1296032E-005  0.9778763E+02  0.7546771E-02  0.1287417E+00
          2   -1    0    0  502    0  0.00000000000E+00  0.00000000000E+00  0.15908700787E+03  0.15908700787E+03  0.00000000000E+00 0. -1.
         -2   -1    0    0    0  501 -0.00000000000E+00 -0.00000000000E+00 -0.14121103616E+03  0.14121103616E+03  0.00000000000E+00 0.  1.
         23    2    1    2    0    0  0.28873034261E+02  0.16012251266E+02 -0.55718740538E+02  0.11217923430E+03  0.91594531839E+02 0.  0.
         23    2    1    2    0    0 -0.39214115894E+02  0.17389593352E+01 -0.15519458862E+02  0.96667298312E+02  0.86965177484E+02 0.  0.
        -11    1    3    3    0    0  0.42768217819E+02  0.31135582350E+02 -0.69576359020E+02  0.87403745218E+02  0.00000000000E+00 0.  1.
         11    1    3    3    0    0 -0.13895183559E+02 -0.15123331084E+02  0.13857618482E+02  0.24775489081E+02  0.00000000000E+00 0. -1.
        -13    1    4    4    0    0 -0.14641610851E+02  0.43425080978E+02 -0.15182929810E+02  0.48276658789E+02  0.00000000000E+00 0.  1.
         13    1    4    4    0    0 -0.24572505042E+02 -0.41686121643E+02 -0.33652905199E+00  0.48390639523E+02  0.00000000000E+00 0. -1.
         21    1    1    2  502  501  0.10341081633E+02 -0.17751210601E+02  0.89114171116E+02  0.91451511419E+02  0.00000000000E+00 0. -1.
<scales pt_clust_5="13000.00000" pt_clust_6="13000.00000" pt_clust_7="13000.00000" pt_clust_8="13000.00000" pt_clust_9="20.54370"></scales>
<clustering>
<clus scale="   20.544">  1  9  2 -1</clus>
<clus scale="   86.965">  7  8 -1 -1</clus>
<clus scale="   91.595">  5  6 -1 -1</clus>
<clus scale="   93.466">  1  7  2 -1</clus>
<clus scale="   20.544">  1  5  2 -1</clus>
</clustering>
</event>
<event>
 9    1  0.1296032E-005  0.1183900E+03  0.7546771E-02  0.1246684E+00
         -4   -1    0    0    0  501 -0.00000000000E+00  0.00000000000E+00  0.26191932222E+02  0.26191932222E+02  0.00000000000E+00 0.  1.
          4   -1    0    0  502    0  0.00000000000E+00 -0.00000000000E+00 -0.72957002100E+03  0.72957002100E+03  0.00000000000E+00 0. -1.
         23    2    1    2    0    0  0.98134285907E+00  0.78702541707E+02 -0.25494122514E+03  0.28164428523E+03  0.90185486736E+02 0.  0.
         23    2    1    2    0    0  0.29879212604E+02 -0.64470163934E+02 -0.30385469301E+03  0.32559514942E+03  0.92926624176E+02 0.  0.
        -11    1    4    4    0    0 -0.89132818790E+01  0.19259056713E+02 -0.93697031653E+02  0.96070243051E+02  0.00000000000E+00 0.  1.
         11    1    4    4    0    0  0.38792494483E+02 -0.83729220647E+02 -0.21015766136E+03  0.22952490637E+03  0.00000000000E+00 0. -1.
        -13    1    3    3    0    0  0.33243469294E+02 -0.49826294336E+00 -0.88041340381E+02  0.94109798282E+02  0.00000000000E+00 0. -1.
         13    1    3    3    0    0 -0.32262126435E+02  0.79200804650E+02 -0.16689988476E+03  0.18753448694E+03  0.00000000000E+00 0.  1.
         21    1    1    2  502  501 -0.30860555463E+02 -0.14232377772E+02 -0.14458217063E+03  0.14852251857E+03  0.00000000000E+00 0. -1.
<scales pt_clust_5="13000.00000" pt_clust_6="13000.00000" pt_clust_7="13000.00000" pt_clust_8="13000.00000" pt_clust_9="33.98433"></scales>
<clustering>
<clus scale="   33.984">  2  9  1 -1</clus>
<clus scale="   90.185">  7  8 -1 -1</clus>
<clus scale="   92.927">  5  6 -1 -1</clus>
<clus scale="  116.251">  1  7  2 -1</clus>
<clus scale="   33.984">  2  5  1 -1</clus>
</clustering>
</event>
<event>
 9    1  0.1296032E-005  0.1057109E+03  0.7546771E-02  0.1269444E+00
         -2   -1    0    0    0  501 -0.00000000000E+00  0.00000000000E+00  0.75971224277E+03  0.75971224277E+03  0.00000000000E+00 0.  1.
          2   -1    0    0  502    0  0.00000000000E+00 -0.00000000000E+00 -0.43505811040E+02  0.43505811040E+02  0.00000000000E+00 0. -1.
         23    2    1    2    0    0  0.37698042133E+02 -0.32405081817E+02  0.35737478404E+03  0.37191269385E+03  0.90172522846E+02 0.  0.
         23    2    1    2    0    0 -0.91637640641E+02 -0.51011075875E+02  0.19506840824E+03  0.23976911209E+03  0.91858348416E+02 0.  0.
        -11    1    3    3    0    0  0.63222060424E+02 -0.69995985647E+01  0.17971673499E+03  0.19064136000E+03  0.00000000000E+00 0.  1.
         11    1    3    3    0    0 -0.25524018291E+02 -0.25405483252E+02  0.17765804904E+03  0.18127133386E+03  0.00000000000E+00 0. -1.
        -13    1    4    4    0    0 -0.23977561717E+02  0.26450140305E+02  0.62555603883E+02  0.72025946472E+02  0.00000000000E+00 0.  1.
         13    1    4    4    0    0 -0.67660078925E+02 -0.77461216180E+02  0.13251280436E+03  0.16774316562E+03  0.00000000000E+00 0. -1.
         21    1    1    2  502  501  0.53939598508E+02  0.83416157692E+02  0.16376323945E+03  0.19153624786E+03  0.00000000000E+00 0.  1.
<scales pt_clust_5="13000.00000" pt_clust_6="13000.00000" pt_clust_7="13000.00000" pt_clust_8="13000.00000" pt_clust_9="99.33648"></scales>
<clustering>
<clus scale="   90.173">  5  6 -1 -1</clus>
<clus scale="   91.858">  7  8 -1 -1</clus>
<clus scale="   99.336">  2  9  1 -1</clus>
<clus scale="  104.249">  1  5  2 -1</clus>
<clus scale="   99.336">  2  5  1 -1</clus>
</clustering>
</event>
<event>
 9    1  0.1296032E-005  0.9749729E+02  0.7546771E-02  0.1286409E+00
         -1   -1    0    0    0  501 -0.00000000000E+00  0.00000000000E+00  0.31139004411E+02  0.31139004411E+02  0.00000000000E+00 0.  1.
          1   -1    0    0  502    0  0.00000000000E+00 -0.00000000000E+00 -0.61801557855E+03  0.61801557855E+03  0.00000000000E+00 0. -1.
         23    2    1    2    0    0  0.55286667617E+01 -0.68563771657E+02 -0.16698088302E+03  0.20106334322E+03  0.88387192242E+02 0.  0.
         23    2    1    2    0    0 -0.28178328211E+02  0.14902508591E+02 -0.29999146707E+03  0.31478872190E+03  0.89894138739E+02 0.  0.
        -11    1    4    4    0    0  0.28698518827E+02  0.21607705998E+02 -0.84551424649E+02  0.91866432125E+02  0.00000000000E+00 0.  1.
         11    1    4    4    0    0 -0.56876847038E+02 -0.67051974070E+01 -0.21544004242E+03  0.22292228977E+03  0.00000000000E+00 0. -1.
        -11    1    3    3    0    0  0.19620328895E+02 -0.84654200144E+02 -0.10988578526E+03  0.14009345706E+03  0.00000000000E+00 0.  1.
         11    1    3    3    0    0 -0.14091662133E+02  0.16090428487E+02 -0.57095097753E+02  0.60969886157E+02  0.00000000000E+00 0. -1.
         21    1    1    2  502  501  0.22649661449E+02  0.53661263065E+02 -0.11990422406E+03  0.13330251784E+03  0.00000000000E+00 0.  1.
<scales pt_clust_5="13000.00000" pt_clust_6="13000.00000" pt_clust_7="13000.00000" pt_clust_8="13000.00000" pt_clust_9="58.24550"></scales>
<clustering>
<clus scale="   58.246">  1  9  2 -1</clus>
<clus scale="   88.387">  7  8 -1 -1</clus>
<clus scale="   89.894">  5  6 -1 -1</clus>
<clus scale="   96.110">  1  7  2 -1</clus>
<clus scale="   97.497">  2  5  1 -1</clus>
</clustering>
</event>
<event>
 9    1  0.1296032E-005  0.9872823E+02  0.7546771E-02  0.1283655E+00
          1   -1    0    0  502    0  0.00000000000E+00  0.00000000000E+00  0.40187744530E+03  0.40187744530E+03  0.00000000000E+00 0. -1.
         -1   -1    0    0    0  501 -0.00000000000E+00 -0.00000000000E+00 -0.35901166517E+02  0.35901166517E+02  0.00000000000E+00 0.  1.
         23    2    1    2    0    0 -0.19410139423E+02 -0.19257947363E+02  0.11335261434E+03  0.14931213258E+03  0.93261330184E+02 0.  0.
         23    2    1    2    0    0  0.13571840741E+01  0.44334927962E+02  0.15122153435E+03  0.18246102589E+03  0.91960022463E+02 0.  0.
        -11    1    3    3    0    0  0.26876654391E+02 -0.26461436644E+02  0.88680695436E+02  0.96368189376E+02  0.00000000000E+00 0.  1.
         11    1    3    3    0    0 -0.46286793814E+02  0.72034892805E+01  0.24671918909E+02  0.52943943204E+02  0.00000000000E+00 0. -1.
        -11    1    4    4    0    0 -0.26256443791E+02  0.52705491588E+02  0.13931240209E+03  0.15124554558E+03  0.00000000000E+00 0. -1.
         11    1    4    4    0    0  0.27613627866E+02 -0.83705636255E+01  0.11909132260E+02  0.31215480302E+02  0.00000000000E+00 0.  1.
         21    1    1    2  502  501  0.18052955349E+02 -0.25076980599E+02  0.10140213009E+03  0.10600545335E+03  0.00000000000E+00 0. -1.
<scales pt_clust_5="13000.00000" pt_clust_6="13000.00000" pt_clust_7="13000.00000" pt_clust_8="13000.00000" pt_clust_9="30.89926"></scales>
<clustering>
<clus scale="   30.899">  1  9  2 -1</clus>
<clus scale="   91.960">  7  8 -1 -1</clus>
<clus scale="   93.261">  5  6 -1 -1</clus>
<clus scale="   97.500">  1  7  2 -1</clus>
<clus scale="   30.899">  1  5  2 -1</clus>
</clustering>
</event>
<event>
 9    1  0.1296032E-005  0.9333642E+02  0.7546771E-02  0.1299067E+00
         -2   -1    0    0    0  501 -0.00000000000E+00  0.00000000000E+00  0.20396597336E+02  0.20396597336E+02  0.00000000000E+00 0.  1.
          2   -1    0    0  502    0  0.00000000000E+00 -0.00000000000E+00 -0.63036528550E+03  0.63036528550E+03  0.00000000000E+00 0. -1.
         23    2    1    2    0    0 -0.15477225775E+02 -0.70985747758E+00 -0.19413036081E+03  0.21163670098E+03  0.82845928067E+02 0.  0.
         23    2    1    2    0    0  0.26480107557E+02 -0.37563156057E+02 -0.28573951093E+03  0.30306788140E+03  0.89949351535E+02 0.  0.
        -11    1    3    3    0    0 -0.48360329571E+02  0.97719718950E+01 -0.12457443329E+03  0.13398881424E+03  0.00000000000E+00 0. -1.
         11    1    3    3    0    0  0.32883103796E+02 -0.10481829373E+02 -0.69555927520E+02  0.77647886741E+02  0.00000000000E+00 0.  1.
        -13    1    4    4    0    0 -0.20838493913E+02 -0.29727735418E+02 -0.46115457327E+02  0.58690855218E+02  0.00000000000E+00 0. -1.
         13    1    4    4    0    0  0.47318601470E+02 -0.78354206386E+01 -0.23962405360E+03  0.24437702618E+03  0.00000000000E+00 0.  1.
         21    1    1    2  502  501 -0.11002881782E+02  0.38273013535E+02 -0.13009881643E+03  0.13605730046E+03  0.00000000000E+00 0.  1.
<scales pt_clust_5="13000.00000" pt_clust_6="13000.00000" pt_clust_7="13000.00000" pt_clust_8="13000.00000" pt_clust_9="39.82320"></scales>
<clustering>
<clus scale="   39.823">  2  9  1 -1</clus>
<clus scale="   82.846">  5  6 -1 -1</clus>
<clus scale="   86.512">  1  5  2 -1</clus>
<clus scale="   89.949">  7  8 -1 -1</clus>
<clus scale="   39.823">  2  5  1 -1</clus>
</clustering>
</event>
<event>
 9    1  0.1296032E-005  0.1047865E+03  0.7546771E-02  0.1280892E+00
         -3   -1    0    0    0  501 -0.00000000000E+00  0.00000000000E+00  0.33712888299E+03  0.33712888299E+03  0.00000000000E+00 0.  1.
          3   -1    0    0  502    0  0.00000000000E+00 -0.00000000000E+00 -0.39005179206E+02  0.39005179206E+02  0.00000000000E+00 0. -1.
         23    2    1    2    0    0 -0.47427422108E+02 -0.26299579073E+02  0.19656008627E+03  0.21601226888E+03  0.71305010787E+02 0.  0.
         23    2    1    2    0    0  0.22925410919E+02  0.25027488144E+02  0.78825736416E+02  0.12667066472E+03  0.93166576359E+02 0.  0.
        -13    1    4    4    0    0  0.54214059785E+02  0.78435529913E+01  0.71764749313E+02  0.90282140237E+02  0.00000000000E+00 0. -1.
         13    1    4    4    0    0 -0.31288648866E+02  0.17183935153E+02  0.70609871029E+01  0.36388524483E+02  0.00000000000E+00 0.  1.
        -13    1    3    3    0    0 -0.57465688904E+02 -0.78385757771E+01  0.87702643783E+02  0.10514514919E+03  0.00000000000E+00 0.  1.
         13    1    3    3    0    0  0.10038266796E+02 -0.18461003296E+02  0.10885744249E+03  0.11086711969E+03  0.00000000000E+00 0. -1.
         21    1    1    2  502  501  0.24502011189E+02  0.12720909286E+01  0.22737881094E+02  0.33451128595E+02  0.00000000000E+00 0. -1.
<scales pt_clust_5="13000.00000" pt_clust_6="13000.00000" pt_clust_7="13000.00000" pt_clust_8="13000.00000" pt_clust_9="24.53501"></scales>
<clustering>
<clus scale="   24.535">  2  9  1 -1</clus>
<clus scale="   71.305">  7  8 -1 -1</clus>
<clus scale="   85.934">  1  7  2 -1</clus>
<clus scale="   93.167">  5  6 -1 -1</clus>
<clus scale="   24.535">  2  5  1 -1</clus>
</clustering>
</event>
<event>
 9    1  0.1296032E-005  0.9773373E+02  0.7546771E-02  0.1285211E+00
          1   -1    0    0  502    0  0.00000000000E+00  0.00000000000E+00  0.74519596630E+03  0.74519596630E+03  0.00000000000E+00 0. -1.
         -1   -1    0    0    0  501 -0.00000000000E+00 -0.00000000000E+00 -0.32926520937E+02  0.32926520937E+02  0.00000000000E+00 0.  1.
         23    2    1    2    0    0 -0.19708229469E+02  0.26175900858E+02  0.60846935957E+02  0.11430398937E+03  0.91046473170E+02 0.  0.
         23    2    1    2    0    0  0.42031531377E+02 -0.29150596302E+02  0.50932250301E+03  0.51994497550E+03  0.91197360577E+02 0.  0.
        -11    1    3    3    0    0 -0.38023522694E+02  0.36547179863E+02  0.30886467601E+01  0.52830146439E+02  0.00000000000E+00 0. -1.
         11    1    3    3    0    0  0.18315293225E+02 -0.10371279005E+02  0.57758289196E+02  0.61473842933E+02  0.00000000000E+00 0.  1.
        -13    1    4    4    0    0  0.44709377249E+02  0.23214282843E+02  0.20234798726E+03  0.20852467310E+03  0.00000000000E+00 0.  1.
         13    1    4    4    0    0 -0.26778458721E+01 -0.52364879145E+02  0.30697451575E+03  0.31142030240E+03  0.00000000000E+00 0. -1.
         21    1    1    2  502  501 -0.22323301908E+02  0.29746954442E+01  0.14210000640E+03  0.14387352237E+03  0.00000000000E+00 0. -1.
<scales pt_clust_5="13000.00000" pt_clust_6="13000.00000" pt_clust_7="13000.00000" pt_clust_8="13000.00000" pt_clust_9="22.52063"></scales>
<clustering>
<clus scale="   22.521">  1  9  2 -1</clus>
<clus scale="   91.046">  5  6 -1 -1</clus>
<clus scale="   91.197">  7  8 -1 -1</clus>
<clus scale="   97.593">  2  5  1 -1</clus>
<clus scale="   22.521">  1  5  2 -1</clus>
</clustering>
</event>
<event>
 9    1  0.1296032E-005  0.2673725E+03  0.7546771E-02  0.1104495E+00
         -2   -1    0    0    0  501 -0.00000000000E+00  0.00000000000E+00  0.17726020317E+03  0.17726020317E+03  0.00000000000E+00 0.  1.
          2   -1    0    0  502    0  0.00000000000E+00 -0.00000000000E+00 -0.10261090640E+04  0.10261090640E+04  0.00000000000E+00 0. -1.
         23    2    1    2    0    0  0.18996833146E+02 -0.24202827817E+03  0.49326291195E+02  0.26387082979E+03  0.90863439872E+02 0.  0.
         23    2    1    2    0    0 -0.25297499827E+02  0.21128600320E+03 -0.78473413466E+03  0.82179690684E+03  0.11941840455E+03 0.  0.
        -11    1    3    3    0    0  0.58152320657E+01 -0.12561538887E+03 -0.20609627666E+02  0.12742762494E+03  0.00000000000E+00 0. -1.
         11    1    3    3    0    0  0.13181601081E+02 -0.11641288930E+03  0.69935918860E+02  0.13644320485E+03  0.00000000000E+00 0.  1.
        -11    1    4    4    0    0 -0.32072227865E+02  0.17819737708E+03 -0.75622459013E+03  0.77759794477E+03  0.00000000000E+00 0. -1.
         11    1    4    4    0    0  0.67747280372E+01  0.33088626118E+02 -0.28509544529E+02  0.44198962065E+02  0.00000000000E+00 0.  1.
         21    1    1    2  502  501  0.63006666811E+01  0.30742274979E+02 -0.11344101734E+03  0.11770153052E+03  0.00000000000E+00 0. -1.
<scales pt_clust_5="13000.00000" pt_clust_6="13000.00000" pt_clust_7="13000.00000" pt_clust_8="13000.00000" pt_clust_9="31.38130"></scales>
<clustering>
<clus scale="   31.381">  2  9  1 -1</clus>
<clus scale="   90.863">  5  6 -1 -1</clus>
<clus scale="  119.418">  7  8 -1 -1</clus>
<clus scale="  255.897">  1  5  2 -1</clus>
<clus scale="   31.381">  2  5  1 -1</clus>
</clustering>
</event>
<event>
 9    1  0.1296032E-005  0.1037821E+03  0.7546771E-02  0.1272554E+00
          2   -1    0    0  502    0  0.00000000000E+00  0.00000000000E+00  0.28908578206E+03  0.28908578206E+03  0.00000000000E+00 0. -1.
         -2   -1    0    0    0  501 -0.00000000000E+00 -0.00000000000E+00 -0.12758308294E+03  0.12758308294E+03  0.00000000000E+00 0.  1.
         23    2    1    2    0    0 -0.15236017240E+02 -0.41785666768E+02 -0.56128067060E+02  0.11489872712E+03  0.89850873196E+02 0.  0.
         23    2    1    2    0    0  0.30504556641E+02  0.66149398199E+02  0.40816055405E+02  0.12263286746E+03  0.89814246892E+02 0.  0.
        -11    1    3    3    0    0  0.30154614412E+02  0.63034218597E+00  0.14490654962E+01  0.30195991330E+02  0.00000000000E+00 0.  1.
         11    1    3    3    0    0 -0.45390631652E+02 -0.42416008954E+02 -0.57577132557E+02  0.84702735793E+02  0.00000000000E+00 0. -1.
        -13    1    4    4    0    0  0.92780768849E+01  0.22883370611E+02 -0.28817105664E+02  0.37949399733E+02  0.00000000000E+00 0.  1.
         13    1    4    4    0    0  0.21226479756E+02  0.43266027587E+02  0.69633161068E+02  0.84683467728E+02  0.00000000000E+00 0. -1.
         21    1    1    2  502  501 -0.15268539401E+02 -0.24363731431E+02  0.17681471077E+03  0.17913727041E+03  0.00000000000E+00 0.  1.
<scales pt_clust_5="13000.00000" pt_clust_6="13000.00000" pt_clust_7="13000.00000" pt_clust_8="13000.00000" pt_clust_9="28.75273"></scales>
<clustering>
<clus scale="   28.753">  1  9  2 -1</clus>
<clus scale="   89.814">  7  8 -1 -1</clus>
<clus scale="   89.851">  5  6 -1 -1</clus>
<clus scale="  103.750">  1  7  2 -1</clus>
<clus scale="   28.753">  1  5  2 -1</clus>
</clustering>
</event>
<event>
 9    1  0.1296032E-005  0.1013187E+03  0.7546771E-02  0.1278506E+00
         -2   -1    0    0    0  501 -0.00000000000E+00  0.00000000000E+00  0.20191469645E+03  0.20191469645E+03  0.00000000000E+00 0.  1.
          2   -1    0    0  502    0  0.00000000000E+00 -0.00000000000E+00 -0.12943282824E+03  0.12943282824E+03  0.00000000000E+00 0. -1.
         23    2    1    2    0    0 -0.37797476008E+02 -0.17251300910E+02  0.15720706877E+03  0.18663865687E+03  0.91616970012E+02 0.  0.
         23    2    1    2    0    0  0.21945408352E+02  0.43884744153E+01 -0.63781389007E+02  0.11546192616E+03  0.93608392535E+02 0.  0.
        -13    1    3    3    0    0 -0.17102054534E+02 -0.32091781975E+02  0.10658949235E+02  0.37894273161E+02  0.00000000000E+00 0. -1.
         13    1    3    3    0    0 -0.20695421474E+02  0.14840481065E+02  0.14654811953E+03  0.14874438371E+03  0.00000000000E+00 0.  1.
        -13    1    4    4    0    0 -0.14347350571E+02  0.36753719818E+02 -0.52271547925E+02  0.65490435266E+02  0.00000000000E+00 0.  1.
         13    1    4    4    0    0  0.36292758923E+02 -0.32365245402E+02 -0.11509841083E+02  0.49971490892E+02  0.00000000000E+00 0. -1.
         21    1    1    2  502  501  0.15852067656E+02  0.12862826494E+02 -0.20943811548E+02  0.29246941661E+02  0.00000000000E+00 0.  1.
<scales pt_clust_5="13000.00000" pt_clust_6="13000.00000" pt_clust_7="13000.00000" pt_clust_8="13000.00000" pt_clust_9="20.41422"></scales>
<clustering>
<clus scale="   20.414">  2  9  1 -1</clus>
<clus scale="   91.617">  5  6 -1 -1</clus>
<clus scale="   93.608">  7  8 -1 -1</clus>
<clus scale="   99.482">  1  5  2 -1</clus>
<clus scale="   20.414">  2  5  1 -1</clus>
</clustering>
</event>
<event>
 9    1  0.1296032E-005  0.1214615E+03  0.7546771E-02  0.1240789E+00
         -1   -1    0    0    0  501 -0.00000000000E+00  0.00000000000E+00  0.25541697778E+02  0.25541697778E+02  0.00000000000E+00 0.  1.
          1   -1    0    0  502    0  0.00000000000E+00 -0.00000000000E+00 -0.87548047116E+03  0.87548047116E+03  0.00000000000E+00 0. -1.
         23    2    1    2    0    0 -0.61558187890E+02  0.33898342965E+02 -0.26421790272E+03  0.28842642928E+03  0.91870543907E+02 0.  0.
         23    2    1    2    0    0  0.88153980137E+02 -0.42758930693E+01 -0.52348123068E+03  0.53871341100E+03  0.91597668306E+02 0.  0.
        -13    1    3    3    0    0 -0.41483202870E+02 -0.25433748446E+02 -0.77766917958E+02  0.91735626717E+02  0.00000000000E+00 0.  1.
         13    1    3    3    0    0 -0.20074985020E+02  0.59332091411E+02 -0.18645098476E+03  0.19669080256E+03  0.00000000000E+00 0. -1.
        -13    1    4    4    0    0  0.31334853126E+02 -0.44250669259E+02 -0.29356550192E+03  0.29853090069E+03  0.00000000000E+00 0.  1.
         13    1    4    4    0    0  0.56819127011E+02  0.39974776190E+02 -0.22991572876E+03  0.24018251031E+03  0.00000000000E+00 0. -1.
         21    1    1    2  502  501 -0.26595792247E+02 -0.29622449896E+02 -0.62239639986E+02  0.73882328663E+02  0.00000000000E+00 0.  1.
<scales pt_clust_5="13000.00000" pt_clust_6="13000.00000" pt_clust_7="13000.00000" pt_clust_8="13000.00000" pt_clust_9="39.80987"></scales>
<clustering>
<clus scale="   39.810">  1  9  2 -1</clus>
<clus scale="   91.598">  7  8 -1 -1</clus>
<clus scale="   91.871">  5  6 -1 -1</clus>
<clus scale="  121.255">  2  7  1 -1</clus>
<clus scale="  121.255">  2  5  1 -1</clus>
</clustering>
</event>
<event>
 9    1  0.1296032E-005  0.1346693E+03  0.7546771E-02  0.1221340E+00
          2   -1    0    0  502    0  0.00000000000E+00  0.00000000000E+00  0.10999294279E+03  0.10999294279E+03  0.00000000000E+00 0. -1.
         -2   -1    0    0    0  501 -0.00000000000E+00 -0.00000000000E+00 -0.36565562642E+03  0.36565562642E+03  0.00000000000E+00 0.  1.
         23    2    1    2    0    0  0.82626630974E+02  0.50496201043E+02 -0.22933226394E+03  0.26484033694E+03  0.90388551925E+02 0.  0.
         23    2    1    2    0    0 -0.10038319254E+03 -0.21396599192E+02 -0.70150026327E+02  0.15529030515E+03  0.93056181302E+02 0.  0.
        -13    1    4    4    0    0 -0.43679771373E+02 -0.31020494538E+02  0.12102435133E+02  0.54924151744E+02  0.00000000000E+00 0. -1.
         13    1    4    4    0    0 -0.56703421171E+02  0.96238953455E+01 -0.82252461460E+02  0.10036615341E+03  0.00000000000E+00 0.  1.
        -13    1    3    3    0    0 -0.17007230902E+02  0.23895080643E+02 -0.49302704656E+02  0.57367041655E+02  0.00000000000E+00 0. -1.
         13    1    3    3    0    0  0.99633861876E+02  0.26601120401E+02 -0.18002955928E+03  0.20747329528E+03  0.00000000000E+00 0.  1.
         21    1    1    2  502  501  0.17756561571E+02 -0.29099601851E+02  0.43819606634E+02  0.55517927125E+02  0.00000000000E+00 0. -1.
<scales pt_clust_5="13000.00000" pt_clust_6="13000.00000" pt_clust_7="13000.00000" pt_clust_8="13000.00000" pt_clust_9="34.08933"></scales>
<clustering>
<clus scale="   34.089">  1  9  2 -1</clus>
<clus scale="   90.389">  7  8 -1 -1</clus>
<clus scale="   93.056">  5  6 -1 -1</clus>
<clus scale="  132.840">  2  7  1 -1</clus>
<clus scale="   34.089">  1  5  2 -1</clus>
</clustering>
</event>
<event>
 9    1  0.1296032E-005  0.1025398E+03  0.7546771E-02  0.1277198E+00
         -2   -1    0    0    0  501 -0.00000000000E+00  0.00000000000E+00  0.10875546127E+03  0.10875546127E+03  0.00000000000E+00 0.  1.
          2   -1    0    0  502    0  0.00000000000E+00 -0.00000000000E+00 -0.12162442056E+03  0.12162442056E+03  0.00000000000E+00 0. -1.
         23    2    1    2    0    0  0.38046472260E+02  0.21375617466E+02  0.64268020322E+01  0.10696797992E+03  0.97449442639E+02 0.  0.
         23    2    1    2    0    0 -0.25607732886E+02  0.71364555375E-01 -0.20093313434E+02  0.98606028326E+02  0.93078711320E+02 0.  0.
        -11    1    3    3    0    0  0.44999155026E+02 -0.13266454058E+02  0.37387447957E+02  0.59989532596E+02  0.00000000000E+00 0.  1.
         11    1    3    3    0    0 -0.69526827666E+01  0.34642071524E+02 -0.30960645924E+02  0.46978447326E+02  0.00000000000E+00 0. -1.
        -11    1    4    4    0    0 -0.39400825268E+02 -0.15677954899E+02 -0.47787302223E+02  0.63889354007E+02  0.00000000000E+00 0. -1.
         11    1    4    4    0    0  0.13793092381E+02  0.15749319454E+02  0.27693988789E+02  0.34716674319E+02  0.00000000000E+00 0.  1.
         21    1    1    2  502  501 -0.12438739373E+02 -0.21446982022E+02  0.79755210893E+00  0.24805873587E+02  0.00000000000E+00 0. -1.
<scales pt_clust_5="13000.00000" pt_clust_6="13000.00000" pt_clust_7="13000.00000" pt_clust_8="13000.00000" pt_clust_9="24.79305"></scales>
<clustering>
<clus scale="   24.793">  1  9  2 -1</clus>
<clus scale="   93.079">  7  8 -1 -1</clus>
<clus scale="   97.449">  5  6 -1 -1</clus>
<clus scale="   98.395">  2  7  1 -1</clus>
<clus scale="   98.395">  2  5  1 -1</clus>
</clustering>
</event>
<event>
 9    1  0.1296032E-005  0.1002152E+03  0.7546771E-02  0.1280782E+00
         -1   -1    0    0    0  501 -0.00000000000E+00  0.00000000000E+00  0.30389137263E+02  0.30389137263E+02  0.00000000000E+00 0.  1.
          1   -1    0    0  502    0  0.00000000000E+00 -0.00000000000E+00 -0.70665664088E+03  0.70665664088E+03  0.00000000000E+00 0. -1.
         23    2    1    2    0    0  0.42214431101E+02 -0.29193323184E+01 -0.16509364731E+03  0.19206803371E+03  0.88564307139E+02 0.  0.
         23    2    1    2    0    0 -0.32551211642E+02 -0.46283558408E+02 -0.17432875856E+03  0.20442096188E+03  0.90529909062E+02 0.  0.
        -13    1    3    3    0    0  0.11161815858E+00  0.37422202337E+02 -0.86127549984E+02  0.93906275363E+02  0.00000000000E+00 0. -1.
         13    1    3    3    0    0  0.42102812942E+02 -0.40341534655E+02 -0.78966097323E+02  0.98161758350E+02  0.00000000000E+00 0.  1.
        -13    1    4    4    0    0  0.27185432922E+02 -0.53476196497E+01 -0.20717528562E+02  0.34595675869E+02  0.00000000000E+00 0.  1.
         13    1    4    4    0    0 -0.59736644565E+02 -0.40935938758E+02 -0.15361123000E+03  0.16982528601E+03  0.00000000000E+00 0. -1.
         21    1    1    2  502  501 -0.96632194584E+01  0.49202890726E+02 -0.33684509775E+03  0.34055678256E+03  0.00000000000E+00 0. -1.
<scales pt_clust_5="13000.00000" pt_clust_6="13000.00000" pt_clust_7="13000.00000" pt_clust_8="13000.00000" pt_clust_9="50.14282"></scales>
<clustering>
<clus scale="   50.143">  2  9  1 -1</clus>
<clus scale="   88.564">  5  6 -1 -1</clus>
<clus scale="   90.530">  7  8 -1 -1</clus>
<clus scale="   98.443">  1  5  2 -1</clus>
<clus scale="   50.143">  2  5  1 -1</clus>
</clustering>
</event>
<event>
 9    1  0.1296032E-005  0.1407671E+03  0.7546771E-02  0.1212511E+00
          2   -1    0    0  502    0  0.00000000000E+00  0.00000000000E+00  0.64306050658E+02  0.64306050658E+02  0.00000000000E+00 0. -1.
         -2   -1    0    0    0  501 -0.00000000000E+00 -0.00000000000E+00 -0.81435217336E+03  0.81435217336E+03  0.00000000000E+00 0.  1.
         23    2    1    2    0    0 -0.48742111242E+02  0.99004152990E+02 -0.69339551202E+03  0.70781015523E+03  0.89555926851E+02 0.  0.
         23    2    1    2    0    0  0.53783120084E+02 -0.72891983062E+02 -0.26756707398E+02  0.13083678736E+03  0.90534404148E+02 0.  0.
        -11    1    4    4    0    0  0.31482326293E+02 -0.10763852258E+02 -0.50680369292E+02  0.60625879093E+02  0.00000000000E+00 0.  1.
         11    1    4    4    0    0  0.22300793791E+02 -0.62128130803E+02  0.23923661894E+02  0.70210908264E+02  0.00000000000E+00 0. -1.
        -11    1    3    3    0    0 -0.72638978434E+02  0.89928884120E+02 -0.59657564721E+03  0.60767271473E+03  0.00000000000E+00 0.  1.
         11    1    3    3    0    0  0.23896867193E+02  0.90752688706E+01 -0.96819864813E+02  0.10013744050E+03  0.00000000000E+00 0. -1.
         21    1    1    2  502  501 -0.50410088420E+01 -0.26112169929E+02 -0.29893903283E+02  0.40011281434E+02  0.00000000000E+00 0. -1.
<scales pt_clust_5="13000.00000" pt_clust_6="13000.00000" pt_clust_7="13000.00000" pt_clust_8="13000.00000" pt_clust_9="26.59431"></scales>
<clustering>
<clus scale="   26.594">  1  9  2 -1</clus>
<clus scale="   89.556">  7  8 -1 -1</clus>
<clus scale="   90.534">  5  6 -1 -1</clus>
<clus scale="  140.140">  2  7  1 -1</clus>
<clus scale="   26.594">  1  5  2 -1</clus>
</clustering>
</event>
<event>
 9    1  0.1296032E-005  0.1713896E+03  0.7546771E-02  0.1176955E+00
          1   -1    0    0  502    0  0.00000000000E+00  0.00000000000E+00  0.15822322546E+03  0.15822322546E+03  0.00000000000E+00 0. -1.
         -1   -1    0    0    0  501 -0.00000000000E+00 -0.00000000000E+00 -0.75494410462E+03  0.75494410462E+03  0.00000000000E+00 0.  1.
         23    2    1    2    0    0  0.36308886057E+01 -0.14165971616E+03 -0.62712168552E+03  0.64931342533E+03  0.90805601894E+02 0.  0.
         23    2    1    2    0    0 -0.24928773336E+02  0.17278797940E+03 -0.25306968145E+02  0.19657891082E+03  0.86750769325E+02 0.  0.
        -11    1    4    4    0    0  0.24954763689E+02  0.14327670661E+02 -0.51738135153E+01  0.29236804265E+02  0.00000000000E+00 0.  1.
         11    1    4    4    0    0 -0.49883537025E+02  0.15846030874E+03 -0.20133154630E+02  0.16734210655E+03  0.00000000000E+00 0. -1.
        -11    1    3    3    0    0 -0.34379653384E+02 -0.95608805506E+02 -0.47804414638E+03  0.48872201725E+03  0.00000000000E+00 0.  1.
         11    1    3    3    0    0  0.38010541990E+02 -0.46050910650E+02 -0.14907753914E+03  0.16059140808E+03  0.00000000000E+00 0. -1.
         21    1    1    2  502  501  0.21297884730E+02 -0.31128263240E+02  0.55707774508E+02  0.67274993920E+02  0.00000000000E+00 0. -1.
<scales pt_clust_5="13000.00000" pt_clust_6="13000.00000" pt_clust_7="13000.00000" pt_clust_8="13000.00000" pt_clust_9="37.71695"></scales>
<clustering>
<clus scale="   37.717">  1  9  2 -1</clus>
<clus scale="   86.751">  5  6 -1 -1</clus>
<clus scale="   90.806">  7  8 -1 -1</clus>
<clus scale="  169.276">  1  5  2 -1</clus>
<clus scale="   37.717">  1  5  2 -1</clus>
</clustering>
</event>
<event>
 9    1  0.1296032E-005  0.1629986E+03  0.7546771E-02  0.1185659E+00
          1   -1    0    0  502    0  0.00000000000E+00  0.00000000000E+00  0.23022335384E+03  0.23022335384E+03  0.00000000000E+00 0. -1.
         -1   -1    0    0    0  501 -0.00000000000E+00 -0.00000000000E+00 -0.19146451432E+03  0.19146451432E+03  0.00000000000E+00 0.  1.
         23    2    1    2    0    0 -0.12910373255E+03 -0.41331374483E+01 -0.81448959716E+02  0.17671156135E+03  0.88927983738E+02 0.  0.
         23    2    1    2    0    0  0.15332541991E+03  0.26273572759E+02  0.95750483000E+02  0.20404894027E+03  0.90933107352E+02 0.  0.
        -11    1    3    3    0    0 -0.21346243829E+02 -0.29753515826E+02 -0.49236829180E+02  0.61361218838E+02  0.00000000000E+00 0.  1.
         11    1    3    3    0    0 -0.10775748872E+03  0.25620378377E+02 -0.32212130537E+02  0.11535034251E+03  0.00000000000E+00 0. -1.
        -11    1    4    4    0    0  0.69534556176E+02 -0.33231962909E+02  0.47349824732E+02  0.90451223118E+02  0.00000000000E+00 0.  1.
         11    1    4    4    0    0  0.83790863737E+02  0.59505535668E+02  0.48400658268E+02  0.11359771715E+03  0.00000000000E+00 0. -1.
         21    1    1    2  502  501 -0.24221687366E+02 -0.22140435311E+02  0.24457316238E+02  0.40927366544E+02  0.00000000000E+00 0.  1.
<scales pt_clust_5="13000.00000" pt_clust_6="13000.00000" pt_clust_7="13000.00000" pt_clust_8="13000.00000" pt_clust_9="32.81599"></scales>
<clustering>
<clus scale="   32.816">  1  9  2 -1</clus>
<clus scale="   88.928">  5  6 -1 -1</clus>
<clus scale="   90.933">  7  8 -1 -1</clus>
<clus scale="  161.889">  2  5  1 -1</clus>
<clus scale="   32.816">  1  5  2 -1</clus>
</clustering>
</event>
<event>
 9    1  0.1296032E-005  0.9990404E+02  0.7546771E-02  0.1280502E+00
         -1   -1    0    0    0  501 -0.00000000000E+00  0.00000000000E+00  0.73120911610E+02  0.73120911610E+02  0.00000000000E+00 0.  1.
          1   -1    0    0  502    0  0.00000000000E+00 -0.00000000000E+00 -0.36612317650E+03  0.36612317650E+03  0.00000000000E+00 0. -1.
         23    2    1    2    0    0 -0.14401910929E+01  0.25957344149E+02 -0.27762511919E+02  0.98377820927E+02  0.90728059148E+02 0.  0.
         23    2    1    2    0    0  0.25364583126E+02 -0.59802423919E+02 -0.51070944406E+02  0.12272378044E+03  0.90736943635E+02 0.  0.
        -11    1    4    4    0    0 -0.32387104061E+02 -0.30916979551E+02 -0.33148563185E+02  0.55710065296E+02  0.00000000000E+00 0. -1.
         11    1    4    4    0    0  0.57751687188E+02 -0.28885444367E+02 -0.17922381221E+02  0.67013715148E+02  0.00000000000E+00 0.  1.
        -13    1    3    3    0    0  0.37254383684E+02  0.34402915603E+02 -0.29624217713E+02  0.58728561882E+02  0.00000000000E+00 0.  1.
         13    1    3    3    0    0 -0.38694574777E+02 -0.84455714539E+01  0.18617057939E+01  0.39649259045E+02  0.00000000000E+00 0. -1.
         21    1    1    2  502  501 -0.23924392034E+02  0.33845079770E+02 -0.21416880857E+03  0.21814248674E+03  0.00000000000E+00 0.  1.
<scales pt_clust_5="13000.00000" pt_clust_6="13000.00000" pt_clust_7="13000.00000" pt_clust_8="13000.00000" pt_clust_9="41.44715"></scales>
<clustering>
<clus scale="   41.447">  2  9  1 -1</clus>
<clus scale="   90.728">  7  8 -1 -1</clus>
<clus scale="   90.737">  5  6 -1 -1</clus>
<clus scale="   99.896">  1  7  2 -1</clus>
<clus scale="   41.447">  2  5  1 -1</clus>
</clustering>
</event>
<event>
 9    1  0.1296032E-005  0.9864119E+02  0.7546771E-02  0.1283279E+00
          2   -1    0    0  502    0  0.00000000000E+00  0.00000000000E+00  0.20348080619E+03  0.20348080619E+03  0.00000000000E+00 0. -1.
         -2   -1    0    0    0  501 -0.00000000000E+00 -0.00000000000E+00 -0.14421258278E+03  0.14421258278E+03  0.00000000000E+00 0.  1.
         23    2    1    2    0    0 -0.31953902293E+01 -0.58071063321E+02 -0.38245996102E+02  0.11567370306E+03  0.92386094451E+02 0.  0.
         23    2    1    2    0    0  0.29886495894E+02  0.74595704372E+00 -0.19300798284E+02  0.99187719449E+02  0.92584684405E+02 0.  0.
        -13    1    3    3    0    0  0.29869780762E+02 -0.46186568704E+00 -0.39147545279E+02  0.49243755178E+02  0.00000000000E+00 0.  1.
         13    1    3    3    0    0 -0.33065170991E+02 -0.57609197634E+02  0.90154917702E+00  0.66429947882E+02  0.00000000000E+00 0. -1.
        -13    1    4    4    0    0  0.25204109010E+02  0.29008949566E+02 -0.46060160562E+02  0.59985870478E+02  0.00000000000E+00 0.  1.
         13    1    4    4    0    0  0.46823868836E+01 -0.28262992523E+02  0.26759362278E+02  0.39201848972E+02  0.00000000000E+00 0. -1.
         21    1    1    2  502  501 -0.26691105664E+02  0.57325106277E+02  0.11681501780E+03  0.13283196646E+03  0.00000000000E+00 0.  1.
<scales pt_clust_5="13000.00000" pt_clust_6="13000.00000" pt_clust_7="13000.00000" pt_clust_8="13000.00000" pt_clust_9="63.23435"></scales>
<clustering>
<clus scale="   63.234">  1  9  2 -1</clus>
<clus scale="   92.386">  5  6 -1 -1</clus>
<clus scale="   92.585">  7  8 -1 -1</clus>
<clus scale="   98.455">  2  5  1 -1</clus>
<clus scale="   63.234">  1  5  2 -1</clus>
</clustering>
</event>
<event>
 9    1  0.1296032E-005  0.1698186E+03  0.7546771E-02  0.1178207E+00
         -4   -1    0    0    0  501 -0.00000000000E+00  0.00000000000E+00  0.48809807720E+03  0.48809807720E+03  0.00000000000E+00 0.  1.
          4   -1    0    0  502    0  0.00000000000E+00 -0.00000000000E+00 -0.14902265168E+03  0.14902265168E+03  0.00000000000E+00 0. -1.
         23    2    1    2    0    0  0.36773461187E+02 -0.14534424112E+03  0.37624691356E+03  0.41497765465E+03  0.90374100411E+02 0.  0.
         23    2    1    2    0    0 -0.42197045686E+02  0.11279975103E+03  0.23465923404E+02  0.15311080083E+03  0.91585442476E+02 0.  0.
        -11    1    3    3    0    0  0.29014938985E+02 -0.96404084334E+02  0.33714734270E+03  0.35185784751E+03  0.00000000000E+00 0. -1.
         11    1    3    3    0    0  0.77585222020E+01 -0.48940156786E+02  0.39099570852E+02  0.63119807144E+02  0.00000000000E+00 0.  1.
        -11    1    4    4    0    0 -0.66705620056E+02  0.54142066647E+02  0.17449448603E+01  0.85930483302E+02  0.00000000000E+00 0.  1.
         11    1    4    4    0    0  0.24508574371E+02  0.58657684378E+02  0.21720978544E+02  0.67180317528E+02  0.00000000000E+00 0. -1.
         21    1    1    2  502  501  0.54235844982E+01  0.32544490095E+02 -0.60637411437E+02  0.69032273395E+02  0.00000000000E+00 0.  1.
<scales pt_clust_5="13000.00000" pt_clust_6="13000.00000" pt_clust_7="13000.00000" pt_clust_8="13000.00000" pt_clust_9="32.99332"></scales>
<clustering>
<clus scale="   32.993">  2  9  1 -1</clus>
<clus scale="   90.374">  5  6 -1 -1</clus>
<clus scale="   91.585">  7  8 -1 -1</clus>
<clus scale="  169.168">  1  5  2 -1</clus>
<clus scale="   32.993">  2  5  1 -1</clus>
</clustering>
</event>
<event>
 9    1  0.1296032E-005  0.9645422E+02  0.7546771E-02  0.1289394E+00
          1   -1    0    0  502    0  0.00000000000E+00  0.00000000000E+00  0.74255610191E+03  0.74255610191E+03  0.00000000000E+00 0. -1.
         -1   -1    0    0    0  501 -0.00000000000E+00 -0.00000000000E+00 -0.24953084883E+02  0.24953084883E+02  0.00000000000E+00 0.  1.
         23    2    1    2    0    0 -0.53587458194E+02 -0.11843750175E+02  0.17866895767E+03  0.20683820103E+03  0.88586426037E+02 0.  0.
         23    2    1    2    0    0 -0.41314858474E+00 -0.81716598691E+01  0.25590127175E+03  0.27183843733E+03  0.91344011350E+02 0.  0.
        -11    1    4    4    0    0  0.29022666411E+02  0.26795807879E+02  0.69757940212E+02  0.80165458323E+02  0.00000000000E+00 0.  1.
         11    1    4    4    0    0 -0.29435814996E+02 -0.34967467748E+02  0.18614333154E+03  0.19167297901E+03  0.00000000000E+00 0. -1.
        -11    1    3    3    0    0 -0.63350991171E+02  0.23300153939E+02  0.12248080669E+03  0.13984918042E+03  0.00000000000E+00 0.  1.
         11    1    3    3    0    0  0.97635329769E+01 -0.35143904114E+02  0.56188150979E+02  0.66989020616E+02  0.00000000000E+00 0. -1.
         21    1    1    2  502  501  0.54000606779E+02  0.20015410044E+02  0.28303278761E+03  0.28883254843E+03  0.00000000000E+00 0. -1.
<scales pt_clust_5="13000.00000" pt_clust_6="13000.00000" pt_clust_7="13000.00000" pt_clust_8="13000.00000" pt_clust_9="57.59064"></scales>
<clustering>
<clus scale="   57.591">  1  9  2 -1</clus>
<clus scale="   88.586">  7  8 -1 -1</clus>
<clus scale="   91.344">  5  6 -1 -1</clus>
<clus scale="   93.847">  2  7  1 -1</clus>
<clus scale="   57.591">  1  5  2 -1</clus>
</clustering>
</event>
<event>
 9    1  0.1296032E-005  0.9435720E+02  0.7546771E-02  0.1294348E+00
         -2   -1    0    0    0  501 -0.00000000000E+00  0.00000000000E+00  0.16526966184E+03  0.16526966184E+03  0.00000000000E+00 0.  1.
          2   -1    0    0  502    0  0.00000000000E+00 -0.00000000000E+00 -0.82564268225E+02  0.82564268225E+02  0.00000000000E+00 0. -1.
         23    2    1    2    0    0 -0.20513850816E+02  0.14580601518E+02  0.89621685403E+02  0.13122979171E+03  0.92497566030E+02 0.  0.
         23    2    1    2    0    0 -0.26725179203E+01 -0.67105341219E+01 -0.14611889440E+02  0.90937664523E+02  0.89464953449E+02 0.  0.
        -13    1    3    3    0    0 -0.23630265779E+02  0.52125495128E+02  0.44818833719E+02  0.72692396845E+02  0.00000000000E+00 0.  1.
         13    1    3    3    0    0  0.31164149637E+01 -0.37544893610E+02  0.44802851684E+02  0.58537394864E+02  0.00000000000E+00 0. -1.
        -13    1    4    4    0    0 -0.99503098270E+01  0.40639460004E+02 -0.74949764730E+01  0.42505870741E+02  0.00000000000E+00 0.  1.
         13    1    4    4    0    0  0.72777919068E+01 -0.47349994126E+02 -0.71169129673E+01  0.48431793782E+02  0.00000000000E+00 0. -1.
         21    1    1    2  502  501  0.23186368736E+02 -0.78700673959E+01  0.76955976566E+01  0.25666473838E+02  0.00000000000E+00 0. -1.
<scales pt_clust_5="13000.00000" pt_clust_6="13000.00000" pt_clust_7="13000.00000" pt_clust_8="13000.00000" pt_clust_9="24.48562"></scales>
<clustering>
<clus scale="   24.486">  2  9  1 -1</clus>
<clus scale="   89.465">  7  8 -1 -1</clus>
<clus scale="   91.386">  2  7  1 -1</clus>
<clus scale="   92.498">  5  6 -1 -1</clus>
<clus scale="   24.486">  2  5  1 -1</clus>
</clustering>
</event>
<event>
 9    1  0.1296032E-005  0.9527120E+02  0.7546771E-02  0.1292202E+00
         -2   -1    0    0    0  501 -0.00000000000E+00  0.00000000000E+00  0.28870219726E+02  0.28870219726E+02  0.00000000000E+00 0.  1.
          2   -1    0    0  502    0  0.00000000000E+00 -0.00000000000E+00 -0.80418279898E+03  0.80418279898E+03  0.00000000000E+00 0. -1.
         23    2    1    2    0    0  0.18622627029E+02 -0.35999733928E+02 -0.10875064783E+03  0.14609847248E+03  0.88742758443E+02 0.  0.
         23    2    1    2    0    0  0.34142448680E+02 -0.42779813735E+01 -0.34661269745E+03  0.36019169662E+03  0.91726159597E+02 0.  0.
        -11    1    4    4    0    0  0.63899595866E+02 -0.50316685796E+01 -0.18318570681E+03  0.19407596250E+03  0.00000000000E+00 0.  1.
         11    1    4    4    0    0 -0.29757147186E+02  0.75368720607E+00 -0.16342699064E+03  0.16611573413E+03  0.00000000000E+00 0. -1.
        -13    1    3    3    0    0  0.53474399700E+02 -0.31515756932E+02 -0.75281529101E+02  0.97570810092E+02  0.00000000000E+00 0.  1.
         13    1    3    3    0    0 -0.34851772671E+02 -0.44839769954E+01 -0.33469118732E+02  0.48527662386E+02  0.00000000000E+00 0. -1.
         21    1    1    2  502  501 -0.52765075709E+02  0.40277715301E+02 -0.31994923397E+03  0.32676284961E+03  0.00000000000E+00 0. -1.
<scales pt_clust_5="13000.00000" pt_clust_6="13000.00000" pt_clust_7="13000.00000" pt_clust_8="13000.00000" pt_clust_9="66.38108"></scales>
<clustering>
<clus scale="   66.381">  2  9  1 -1</clus>
<clus scale="   88.743">  7  8 -1 -1</clus>
<clus scale="   91.726">  5  6 -1 -1</clus>
<clus scale="   92.402">  1  7  2 -1</clus>
<clus scale="   66.381">  2  5  1 -1</clus>
</clustering>
</event>
<event>
 9    1  0.1296032E-005  0.2650723E+03  0.7546771E-02  0.1104163E+00
         -2   -1    0    0    0  501 -0.00000000000E+00  0.00000000000E+00  0.19861821498E+03  0.19861821498E+03  0.00000000000E+00 0.  1.
          2   -1    0    0  502    0  0.00000000000E+00 -0.00000000000E+00 -0.45881544981E+03  0.45881544981E+03  0.00000000000E+00 0. -1.
         23    2    1    2    0    0 -0.99357191912E+02 -0.21411852297E+03 -0.44483884570E+02  0.25675775755E+03  0.90703564488E+02 0.  0.
         23    2    1    2    0    0  0.13295668977E+03  0.23445993692E+03 -0.14326939976E+03  0.31826944304E+03  0.90113118297E+02 0.  0.
        -11    1    3    3    0    0 -0.63065239205E+02 -0.83025993406E+02  0.20098489013E+02  0.10618139779E+03  0.00000000000E+00 0.  1.
         11    1    3    3    0    0 -0.36291952707E+02 -0.13109252957E+03 -0.64582373582E+02  0.15057635975E+03  0.00000000000E+00 0. -1.
        -11    1    4    4    0    0  0.57712234461E+02  0.18545247133E+03 -0.10317372095E+03  0.21992757404E+03  0.00000000000E+00 0.  1.
         11    1    4    4    0    0  0.75244455310E+02  0.49007465587E+02 -0.40095678807E+02  0.98341868994E+02  0.00000000000E+00 0. -1.
         21    1    1    2  502  501 -0.33599497859E+02 -0.20341413949E+02 -0.72443950501E+02  0.82406464201E+02  0.00000000000E+00 0. -1.
<scales pt_clust_5="13000.00000" pt_clust_6="13000.00000" pt_clust_7="13000.00000" pt_clust_8="13000.00000" pt_clust_9="39.27721"></scales>
<clustering>
<clus scale="   39.277">  2  9  1 -1</clus>
<clus scale="   90.113">  7  8 -1 -1</clus>
<clus scale="   90.704">  5  6 -1 -1</clus>
<clus scale="  264.871">  2  7  1 -1</clus>
<clus scale="   39.277">  2  5  1 -1</clus>
</clustering>
</event>
<event>
 9    1  0.1296032E-005  0.1037621E+03  0.7546771E-02  0.1274128E+00
         -1   -1    0    0    0  501 -0.00000000000E+00  0.00000000000E+00  0.22746322031E+03  0.22746322031E+03  0.00000000000E+00 0.  1.
          1   -1    0    0  502    0  0.00000000000E+00 -0.00000000000E+00 -0.10207514298E+03  0.10207514298E+03  0.00000000000E+00 0. -1.
         23    2    1    2    0    0 -0.17890482763E+02  0.48328126425E+02  0.16063549639E+03  0.19042933978E+03  0.88339648904E+02 0.  0.
         23    2    1    2    0    0  0.34607818390E+02 -0.21183514905E+02 -0.37514018370E+02  0.10714909990E+03  0.91799703905E+02 0.  0.
        -11    1    4    4    0    0  0.24925403207E+02 -0.40719579109E+02 -0.59431773830E+02  0.76233165935E+02  0.00000000000E+00 0. -1.
         11    1    4    4    0    0  0.96824151833E+01  0.19536064204E+02  0.21917755460E+02  0.30915933963E+02  0.00000000000E+00 0.  1.
        -13    1    3    3    0    0  0.34554297832E+02  0.13821676763E+02  0.80036832284E+02  0.88266260651E+02  0.00000000000E+00 0.  1.
         13    1    3    3    0    0 -0.52444780596E+02  0.34506449662E+02  0.80598664110E+02  0.10216307913E+03  0.00000000000E+00 0. -1.
         21    1    1    2  502  501 -0.16717335627E+02 -0.27144611520E+02  0.22665993101E+01  0.31959923615E+02  0.00000000000E+00 0. -1.
<scales pt_clust_5="13000.00000" pt_clust_6="13000.00000" pt_clust_7="13000.00000" pt_clust_8="13000.00000" pt_clust_9="31.87945"></scales>
<clustering>
<clus scale="   31.879">  2  9  1 -1</clus>
<clus scale="   88.340">  7  8 -1 -1</clus>
<clus scale="   91.800">  5  6 -1 -1</clus>
<clus scale="  100.714">  1  7  2 -1</clus>
<clus scale="   31.879">  2  5  1 -1</clus>
</clustering>
</event>
<event>
 9    1  0.1296032E-005  0.1918594E+03  0.7546771E-02  0.1156938E+00
         -1   -1    0    0    0  501 -0.00000000000E+00  0.00000000000E+00  0.10298877924E+03  0.10298877924E+03  0.00000000000E+00 0.  1.
          1   -1    0    0  502    0  0.00000000000E+00 -0.00000000000E+00 -0.54993742157E+03  0.54993742157E+03  0.00000000000E+00 0. -1.
         23    2    1    2    0    0 -0.96725425705E+02 -0.11875718534E+03 -0.12657485075E+03  0.21893534981E+03  0.91937030126E+02 0.  0.
         23    2    1    2    0    0  0.12355288702E+03  0.13832346492E+03 -0.13723934643E+03  0.24787052171E+03  0.90589516411E+02 0.  0.
        -11    1    3    3    0    0 -0.39945535046E+02  0.86570444918E+00 -0.56275141923E+02  0.69016569118E+02  0.00000000000E+00 0. -1.
         11    1    3    3    0    0 -0.56779890659E+02 -0.11962288979E+03 -0.70299708827E+02  0.14991878069E+03  0.00000000000E+00 0.  1.
        -11    1    4    4    0    0  0.41930115503E+02  0.44365478072E+02  0.20472712051E+01  0.61078814248E+02  0.00000000000E+00 0.  1.
         11    1    4    4    0    0  0.81622771521E+02  0.93957986849E+02 -0.13928661763E+03  0.18679170746E+03  0.00000000000E+00 0. -1.
         21    1    1    2  502  501 -0.26827461319E+02 -0.19566279585E+02 -0.18313444514E+03  0.18612032929E+03  0.00000000000E+00 0. -1.
<scales pt_clust_5="13000.00000" pt_clust_6="13000.00000" pt_clust_7="13000.00000" pt_clust_8="13000.00000" pt_clust_9="33.20470"></scales>
<clustering>
<clus scale="   33.205">  2  9  1 -1</clus>
<clus scale="   90.590">  7  8 -1 -1</clus>
<clus scale="   91.937">  5  6 -1 -1</clus>
<clus scale="  191.217">  2  7  1 -1</clus>
<clus scale="   33.205">  2  5  1 -1</clus>
</clustering>
</event>
<event>
 9    1  0.1296032E-005  0.9744874E+02  0.7546771E-02  0.1286986E+00
         -1   -1    0    0    0  501 -0.00000000000E+00  0.00000000000E+00  0.43281724304E+03  0.43281724304E+03  0.00000000000E+00 0.  1.
          1   -1    0    0  502    0  0.00000000000E+00 -0.00000000000E+00 -0.39956423299E+02  0.39956423299E+02  0.00000000000E+00 0. -1.
         23    2    1    2    0    0  0.22465263374E+02  0.24267272983E+02  0.31347957818E+03  0.32793527665E+03  0.90435121154E+02 0.  0.
         23    2    1    2    0    0  0.20833834540E+01 -0.24035852029E+02  0.56509492589E+02  0.11128534932E+03  0.92784931710E+02 0.  0.
        -11    1    4    4    0    0 -0.23389050305E+02 -0.15666113259E+02  0.74066752265E+02  0.79236093858E+02  0.00000000000E+00 0.  1.
         11    1    4    4    0    0  0.25472433759E+02 -0.83697387695E+01 -0.17557259676E+02  0.32049255467E+02  0.00000000000E+00 0. -1.
        -11    1    3    3    0    0  0.22754287205E+02  0.57702523647E+02  0.22337062286E+03  0.23182272102E+03  0.00000000000E+00 0. -1.
         11    1    3    3    0    0 -0.28902383171E+00 -0.33435250664E+02  0.90108955313E+02  0.96112555628E+02  0.00000000000E+00 0.  1.
         21    1    1    2  502  501 -0.24548646828E+02 -0.23142095411E+00  0.22871748974E+02  0.33553040367E+02  0.00000000000E+00 0.  1.
<scales pt_clust_5="13000.00000" pt_clust_6="13000.00000" pt_clust_7="13000.00000" pt_clust_8="13000.00000" pt_clust_9="24.54974"></scales>
<clustering>
<clus scale="   24.550">  2  9  1 -1</clus>
<clus scale="   90.435">  7  8 -1 -1</clus>
<clus scale="   92.785">  5  6 -1 -1</clus>
<clus scale="   95.214">  1  7  2 -1</clus>
<clus scale="   24.550">  2  5  1 -1</clus>
</clustering>
</event>
<event>
 9    1  0.1296032E-005  0.1020796E+03  0.7546771E-02  0.1277198E+00
         -1   -1    0    0    0  501 -0.00000000000E+00  0.00000000000E+00  0.11937888005E+03  0.11937888005E+03  0.00000000000E+00 0.  1.
          1   -1    0    0  502    0  0.00000000000E+00 -0.00000000000E+00 -0.26538977335E+03  0.26538977335E+03  0.00000000000E+00 0. -1.
         23    2    1    2    0    0  0.26668516272E+02  0.32357966060E+02  0.66938581146E+02  0.12171726798E+03  0.92607083693E+02 0.  0.
         23    2    1    2    0    0 -0.62735457386E+02 -0.73922305996E+01 -0.14142371188E+03  0.17914639809E+03  0.90013237793E+02 0.  0.
        -11    1    4    4    0    0 -0.84485809875E+02  0.55091786500E+01 -0.11004967081E+03  0.13884931820E+03  0.00000000000E+00 0. -1.
         11    1    4    4    0    0  0.21750352489E+02 -0.12901409250E+02 -0.31374041075E+02  0.40297079887E+02  0.00000000000E+00 0.  1.
        -13    1    3    3    0    0  0.50931731030E+01 -0.24134842426E+02  0.54720098277E+02  0.60022663941E+02  0.00000000000E+00 0.  1.
         13    1    3    3    0    0  0.21575343169E+02  0.56492808486E+02  0.12218482869E+02  0.61694604035E+02  0.00000000000E+00 0. -1.
         21    1    1    2  502  501  0.36066941114E+02 -0.24965735460E+02 -0.71525762570E+02  0.83904987334E+02  0.00000000000E+00 0.  1.
<scales pt_clust_5="13000.00000" pt_clust_6="13000.00000" pt_clust_7="13000.00000" pt_clust_8="13000.00000" pt_clust_9="43.86470"></scales>
<clustering>
<clus scale="   43.865">  2  9  1 -1</clus>
<clus scale="   90.013">  5  6 -1 -1</clus>
<clus scale="   92.607">  7  8 -1 -1</clus>
<clus scale="   99.732">  2  5  1 -1</clus>
<clus scale="   43.865">  2  5  1 -1</clus>
</clustering>
</event>
<event>
 9    1  0.1296032E-005  0.1288512E+03  0.7546771E-02  0.1229553E+00
          2   -1    0    0  502    0  0.00000000000E+00  0.00000000000E+00  0.87130347292E+02  0.87130347292E+02  0.00000000000E+00 0. -1.
         -2   -1    0    0    0  501 -0.00000000000E+00 -0.00000000000E+00 -0.29801297143E+03  0.29801297143E+03  0.00000000000E+00 0.  1.
         23    2    1    2    0    0 -0.98237819246E+02  0.21763781615E+02 -0.13192284069E+03  0.18854593349E+03  0.89563395533E+02 0.  0.
         23    2    1    2    0    0  0.83139034372E+02  0.53873318912E+01 -0.10021660842E+03  0.15895420686E+03  0.91005213555E+02 0.  0.
        -11    1    3    3    0    0 -0.46424961907E+02  0.55105517526E+02 -0.59387082385E+02  0.93374090111E+02  0.00000000000E+00 0. -1.
         11    1    3    3    0    0 -0.51812857339E+02 -0.33341735911E+02 -0.72535758305E+02  0.95171843378E+02  0.00000000000E+00 0.  1.
        -11    1    4    4    0    0  0.73349930345E+02  0.39429242603E+02 -0.48811328505E+02  0.96526800653E+02  0.00000000000E+00 0. -1.
         11    1    4    4    0    0  0.97891040269E+01 -0.34041910712E+02 -0.51405279918E+02  0.62427406209E+02  0.00000000000E+00 0.  1.
         21    1    1    2  502  501  0.15098784873E+02 -0.27151113506E+02  0.21256824980E+02  0.37643178366E+02  0.00000000000E+00 0.  1.
<scales pt_clust_5="13000.00000" pt_clust_6="13000.00000" pt_clust_7="13000.00000" pt_clust_8="13000.00000" pt_clust_9="31.06696"></scales>
<clustering>
<clus scale="   31.067">  1  9  2 -1</clus>
<clus scale="   89.563">  5  6 -1 -1</clus>
<clus scale="   91.005">  7  8 -1 -1</clus>
<clus scale="  127.837">  2  5  1 -1</clus>
<clus scale="   31.067">  1  5  2 -1</clus>
</clustering>
</event>
<event>
 9    1  0.1296032E-005  0.1339530E+03  0.7546771E-02  0.1222254E+00
         -1   -1    0    0    0  501 -0.00000000000E+00  0.00000000000E+00  0.71931999445E+02  0.71931999445E+02  0.00000000000E+00 0.  1.
          1   -1    0    0  502    0  0.00000000000E+00 -0.00000000000E+00 -0.59586128213E+03  0.59586128213E+03  0.00000000000E+00 0. -1.
         23    2    1    2    0    0  0.33593921134E+02 -0.85719957625E+02 -0.19770998724E+02  0.13100474322E+03  0.91076273989E+02 0.  0.
         23    2    1    2    0    0 -0.38448862585E+02  0.11481001469E+03 -0.44801243444E+03  0.47336805038E+03  0.93287272440E+02 0.  0.
        -11    1    4    4    0    0 -0.87442392921E+00  0.83475574708E+02 -0.15269206751E+03  0.17402242290E+03  0.00000000000E+00 0.  1.
         11    1    4    4    0    0 -0.37574438655E+02  0.31334439980E+02 -0.29532036693E+03  0.29934562748E+03  0.00000000000E+00 0. -1.
        -11    1    3    3    0    0  0.44439539950E+02 -0.66696785047E+02  0.22633246883E+02  0.83280236017E+02  0.00000000000E+00 0.  1.
         11    1    3    3    0    0 -0.10845618815E+02 -0.19023172577E+02 -0.42404245607E+02  0.47724507205E+02  0.00000000000E+00 0. -1.
         21    1    1    2  502  501  0.48549414502E+01 -0.29090057064E+02 -0.56145849521E+02  0.63420487974E+02  0.00000000000E+00 0. -1.
<scales pt_clust_5="13000.00000" pt_clust_6="13000.00000" pt_clust_7="13000.00000" pt_clust_8="13000.00000" pt_clust_9="29.49240"></scales>
<clustering>
<clus scale="   29.492">  2  9  1 -1</clus>
<clus scale="   91.076">  7  8 -1 -1</clus>
<clus scale="   93.287">  5  6 -1 -1</clus>
<clus scale="  132.423">  1  7  2 -1</clus>
<clus scale="   29.492">  2  5  1 -1</clus>
</clustering>
</event>
<event>
 9    1  0.1296032E-005  0.9377254E+02  0.7546771E-02  0.1294397E+00
          3   -1    0    0  502    0  0.00000000000E+00  0.00000000000E+00  0.18403048973E+03  0.18403048973E+03  0.00000000000E+00 0. -1.
         -3   -1    0    0    0  501 -0.00000000000E+00 -0.00000000000E+00 -0.30793633610E+03  0.30793633610E+03  0.00000000000E+00 0.  1.
         23    2    1    2    0    0 -0.40648637395E+01  0.17860164693E+02 -0.15966541049E+03  0.18474922864E+03  0.91124780259E+02 0.  0.
         23    2    1    2    0    0 -0.51260064907E+02  0.60851615109E+01 -0.10825845543E+03  0.15109131391E+03  0.91891612897E+02 0.  0.
        -13    1    4    4    0    0 -0.21469256096E+02  0.33663285482E+02 -0.10260976479E+03  0.11010408520E+03  0.00000000000E+00 0.  1.
         13    1    4    4    0    0 -0.29790808810E+02 -0.27578123971E+02 -0.56486906413E+01  0.40987228709E+02  0.00000000000E+00 0. -1.
        -13    1    3    3    0    0  0.29082064274E+02  0.24914960219E+02 -0.24643405213E+02  0.45539204271E+02  0.00000000000E+00 0.  1.
         13    1    3    3    0    0 -0.33146928014E+02 -0.70547955261E+01 -0.13502200527E+03  0.13921002437E+03  0.00000000000E+00 0. -1.
         21    1    1    2  502  501  0.55324928646E+02 -0.23945326203E+02  0.14401801955E+03  0.15612628328E+03  0.00000000000E+00 0. -1.
<scales pt_clust_5="13000.00000" pt_clust_6="13000.00000" pt_clust_7="13000.00000" pt_clust_8="13000.00000" pt_clust_9="60.28455"></scales>
<clustering>
<clus scale="   60.285">  1  9  2 -1</clus>
<clus scale="   91.125">  7  8 -1 -1</clus>
<clus scale="   91.892">  5  6 -1 -1</clus>
<clus scale="   93.021">  2  7  1 -1</clus>
<clus scale="   60.285">  1  5  2 -1</clus>
</clustering>
</event>
<event>
 9    1  0.1296032E-005  0.1291277E+03  0.7546771E-02  0.1232819E+00
          1   -1    0    0  502    0  0.00000000000E+00  0.00000000000E+00  0.32628406060E+03  0.32628406060E+03  0.00000000000E+00 0. -1.
         -1   -1    0    0    0  501 -0.00000000000E+00 -0.00000000000E+00 -0.13606885580E+03  0.13606885580E+03  0.00000000000E+00 0.  1.
         23    2    1    2    0    0 -0.40310187232E+01 -0.77520470328E+02 -0.85511842883E+02  0.15573528082E+03  0.10447741377E+03 0.  0.
         23    2    1    2    0    0 -0.10363203764E+02  0.63337895742E+02  0.25084247911E+03  0.27456173415E+03  0.91340634478E+02 0.  0.
        -13    1    4    4    0    0  0.38485632347E+02  0.27434208217E+02  0.14593018866E+03  0.15339295825E+03  0.00000000000E+00 0. -1.
         13    1    4    4    0    0 -0.48848836111E+02  0.35903687525E+02  0.10491229044E+03  0.12116877590E+03  0.00000000000E+00 0.  1.
        -13    1    3    3    0    0  0.20323912667E+02  0.20520273749E+02 -0.23170924373E+02  0.37027487048E+02  0.00000000000E+00 0.  1.
         13    1    3    3    0    0 -0.24354931390E+02 -0.98040744077E+02 -0.62340918510E+02  0.11870779377E+03  0.00000000000E+00 0. -1.
         21    1    1    2  502  501  0.14394222487E+02  0.14182574587E+02  0.24884568576E+02  0.32055901425E+02  0.00000000000E+00 0.  1.
<scales pt_clust_5="13000.00000" pt_clust_6="13000.00000" pt_clust_7="13000.00000" pt_clust_8="13000.00000" pt_clust_9="20.20740"></scales>
<clustering>
<clus scale="   20.207">  1  9  2 -1</clus>
<clus scale="   91.341">  5  6 -1 -1</clus>
<clus scale="  104.477">  7  8 -1 -1</clus>
<clus scale="  118.750">  1  5  2 -1</clus>
<clus scale="   20.207">  1  5  2 -1</clus>
</clustering>
</event>
<event>
 9    1  0.1296032E-005  0.1075723E+03  0.7546771E-02  0.1266937E+00
          1   -1    0    0  502    0  0.00000000000E+00  0.00000000000E+00  0.83098649831E+02  0.83098649831E+02  0.00000000000E+00 0. -1.
         -1   -1    0    0    0  501 -0.00000000000E+00 -0.00000000000E+00 -0.21395321458E+03  0.21395321458E+03  0.00000000000E+00 0.  1.
         23    2    1    2    0    0 -0.37723549752E+02  0.18260615172E+02 -0.10301213932E+03  0.14606526069E+03  0.94694473223E+02 0.  0.
         23    2    1    2    0    0  0.66619084078E+02 -0.17850161217E+02 -0.38645045364E+02  0.12013507258E+03  0.90455876059E+02 0.  0.
        -11    1    3    3    0    0  0.67954528244E+01 -0.34110781861E+02 -0.36468834004E+02  0.50395431061E+02  0.00000000000E+00 0.  1.
         11    1    3    3    0    0 -0.44519002576E+02  0.52371397033E+02 -0.66543305320E+02  0.95669829625E+02  0.00000000000E+00 0. -1.
        -11    1    4    4    0    0 -0.79712360827E+01 -0.20436957880E+02 -0.39851534378E+02  0.45490159863E+02  0.00000000000E+00 0.  1.
         11    1    4    4    0    0  0.74590320161E+02  0.25867966631E+01  0.12064890144E+01  0.74644912716E+02  0.00000000000E+00 0. -1.
         21    1    1    2  502  501 -0.28895534327E+02 -0.41045395508E+00  0.10802619939E+02  0.30851531145E+02  0.00000000000E+00 0.  1.
<scales pt_clust_5="13000.00000" pt_clust_6="13000.00000" pt_clust_7="13000.00000" pt_clust_8="13000.00000" pt_clust_9="28.89845"></scales>
<clustering>
<clus scale="   28.898">  1  9  2 -1</clus>
<clus scale="   90.456">  7  8 -1 -1</clus>
<clus scale="   94.694">  5  6 -1 -1</clus>
<clus scale="  103.861">  1  7  2 -1</clus>
<clus scale="   28.898">  1  5  2 -1</clus>
</clustering>
</event>
<event>
 9    1  0.1296032E-005  0.1363343E+03  0.7546771E-02  0.1221163E+00
          2   -1    0    0  502    0  0.00000000000E+00  0.00000000000E+00  0.33153913684E+03  0.33153913684E+03  0.00000000000E+00 0. -1.
         -2   -1    0    0    0  501 -0.00000000000E+00 -0.00000000000E+00 -0.15321666174E+03  0.15321666174E+03  0.00000000000E+00 0.  1.
         23    2    1    2    0    0 -0.81652712621E+02  0.17630126755E+02 -0.61848261403E+02  0.13737590886E+03  0.89827312383E+02 0.  0.
         23    2    1    2    0    0  0.12058817480E+03 -0.15940216045E-02  0.70133030718E+02  0.17205289016E+03  0.10070773113E+03 0.  0.
        -11    1    4    4    0    0  0.13165037130E+02 -0.17516013369E+02  0.58647291678E+02  0.62606978430E+02  0.00000000000E+00 0.  1.
         11    1    4    4    0    0  0.10742313767E+03  0.17514419347E+02  0.11485739040E+02  0.10944591173E+03  0.00000000000E+00 0. -1.
        -13    1    3    3    0    0 -0.68118434757E+02  0.41905994933E+02 -0.12791760397E+02  0.80992979319E+02  0.00000000000E+00 0.  1.
         13    1    3    3    0    0 -0.13534277865E+02 -0.24275868178E+02 -0.49056501006E+02  0.56382929545E+02  0.00000000000E+00 0. -1.
         21    1    1    2  502  501 -0.38935462184E+02 -0.17628532733E+02  0.17003770579E+03  0.17532699955E+03  0.00000000000E+00 0. -1.
<scales pt_clust_5="13000.00000" pt_clust_6="13000.00000" pt_clust_7="13000.00000" pt_clust_8="13000.00000" pt_clust_9="42.74033"></scales>
<clustering>
<clus scale="   42.740">  1  9  2 -1</clus>
<clus scale="   89.827">  7  8 -1 -1</clus>
<clus scale="  100.708">  5  6 -1 -1</clus>
<clus scale="  128.507">  2  7  1 -1</clus>
<clus scale="   42.740">  1  5  2 -1</clus>
</clustering>
</event>
<event>
 9    1  0.1296032E-005  0.9420118E+02  0.7546771E-02  0.1294550E+00
         -1   -1    0    0    0  501 -0.00000000000E+00  0.00000000000E+00  0.11100890372E+03  0.11100890372E+03  0.00000000000E+00 0.  1.
          1   -1    0    0  502    0  0.00000000000E+00 -0.00000000000E+00 -0.24747425854E+03  0.24747425854E+03  0.00000000000E+00 0. -1.
         23    2    1    2    0    0 -0.96873176680E+01  0.75368304269E+01  0.61192905618E+02  0.11276287620E+03  0.93916168018E+02 0.  0.
         23    2    1    2    0    0 -0.48496739456E+01  0.11765188492E+02 -0.69673635426E+02  0.11547453258E+03  0.91203142515E+02 0.  0.
        -13    1    4    4    0    0  0.16014315262E+02 -0.21945620644E+02  0.79552491858E+01  0.28308206379E+02  0.00000000000E+00 0.  1.
         13    1    4    4    0    0 -0.20863989207E+02  0.33710809136E+02 -0.77628884611E+02  0.87166326206E+02  0.00000000000E+00 0. -1.
        -13    1    3    3    0    0 -0.24775988509E+02  0.37610251422E+02  0.24963781778E+01  0.45106679357E+02  0.00000000000E+00 0. -1.
         13    1    3    3    0    0  0.15088670841E+02 -0.30073420996E+02  0.58696527440E+02  0.67656196846E+02  0.00000000000E+00 0.  1.
         21    1    1    2  502  501  0.14536991614E+02 -0.19302018918E+02 -0.12798462501E+03  0.13024575348E+03  0.00000000000E+00 0.  1.
<scales pt_clust_5="13000.00000" pt_clust_6="13000.00000" pt_clust_7="13000.00000" pt_clust_8="13000.00000" pt_clust_9="24.16386"></scales>
<clustering>
<clus scale="   24.164">  2  9  1 -1</clus>
<clus scale="   91.203">  5  6 -1 -1</clus>
<clus scale="   91.497">  2  5  1 -1</clus>
<clus scale="   93.916">  7  8 -1 -1</clus>
<clus scale="   24.164">  2  5  1 -1</clus>
</clustering>
</event>
<event>
 9    1  0.1296032E-005  0.1006348E+03  0.7546771E-02  0.1280081E+00
          3   -1    0    0  502    0  0.00000000000E+00  0.00000000000E+00  0.64026550319E+02  0.64026550319E+02  0.00000000000E+00 0. -1.
         -3   -1    0    0    0  501 -0.00000000000E+00 -0.00000000000E+00 -0.21234733232E+03  0.21234733232E+03  0.00000000000E+00 0.  1.
         23    2    1    2    0    0  0.14704582151E+02 -0.43174737997E+02 -0.10273152762E+03  0.14479673346E+03  0.91280033497E+02 0.  0.
         23    2    1    2    0    0 -0.30576945283E+02  0.29402468137E+02 -0.23947670784E+02  0.10141151528E+03  0.88945768753E+02 0.  0.
        -13    1    3    3    0    0 -0.61508148899E+01  0.19816601128E+02 -0.65506547913E+02  0.68714176293E+02  0.00000000000E+00 0.  1.
         13    1    3    3    0    0  0.20855397041E+02 -0.62991339125E+02 -0.37224979709E+02  0.76082557165E+02  0.00000000000E+00 0. -1.
        -13    1    4    4    0    0 -0.57452104945E+02 -0.12145760291E+01 -0.98558368413E+01  0.58304005672E+02  0.00000000000E+00 0.  1.
         13    1    4    4    0    0  0.26875159662E+02  0.30617044166E+02 -0.14091833942E+02  0.43107509603E+02  0.00000000000E+00 0. -1.
         21    1    1    2  502  501  0.15872363131E+02  0.13772269860E+02 -0.21641583596E+02  0.30165633907E+02  0.00000000000E+00 0. -1.
<scales pt_clust_5="13000.00000" pt_clust_6="13000.00000" pt_clust_7="13000.00000" pt_clust_8="13000.00000" pt_clust_9="21.01446"></scales>
<clustering>
<clus scale="   21.014">  2  9  1 -1</clus>
<clus scale="   88.946">  7  8 -1 -1</clus>
<clus scale="   91.280">  5  6 -1 -1</clus>
<clus scale="   98.522">  1  7  2 -1</clus>
<clus scale="   98.522">  1  5  2 -1</clus>
</clustering>
</event>
<event>
 9    1  0.1296032E-005  0.9790605E+02  0.7546771E-02  0.1286071E+00
         -2   -1    0    0    0  501 -0.00000000000E+00  0.00000000000E+00  0.34758225274E+03  0.34758225274E+03  0.00000000000E+00 0.  1.
          2   -1    0    0  502    0  0.00000000000E+00 -0.00000000000E+00 -0.71620075006E+02  0.71620075006E+02  0.00000000000E+00 0. -1.
         23    2    1    2    0    0  0.72109962827E+01 -0.36824652654E+02  0.22702953133E+03  0.24631750707E+03  0.87874072874E+02 0.  0.
         23    2    1    2    0    0 -0.39303046034E+02  0.25918310529E+02  0.77874454417E+02  0.12831491820E+03  0.90464353936E+02 0.  0.
        -13    1    3    3    0    0 -0.28639307967E+02 -0.42328713141E+02  0.17886737201E+03  0.18602544634E+03  0.00000000000E+00 0.  1.
         13    1    3    3    0    0  0.35850304250E+02  0.55040604867E+01  0.48162159321E+02  0.60292060731E+02  0.00000000000E+00 0. -1.
        -13    1    4    4    0    0 -0.35397595766E+02  0.53372104472E+02  0.77558719584E+02  0.10058293247E+03  0.00000000000E+00 0.  1.
         13    1    4    4    0    0 -0.39054502688E+01 -0.27453793943E+02  0.31573483290E+00  0.27731985723E+02  0.00000000000E+00 0. -1.
         21    1    1    2  502  501  0.32092049752E+02  0.10906342125E+02 -0.28941808012E+02  0.44569902477E+02  0.00000000000E+00 0. -1.
<scales pt_clust_5="13000.00000" pt_clust_6="13000.00000" pt_clust_7="13000.00000" pt_clust_8="13000.00000" pt_clust_9="33.89466"></scales>
<clustering>
<clus scale="   33.895">  2  9  1 -1</clus>
<clus scale="   87.874">  5  6 -1 -1</clus>
<clus scale="   90.464">  7  8 -1 -1</clus>
<clus scale="   95.518">  1  5  2 -1</clus>
<clus scale="   33.895">  2  5  1 -1</clus>
</clustering>
</event>
<event>
 9    1  0.1296032E-005  0.1030925E+03  0.7546771E-02  0.1274480E+00
          1   -1    0    0  502    0  0.00000000000E+00  0.00000000000E+00  0.42476772011E+02  0.42476772011E+02  0.00000000000E+00 0. -1.
         -1   -1    0    0    0  501 -0.00000000000E+00 -0.00000000000E+00 -0.32367910268E+03  0.32367910268E+03  0.00000000000E+00 0.  1.
         23    2    1    2    0    0  0.23769225887E+02 -0.28970620565E+02 -0.13797658882E+03  0.16979476821E+03  0.91588488860E+02 0.  0.
         23    2    1    2    0    0 -0.31107136111E+02  0.50739815956E+02 -0.13234527167E+03  0.17094206980E+03  0.90353403122E+02 0.  0.
        -13    1    4    4    0    0  0.45797422287E+01  0.23054743062E+02 -0.12247432244E+03  0.12470948189E+03  0.00000000000E+00 0.  1.
         13    1    4    4    0    0 -0.35686878340E+02  0.27685072894E+02 -0.98709492330E+01  0.46232587917E+02  0.00000000000E+00 0. -1.
        -13    1    3    3    0    0 -0.22089367630E+02 -0.44161500060E+02 -0.83286794445E+02  0.96823903963E+02  0.00000000000E+00 0.  1.
         13    1    3    3    0    0  0.45858593517E+02  0.15190879495E+02 -0.54689794379E+02  0.72970864243E+02  0.00000000000E+00 0. -1.
         21    1    1    2  502  501  0.73379102245E+01 -0.21769195391E+02 -0.10880470174E+02  0.25419036678E+02  0.00000000000E+00 0.  1.
<scales pt_clust_5="13000.00000" pt_clust_6="13000.00000" pt_clust_7="13000.00000" pt_clust_8="13000.00000" pt_clust_9="22.97265"></scales>
<clustering>
<clus scale="   22.973">  1  9  2 -1</clus>
<clus scale="   90.353">  5  6 -1 -1</clus>
<clus scale="   91.588">  7  8 -1 -1</clus>
<clus scale="  101.997">  1  5  2 -1</clus>
<clus scale="   22.973">  1  5  2 -1</clus>
</clustering>
</event>
<event>
 9    1  0.1296032E-005  0.9831420E+02  0.7546771E-02  0.1286763E+00
          2   -1    0    0  502    0  0.00000000000E+00  0.00000000000E+00  0.22131536482E+03  0.22131536482E+03  0.00000000000E+00 0. -1.
         -2   -1    0    0    0  501 -0.00000000000E+00 -0.00000000000E+00 -0.94040162439E+02  0.94040162439E+02  0.00000000000E+00 0.  1.
         23    2    1    2    0    0 -0.17579776148E+02  0.12776318474E+02  0.44139974838E+01  0.99315294313E+02  0.96807858501E+02 0.  0.
         23    2    1    2    0    0 -0.23056049657E+02 -0.21457708435E+02  0.11853718468E+02  0.97510494424E+02  0.91519239531E+02 0.  0.
        -11    1    4    4    0    0 -0.56764212573E+02 -0.16774855805E+02  0.20069671420E+02  0.62500906611E+02  0.00000000000E+00 0.  1.
         11    1    4    4    0    0  0.33708162916E+02 -0.46828526300E+01 -0.82159529517E+01  0.35009587813E+02  0.00000000000E+00 0. -1.
        -13    1    3    3    0    0 -0.39517160128E+02  0.28038788027E+01 -0.35168517734E+02  0.52974449696E+02  0.00000000000E+00 0.  1.
         13    1    3    3    0    0  0.21937383980E+02  0.99724396709E+01  0.39582515218E+02  0.46340844617E+02  0.00000000000E+00 0. -1.
         21    1    1    2  502  501  0.40635825805E+02  0.86813899614E+01  0.11100748643E+03  0.11852973852E+03  0.00000000000E+00 0. -1.
<scales pt_clust_5="13000.00000" pt_clust_6="13000.00000" pt_clust_7="13000.00000" pt_clust_8="13000.00000" pt_clust_9="41.55282"></scales>
<clustering>
<clus scale="   41.553">  1  9  2 -1</clus>
<clus scale="   91.519">  5  6 -1 -1</clus>
<clus scale="   93.111">  1  5  2 -1</clus>
<clus scale="   96.808">  7  8 -1 -1</clus>
<clus scale="   41.553">  1  5  2 -1</clus>
</clustering>
</event>
<event>
 9    1  0.1296032E-005  0.1161258E+03  0.7546771E-02  0.1250205E+00
         -1   -1    0    0    0  501 -0.00000000000E+00  0.00000000000E+00  0.81723011959E+02  0.81723011959E+02  0.00000000000E+00 0.  1.
          1   -1    0    0  502    0  0.00000000000E+00 -0.00000000000E+00 -0.37939807777E+03  0.37939807777E+03  0.00000000000E+00 0. -1.
         23    2    1    2    0    0  0.67746880978E+02 -0.32948993190E+02  0.52996341741E+01  0.11829208494E+03  0.91047543634E+02 0.  0.
         23    2    1    2    0    0 -0.23751878249E+02  0.55746565704E+02 -0.21526345330E+03  0.24208898110E+03  0.92719410791E+02 0.  0.
        -13    1    3    3    0    0  0.27582666291E+02 -0.62492616541E+02  0.35748725418E+01  0.68402560738E+02  0.00000000000E+00 0. -1.
         13    1    3    3    0    0  0.40164214687E+02  0.29543623350E+02  0.17247616323E+01  0.49889524199E+02  0.00000000000E+00 0.  1.
        -13    1    4    4    0    0 -0.56486436235E+02  0.51524324746E+02 -0.13232925388E+03  0.15282835127E+03  0.00000000000E+00 0.  1.
         13    1    4    4    0    0  0.32734557986E+02  0.42222409574E+01 -0.82934199421E+02  0.89260629836E+02  0.00000000000E+00 0. -1.
         21    1    1    2  502  501 -0.43995002729E+02 -0.22797572514E+02 -0.87711246689E+02  0.10074002369E+03  0.00000000000E+00 0. -1.
<scales pt_clust_5="13000.00000" pt_clust_6="13000.00000" pt_clust_7="13000.00000" pt_clust_8="13000.00000" pt_clust_9="49.55088"></scales>
<clustering>
<clus scale="   49.551">  2  9  1 -1</clus>
<clus scale="   91.048">  5  6 -1 -1</clus>
<clus scale="   92.719">  7  8 -1 -1</clus>
<clus scale="  114.795">  1  5  2 -1</clus>
<clus scale="   49.551">  2  5  1 -1</clus>
</clustering>
</event>
<event>
 9    1  0.1296032E-005  0.9236390E+02  0.7546771E-02  0.1298950E+00
          2   -1    0    0  502    0  0.00000000000E+00  0.00000000000E+00  0.23994314573E+03  0.23994314573E+03  0.00000000000E+00 0. -1.
         -2   -1    0    0    0  501 -0.00000000000E+00 -0.00000000000E+00 -0.81632962565E+02  0.81632962565E+02  0.00000000000E+00 0.  1.
         23    2    1    2    0    0  0.54080895755E+01  0.12136989930E+02 -0.13803538583E+02  0.90695725239E+02  0.88648874453E+02 0.  0.
         23    2    1    2    0    0  0.37545969419E+02 -0.48466955662E+01  0.74459007210E+02  0.12394749360E+03  0.91573179138E+02 0.  0.
        -11    1    3    3    0    0  0.36005541710E+02  0.23069639857E+02 -0.32041935365E+02  0.53434941180E+02  0.00000000000E+00 0.  1.
         11    1    3    3    0    0 -0.30597452134E+02 -0.10932649926E+02  0.18238396782E+02  0.37260784059E+02  0.00000000000E+00 0. -1.
        -13    1    4    4    0    0  0.77900054466E+01 -0.46915795576E+02  0.35253988790E+02  0.59199829264E+02  0.00000000000E+00 0. -1.
         13    1    4    4    0    0  0.29755963972E+02  0.42069100009E+02  0.39205018420E+02  0.64747664335E+02  0.00000000000E+00 0.  1.
         21    1    1    2  502  501 -0.42954058995E+02 -0.72902943639E+01  0.97654714534E+02  0.10693288945E+03  0.00000000000E+00 0. -1.
<scales pt_clust_5="13000.00000" pt_clust_6="13000.00000" pt_clust_7="13000.00000" pt_clust_8="13000.00000" pt_clust_9="43.56833"></scales>
<clustering>
<clus scale="   43.568">  1  9  2 -1</clus>
<clus scale="   88.649">  5  6 -1 -1</clus>
<clus scale="   89.465">  2  5  1 -1</clus>
<clus scale="   91.573">  7  8 -1 -1</clus>
<clus scale="   43.568">  1  5  2 -1</clus>
</clustering>
</event>
<event>
 9    1  0.1296032E-005  0.1021583E+03  0.7546771E-02  0.1275849E+00
          1   -1    0    0  502    0  0.00000000000E+00  0.00000000000E+00  0.35023367839E+03  0.35023367839E+03  0.00000000000E+00 0. -1.
         -1   -1    0    0    0  501 -0.00000000000E+00 -0.00000000000E+00 -0.10292283396E+03  0.10292283396E+03  0.00000000000E+00 0.  1.
         23    2    1    2    0    0 -0.10031550400E+02 -0.47139994785E+02 -0.58870601573E+02  0.11815104393E+03  0.90394194180E+02 0.  0.
         23    2    1    2    0    0  0.34703896442E+02  0.35064594196E+02  0.19576185245E+03  0.22122046678E+03  0.90453888000E+02 0.  0.
        -11    1    4    4    0    0 -0.73123324642E+01  0.55651445139E+02  0.11193633670E+03  0.12522099275E+03  0.00000000000E+00 0.  1.
         11    1    4    4    0    0  0.42016228906E+02 -0.20586850943E+02  0.83825515755E+02  0.95999474034E+02  0.00000000000E+00 0. -1.
        -13    1    3    3    0    0  0.21119977057E+01 -0.73115715533E+02 -0.36292662719E+02  0.81654918771E+02  0.00000000000E+00 0.  1.
         13    1    3    3    0    0 -0.12143548106E+02  0.25975720749E+02 -0.22577938854E+02  0.36496125163E+02  0.00000000000E+00 0. -1.
         21    1    1    2  502  501 -0.24672346042E+02  0.12075400589E+02  0.11041959355E+03  0.11378500164E+03  0.00000000000E+00 0.  1.
<scales pt_clust_5="13000.00000" pt_clust_6="13000.00000" pt_clust_7="13000.00000" pt_clust_8="13000.00000" pt_clust_9="27.46889"></scales>
<clustering>
<clus scale="   27.469">  1  9  2 -1</clus>
<clus scale="   90.394">  7  8 -1 -1</clus>
<clus scale="   90.454">  5  6 -1 -1</clus>
<clus scale="  102.105">  2  7  1 -1</clus>
<clus scale="   27.469">  1  5  2 -1</clus>
</clustering>
</event>
<event>
 9    1  0.1296032E-005  0.3321230E+03  0.7546771E-02  0.1070413E+00
         -2   -1    0    0    0  501 -0.00000000000E+00  0.00000000000E+00  0.64157685539E+03  0.64157685539E+03  0.00000000000E+00 0.  1.
          2   -1    0    0  502    0  0.00000000000E+00 -0.00000000000E+00 -0.24553970033E+03  0.24553970033E+03  0.00000000000E+00 0. -1.
         23    2    1    2    0    0 -0.31073147372E+03 -0.45432488613E+02  0.40278050501E+03  0.51891216841E+03  0.91758070600E+02 0.  0.
         23    2    1    2    0    0  0.33098424990E+03  0.52683995956E+02 -0.12697992242E+02  0.34588361075E+03  0.84546177132E+02 0.  0.
        -13    1    4    4    0    0  0.19876712914E+03 -0.84627714657E+01  0.58657895407E+01  0.19903365950E+03  0.00000000000E+00 0.  1.
         13    1    4    4    0    0  0.13221712076E+03  0.61146767421E+02 -0.18563781783E+02  0.14684995125E+03  0.00000000000E+00 0. -1.
        -13    1    3    3    0    0 -0.40254996881E+02  0.22540606085E+01  0.13541233480E+02  0.42531289274E+02  0.00000000000E+00 0. -1.
         13    1    3    3    0    0 -0.27047647684E+03 -0.47686549221E+02  0.38923927153E+03  0.47638087913E+03  0.00000000000E+00 0.  1.
         21    1    1    2  502  501 -0.20252776181E+02 -0.72515073428E+01  0.59546422842E+01  0.22320776566E+02  0.00000000000E+00 0. -1.
<scales pt_clust_5="13000.00000" pt_clust_6="13000.00000" pt_clust_7="13000.00000" pt_clust_8="13000.00000" pt_clust_9="21.51184"></scales>
<clustering>
<clus scale="   21.512">  2  9  1 -1</clus>
<clus scale="   84.546">  5  6 -1 -1</clus>
<clus scale="   91.758">  7  8 -1 -1</clus>
<clus scale="  330.203">  2  5  1 -1</clus>
<clus scale="   21.512">  2  5  1 -1</clus>
</clustering>
</event>
<event>
 9    1  0.1296032E-005  0.1141705E+03  0.7546771E-02  0.1254425E+00
          1   -1    0    0  502    0  0.00000000000E+00  0.00000000000E+00  0.22328071698E+03  0.22328071698E+03  0.00000000000E+00 0. -1.
         -1   -1    0    0    0  501 -0.00000000000E+00 -0.00000000000E+00 -0.10282111281E+03  0.10282111281E+03  0.00000000000E+00 0.  1.
         23    2    1    2    0    0  0.27637848985E+02  0.60555267302E+02 -0.18640123087E+02  0.11618737067E+03  0.93387685585E+02 0.  0.
         23    2    1    2    0    0 -0.55556640648E+02 -0.41801615625E+02  0.70498901589E+02  0.13351268126E+03  0.89563527973E+02 0.  0.
        -11    1    4    4    0    0  0.99571662659E+01  0.20588104282E+02  0.15740302131E+02  0.27762786408E+02  0.00000000000E+00 0.  1.
         11    1    4    4    0    0 -0.65513806914E+02 -0.62389719907E+02  0.54758599458E+02  0.10574989485E+03  0.00000000000E+00 0. -1.
        -13    1    3    3    0    0  0.54010958559E+02  0.65954933852E+02 -0.35404608090E+01  0.85321578786E+02  0.00000000000E+00 0.  1.
         13    1    3    3    0    0 -0.26373109573E+02 -0.53996665496E+01 -0.15099662278E+02  0.30865791879E+02  0.00000000000E+00 0. -1.
         21    1    1    2  502  501  0.27918791663E+02 -0.18753651677E+02  0.68600825666E+02  0.76401777867E+02  0.00000000000E+00 0. -1.
<scales pt_clust_5="13000.00000" pt_clust_6="13000.00000" pt_clust_7="13000.00000" pt_clust_8="13000.00000" pt_clust_9="33.63270"></scales>
<clustering>
<clus scale="   33.633">  1  9  2 -1</clus>
<clus scale="   89.564">  5  6 -1 -1</clus>
<clus scale="   93.388">  7  8 -1 -1</clus>
<clus scale="  111.064">  1  5  2 -1</clus>
<clus scale="   33.633">  1  5  2 -1</clus>
</clustering>
</event>
<event>
 9    1  0.1296032E-005  0.9499131E+02  0.7546771E-02  0.1291343E+00
          2   -1    0    0  502    0  0.00000000000E+00  0.00000000000E+00  0.10257233886E+03  0.10257233886E+03  0.00000000000E+00 0.  1.
         -2   -1    0    0    0  501 -0.00000000000E+00 -0.00000000000E+00 -0.19686975105E+03  0.19686975105E+03  0.00000000000E+00 0. -1.
         23    2    1    2    0    0  0.13236006519E+02  0.26102083620E+02 -0.11642350835E+03  0.15082389713E+03  0.91306648239E+02 0.  0.
         23    2    1    2    0    0 -0.34409881527E+02  0.87366594570E+01 -0.70705921836E+01  0.98473226805E+02  0.91578457938E+02 0.  0.
        -13    1    3    3    0    0 -0.13119459862E+02 -0.29317656045E+02 -0.56852016211E+02  0.65297755937E+02  0.00000000000E+00 0.  1.
         13    1    3    3    0    0  0.26355466381E+02  0.55419739665E+02 -0.59571492135E+02  0.85526141196E+02  0.00000000000E+00 0. -1.
        -13    1    4    4    0    0 -0.56753807646E+02 -0.21390983992E+02 -0.27117434789E+01  0.60711798121E+02  0.00000000000E+00 0.  1.
         13    1    4    4    0    0  0.22343926118E+02  0.30127643449E+02 -0.43588487047E+01  0.37761428683E+02  0.00000000000E+00 0. -1.
         21    1    1    2  502  501  0.21173875009E+02 -0.34838743077E+02  0.29196688336E+02  0.50144965967E+02  0.00000000000E+00 0.  1.
<scales pt_clust_5="13000.00000" pt_clust_6="13000.00000" pt_clust_7="13000.00000" pt_clust_8="13000.00000" pt_clust_9="40.76851"></scales>
<clustering>
<clus scale="   40.769">  1  9  2 -1</clus>
<clus scale="   91.307">  5  6 -1 -1</clus>
<clus scale="   91.578">  7  8 -1 -1</clus>
<clus scale="   94.729">  2  5  1 -1</clus>
<clus scale="   40.769">  1  5  2 -1</clus>
</clustering>
</event>
<event>
 9    1  0.1296032E-005  0.1400755E+03  0.7546771E-02  0.1213952E+00
         -1   -1    0    0    0  501 -0.00000000000E+00  0.00000000000E+00  0.41659733514E+02  0.41659733514E+02  0.00000000000E+00 0.  1.
          1   -1    0    0  502    0  0.00000000000E+00 -0.00000000000E+00 -0.60016810846E+03  0.60016810846E+03  0.00000000000E+00 0. -1.
         23    2    1    2    0    0  0.93616937274E+02 -0.27477700066E+02 -0.22090606582E+03  0.25909398277E+03  0.93867177693E+02 0.  0.
         23    2    1    2    0    0 -0.11225916763E+03  0.46128489745E+01 -0.23340908169E+03  0.27444460391E+03  0.90645695466E+02 0.  0.
        -11    1    3    3    0    0  0.53802025450E+02  0.55498881395E+01 -0.19275494077E+03  0.20019971626E+03  0.00000000000E+00 0. -1.
         11    1    3    3    0    0  0.39814911825E+02 -0.33027588205E+02 -0.28151125051E+02  0.58894266511E+02  0.00000000000E+00 0.  1.
        -13    1    4    4    0    0 -0.65237113759E+02  0.46935211948E+02 -0.11676844967E+03  0.14175212863E+03  0.00000000000E+00 0.  1.
         13    1    4    4    0    0 -0.47022053871E+02 -0.42322362974E+02 -0.11664063203E+03  0.13269247529E+03  0.00000000000E+00 0. -1.
         21    1    1    2  502  501  0.18642230356E+02  0.22864851091E+02 -0.10419322743E+03  0.10828925529E+03  0.00000000000E+00 0. -1.
<scales pt_clust_5="13000.00000" pt_clust_6="13000.00000" pt_clust_7="13000.00000" pt_clust_8="13000.00000" pt_clust_9="29.50143"></scales>
<clustering>
<clus scale="   29.501">  2  9  1 -1</clus>
<clus scale="   90.646">  7  8 -1 -1</clus>
<clus scale="   93.867">  5  6 -1 -1</clus>
<clus scale="  137.937">  2  7  1 -1</clus>
<clus scale="   29.501">  2  5  1 -1</clus>
</clustering>
</event>
<event>
 9    1  0.1296032E-005  0.1031616E+03  0.7546771E-02  0.1278845E+00
          1   -1    0    0  502    0  0.00000000000E+00  0.00000000000E+00  0.62916278802E+03  0.62916278802E+03  0.00000000000E+00 0. -1.
         -1   -1    0    0    0  501 -0.00000000000E+00 -0.00000000000E+00 -0.50493044996E+02  0.50493044996E+02  0.00000000000E+00 0.  1.
         23    2    1    2    0    0 -0.13440342783E+02 -0.22404895305E+02  0.99780785019E+01  0.94475142353E+02  0.90240613497E+02 0.  0.
         23    2    1    2    0    0  0.30093142370E+02 -0.30328662291E+01  0.48486223994E+03  0.49600800498E+03  0.10008872959E+03 0.  0.
        -11    1    4    4    0    0 -0.20101970816E+02 -0.38126512390E+02  0.21596157278E+03  0.22022061914E+03  0.00000000000E+00 0.  1.
         11    1    4    4    0    0  0.50195113186E+02  0.35093646161E+02  0.26890066716E+03  0.27578738584E+03  0.00000000000E+00 0. -1.
        -11    1    3    3    0    0  0.14239544530E+02 -0.43290231999E+02 -0.18913484912E+02  0.49340943712E+02  0.00000000000E+00 0.  1.
         11    1    3    3    0    0 -0.27679887313E+02  0.20885336694E+02  0.28891563414E+02  0.45134198641E+02  0.00000000000E+00 0. -1.
         21    1    1    2  502  501 -0.16652799588E+02  0.25437761534E+02  0.83829424588E+02  0.89172685687E+02  0.00000000000E+00 0. -1.
<scales pt_clust_5="13000.00000" pt_clust_6="13000.00000" pt_clust_7="13000.00000" pt_clust_8="13000.00000" pt_clust_9="30.40387"></scales>
<clustering>
<clus scale="   30.404">  1  9  2 -1</clus>
<clus scale="   90.241">  7  8 -1 -1</clus>
<clus scale="   93.637">  2  7  1 -1</clus>
<clus scale="  100.089">  5  6 -1 -1</clus>
<clus scale="   30.404">  1  5  2 -1</clus>
</clustering>
</event>
<event>
 9    1  0.1296032E-005  0.1155900E+03  0.7546771E-02  0.1253297E+00
          2   -1    0    0  502    0  0.00000000000E+00  0.00000000000E+00  0.52407449778E+03  0.52407449778E+03  0.00000000000E+00 0. -1.
         -2   -1    0    0    0  501 -0.00000000000E+00 -0.00000000000E+00 -0.38747990120E+02  0.38747990120E+02  0.00000000000E+00 0.  1.
         23    2    1    2    0    0  0.21183416699E+02 -0.45520016801E+02  0.13383020317E+03  0.17122365993E+03  0.94266692774E+02 0.  0.
         23    2    1    2    0    0  0.48218239463E+01  0.66794932725E+02  0.18203014893E+03  0.21883403853E+03  0.10133384567E+03 0.  0.
        -11    1    4    4    0    0  0.42609549892E+01 -0.24337389226E+02  0.15997772564E+02  0.29434554163E+02  0.00000000000E+00 0.  1.
         11    1    4    4    0    0  0.56086895705E+00  0.91132321950E+02  0.16603237637E+03  0.18939948437E+03  0.00000000000E+00 0. -1.
        -11    1    3    3    0    0 -0.13117714223E+02 -0.64979284301E+02  0.95308236909E+02  0.11609496904E+03  0.00000000000E+00 0.  1.
         11    1    3    3    0    0  0.34301130922E+02  0.19459267499E+02  0.38521966258E+02  0.55128690884E+02  0.00000000000E+00 0. -1.
         21    1    1    2  502  501 -0.26005240645E+02 -0.21274915923E+02  0.16946615556E+03  0.17276478944E+03  0.00000000000E+00 0. -1.
<scales pt_clust_5="13000.00000" pt_clust_6="13000.00000" pt_clust_7="13000.00000" pt_clust_8="13000.00000" pt_clust_9="33.59903"></scales>
<clustering>
<clus scale="   33.599">  1  9  2 -1</clus>
<clus scale="   94.267">  7  8 -1 -1</clus>
<clus scale="  101.334">  5  6 -1 -1</clus>
<clus scale="  109.447">  2  7  1 -1</clus>
<clus scale="   33.599">  1  5  2 -1</clus>
</clustering>
</event>
<event>
 9    1  0.1296032E-005  0.1325899E+03  0.7546771E-02  0.1224346E+00
         -1   -1    0    0    0  501 -0.00000000000E+00  0.00000000000E+00  0.16237847320E+03  0.16237847320E+03  0.00000000000E+00 0.  1.
          1   -1    0    0  502    0  0.00000000000E+00 -0.00000000000E+00 -0.13617261216E+03  0.13617261216E+03  0.00000000000E+00 0. -1.
         23    2    1    2    0    0 -0.10507329807E+03  0.26897986251E+01  0.36253957980E+02  0.14538824152E+03  0.93679017491E+02 0.  0.
         23    2    1    2    0    0  0.75219296716E+02  0.92118492882E+00 -0.27300748256E+01  0.12221362662E+03  0.96280455141E+02 0.  0.
        -13    1    3    3    0    0 -0.92183859082E+02 -0.34434089122E+02  0.39322246490E+02  0.10597079521E+03  0.00000000000E+00 0.  1.
         13    1    3    3    0    0 -0.12889438991E+02  0.37123887747E+02 -0.30682885103E+01  0.39417446307E+02  0.00000000000E+00 0. -1.
        -13    1    4    4    0    0  0.84095203598E+02  0.21051442002E+02 -0.25688287748E+02  0.90416008571E+02  0.00000000000E+00 0. -1.
         13    1    4    4    0    0 -0.88759068816E+01 -0.20130257073E+02  0.22958212922E+02  0.31797618046E+02  0.00000000000E+00 0.  1.
         21    1    1    2  502  501  0.29854001357E+02 -0.36109835540E+01 -0.73180221115E+01  0.30949217225E+02  0.00000000000E+00 0.  1.
<scales pt_clust_5="13000.00000" pt_clust_6="13000.00000" pt_clust_7="13000.00000" pt_clust_8="13000.00000" pt_clust_9="30.07159"></scales>
<clustering>
<clus scale="   30.072">  2  9  1 -1</clus>
<clus scale="   93.679">  5  6 -1 -1</clus>
<clus scale="   96.280">  7  8 -1 -1</clus>
<clus scale="  130.713">  1  5  2 -1</clus>
<clus scale="   30.072">  2  5  1 -1</clus>
</clustering>
</event>
<event>
 9    1  0.1296032E-005  0.1119898E+03  0.7546771E-02  0.1259173E+00
          2   -1    0    0  502    0  0.00000000000E+00  0.00000000000E+00  0.37594176234E+03  0.37594176234E+03  0.00000000000E+00 0. -1.
         -2   -1    0    0    0  501 -0.00000000000E+00 -0.00000000000E+00 -0.46162761675E+02  0.46162761675E+02  0.00000000000E+00 0.  1.
         23    2    1    2    0    0  0.33867409587E+02  0.44423536764E+02  0.84486494787E+02  0.14250502067E+03  0.10024600273E+03 0.  0.
         23    2    1    2    0    0 -0.37756266973E+02 -0.21031407610E+02  0.15888984712E+03  0.19000187861E+03  0.94799127403E+02 0.  0.
        -11    1    4    4    0    0 -0.56171292284E+02 -0.37222660717E+02  0.14906087334E+03  0.16358448737E+03  0.00000000000E+00 0. -1.
         11    1    4    4    0    0  0.18415025311E+02  0.16191253107E+02  0.98289737815E+01  0.26417391241E+02  0.00000000000E+00 0.  1.
        -13    1    3    3    0    0  0.36262650890E+02 -0.22798649391E+02  0.53253954102E+02  0.68342826186E+02  0.00000000000E+00 0.  1.
         13    1    3    3    0    0 -0.23952413029E+01  0.67222186155E+02  0.31232540685E+02  0.74162194480E+02  0.00000000000E+00 0. -1.
         21    1    1    2  502  501  0.38888573854E+01 -0.23392129155E+02  0.86402658759E+02  0.89597624738E+02  0.00000000000E+00 0.  1.
<scales pt_clust_5="13000.00000" pt_clust_6="13000.00000" pt_clust_7="13000.00000" pt_clust_8="13000.00000" pt_clust_9="23.71318"></scales>
<clustering>
<clus scale="   23.713">  1  9  2 -1</clus>
<clus scale="   94.799">  5  6 -1 -1</clus>
<clus scale="  100.246">  7  8 -1 -1</clus>
<clus scale="  107.142">  1  5  2 -1</clus>
<clus scale="   23.713">  1  5  2 -1</clus>
</clustering>
</event>
<event>
 9    1  0.1296032E-005  0.1620611E+03  0.7546771E-02  0.1187907E+00
          2   -1    0    0  502    0  0.00000000000E+00  0.00000000000E+00  0.18926633839E+03  0.18926633839E+03  0.00000000000E+00 0. -1.
         -2   -1    0    0    0  501 -0.00000000000E+00 -0.00000000000E+00 -0.18550866495E+03  0.18550866495E+03  0.00000000000E+00 0.  1.
         23    2    1    2    0    0  0.86631997719E+02  0.84945050876E+02 -0.48045064048E+02  0.16228243482E+03  0.96470180755E+02 0.  0.
         23    2    1    2    0    0 -0.89410237747E+02 -0.11626223622E+03  0.27613393178E+02  0.17282382649E+03  0.87146298462E+02 0.  0.
        -11    1    4    4    0    0 -0.48268478802E+02 -0.45394592107E+02 -0.29916089583E+02  0.72701357995E+02  0.00000000000E+00 0.  1.
         11    1    4    4    0    0 -0.41141758945E+02 -0.70867644114E+02  0.57529482761E+02  0.10012246850E+03  0.00000000000E+00 0. -1.
        -11    1    3    3    0    0  0.83657238968E+02  0.31983212816E+02 -0.60133384984E+02  0.10787716868E+03  0.00000000000E+00 0.  1.
         11    1    3    3    0    0  0.29747587512E+01  0.52961838060E+02  0.12088320936E+02  0.54405266136E+02  0.00000000000E+00 0. -1.
         21    1    1    2  502  501  0.27782400281E+01  0.31317185345E+02  0.24189344317E+02  0.39668742029E+02  0.00000000000E+00 0. -1.
<scales pt_clust_5="13000.00000" pt_clust_6="13000.00000" pt_clust_7="13000.00000" pt_clust_8="13000.00000" pt_clust_9="31.44018"></scales>
<clustering>
<clus scale="   31.440">  1  9  2 -1</clus>
<clus scale="   87.146">  5  6 -1 -1</clus>
<clus scale="   96.470">  7  8 -1 -1</clus>
<clus scale="  156.690">  1  5  2 -1</clus>
<clus scale="   31.440">  1  5  2 -1</clus>
</clustering>
</event>
<event>
 9    1  0.1296032E-005  0.1079520E+03  0.7546771E-02  0.1264839E+00
         -1   -1    0    0    0  501 -0.00000000000E+00  0.00000000000E+00  0.14964437471E+03  0.14964437471E+03  0.00000000000E+00 0.  1.
          1   -1    0    0  502    0  0.00000000000E+00 -0.00000000000E+00 -0.16662814268E+03  0.16662814268E+03  0.00000000000E+00 0. -1.
         23    2    1    2    0    0  0.53202962841E+01 -0.52833288925E+02  0.88814563240E+02  0.13754814653E+03  0.90619004629E+02 0.  0.
         23    2    1    2    0    0 -0.98735367960E+00  0.76652847978E+02 -0.92332894725E+02  0.15102123448E+03  0.91681055000E+02 0.  0.
        -11    1    4    4    0    0 -0.45714060238E+02  0.48501831229E+02 -0.52429947940E+02  0.84800367789E+02  0.00000000000E+00 0. -1.
         11    1    4    4    0    0  0.44726706559E+02  0.28151016749E+02 -0.39902946785E+02  0.66220866694E+02  0.00000000000E+00 0.  1.
        -11    1    3    3    0    0  0.17860675853E+02 -0.69555004609E+02  0.91674052060E+02  0.11645185370E+03  0.00000000000E+00 0.  1.
         11    1    3    3    0    0 -0.12540379569E+02  0.16721715684E+02 -0.28594888196E+01  0.21096292837E+02  0.00000000000E+00 0. -1.
         21    1    1    2  502  501 -0.43329426045E+01 -0.23819559053E+02 -0.13465436491E+02  0.27703136375E+02  0.00000000000E+00 0. -1.
<scales pt_clust_5="13000.00000" pt_clust_6="13000.00000" pt_clust_7="13000.00000" pt_clust_8="13000.00000" pt_clust_9="24.21045"></scales>
<clustering>
<clus scale="   24.210">  2  9  1 -1</clus>
<clus scale="   90.619">  7  8 -1 -1</clus>
<clus scale="   91.681">  5  6 -1 -1</clus>
<clus scale="  107.052">  1  7  2 -1</clus>
<clus scale="   24.210">  2  5  1 -1</clus>
</clustering>
</event>
<event>
 9    1  0.1296032E-005  0.9482569E+02  0.7546771E-02  0.1291785E+00
         -1   -1    0    0    0  501 -0.00000000000E+00  0.00000000000E+00  0.17094283404E+03  0.17094283404E+03  0.00000000000E+00 0.  1.
          1   -1    0    0  502    0  0.00000000000E+00 -0.00000000000E+00 -0.32276444940E+03  0.32276444940E+03  0.00000000000E+00 0. -1.
         23    2    1    2    0    0  0.10401111954E+02 -0.21320334834E+02  0.12504789099E+03  0.15665661643E+03  0.91332254022E+02 0.  0.
         23    2    1    2    0    0 -0.73868998069E+02 -0.15185423974E+02 -0.16285822728E+03  0.20155374916E+03  0.91727234930E+02 0.  0.
        -11    1    3    3    0    0  0.35725736071E+02 -0.39914478206E+02  0.10883186521E+03  0.12130073649E+03  0.00000000000E+00 0.  1.
         11    1    3    3    0    0 -0.25324624117E+02  0.18594143372E+02  0.16216025774E+02  0.35355879939E+02  0.00000000000E+00 0. -1.
        -13    1    4    4    0    0 -0.76544516972E+02  0.75258943025E+01 -0.63920918234E+02  0.10000792944E+03  0.00000000000E+00 0. -1.
         13    1    4    4    0    0  0.26755189036E+01 -0.22711318277E+02 -0.98937309049E+02  0.10154581971E+03  0.00000000000E+00 0.  1.
         21    1    1    2  502  501  0.63467886115E+02  0.36505758808E+02 -0.11401127906E+03  0.13549691785E+03  0.00000000000E+00 0.  1.
<scales pt_clust_5="13000.00000" pt_clust_6="13000.00000" pt_clust_7="13000.00000" pt_clust_8="13000.00000" pt_clust_9="73.21778"></scales>
<clustering>
<clus scale="   73.218">  2  9  1 -1</clus>
<clus scale="   91.332">  5  6 -1 -1</clus>
<clus scale="   91.727">  7  8 -1 -1</clus>
<clus scale="   94.444">  1  5  2 -1</clus>
<clus scale="   73.218">  2  5  1 -1</clus>
</clustering>
</event>
<event>
 9    1  0.1296032E-005  0.1025649E+03  0.7546771E-02  0.1275030E+00
          1   -1    0    0  502    0  0.00000000000E+00  0.00000000000E+00  0.99921707160E+02  0.99921707160E+02  0.00000000000E+00 0. -1.
         -1   -1    0    0    0  501 -0.00000000000E+00 -0.00000000000E+00 -0.21709722387E+03  0.21709722387E+03  0.00000000000E+00 0.  1.
         23    2    1    2    0    0  0.80673240552E+01 -0.49229362990E+02 -0.12229142640E+03  0.16058490181E+03  0.91343887701E+02 0.  0.
         23    2    1    2    0    0 -0.44478993021E+02  0.27256099413E+02 -0.20054250547E+02  0.10701570352E+03  0.91262873390E+02 0.  0.
        -11    1    3    3    0    0  0.26799676109E+02 -0.24384481491E+02 -0.12423306461E+03  0.12940896383E+03  0.00000000000E+00 0.  1.
         11    1    3    3    0    0 -0.18732352054E+02 -0.24844881498E+02  0.19416382068E+01  0.31175937982E+02  0.00000000000E+00 0. -1.
        -11    1    4    4    0    0 -0.70432080172E+02  0.34115651590E+02 -0.15745981104E+02  0.79827886867E+02  0.00000000000E+00 0.  1.
         11    1    4    4    0    0  0.25953087151E+02 -0.68595521768E+01 -0.43082694430E+01  0.27187816652E+02  0.00000000000E+00 0. -1.
         21    1    1    2  502  501  0.36411668965E+02  0.21973263577E+02  0.25170160235E+02  0.49418325703E+02  0.00000000000E+00 0. -1.
<scales pt_clust_5="13000.00000" pt_clust_6="13000.00000" pt_clust_7="13000.00000" pt_clust_8="13000.00000" pt_clust_9="42.52804"></scales>
<clustering>
<clus scale="   42.528">  1  9  2 -1</clus>
<clus scale="   91.263">  7  8 -1 -1</clus>
<clus scale="   91.344">  5  6 -1 -1</clus>
<clus scale="  102.493">  1  7  2 -1</clus>
<clus scale="   42.528">  1  5  2 -1</clus>
</clustering>
</event>
<event>
 9    1  0.1296032E-005  0.1672481E+03  0.7546771E-02  0.1180898E+00
         -3   -1    0    0    0  501 -0.00000000000E+00  0.00000000000E+00  0.29316492762E+03  0.29316492762E+03  0.00000000000E+00 0.  1.
          3   -1    0    0  502    0  0.00000000000E+00 -0.00000000000E+00 -0.14325475263E+03  0.14325475263E+03  0.00000000000E+00 0. -1.
         23    2    1    2    0    0  0.52317281507E+02  0.10393238287E+03  0.74350326889E+02  0.16576924307E+03  0.91719314679E+02 0.  0.
         23    2    1    2    0    0 -0.96066526012E+02 -0.14583337441E+03  0.70273263769E+02  0.20984223493E+03  0.92732310713E+02 0.  0.
        -11    1    3    3    0    0  0.38757484564E+02  0.73214186482E+02  0.95237813299E+02  0.12622480261E+03  0.00000000000E+00 0.  1.
         11    1    3    3    0    0  0.13559796943E+02  0.30718196389E+02 -0.20887486410E+02  0.39544440458E+02  0.00000000000E+00 0. -1.
        -13    1    4    4    0    0 -0.48705009680E+02 -0.35896408177E+02 -0.15646277464E+02  0.62494288431E+02  0.00000000000E+00 0.  1.
         13    1    4    4    0    0 -0.47361516332E+02 -0.10993696623E+03  0.85919541233E+02  0.14734794650E+03  0.00000000000E+00 0. -1.
         21    1    1    2  502  501  0.43749244505E+02  0.41900991534E+02  0.52865843312E+01  0.60808202244E+02  0.00000000000E+00 0.  1.
<scales pt_clust_5="13000.00000" pt_clust_6="13000.00000" pt_clust_7="13000.00000" pt_clust_8="13000.00000" pt_clust_9="60.57796"></scales>
<clustering>
<clus scale="   60.578">  2  9  1 -1</clus>
<clus scale="   91.719">  5  6 -1 -1</clus>
<clus scale="   92.732">  7  8 -1 -1</clus>
<clus scale="  166.689">  1  5  2 -1</clus>
<clus scale="   60.578">  2  5  1 -1</clus>
</clustering>
</event>
<event>
 9    1  0.1296032E-005  0.1191627E+03  0.7546771E-02  0.1244574E+00
          1   -1    0    0  502    0  0.00000000000E+00  0.00000000000E+00  0.25335884111E+03  0.25335884111E+03  0.00000000000E+00 0. -1.
         -1   -1    0    0    0  501 -0.00000000000E+00 -0.00000000000E+00 -0.76043816993E+02  0.76043816993E+02  0.00000000000E+00 0.  1.
         23    2    1    2    0    0  0.20267927735E+02  0.63004214704E+02  0.49887961812E+02  0.12293596648E+03  0.90797153897E+02 0.  0.
         23    2    1    2    0    0 -0.24240387620E+02 -0.88470288599E+02  0.77769560696E+02  0.15051877992E+03  0.90516353121E+02 0.  0.
        -13    1    4    4    0    0  0.86655880993E+01 -0.94735456036E+02  0.61505237961E+02  0.11328191976E+03  0.00000000000E+00 0.  1.
         13    1    4    4    0    0 -0.32905975719E+02  0.62651674367E+01  0.16264322735E+02  0.37236860167E+02  0.00000000000E+00 0. -1.
        -13    1    3    3    0    0  0.26327149625E+02 -0.90228694687E+01 -0.94781874219E+01  0.29400119347E+02  0.00000000000E+00 0.  1.
         13    1    3    3    0    0 -0.60592218892E+01  0.72027084172E+02  0.59366149234E+02  0.93535847134E+02  0.00000000000E+00 0. -1.
         21    1    1    2  502  501  0.39724598846E+01  0.25466073896E+02  0.49657501605E+02  0.55947911693E+02  0.00000000000E+00 0. -1.
<scales pt_clust_5="13000.00000" pt_clust_6="13000.00000" pt_clust_7="13000.00000" pt_clust_8="13000.00000" pt_clust_9="25.77404"></scales>
<clustering>
<clus scale="   25.774">  1  9  2 -1</clus>
<clus scale="   90.516">  5  6 -1 -1</clus>
<clus scale="   90.797">  7  8 -1 -1</clus>
<clus scale="  118.949">  1  5  2 -1</clus>
<clus scale="   25.774">  1  5  2 -1</clus>
</clustering>
</event>
<event>
 9    1  0.1296032E-005  0.9322869E+02  0.7546771E-02  0.1295306E+00
         -2   -1    0    0    0  501 -0.00000000000E+00  0.00000000000E+00  0.25954302234E+02  0.25954302234E+02  0.00000000000E+00 0.  1.
          2   -1    0    0  502    0  0.00000000000E+00 -0.00000000000E+00 -0.52787047405E+03  0.52787047405E+03  0.00000000000E+00 0. -1.
         23    2    1    2    0    0  0.14995700227E+02  0.57579155027E+01 -0.10824131047E+03  0.14337063903E+03  0.92633332155E+02 0.  0.
         23    2    1    2    0    0  0.33324433790E+00  0.98303198114E+01 -0.29185871376E+03  0.30631722003E+03  0.92476939000E+02 0.  0.
        -11    1    3    3    0    0  0.51348274406E+02 -0.10857759983E+02 -0.74102502163E+02  0.90805930770E+02  0.00000000000E+00 0.  1.
         11    1    3    3    0    0 -0.36352574179E+02  0.16615675486E+02 -0.34138808309E+02  0.52564708256E+02  0.00000000000E+00 0. -1.
        -13    1    4    4    0    0  0.39976421063E+02 -0.83904791790E+01 -0.20597901935E+03  0.20999016833E+03  0.00000000000E+00 0.  1.
         13    1    4    4    0    0 -0.39643176726E+02  0.18220798990E+02 -0.85879694410E+02  0.96327051697E+02  0.00000000000E+00 0. -1.
         21    1    1    2  502  501 -0.15328944565E+02 -0.15588235314E+02 -0.10181614758E+03  0.10413691723E+03  0.00000000000E+00 0.  1.
<scales pt_clust_5="13000.00000" pt_clust_6="13000.00000" pt_clust_7="13000.00000" pt_clust_8="13000.00000" pt_clust_9="21.86252"></scales>
<clustering>
<clus scale="   21.863">  2  9  1 -1</clus>
<clus scale="   92.477">  7  8 -1 -1</clus>
<clus scale="   92.633">  5  6 -1 -1</clus>
<clus scale="   93.073">  2  7  1 -1</clus>
<clus scale="   21.863">  2  5  1 -1</clus>
</clustering>
</event>
<event>
 9    1  0.1296032E-005  0.1006551E+03  0.7546771E-02  0.1279336E+00
         -2   -1    0    0    0  501 -0.00000000000E+00  0.00000000000E+00  0.14248080277E+03  0.14248080277E+03  0.00000000000E+00 0.  1.
          2   -1    0    0  502    0  0.00000000000E+00 -0.00000000000E+00 -0.20529658880E+03  0.20529658880E+03  0.00000000000E+00 0. -1.
         23    2    1    2    0    0 -0.41581264857E+02 -0.29267897730E+01  0.91946787500E+02  0.13582377312E+03  0.90864283009E+02 0.  0.
         23    2    1    2    0    0  0.56247104981E+02 -0.21212223658E+02 -0.14722120899E+03  0.18271920355E+03  0.89991820274E+02 0.  0.
        -11    1    4    4    0    0  0.30038381848E+02 -0.38197592917E+02 -0.14321174875E+03  0.15123149629E+03  0.00000000000E+00 0. -1.
         11    1    4    4    0    0  0.26208723133E+02  0.16985369259E+02 -0.40094602428E+01  0.31487707261E+02  0.00000000000E+00 0.  1.
        -13    1    3    3    0    0 -0.19488593191E+02  0.28333087736E+02  0.91275995125E+02  0.97539101961E+02  0.00000000000E+00 0.  1.
         13    1    3    3    0    0 -0.22092671665E+02 -0.31259877509E+02  0.67079237511E+00  0.38284671157E+02  0.00000000000E+00 0. -1.
         21    1    1    2  502  501 -0.14665840125E+02  0.24139013431E+02 -0.75413645303E+01  0.29234414907E+02  0.00000000000E+00 0.  1.
<scales pt_clust_5="13000.00000" pt_clust_6="13000.00000" pt_clust_7="13000.00000" pt_clust_8="13000.00000" pt_clust_9="28.24498"></scales>
<clustering>
<clus scale="   28.245">  2  9  1 -1</clus>
<clus scale="   89.992">  5  6 -1 -1</clus>
<clus scale="   90.864">  7  8 -1 -1</clus>
<clus scale="   99.868">  2  5  1 -1</clus>
<clus scale="   28.245">  2  5  1 -1</clus>
</clustering>
</event>
<event>
 9    1  0.1296032E-005  0.1091041E+03  0.7546771E-02  0.1266640E+00
          4   -1    0    0  502    0  0.00000000000E+00  0.00000000000E+00  0.12930770465E+03  0.12930770465E+03  0.00000000000E+00 0. -1.
         -4   -1    0    0    0  501 -0.00000000000E+00 -0.00000000000E+00 -0.13250664230E+03  0.13250664230E+03  0.00000000000E+00 0.  1.
         23    2    1    2    0    0  0.64380795184E+02 -0.30613824026E+01 -0.23787806609E+02  0.11390185016E+03  0.90848846315E+02 0.  0.
         23    2    1    2    0    0 -0.27964795343E+02  0.11348915513E+02  0.30215542542E+02  0.10934462034E+03  0.10066001850E+03 0.  0.
        -13    1    4    4    0    0 -0.60784800969E+02 -0.13960175696E+02  0.97601362130E+01  0.63126371614E+02  0.00000000000E+00 0. -1.
         13    1    4    4    0    0  0.32820005625E+02  0.25309091209E+02  0.20455406329E+02  0.46218248725E+02  0.00000000000E+00 0.  1.
        -13    1    3    3    0    0  0.50884457293E+02 -0.30785562501E+02 -0.46592608508E+02  0.75550314494E+02  0.00000000000E+00 0.  1.
         13    1    3    3    0    0  0.13496337892E+02  0.27724180099E+02  0.22804801899E+02  0.38351535671E+02  0.00000000000E+00 0. -1.
         21    1    1    2  502  501 -0.36415999841E+02 -0.82875331107E+01 -0.96266735811E+01  0.38567876448E+02  0.00000000000E+00 0. -1.
<scales pt_clust_5="13000.00000" pt_clust_6="13000.00000" pt_clust_7="13000.00000" pt_clust_8="13000.00000" pt_clust_9="37.34713"></scales>
<clustering>
<clus scale="   37.347">  2  9  1 -1</clus>
<clus scale="   90.849">  7  8 -1 -1</clus>
<clus scale="  100.124">  2  7  1 -1</clus>
<clus scale="  100.660">  5  6 -1 -1</clus>
<clus scale="  109.104">  1  5  2 -1</clus>
</clustering>
</event>
<event>
 9    1  0.1296032E-005  0.9787825E+02  0.7546771E-02  0.1289896E+00
         -2   -1    0    0    0  501 -0.00000000000E+00  0.00000000000E+00  0.62786127052E+02  0.62786127052E+02  0.00000000000E+00 0.  1.
          2   -1    0    0  502    0  0.00000000000E+00 -0.00000000000E+00 -0.22906270225E+03  0.22906270225E+03  0.00000000000E+00 0. -1.
         23    2    1    2    0    0  0.61147278773E+01  0.70465674990E+01 -0.21611840038E+02  0.10064980703E+03  0.97858407990E+02 0.  0.
         23    2    1    2    0    0  0.15841114862E+02  0.12693733612E+02 -0.85308977633E+02  0.12490539913E+03  0.88947542256E+02 0.  0.
        -13    1    4    4    0    0 -0.12050233968E+02  0.34057640161E+02 -0.82013716691E+02  0.89617970951E+02  0.00000000000E+00 0. -1.
         13    1    4    4    0    0  0.27891348830E+02 -0.21363906549E+02 -0.32952609421E+01  0.35287428176E+02  0.00000000000E+00 0.  1.
        -13    1    3    3    0    0  0.16053414839E+02  0.45636425902E+02  0.10462365305E+02  0.49496025950E+02  0.00000000000E+00 0.  1.
         13    1    3    3    0    0 -0.99386869616E+01 -0.38589858403E+02 -0.32074205342E+02  0.51153781077E+02  0.00000000000E+00 0. -1.
         21    1    1    2  502  501 -0.21955842739E+02 -0.19740301111E+02 -0.59355757523E+02  0.66293623144E+02  0.00000000000E+00 0. -1.
<scales pt_clust_5="13000.00000" pt_clust_6="13000.00000" pt_clust_7="13000.00000" pt_clust_8="13000.00000" pt_clust_9="29.52522"></scales>
<clustering>
<clus scale="   29.525">  2  9  1 -1</clus>
<clus scale="   88.948">  5  6 -1 -1</clus>
<clus scale="   88.969">  2  5  1 -1</clus>
<clus scale="   97.858">  7  8 -1 -1</clus>
<clus scale="   29.525">  2  5  1 -1</clus>
</clustering>
</event>
<event>
 9    1  0.1296032E-005  0.9855603E+02  0.7546771E-02  0.1283486E+00
         -2   -1    0    0    0  501 -0.00000000000E+00  0.00000000000E+00  0.19803822922E+03  0.19803822922E+03  0.00000000000E+00 0.  1.
          2   -1    0    0  502    0  0.00000000000E+00 -0.00000000000E+00 -0.10463603550E+03  0.10463603550E+03  0.00000000000E+00 0. -1.
         23    2    1    2    0    0 -0.47754891147E+02 -0.96101552760E+01  0.10857462441E+03  0.15055018692E+03  0.92217270634E+02 0.  0.
         23    2    1    2    0    0  0.73413858312E+01  0.13558131974E+02  0.23370917434E+02  0.96138118700E+02  0.91970751856E+02 0.  0.
        -11    1    4    4    0    0 -0.25715608267E+02 -0.23161506157E+02  0.30610149911E+02  0.46203129262E+02  0.00000000000E+00 0.  1.
         11    1    4    4    0    0  0.33056994098E+02  0.36719638131E+02 -0.72392324775E+01  0.49934989438E+02  0.00000000000E+00 0. -1.
        -11    1    3    3    0    0 -0.24974131461E+02  0.37836573091E+02  0.24967867611E+02  0.51756235552E+02  0.00000000000E+00 0.  1.
         11    1    3    3    0    0 -0.22780759686E+02 -0.47446728367E+02  0.83606756798E+02  0.98793951368E+02  0.00000000000E+00 0. -1.
         21    1    1    2  502  501  0.40413505316E+02 -0.39479766984E+01 -0.38543348116E+02  0.55985959096E+02  0.00000000000E+00 0. -1.
<scales pt_clust_5="13000.00000" pt_clust_6="13000.00000" pt_clust_7="13000.00000" pt_clust_8="13000.00000" pt_clust_9="40.60589"></scales>
<clustering>
<clus scale="   40.606">  2  9  1 -1</clus>
<clus scale="   91.971">  5  6 -1 -1</clus>
<clus scale="   92.217">  7  8 -1 -1</clus>
<clus scale="   98.325">  2  5  1 -1</clus>
<clus scale="   40.606">  2  5  1 -1</clus>
</clustering>
</event>
<event>
 9    1  0.1296032E-005  0.1349879E+03  0.7546771E-02  0.1222313E+00
          1   -1    0    0  502    0  0.00000000000E+00  0.00000000000E+00  0.26745950932E+03  0.26745950932E+03  0.00000000000E+00 0. -1.
         -1   -1    0    0    0  501 -0.00000000000E+00 -0.00000000000E+00 -0.99434158962E+02  0.99434158962E+02  0.00000000000E+00 0.  1.
         23    2    1    2    0    0 -0.71767395315E+02 -0.48511552917E+02  0.32338207741E+02  0.13550275533E+03  0.99052043019E+02 0.  0.
         23    2    1    2    0    0  0.54099297540E+02  0.88849914800E+02  0.77747998776E+02  0.15861530229E+03  0.91066027977E+02 0.  0.
        -13    1    4    4    0    0  0.51655546907E+02  0.13543813137E+02  0.45942357018E+01  0.53598856352E+02  0.00000000000E+00 0.  1.
         13    1    4    4    0    0  0.24437506334E+01  0.75306101663E+02  0.73153763074E+02  0.10501644593E+03  0.00000000000E+00 0. -1.
        -13    1    3    3    0    0 -0.31901091178E+02  0.86625038666E+01  0.53299746611E+02  0.62718271504E+02  0.00000000000E+00 0. -1.
         13    1    3    3    0    0 -0.39866304137E+02 -0.57174056784E+02 -0.20961538869E+02  0.72784483830E+02  0.00000000000E+00 0.  1.
         21    1    1    2  502  501  0.17668097775E+02 -0.40338361882E+02  0.57939143843E+02  0.72775610664E+02  0.00000000000E+00 0. -1.
<scales pt_clust_5="13000.00000" pt_clust_6="13000.00000" pt_clust_7="13000.00000" pt_clust_8="13000.00000" pt_clust_9="44.03800"></scales>
<clustering>
<clus scale="   44.038">  1  9  2 -1</clus>
<clus scale="   91.066">  5  6 -1 -1</clus>
<clus scale="   99.052">  7  8 -1 -1</clus>
<clus scale="  129.242">  1  5  2 -1</clus>
<clus scale="   44.038">  1  5  2 -1</clus>
</clustering>
</event>
<event>
 9    1  0.1296032E-005  0.1263133E+03  0.7546771E-02  0.1234677E+00
         -3   -1    0    0    0  501 -0.00000000000E+00  0.00000000000E+00  0.22134366355E+03  0.22134366355E+03  0.00000000000E+00 0.  1.
          3   -1    0    0  502    0  0.00000000000E+00 -0.00000000000E+00 -0.12443371398E+03  0.12443371398E+03  0.00000000000E+00 0. -1.
         23    2    1    2    0    0  0.46511968271E+02 -0.74490172201E+02  0.12601327955E+03  0.17855896070E+03  0.91059359088E+02 0.  0.
         23    2    1    2    0    0 -0.27399228449E+02  0.84401919753E+02  0.91530378730E+01  0.12331979220E+03  0.85144531639E+02 0.  0.
        -13    1    4    4    0    0  0.18062753667E+01  0.92101249010E+02  0.13672962631E+01  0.92129106144E+02  0.00000000000E+00 0. -1.
         13    1    4    4    0    0 -0.29205503816E+02 -0.76993292566E+01  0.77857416099E+01  0.31190686055E+02  0.00000000000E+00 0.  1.
        -13    1    3    3    0    0  0.37354272143E+02  0.19499984998E+01  0.81392044139E+02  0.89575716523E+02  0.00000000000E+00 0. -1.
         13    1    3    3    0    0  0.91576961288E+01 -0.76440170701E+02  0.44621235408E+02  0.88983244179E+02  0.00000000000E+00 0.  1.
         21    1    1    2  502  501 -0.19112739822E+02 -0.99117475522E+01 -0.38256367857E+02  0.43898624633E+02  0.00000000000E+00 0. -1.
<scales pt_clust_5="13000.00000" pt_clust_6="13000.00000" pt_clust_7="13000.00000" pt_clust_8="13000.00000" pt_clust_9="21.52997"></scales>
<clustering>
<clus scale="   21.530">  2  9  1 -1</clus>
<clus scale="   85.145">  5  6 -1 -1</clus>
<clus scale="   91.059">  7  8 -1 -1</clus>
<clus scale="  122.118">  2  5  1 -1</clus>
<clus scale="   21.530">  2  5  1 -1</clus>
</clustering>
</event>
<event>
 9    1  0.1296032E-005  0.9247485E+02  0.7546771E-02  0.1298682E+00
          1   -1    0    0  502    0  0.00000000000E+00  0.00000000000E+00  0.53374546774E+03  0.53374546774E+03  0.00000000000E+00 0. -1.
         -1   -1    0    0    0  501 -0.00000000000E+00 -0.00000000000E+00 -0.37000666576E+02  0.37000666576E+02  0.00000000000E+00 0.  1.
         23    2    1    2    0    0  0.28593027394E+02  0.17116915535E+02  0.88129783514E+02  0.12911103899E+03  0.88273731283E+02 0.  0.
         23    2    1    2    0    0  0.38368194440E+01  0.11945683090E+02  0.12804194893E+03  0.15770275039E+03  0.91203049666E+02 0.  0.
        -13    1    4    4    0    0 -0.23492211298E+02  0.28100873743E+02  0.13814465231E+02  0.39145658079E+02  0.00000000000E+00 0.  1.
         13    1    4    4    0    0  0.27329030742E+02 -0.16155190652E+02  0.11422748370E+03  0.11855709231E+03  0.00000000000E+00 0. -1.
        -13    1    3    3    0    0 -0.10416635303E+02  0.33160463620E+02  0.78492646534E+02  0.85844150636E+02  0.00000000000E+00 0.  1.
         13    1    3    3    0    0  0.39009662697E+02 -0.16043548085E+02  0.96371369792E+01  0.43266888356E+02  0.00000000000E+00 0. -1.
         21    1    1    2  502  501 -0.32429846838E+02 -0.29062598625E+02  0.28057306872E+03  0.28393234493E+03  0.00000000000E+00 0.  1.
<scales pt_clust_5="13000.00000" pt_clust_6="13000.00000" pt_clust_7="13000.00000" pt_clust_8="13000.00000" pt_clust_9="43.54687"></scales>
<clustering>
<clus scale="   43.547">  1  9  2 -1</clus>
<clus scale="   88.274">  7  8 -1 -1</clus>
<clus scale="   89.587">  2  7  1 -1</clus>
<clus scale="   91.203">  5  6 -1 -1</clus>
<clus scale="   43.547">  1  5  2 -1</clus>
</clustering>
</event>
<event>
 9    1  0.1296032E-005  0.1006283E+03  0.7546771E-02  0.1281967E+00
          2   -1    0    0  502    0  0.00000000000E+00  0.00000000000E+00  0.35131735375E+03  0.35131735375E+03  0.00000000000E+00 0. -1.
         -2   -1    0    0    0  501 -0.00000000000E+00 -0.00000000000E+00 -0.14081852174E+03  0.14081852174E+03  0.00000000000E+00 0.  1.
         23    2    1    2    0    0  0.17805980159E+02 -0.37650539933E+02 -0.10764295025E+03  0.14465704224E+03  0.87201141301E+02 0.  0.
         23    2    1    2    0    0  0.40674896028E+01 -0.19435910850E+01  0.19230461911E+03  0.21375847011E+03  0.93227115128E+02 0.  0.
        -13    1    4    4    0    0 -0.21754532827E+02  0.37096782095E+02  0.63317241641E+02  0.76540865094E+02  0.00000000000E+00 0. -1.
         13    1    4    4    0    0  0.25822022429E+02 -0.39040373180E+02  0.12898737747E+03  0.13721760502E+03  0.00000000000E+00 0.  1.
        -13    1    3    3    0    0  0.12556885008E+02  0.21305395303E+02 -0.70662592176E+02  0.74865193269E+02  0.00000000000E+00 0.  1.
         13    1    3    3    0    0  0.52490951515E+01 -0.58955935236E+02 -0.36980358074E+02  0.69791848970E+02  0.00000000000E+00 0. -1.
         21    1    1    2  502  501 -0.21873469762E+02  0.39594131018E+02  0.12583716315E+03  0.13372036315E+03  0.00000000000E+00 0. -1.
<scales pt_clust_5="13000.00000" pt_clust_6="13000.00000" pt_clust_7="13000.00000" pt_clust_8="13000.00000" pt_clust_9="45.23432"></scales>
<clustering>
<clus scale="   45.234">  1  9  2 -1</clus>
<clus scale="   87.201">  7  8 -1 -1</clus>
<clus scale="   93.227">  5  6 -1 -1</clus>
<clus scale="   95.073">  2  7  1 -1</clus>
<clus scale="   45.234">  1  5  2 -1</clus>
</clustering>
</event>
<event>
 9    1  0.1296032E-005  0.9629286E+02  0.7546771E-02  0.1289055E+00
          3   -1    0    0  502    0  0.00000000000E+00  0.00000000000E+00  0.15911805260E+03  0.15911805260E+03  0.00000000000E+00 0. -1.
         -3   -1    0    0    0  501 -0.00000000000E+00 -0.00000000000E+00 -0.85076584083E+02  0.85076584083E+02  0.00000000000E+00 0.  1.
         23    2    1    2    0    0  0.14111199300E+02 -0.19640192391E+02 -0.48425311791E+01  0.95676783266E+02  0.92443137360E+02 0.  0.
         23    2    1    2    0    0 -0.36813883197E+02  0.74027969167E+01  0.52321925115E+02  0.11149475913E+03  0.91013373020E+02 0.  0.
        -11    1    3    3    0    0  0.33566618313E+02 -0.32014879280E+02 -0.34717018134E+02  0.57939120707E+02  0.00000000000E+00 0.  1.
         11    1    3    3    0    0 -0.19455419013E+02  0.12374686889E+02  0.29874486954E+02  0.37737662558E+02  0.00000000000E+00 0. -1.
        -13    1    4    4    0    0 -0.11897208694E+02 -0.40696873020E+02  0.33872103614E+02  0.54268761286E+02  0.00000000000E+00 0.  1.
         13    1    4    4    0    0 -0.24916674503E+02  0.48099669937E+02  0.18449821501E+02  0.57225997848E+02  0.00000000000E+00 0. -1.
         21    1    1    2  502  501  0.22702683897E+02  0.12237395474E+02  0.26562074579E+02  0.37023094280E+02  0.00000000000E+00 0. -1.
<scales pt_clust_5="13000.00000" pt_clust_6="13000.00000" pt_clust_7="13000.00000" pt_clust_8="13000.00000" pt_clust_9="25.79081"></scales>
<clustering>
<clus scale="   25.791">  1  9  2 -1</clus>
<clus scale="   91.013">  7  8 -1 -1</clus>
<clus scale="   92.443">  5  6 -1 -1</clus>
<clus scale="   94.921">  1  7  2 -1</clus>
<clus scale="   25.791">  1  5  2 -1</clus>
</clustering>
</event>
<event>
 9    1  0.1296032E-005  0.1909735E+03  0.7546771E-02  0.1158667E+00
          3   -1    0    0  502    0  0.00000000000E+00  0.00000000000E+00  0.22952130699E+03  0.22952130699E+03  0.00000000000E+00 0. -1.
         -3   -1    0    0    0  501 -0.00000000000E+00 -0.00000000000E+00 -0.69585364494E+03  0.69585364494E+03  0.00000000000E+00 0.  1.
         23    2    1    2    0    0  0.13970428157E+03 -0.10263322974E+03 -0.62641446503E+03  0.65641610024E+03  0.91848508531E+02 0.  0.
         23    2    1    2    0    0 -0.67027913342E+02  0.96831776936E+02  0.10481947025E+03  0.17747403002E+03  0.81490955309E+02 0.  0.
        -11    1    4    4    0    0 -0.65874374644E+02  0.23606670039E+02  0.50732734899E+02  0.86432161233E+02  0.00000000000E+00 0. -1.
         11    1    4    4    0    0 -0.11535386978E+01  0.73225106898E+02  0.54086735346E+02  0.91041868786E+02  0.00000000000E+00 0.  1.
        -13    1    3    3    0    0  0.12066208668E+03 -0.57578881127E+02 -0.54737340538E+03  0.56346456112E+03  0.00000000000E+00 0.  1.
         13    1    3    3    0    0  0.19042194899E+02 -0.45054348614E+02 -0.79041059646E+02  0.92951539125E+02  0.00000000000E+00 0. -1.
         21    1    1    2  502  501 -0.72676368233E+02  0.58014528050E+01  0.55262656840E+02  0.91484821665E+02  0.00000000000E+00 0. -1.
<scales pt_clust_5="13000.00000" pt_clust_6="13000.00000" pt_clust_7="13000.00000" pt_clust_8="13000.00000" pt_clust_9="72.90755"></scales>
<clustering>
<clus scale="   72.908">  1  9  2 -1</clus>
<clus scale="   81.491">  5  6 -1 -1</clus>
<clus scale="   91.849">  7  8 -1 -1</clus>
<clus scale="  186.214">  1  5  2 -1</clus>
<clus scale="   72.908">  1  5  2 -1</clus>
</clustering>
</event>
<event>
 9    1  0.1296032E-005  0.3631244E+03  0.7546771E-02  0.1057651E+00
         -2   -1    0    0    0  501 -0.00000000000E+00  0.00000000000E+00  0.24105461906E+03  0.24105461906E+03  0.00000000000E+00 0.  1.
          2   -1    0    0  502    0  0.00000000000E+00 -0.00000000000E+00 -0.91558030913E+03  0.91558030913E+03  0.00000000000E+00 0. -1.
         23    2    1    2    0    0  0.78042296734E+02 -0.36133912452E+03 -0.45417036890E+02  0.38346738785E+03  0.91257697280E+02 0.  0.
         23    2    1    2    0    0 -0.14653947522E+03  0.27559853492E+03 -0.38907052795E+03  0.50923267390E+03  0.10253618966E+03 0.  0.
        -11    1    4    4    0    0 -0.12679216317E+03  0.13690893767E+03 -0.24866684676E+03  0.31089469364E+03  0.00000000000E+00 0. -1.
         11    1    4    4    0    0 -0.19747312051E+02  0.13868959725E+03 -0.14040368120E+03  0.19833798026E+03  0.00000000000E+00 0.  1.
        -13    1    3    3    0    0  0.78985006866E+02 -0.29475403800E+03 -0.42591728273E+01  0.30518308403E+03  0.00000000000E+00 0.  1.
         13    1    3    3    0    0 -0.94271013194E+00 -0.66585086526E+02 -0.41157864063E+02  0.78284303818E+02  0.00000000000E+00 0. -1.
         21    1    1    2  502  501  0.68497178490E+02  0.85740589600E+02 -0.24003812522E+03  0.26393486645E+03  0.00000000000E+00 0. -1.
<scales pt_clust_5="13000.00000" pt_clust_6="13000.00000" pt_clust_7="13000.00000" pt_clust_8="13000.00000" pt_clust_9="109.74203"></scales>
<clustering>
<clus scale="   91.258">  7  8 -1 -1</clus>
<clus scale="  102.536">  5  6 -1 -1</clus>
<clus scale="  109.742">  2  9  1 -1</clus>
<clus scale="  360.102">  1  7  2 -1</clus>
<clus scale="  109.742">  2  5  1 -1</clus>
</clustering>
</event>
<event>
 9    1  0.1296032E-005  0.9308055E+02  0.7546771E-02  0.1296965E+00
          2   -1    0    0  502    0  0.00000000000E+00  0.00000000000E+00  0.10873682044E+03  0.10873682044E+03  0.00000000000E+00 0. -1.
         -2   -1    0    0    0  501 -0.00000000000E+00 -0.00000000000E+00 -0.97672703580E+02  0.97672703580E+02  0.00000000000E+00 0.  1.
         23    2    1    2    0    0 -0.10014551752E+01  0.32478643688E+00 -0.39308973840E+01  0.90374081985E+02  0.90282414355E+02 0.  0.
         23    2    1    2    0    0 -0.48323177554E+01  0.19077792206E+02  0.11100363359E+02  0.95403881983E+02  0.92689639013E+02 0.  0.
        -11    1    4    4    0    0 -0.25287094138E+02  0.53092924194E+01 -0.34774127117E+02  0.43322807304E+02  0.00000000000E+00 0.  1.
         11    1    4    4    0    0  0.20454776383E+02  0.13768499787E+02  0.45874490476E+02  0.52081074679E+02  0.00000000000E+00 0. -1.
        -11    1    3    3    0    0  0.15794834054E+02  0.36331562999E+02  0.19597285482E+02  0.44198561639E+02  0.00000000000E+00 0. -1.
         11    1    3    3    0    0 -0.16796289229E+02 -0.36006776562E+02 -0.23528182866E+02  0.46175520346E+02  0.00000000000E+00 0.  1.
         21    1    1    2  502  501  0.58337729307E+01 -0.19402578643E+02  0.38946508845E+01  0.20631560051E+02  0.00000000000E+00 0.  1.
<scales pt_clust_5="13000.00000" pt_clust_6="13000.00000" pt_clust_7="13000.00000" pt_clust_8="13000.00000" pt_clust_9="20.26063"></scales>
<clustering>
<clus scale="   20.261">  1  9  2 -1</clus>
<clus scale="   90.282">  7  8 -1 -1</clus>
<clus scale="   90.684">  2  7  1 -1</clus>
<clus scale="   92.690">  5  6 -1 -1</clus>
<clus scale="   20.261">  1  5  2 -1</clus>
</clustering>
</event>
<event>
 9    1  0.1296032E-005  0.1174215E+03  0.7546771E-02  0.1249363E+00
         -1   -1    0    0    0  501 -0.00000000000E+00  0.00000000000E+00  0.68124460926E+02  0.68124460926E+02  0.00000000000E+00 0.  1.
          1   -1    0    0  502    0  0.00000000000E+00 -0.00000000000E+00 -0.41048654351E+03  0.41048654351E+03  0.00000000000E+00 0. -1.
         23    2    1    2    0    0  0.16213440781E+02  0.66755119946E+02 -0.40424956120E+02  0.11606578011E+03  0.84368042142E+02 0.  0.
         23    2    1    2    0    0 -0.57308236562E+02 -0.72219706056E+02 -0.12094987607E+03  0.17687070063E+03  0.90302006074E+02 0.  0.
        -11    1    4    4    0    0 -0.25204813665E+02 -0.86667622929E+02 -0.10428767939E+03  0.13792200538E+03  0.00000000000E+00 0. -1.
         11    1    4    4    0    0 -0.32103422896E+02  0.14447916873E+02 -0.16662196678E+02  0.38948695251E+02  0.00000000000E+00 0.  1.
        -13    1    3    3    0    0 -0.62911580506E+01  0.20536028932E+02  0.24936229072E+02  0.32910829133E+02  0.00000000000E+00 0.  1.
         13    1    3    3    0    0  0.22504598831E+02  0.46219091014E+02 -0.65361185192E+02  0.83154950980E+02  0.00000000000E+00 0. -1.
         21    1    1    2  502  501  0.41094795781E+02  0.54645861096E+01 -0.18098725039E+03  0.18567452369E+03  0.00000000000E+00 0. -1.
<scales pt_clust_5="13000.00000" pt_clust_6="13000.00000" pt_clust_7="13000.00000" pt_clust_8="13000.00000" pt_clust_9="41.45653"></scales>
<clustering>
<clus scale="   41.457">  2  9  1 -1</clus>
<clus scale="   84.368">  7  8 -1 -1</clus>
<clus scale="   90.302">  5  6 -1 -1</clus>
<clus scale="  112.922">  1  7  2 -1</clus>
<clus scale="   41.457">  2  5  1 -1</clus>
</clustering>
</event>
<event>
 9    1  0.1296032E-005  0.1527356E+03  0.7546771E-02  0.1197264E+00
         -2   -1    0    0    0  501 -0.00000000000E+00  0.00000000000E+00  0.69483491822E+02  0.69483491822E+02  0.00000000000E+00 0.  1.
          2   -1    0    0  502    0  0.00000000000E+00 -0.00000000000E+00 -0.58130551404E+03  0.58130551404E+03  0.00000000000E+00 0. -1.
         23    2    1    2    0    0 -0.79166307824E+02  0.10126901424E+03 -0.70445844397E+02  0.17205589881E+03  0.90099377253E+02 0.  0.
         23    2    1    2    0    0  0.37428445209E+02 -0.10278278844E+03 -0.36483746188E+03  0.39154070071E+03  0.90733437085E+02 0.  0.
        -11    1    3    3    0    0 -0.47221208816E+02  0.11286699427E+03 -0.48550516971E+02  0.13162808840E+03  0.00000000000E+00 0.  1.
         11    1    3    3    0    0 -0.31945099009E+02 -0.11597980027E+02 -0.21895327425E+02  0.40427810409E+02  0.00000000000E+00 0. -1.
        -13    1    4    4    0    0  0.56667505853E+02 -0.60497615458E+02 -0.30337956587E+03  0.31450012509E+03  0.00000000000E+00 0. -1.
         13    1    4    4    0    0 -0.19239060644E+02 -0.42285172979E+02 -0.61457896013E+02  0.77040575612E+02  0.00000000000E+00 0.  1.
         21    1    1    2  502  501  0.41737862615E+02  0.15137741970E+01 -0.76538715942E+02  0.87192406355E+02  0.00000000000E+00 0. -1.
<scales pt_clust_5="13000.00000" pt_clust_6="13000.00000" pt_clust_7="13000.00000" pt_clust_8="13000.00000" pt_clust_9="41.76530"></scales>
<clustering>
<clus scale="   41.765">  2  9  1 -1</clus>
<clus scale="   90.099">  5  6 -1 -1</clus>
<clus scale="   90.733">  7  8 -1 -1</clus>
<clus scale="  152.360">  1  5  2 -1</clus>
<clus scale="   41.765">  2  5  1 -1</clus>
</clustering>
</event>
<event>
 9    1  0.1296032E-005  0.1062175E+03  0.7546771E-02  0.1270003E+00
         -1   -1    0    0    0  501 -0.00000000000E+00  0.00000000000E+00  0.72234972080E+02  0.72234972080E+02  0.00000000000E+00 0.  1.
          1   -1    0    0  502    0  0.00000000000E+00 -0.00000000000E+00 -0.27351602440E+03  0.27351602440E+03  0.00000000000E+00 0. -1.
         23    2    1    2    0    0 -0.28985506435E+02  0.42261148100E+02  0.23123060732E+01  0.10223125814E+03  0.88429175946E+02 0.  0.
         23    2    1    2    0    0  0.43939944340E+02 -0.25685457739E+02 -0.18859877416E+03  0.21662687163E+03  0.93633554069E+02 0.  0.
        -11    1    4    4    0    0  0.70779118549E+02 -0.14003955512E+02 -0.16086045018E+03  0.17630053552E+03  0.00000000000E+00 0.  1.
         11    1    4    4    0    0 -0.26839174208E+02 -0.11681502227E+02 -0.27738323979E+02  0.40326336105E+02  0.00000000000E+00 0. -1.
        -11    1    3    3    0    0 -0.38998020707E+02 -0.13676545165E+02  0.15072606668E+02  0.43989509869E+02  0.00000000000E+00 0. -1.
         11    1    3    3    0    0  0.10012514272E+02  0.55937693266E+02 -0.12760300595E+02  0.58241748267E+02  0.00000000000E+00 0.  1.
         21    1    1    2  502  501 -0.14954437905E+02 -0.16575690361E+02 -0.14994584233E+02  0.26892866718E+02  0.00000000000E+00 0. -1.
<scales pt_clust_5="13000.00000" pt_clust_6="13000.00000" pt_clust_7="13000.00000" pt_clust_8="13000.00000" pt_clust_9="22.32462"></scales>
<clustering>
<clus scale="   22.325">  1  9  2 -1</clus>
<clus scale="   88.429">  7  8 -1 -1</clus>
<clus scale="   93.634">  5  6 -1 -1</clus>
<clus scale="  101.659">  1  7  2 -1</clus>
<clus scale="  106.218">  2  5  1 -1</clus>
</clustering>
</event>
<event>
 9    1  0.1296032E-005  0.1253943E+03  0.7546771E-02  0.1234887E+00
         -1   -1    0    0    0  501 -0.00000000000E+00  0.00000000000E+00  0.98302931881E+02  0.98302931881E+02  0.00000000000E+00 0.  1.
          1   -1    0    0  502    0  0.00000000000E+00 -0.00000000000E+00 -0.32594131233E+03  0.32594131233E+03  0.00000000000E+00 0. -1.
         23    2    1    2    0    0 -0.51343406552E+02  0.79164895127E+02  0.20286238057E+02  0.13270011760E+03  0.91074495548E+02 0.  0.
         23    2    1    2    0    0  0.29843406028E+02 -0.48622725812E+02 -0.13957207888E+03  0.17693458525E+03  0.92577988225E+02 0.  0.
        -11    1    3    3    0    0 -0.25236067301E+02  0.95158239699E+02  0.52425857299E+01  0.98587191768E+02  0.00000000000E+00 0.  1.
         11    1    3    3    0    0 -0.26107339252E+02 -0.15993344573E+02  0.15043652327E+02  0.34112925831E+02  0.00000000000E+00 0. -1.
        -11    1    4    4    0    0 -0.41921835709E+01 -0.23693240735E+02  0.64739714818E+01  0.24916989513E+02  0.00000000000E+00 0.  1.
         11    1    4    4    0    0  0.34035589599E+02 -0.24929485077E+02 -0.14604605036E+03  0.15201759573E+03  0.00000000000E+00 0. -1.
         21    1    1    2  502  501  0.21500000524E+02 -0.30542169315E+02 -0.10835253962E+03  0.11460954136E+03  0.00000000000E+00 0.  1.
<scales pt_clust_5="13000.00000" pt_clust_6="13000.00000" pt_clust_7="13000.00000" pt_clust_8="13000.00000" pt_clust_9="37.35069"></scales>
<clustering>
<clus scale="   37.351">  2  9  1 -1</clus>
<clus scale="   91.074">  5  6 -1 -1</clus>
<clus scale="   92.578">  7  8 -1 -1</clus>
<clus scale="  124.288">  1  5  2 -1</clus>
<clus scale="   37.351">  2  5  1 -1</clus>
</clustering>
</event>
<event>
 9    1  0.1296032E-005  0.1589648E+03  0.7546771E-02  0.1190225E+00
          2   -1    0    0  502    0  0.00000000000E+00  0.00000000000E+00  0.11671738731E+03  0.11671738731E+03  0.00000000000E+00 0. -1.
         -2   -1    0    0    0  501 -0.00000000000E+00 -0.00000000000E+00 -0.27907075917E+03  0.27907075917E+03  0.00000000000E+00 0.  1.
         23    2    1    2    0    0 -0.68326837710E+02  0.12016797333E+03 -0.14079758667E+03  0.21758632125E+03  0.91711221862E+02 0.  0.
         23    2    1    2    0    0  0.44052150236E+02 -0.10216468273E+03 -0.10125386812E+02  0.14589032679E+03  0.93825634323E+02 0.  0.
        -11    1    3    3    0    0  0.42887466864E+01  0.38523757836E+02 -0.88156874030E+02  0.96302168744E+02  0.00000000000E+00 0.  1.
         11    1    3    3    0    0 -0.72615584396E+02  0.81644215499E+02 -0.52640712641E+02  0.12128415251E+03  0.00000000000E+00 0. -1.
        -13    1    4    4    0    0 -0.21765569878E+02 -0.60338836178E+02 -0.20221324573E+02  0.67256353982E+02  0.00000000000E+00 0. -1.
         13    1    4    4    0    0  0.65817720114E+02 -0.41825846549E+02  0.10095937761E+02  0.78633972810E+02  0.00000000000E+00 0.  1.
         21    1    1    2  502  501  0.24274687473E+02 -0.18003290608E+02 -0.11430398372E+02  0.32311498442E+02  0.00000000000E+00 0. -1.
<scales pt_clust_5="13000.00000" pt_clust_6="13000.00000" pt_clust_7="13000.00000" pt_clust_8="13000.00000" pt_clust_9="30.22216"></scales>
<clustering>
<clus scale="   30.222">  1  9  2 -1</clus>
<clus scale="   91.711">  5  6 -1 -1</clus>
<clus scale="   93.826">  7  8 -1 -1</clus>
<clus scale="  157.726">  2  5  1 -1</clus>
<clus scale="   30.222">  1  5  2 -1</clus>
</clustering>
</event>
<event>
 9    1  0.1296032E-005  0.9859016E+02  0.7546771E-02  0.1286357E+00
         -2   -1    0    0    0  501 -0.00000000000E+00  0.00000000000E+00  0.17909861163E+03  0.17909861163E+03  0.00000000000E+00 0.  1.
          2   -1    0    0  502    0  0.00000000000E+00 -0.00000000000E+00 -0.17697920654E+03  0.17697920654E+03  0.00000000000E+00 0. -1.
         23    2    1    2    0    0 -0.14562885385E+02  0.33264297285E+02  0.10515313403E+03  0.14252986913E+03  0.89101015108E+02 0.  0.
         23    2    1    2    0    0  0.28064678895E+02 -0.49733687512E+02  0.75204842783E+01  0.10096121225E+03  0.82918893024E+02 0.  0.
        -13    1    4    4    0    0  0.46461832244E+00  0.21775576798E+02 -0.71401308162E+01  0.22921018371E+02  0.00000000000E+00 0. -1.
         13    1    4    4    0    0  0.27600060573E+02 -0.71509264310E+02  0.14660615095E+02  0.78040193880E+02  0.00000000000E+00 0.  1.
        -13    1    3    3    0    0 -0.40866456141E+02 -0.94801160240E+01  0.27819910628E+02  0.50337732018E+02  0.00000000000E+00 0. -1.
         13    1    3    3    0    0  0.26303570756E+02  0.42744413309E+02  0.77333223398E+02  0.92192137109E+02  0.00000000000E+00 0.  1.
         21    1    1    2  502  501 -0.13501793510E+02  0.16469390227E+02 -0.11055421321E+03  0.11258673679E+03  0.00000000000E+00 0. -1.
<scales pt_clust_5="13000.00000" pt_clust_6="13000.00000" pt_clust_7="13000.00000" pt_clust_8="13000.00000" pt_clust_9="21.29646"></scales>
<clustering>
<clus scale="   21.296">  2  9  1 -1</clus>
<clus scale="   82.919">  5  6 -1 -1</clus>
<clus scale="   89.101">  7  8 -1 -1</clus>
<clus scale="   93.041">  2  5  1 -1</clus>
<clus scale="   21.296">  2  5  1 -1</clus>
</clustering>
</event>
<event>
 9    1  0.1296032E-005  0.1411423E+03  0.7546771E-02  0.1211939E+00
          1   -1    0    0  502    0  0.00000000000E+00  0.00000000000E+00  0.14914286294E+04  0.14914286294E+04  0.00000000000E+00 0. -1.
         -1   -1    0    0    0  501 -0.00000000000E+00 -0.00000000000E+00 -0.17509854536E+02  0.17509854536E+02  0.00000000000E+00 0.  1.
         23    2    1    2    0    0 -0.87441474736E+02 -0.79756714015E+02  0.59675297900E+03  0.61513426853E+03  0.90933522093E+02 0.  0.
         23    2    1    2    0    0  0.53154581366E+02  0.83643543296E+02  0.61965554948E+03  0.63399231134E+03  0.90286205973E+02 0.  0.
        -11    1    4    4    0    0  0.62981126230E+02  0.15253508189E+02  0.31587668511E+03  0.32245522475E+03  0.00000000000E+00 0. -1.
         11    1    4    4    0    0 -0.98265448638E+01  0.68390035107E+02  0.30377886437E+03  0.31153708660E+03  0.00000000000E+00 0.  1.
        -11    1    3    3    0    0 -0.26540148530E+02 -0.83048567899E+02  0.38664769199E+03  0.39635575161E+03  0.00000000000E+00 0. -1.
         11    1    3    3    0    0 -0.60901326206E+02  0.32918538842E+01  0.21010528700E+03  0.21877851691E+03  0.00000000000E+00 0.  1.
         21    1    1    2  502  501  0.34286893370E+02 -0.38868292812E+01  0.25751024640E+03  0.25981190407E+03  0.00000000000E+00 0. -1.
<scales pt_clust_5="13000.00000" pt_clust_6="13000.00000" pt_clust_7="13000.00000" pt_clust_8="13000.00000" pt_clust_9="34.50650"></scales>
<clustering>
<clus scale="   34.506">  1  9  2 -1</clus>
<clus scale="   90.286">  5  6 -1 -1</clus>
<clus scale="   90.934">  7  8 -1 -1</clus>
<clus scale="  140.726">  1  5  2 -1</clus>
<clus scale="   34.506">  1  5  2 -1</clus>
</clustering>
</event>
<event>
 9    1  0.1296032E-005  0.1150408E+03  0.7546771E-02  0.1252074E+00
          1   -1    0    0  502    0  0.00000000000E+00  0.00000000000E+00  0.82878392059E+02  0.82878392059E+02  0.00000000000E+00 0. -1.
         -1   -1    0    0    0  501 -0.00000000000E+00 -0.00000000000E+00 -0.34293663721E+03  0.34293663721E+03  0.00000000000E+00 0.  1.
         23    2    1    2    0    0  0.78197616622E+02 -0.32092842283E+02 -0.23297450335E+03  0.26387869920E+03  0.90609220872E+02 0.  0.
         23    2    1    2    0    0 -0.16763534760E+02  0.19628845674E+02 -0.66038077889E+01  0.95989947887E+02  0.92217959953E+02 0.  0.
        -11    1    4    4    0    0  0.32751085017E+02  0.92720108881E+01 -0.24924810987E+02  0.42188268019E+02  0.00000000000E+00 0.  1.
         11    1    4    4    0    0 -0.49514619776E+02  0.10356834786E+02  0.18321003199E+02  0.53801679868E+02  0.00000000000E+00 0. -1.
        -13    1    3    3    0    0  0.13951110551E+01 -0.45427681575E+02 -0.74474691673E+02  0.87247351180E+02  0.00000000000E+00 0. -1.
         13    1    3    3    0    0  0.76802505567E+02  0.13334839292E+02 -0.15849981168E+03  0.17663134802E+03  0.00000000000E+00 0.  1.
         21    1    1    2  502  501 -0.61434081862E+02  0.12463996609E+02 -0.20479934005E+02  0.65946382179E+02  0.00000000000E+00 0. -1.
<scales pt_clust_5="13000.00000" pt_clust_6="13000.00000" pt_clust_7="13000.00000" pt_clust_8="13000.00000" pt_clust_9="62.68571"></scales>
<clustering>
<clus scale="   62.686">  1  9  2 -1</clus>
<clus scale="   90.609">  7  8 -1 -1</clus>
<clus scale="   92.218">  5  6 -1 -1</clus>
<clus scale="  113.755">  2  7  1 -1</clus>
<clus scale="   62.686">  1  5  2 -1</clus>
</clustering>
</event>
<event>
 9    1  0.1296032E-005  0.1435423E+03  0.7546771E-02  0.1208899E+00
         -2   -1    0    0    0  501 -0.00000000000E+00  0.00000000000E+00  0.10649347298E+03  0.10649347298E+03  0.00000000000E+00 0.  1.
          2   -1    0    0  502    0  0.00000000000E+00 -0.00000000000E+00 -0.24975568306E+03  0.24975568306E+03  0.00000000000E+00 0. -1.
         23    2    1    2    0    0 -0.86673241722E+02  0.78107664415E+02 -0.21394680498E+02  0.15007118272E+03  0.91926978947E+02 0.  0.
         23    2    1    2    0    0  0.85678654694E+02 -0.55597741498E+02 -0.79097666298E+02  0.15783599323E+03  0.90685275623E+02 0.  0.
        -11    1    4    4    0    0  0.15550937617E+02  0.18496119795E+02 -0.43543688453E+02  0.49799507150E+02  0.00000000000E+00 0.  1.
         11    1    4    4    0    0  0.70127717077E+02 -0.74093861293E+02 -0.35553977844E+02  0.10803648608E+03  0.00000000000E+00 0. -1.
        -11    1    3    3    0    0 -0.49427269880E+02  0.57898474625E+02  0.31421822166E+02  0.82356658989E+02  0.00000000000E+00 0.  1.
         11    1    3    3    0    0 -0.37245971843E+02  0.20209189790E+02 -0.52816502663E+02  0.67714523731E+02  0.00000000000E+00 0. -1.
         21    1    1    2  502  501  0.99458702834E+00 -0.22509922917E+02 -0.42769863293E+02  0.48341980091E+02  0.00000000000E+00 0.  1.
<scales pt_clust_5="13000.00000" pt_clust_6="13000.00000" pt_clust_7="13000.00000" pt_clust_8="13000.00000" pt_clust_9="22.53188"></scales>
<clustering>
<clus scale="   22.532">  2  9  1 -1</clus>
<clus scale="   90.685">  5  6 -1 -1</clus>
<clus scale="   91.927">  7  8 -1 -1</clus>
<clus scale="  142.750">  2  5  1 -1</clus>
<clus scale="   22.532">  2  5  1 -1</clus>
</clustering>
</event>
<event>
 9    1  0.1296032E-005  0.9550509E+02  0.7546771E-02  0.1290549E+00
          1   -1    0    0  502    0  0.00000000000E+00  0.00000000000E+00  0.45194681132E+03  0.45194681132E+03  0.00000000000E+00 0. -1.
         -1   -1    0    0    0  501 -0.00000000000E+00 -0.00000000000E+00 -0.33268066653E+02  0.33268066653E+02  0.00000000000E+00 0.  1.
         23    2    1    2    0    0 -0.47267131289E+02 -0.44190193553E+01  0.12497746549E+03  0.16265263000E+03  0.92643411705E+02 0.  0.
         23    2    1    2    0    0  0.89973956786E+01  0.11099139542E+02  0.22896472317E+03  0.24706378208E+03  0.91714360545E+02 0.  0.
        -11    1    4    4    0    0 -0.40290088535E+01 -0.36361640909E+02  0.53390968181E+02  0.64722463838E+02  0.00000000000E+00 0.  1.
         11    1    4    4    0    0  0.13026404532E+02  0.47460780451E+02  0.17557375499E+03  0.18234131824E+03  0.00000000000E+00 0. -1.
        -13    1    3    3    0    0 -0.69153836104E+02 -0.62185425785E+00  0.52441303253E+02  0.86791301624E+02  0.00000000000E+00 0.  1.
         13    1    3    3    0    0  0.21886704815E+02 -0.37971650974E+01  0.72536162242E+02  0.75861328377E+02  0.00000000000E+00 0. -1.
         21    1    1    2  502  501  0.38269735610E+02 -0.66801201866E+01  0.64736555997E+02  0.75498465890E+02  0.00000000000E+00 0. -1.
<scales pt_clust_5="13000.00000" pt_clust_6="13000.00000" pt_clust_7="13000.00000" pt_clust_8="13000.00000" pt_clust_9="38.84838"></scales>
<clustering>
<clus scale="   38.848">  2  9  1 -1</clus>
<clus scale="   91.714">  5  6 -1 -1</clus>
<clus scale="   92.643">  7  8 -1 -1</clus>
<clus scale="   94.604">  1  5  2 -1</clus>
<clus scale="   94.604">  1  5  2 -1</clus>
</clustering>
</event>
<event>
 9    1  0.1296032E-005  0.1348493E+03  0.7546771E-02  0.1221320E+00
          1   -1    0    0  502    0  0.00000000000E+00  0.00000000000E+00  0.32023244034E+03  0.32023244034E+03  0.00000000000E+00 0. -1.
         -1   -1    0    0    0  501 -0.00000000000E+00 -0.00000000000E+00 -0.17716046808E+03  0.17716046808E+03  0.00000000000E+00 0.  1.
         23    2    1    2    0    0  0.16314325716E+02  0.10133997971E+03 -0.55615958069E+02  0.14664606695E+03  0.88746748942E+02 0.  0.
         23    2    1    2    0    0 -0.39103879908E+02 -0.86019531179E+02 -0.17053564506E+02  0.13326472147E+03  0.92413141696E+02 0.  0.
        -13    1    3    3    0    0  0.41241211774E+02  0.12601091621E+02 -0.22989618187E+02  0.48868677115E+02  0.00000000000E+00 0.  1.
         13    1    3    3    0    0 -0.24926886058E+02  0.88738888094E+02 -0.32626339882E+02  0.97777389835E+02  0.00000000000E+00 0. -1.
        -13    1    4    4    0    0 -0.46968650684E+01 -0.61506392377E+02 -0.50229213101E+02  0.79549171545E+02  0.00000000000E+00 0.  1.
         13    1    4    4    0    0 -0.34407014840E+02 -0.24513138801E+02  0.33175648596E+02  0.53715549926E+02  0.00000000000E+00 0. -1.
         21    1    1    2  502  501  0.22789554193E+02 -0.15320448536E+02  0.21574149484E+03  0.21748212000E+03  0.00000000000E+00 0. -1.
<scales pt_clust_5="13000.00000" pt_clust_6="13000.00000" pt_clust_7="13000.00000" pt_clust_8="13000.00000" pt_clust_9="27.46052"></scales>
<clustering>
<clus scale="   27.461">  1  9  2 -1</clus>
<clus scale="   88.747">  5  6 -1 -1</clus>
<clus scale="   92.413">  7  8 -1 -1</clus>
<clus scale="  132.364">  2  5  1 -1</clus>
<clus scale="   27.461">  1  5  2 -1</clus>
</clustering>
</event>
<event>
 9    1  0.1296032E-005  0.3872554E+03  0.7546771E-02  0.1048339E+00
         -2   -1    0    0    0  501 -0.00000000000E+00  0.00000000000E+00  0.21047044957E+03  0.21047044957E+03  0.00000000000E+00 0. -1.
          2   -1    0    0  502    0  0.00000000000E+00 -0.00000000000E+00 -0.85199417603E+03  0.85199417603E+03  0.00000000000E+00 0.  1.
         23    2    1    2    0    0  0.38498619075E+03 -0.11099077325E+03 -0.31005485722E+03  0.51555380558E+03  0.95542624778E+02 0.  0.
         23    2    1    2    0    0 -0.35092704182E+03  0.54072372798E+02 -0.29695695085E+03  0.47213915127E+03  0.93050187147E+02 0.  0.
        -11    1    4    4    0    0 -0.11669157188E+03  0.62714802765E+02 -0.11451045989E+03  0.17510772358E+03  0.00000000000E+00 0.  1.
         11    1    4    4    0    0 -0.23423546994E+03 -0.86424299671E+01 -0.18244649096E+03  0.29703142770E+03  0.00000000000E+00 0. -1.
        -13    1    3    3    0    0  0.37882627870E+03 -0.89117557705E+02 -0.29370632506E+03  0.48755993878E+03  0.00000000000E+00 0. -1.
         13    1    3    3    0    0  0.61599120526E+01 -0.21873215544E+02 -0.16348532169E+02  0.27993866807E+02  0.00000000000E+00 0.  1.
         21    1    1    2  502  501 -0.34059148931E+02  0.56918400451E+02 -0.34511918384E+02  0.74771668741E+02  0.00000000000E+00 0. -1.
<scales pt_clust_5="13000.00000" pt_clust_6="13000.00000" pt_clust_7="13000.00000" pt_clust_8="13000.00000" pt_clust_9="66.33046"></scales>
<clustering>
<clus scale="   66.330">  1  9  2 -1</clus>
<clus scale="   93.050">  5  6 -1 -1</clus>
<clus scale="   95.543">  7  8 -1 -1</clus>
<clus scale="  386.648">  2  5  1 -1</clus>
<clus scale="  386.648">  2  5  1 -1</clus>
</clustering>
</event>
<event>
 9    1  0.1296032E-005  0.1115393E+03  0.7546771E-02  0.1258165E+00
          2   -1    0    0  502    0  0.00000000000E+00  0.00000000000E+00  0.13705978724E+04  0.13705978724E+04  0.00000000000E+00 0. -1.
         -2   -1    0    0    0  501 -0.00000000000E+00 -0.00000000000E+00 -0.13035703408E+02  0.13035703408E+02  0.00000000000E+00 0.  1.
         23    2    1    2    0    0  0.78438709565E+01 -0.46166037160E+02  0.49958115293E+03  0.50981029816E+03  0.90179723032E+02 0.  0.
         23    2    1    2    0    0 -0.26689044039E+01  0.84359012382E+02  0.57958349292E+03  0.59277049875E+03  0.91303192194E+02 0.  0.
        -11    1    3    3    0    0 -0.28871996915E+02  0.12469744353E+02  0.12512346754E+03  0.12901538226E+03  0.00000000000E+00 0.  1.
         11    1    3    3    0    0  0.36715867871E+02 -0.58635781512E+02  0.37445768538E+03  0.38079491589E+03  0.00000000000E+00 0. -1.
        -13    1    4    4    0    0  0.27870320350E+02  0.88884725548E+02  0.45277236753E+03  0.46225541207E+03  0.00000000000E+00 0.  1.
         13    1    4    4    0    0 -0.30539224754E+02 -0.45257131655E+01  0.12681112539E+03  0.13051508668E+03  0.00000000000E+00 0. -1.
         21    1    1    2  502  501 -0.51749665526E+01 -0.38192975223E+02  0.27839752318E+03  0.28105277894E+03  0.00000000000E+00 0. -1.
<scales pt_clust_5="13000.00000" pt_clust_6="13000.00000" pt_clust_7="13000.00000" pt_clust_8="13000.00000" pt_clust_9="38.54197"></scales>
<clustering>
<clus scale="   38.542">  1  9  2 -1</clus>
<clus scale="   90.180">  5  6 -1 -1</clus>
<clus scale="   91.303">  7  8 -1 -1</clus>
<clus scale="  110.622">  2  5  1 -1</clus>
<clus scale="   38.542">  1  5  2 -1</clus>
</clustering>
</event>
<event>
 9    1  0.1296032E-005  0.1079748E+03  0.7546771E-02  0.1265415E+00
          2   -1    0    0  502    0  0.00000000000E+00  0.00000000000E+00  0.13273904284E+03  0.13273904284E+03  0.00000000000E+00 0. -1.
         -2   -1    0    0    0  501 -0.00000000000E+00 -0.00000000000E+00 -0.25308134447E+03  0.25308134447E+03  0.00000000000E+00 0.  1.
         23    2    1    2    0    0  0.53024005444E+02 -0.23577100953E+02 -0.14426376263E+03  0.18077661973E+03  0.92199393649E+02 0.  0.
         23    2    1    2    0    0 -0.34669890202E+02  0.46087989213E+02 -0.55721139591E+02  0.12027020175E+03  0.89632427145E+02 0.  0.
        -11    1    3    3    0    0  0.45044609702E+02  0.29971330455E+02 -0.61901458203E+02  0.82213673072E+02  0.00000000000E+00 0. -1.
         11    1    3    3    0    0  0.79793957415E+01 -0.53548431408E+02 -0.82362304426E+02  0.98562946653E+02  0.00000000000E+00 0.  1.
        -13    1    4    4    0    0 -0.30633753917E+02  0.11416855232E+02 -0.73977314583E+02  0.80879011711E+02  0.00000000000E+00 0.  1.
         13    1    4    4    0    0 -0.40361362854E+01  0.34671133981E+02  0.18256174991E+02  0.39391190042E+02  0.00000000000E+00 0. -1.
         21    1    1    2  502  501 -0.18354115241E+02 -0.22510888260E+02  0.79642600584E+02  0.84773565835E+02  0.00000000000E+00 0.  1.
<scales pt_clust_5="13000.00000" pt_clust_6="13000.00000" pt_clust_7="13000.00000" pt_clust_8="13000.00000" pt_clust_9="29.04503"></scales>
<clustering>
<clus scale="   29.045">  1  9  2 -1</clus>
<clus scale="   89.632">  7  8 -1 -1</clus>
<clus scale="   92.199">  5  6 -1 -1</clus>
<clus scale="  105.791">  1  7  2 -1</clus>
<clus scale="   29.045">  1  5  2 -1</clus>
</clustering>
</event>
<event>
 9    1  0.1296032E-005  0.1667020E+03  0.7546771E-02  0.1183768E+00
          1   -1    0    0  502    0  0.00000000000E+00  0.00000000000E+00  0.20385118007E+03  0.20385118007E+03  0.00000000000E+00 0. -1.
         -1   -1    0    0    0  501 -0.00000000000E+00 -0.00000000000E+00 -0.15954435691E+03  0.15954435691E+03  0.00000000000E+00 0.  1.
         23    2    1    2    0    0 -0.12885219617E+03  0.57181238409E+02 -0.25265594894E+02  0.17720986139E+03  0.10436667191E+03 0.  0.
         23    2    1    2    0    0  0.10219185510E+03 -0.50991032094E+02  0.61698093892E+02  0.15770590344E+03  0.89561356554E+02 0.  0.
        -11    1    4    4    0    0  0.86615760643E+02 -0.69712750175E+02  0.25490485827E+02  0.11406981370E+03  0.00000000000E+00 0.  1.
         11    1    4    4    0    0  0.15576094453E+02  0.18721718081E+02  0.36207608065E+02  0.43636089744E+02  0.00000000000E+00 0. -1.
        -11    1    3    3    0    0  0.44346079409E+00  0.37819730456E+02 -0.26983763279E+02  0.46461297334E+02  0.00000000000E+00 0. -1.
         11    1    3    3    0    0 -0.12929565697E+03  0.19361507954E+02  0.17181683849E+01  0.13074856406E+03  0.00000000000E+00 0.  1.
         21    1    1    2  502  501  0.26660341078E+02 -0.61902063155E+01  0.78743241541E+01  0.28479772146E+02  0.00000000000E+00 0.  1.
<scales pt_clust_5="13000.00000" pt_clust_6="13000.00000" pt_clust_7="13000.00000" pt_clust_8="13000.00000" pt_clust_9="27.36955"></scales>
<clustering>
<clus scale="   27.370">  1  9  2 -1</clus>
<clus scale="   89.561">  5  6 -1 -1</clus>
<clus scale="  104.367">  7  8 -1 -1</clus>
<clus scale="  157.856">  1  5  2 -1</clus>
<clus scale="   27.370">  1  5  2 -1</clus>
</clustering>
</event>
<event>
 9    1  0.1296032E-005  0.1606187E+03  0.7546771E-02  0.1188008E+00
         -1   -1    0    0    0  501 -0.00000000000E+00  0.00000000000E+00  0.93513940811E+02  0.93513940811E+02  0.00000000000E+00 0.  1.
          1   -1    0    0  502    0  0.00000000000E+00 -0.00000000000E+00 -0.38402489283E+03  0.38402489283E+03  0.00000000000E+00 0. -1.
         23    2    1    2    0    0  0.83882933879E+02  0.94999072966E+02 -0.39311297583E+02  0.16114240062E+03  0.91434811209E+02 0.  0.
         23    2    1    2    0    0 -0.90544376750E+02 -0.11420027207E+03 -0.22617374561E+03  0.28415737315E+03  0.91383057586E+02 0.  0.
        -11    1    4    4    0    0 -0.10432676657E+03 -0.97364118386E+02 -0.21872464253E+03  0.26115955855E+03  0.00000000000E+00 0. -1.
         11    1    4    4    0    0  0.13782389815E+02 -0.16836153683E+02 -0.74491030719E+01  0.22997814601E+02  0.00000000000E+00 0.  1.
        -13    1    3    3    0    0  0.23094802757E+02  0.61684165019E+01 -0.47517404719E+02  0.53191381141E+02  0.00000000000E+00 0. -1.
         13    1    3    3    0    0  0.60788131123E+02  0.88830656464E+02  0.82061071362E+01  0.10795101948E+03  0.00000000000E+00 0.  1.
         21    1    1    2  502  501  0.66614428705E+01  0.19201199104E+02 -0.25025908836E+02  0.32239059868E+02  0.00000000000E+00 0. -1.
<scales pt_clust_5="13000.00000" pt_clust_6="13000.00000" pt_clust_7="13000.00000" pt_clust_8="13000.00000" pt_clust_9="20.32390"></scales>
<clustering>
<clus scale="   20.324">  2  9  1 -1</clus>
<clus scale="   91.383">  5  6 -1 -1</clus>
<clus scale="   91.435">  7  8 -1 -1</clus>
<clus scale="  160.589">  2  5  1 -1</clus>
<clus scale="   20.324">  2  5  1 -1</clus>
</clustering>
</event>
<event>
 9    1  0.1296032E-005  0.3096529E+03  0.7546771E-02  0.1080548E+00
          1   -1    0    0  502    0  0.00000000000E+00  0.00000000000E+00  0.93949874847E+03  0.93949874847E+03  0.00000000000E+00 0. -1.
         -1   -1    0    0    0  501 -0.00000000000E+00 -0.00000000000E+00 -0.12560478702E+03  0.12560478702E+03  0.00000000000E+00 0.  1.
         23    2    1    2    0    0  0.11383963702E+03  0.26736099460E+03  0.22336953926E+03  0.37718805728E+03  0.89081508190E+02 0.  0.
         23    2    1    2    0    0 -0.13791929724E+03 -0.27416365277E+03  0.49641964362E+03  0.59054086373E+03  0.90103319130E+02 0.  0.
        -11    1    4    4    0    0 -0.23682602733E+02 -0.13239293464E+03  0.16989892707E+03  0.21668964035E+03  0.00000000000E+00 0.  1.
         11    1    4    4    0    0 -0.11423669451E+03 -0.14177071813E+03  0.32652071655E+03  0.37385122338E+03  0.00000000000E+00 0. -1.
        -11    1    3    3    0    0  0.10719713629E+03  0.16683306416E+03  0.11506393813E+03  0.22926885349E+03  0.00000000000E+00 0.  1.
         11    1    3    3    0    0  0.66425007333E+01  0.10052793044E+03  0.10830560113E+03  0.14791920379E+03  0.00000000000E+00 0. -1.
         21    1    1    2  502  501  0.24079660220E+02  0.68026581732E+01  0.94104778570E+02  0.97374614475E+02  0.00000000000E+00 0. -1.
<scales pt_clust_5="13000.00000" pt_clust_6="13000.00000" pt_clust_7="13000.00000" pt_clust_8="13000.00000" pt_clust_9="25.02211"></scales>
<clustering>
<clus scale="   25.022">  1  9  2 -1</clus>
<clus scale="   89.082">  7  8 -1 -1</clus>
<clus scale="   90.103">  5  6 -1 -1</clus>
<clus scale="  309.357">  2  7  1 -1</clus>
<clus scale="   25.022">  1  5  2 -1</clus>
</clustering>
</event>
<event>
 9    1  0.1296032E-005  0.1026396E+03  0.7546771E-02  0.1281510E+00
         -3   -1    0    0    0  501 -0.00000000000E+00  0.00000000000E+00  0.19622555788E+03  0.19622555788E+03  0.00000000000E+00 0.  1.
          3   -1    0    0  502    0  0.00000000000E+00 -0.00000000000E+00 -0.11848142626E+03  0.11848142626E+03  0.00000000000E+00 0. -1.
         23    2    1    2    0    0 -0.19633460383E+02 -0.45504872493E+02  0.10370541647E+03  0.13744717459E+03  0.75370725150E+02 0.  0.
         23    2    1    2    0    0  0.43617430197E+02  0.33841233151E+02  0.34771877540E+02  0.11092890948E+03  0.89713043712E+02 0.  0.
        -13    1    4    4    0    0  0.67111061414E+02  0.41509441175E+02  0.17641141782E+02  0.80858754345E+02  0.00000000000E+00 0.  1.
         13    1    4    4    0    0 -0.23493631218E+02 -0.76682080238E+01  0.17130735758E+02  0.30070155132E+02  0.00000000000E+00 0. -1.
        -13    1    3    3    0    0  0.54068220373E+00 -0.61779129617E+02  0.57142240485E+02  0.84155741582E+02  0.00000000000E+00 0.  1.
         13    1    3    3    0    0 -0.20174142586E+02  0.16274257124E+02  0.46563175984E+02  0.53291433005E+02  0.00000000000E+00 0. -1.
         21    1    1    2  502  501 -0.23983969814E+02  0.11663639342E+02 -0.60733162386E+02  0.66330900070E+02  0.00000000000E+00 0. -1.
<scales pt_clust_5="13000.00000" pt_clust_6="13000.00000" pt_clust_7="13000.00000" pt_clust_8="13000.00000" pt_clust_9="26.66967"></scales>
<clustering>
<clus scale="   26.670">  2  9  1 -1</clus>
<clus scale="   75.371">  7  8 -1 -1</clus>
<clus scale="   89.713">  5  6 -1 -1</clus>
<clus scale="   90.373">  1  7  2 -1</clus>
<clus scale="   26.670">  2  5  1 -1</clus>
</clustering>
</event>
<event>
 9    1  0.1296032E-005  0.1743840E+03  0.7546771E-02  0.1174302E+00
         -1   -1    0    0    0  501 -0.00000000000E+00  0.00000000000E+00  0.36721079494E+02  0.36721079494E+02  0.00000000000E+00 0.  1.
          1   -1    0    0  502    0  0.00000000000E+00 -0.00000000000E+00 -0.10669946892E+04  0.10669946892E+04  0.00000000000E+00 0. -1.
         23    2    1    2    0    0 -0.67554740909E+02  0.14220055500E+03 -0.30173657564E+03  0.35090912688E+03  0.85484579816E+02 0.  0.
         23    2    1    2    0    0  0.59566415742E+02 -0.11588505031E+03 -0.57474356547E+03  0.59657364239E+03  0.92695425867E+02 0.  0.
        -11    1    4    4    0    0  0.17291182368E+02 -0.11408086747E+03 -0.46081873033E+03  0.47504455742E+03  0.00000000000E+00 0.  1.
         11    1    4    4    0    0  0.42275233374E+02 -0.18041828428E+01 -0.11392483514E+03  0.12152908497E+03  0.00000000000E+00 0. -1.
        -13    1    3    3    0    0 -0.21830291996E+02  0.10440694372E+03 -0.25146163147E+03  0.27314890380E+03  0.00000000000E+00 0. -1.
         13    1    3    3    0    0 -0.45724448913E+02  0.37793611277E+02 -0.50274944170E+02  0.77760223078E+02  0.00000000000E+00 0.  1.
         21    1    1    2  502  501  0.79883251672E+01 -0.26315504686E+02 -0.15379346861E+03  0.15623299944E+03  0.00000000000E+00 0.  1.
<scales pt_clust_5="13000.00000" pt_clust_6="13000.00000" pt_clust_7="13000.00000" pt_clust_8="13000.00000" pt_clust_9="27.50126"></scales>
<clustering>
<clus scale="   27.501">  2  9  1 -1</clus>
<clus scale="   85.485">  7  8 -1 -1</clus>
<clus scale="   92.695">  5  6 -1 -1</clus>
<clus scale="  170.660">  1  7  2 -1</clus>
<clus scale="   27.501">  2  5  1 -1</clus>
</clustering>
</event>
<event>
 9    1  0.1296032E-005  0.1322817E+03  0.7546771E-02  0.1224659E+00
          2   -1    0    0  502    0  0.00000000000E+00  0.00000000000E+00  0.59044400185E+02  0.59044400185E+02  0.00000000000E+00 0. -1.
         -2   -1    0    0    0  501 -0.00000000000E+00 -0.00000000000E+00 -0.37807263495E+03  0.37807263495E+03  0.00000000000E+00 0.  1.
         23    2    1    2    0    0 -0.66914861462E+02  0.38559827857E+02 -0.17599390914E+03  0.21328212502E+03  0.92471345792E+02 0.  0.
         23    2    1    2    0    0  0.88642831575E+02 -0.60826341562E+02 -0.10914760202E+03  0.17783260197E+03  0.90298615038E+02 0.  0.
        -11    1    3    3    0    0 -0.27805025652E+02  0.29880227789E+02 -0.16740684629E+03  0.17231076475E+03  0.00000000000E+00 0.  1.
         11    1    3    3    0    0 -0.39109835810E+02  0.86796000686E+01 -0.85870628490E+01  0.40971360275E+02  0.00000000000E+00 0. -1.
        -13    1    4    4    0    0  0.71506159801E+02 -0.49590704937E+02 -0.24020332408E+02  0.90273724165E+02  0.00000000000E+00 0.  1.
         13    1    4    4    0    0  0.17136671774E+02 -0.11235636625E+02 -0.85127269616E+02  0.87558877803E+02  0.00000000000E+00 0. -1.
         21    1    1    2  502  501 -0.21727970113E+02  0.22266513704E+02 -0.33886723597E+02  0.46002308137E+02  0.00000000000E+00 0. -1.
<scales pt_clust_5="13000.00000" pt_clust_6="13000.00000" pt_clust_7="13000.00000" pt_clust_8="13000.00000" pt_clust_9="31.11113"></scales>
<clustering>
<clus scale="   31.111">  2  9  1 -1</clus>
<clus scale="   90.299">  7  8 -1 -1</clus>
<clus scale="   92.471">  5  6 -1 -1</clus>
<clus scale="  130.772">  1  7  2 -1</clus>
<clus scale="  130.772">  1  5  2 -1</clus>
</clustering>
</event>
<event>
 9    1  0.1296032E-005  0.9673019E+02  0.7546771E-02  0.1287965E+00
          1   -1    0    0  502    0  0.00000000000E+00  0.00000000000E+00  0.32610308657E+03  0.32610308657E+03  0.00000000000E+00 0. -1.
         -1   -1    0    0    0  501 -0.00000000000E+00 -0.00000000000E+00 -0.37394425738E+02  0.37394425738E+02  0.00000000000E+00 0.  1.
         23    2    1    2    0    0  0.70101398742E+01 -0.15199671727E+02  0.11108864512E+03  0.14459628118E+03  0.91034198930E+02 0.  0.
         23    2    1    2    0    0 -0.20708773695E+02  0.33830018384E+02  0.16329965984E+03  0.19170169111E+03  0.92246604371E+02 0.  0.
        -11    1    3    3    0    0 -0.59616741284E+01  0.37552885003E+02  0.40959002966E+02  0.55887392625E+02  0.00000000000E+00 0.  1.
         11    1    3    3    0    0  0.12971814003E+02 -0.52752556730E+02  0.70129642150E+02  0.88708888553E+02  0.00000000000E+00 0. -1.
        -13    1    4    4    0    0  0.26817977294E+02  0.16089470366E+02  0.12299796305E+03  0.12691167747E+03  0.00000000000E+00 0.  1.
         13    1    4    4    0    0 -0.47526750989E+02  0.17740548018E+02  0.40301696788E+02  0.64790013641E+02  0.00000000000E+00 0. -1.
         21    1    1    2  502  501  0.13698633821E+02 -0.18630346657E+02  0.14320355880E+02  0.27199540026E+02  0.00000000000E+00 0.  1.
<scales pt_clust_5="13000.00000" pt_clust_6="13000.00000" pt_clust_7="13000.00000" pt_clust_8="13000.00000" pt_clust_9="23.12450"></scales>
<clustering>
<clus scale="   23.124">  2  9  1 -1</clus>
<clus scale="   91.034">  5  6 -1 -1</clus>
<clus scale="   92.247">  7  8 -1 -1</clus>
<clus scale="   95.575">  2  5  1 -1</clus>
<clus scale="   96.730">  1  5  2 -1</clus>
</clustering>
</event>
<event>
 9    1  0.1296032E-005  0.1057688E+03  0.7546771E-02  0.1270096E+00
         -1   -1    0    0    0  501 -0.00000000000E+00  0.00000000000E+00  0.10800853390E+03  0.10800853390E+03  0.00000000000E+00 0.  1.
          1   -1    0    0  502    0  0.00000000000E+00 -0.00000000000E+00 -0.17081236371E+03  0.17081236371E+03  0.00000000000E+00 0. -1.
         23    2    1    2    0    0 -0.44890336235E+02  0.32180147065E+01  0.21638061751E+02  0.10694944428E+03  0.94575261088E+02 0.  0.
         23    2    1    2    0    0  0.49343886213E+02  0.33923408950E+02 -0.46557849285E+02  0.11863124186E+03  0.91214699658E+02 0.  0.
        -11    1    4    4    0    0 -0.15287114147E+02  0.17614005325E+02  0.15137541146E+02  0.27804571467E+02  0.00000000000E+00 0.  1.
         11    1    4    4    0    0  0.64631000360E+02  0.16309403626E+02 -0.61695390431E+02  0.90826670393E+02  0.00000000000E+00 0. -1.
        -11    1    3    3    0    0 -0.52502224026E+02 -0.20213120520E+02  0.45723085295E+02  0.72495891592E+02  0.00000000000E+00 0.  1.
         11    1    3    3    0    0  0.76118877914E+01  0.23431135227E+02 -0.24085023544E+02  0.34453552689E+02  0.00000000000E+00 0. -1.
         21    1    1    2  502  501 -0.44535499787E+01 -0.37141423657E+02 -0.37884042273E+02  0.53240211472E+02  0.00000000000E+00 0.  1.
<scales pt_clust_5="13000.00000" pt_clust_6="13000.00000" pt_clust_7="13000.00000" pt_clust_8="13000.00000" pt_clust_9="37.40748"></scales>
<clustering>
<clus scale="   37.407">  2  9  1 -1</clus>
<clus scale="   91.215">  5  6 -1 -1</clus>
<clus scale="   94.575">  7  8 -1 -1</clus>
<clus scale="  102.775">  2  5  1 -1</clus>
<clus scale="   37.407">  2  5  1 -1</clus>
</clustering>
</event>
<event>
 9    1  0.1296032E-005  0.1292695E+03  0.7546771E-02  0.1229628E+00
         -3   -1    0    0    0  501 -0.00000000000E+00  0.00000000000E+00  0.10258394882E+03  0.10258394882E+03  0.00000000000E+00 0.  1.
          3   -1    0    0  502    0  0.00000000000E+00 -0.00000000000E+00 -0.68715690790E+03  0.68715690790E+03  0.00000000000E+00 0. -1.
         23    2    1    2    0    0  0.61709378941E+02  0.58471744650E+02  0.30040029806E+02  0.12875905492E+03  0.91921153497E+02 0.  0.
         23    2    1    2    0    0 -0.12130245139E+03 -0.89257483566E+02 -0.47767131506E+03  0.50849534984E+03  0.87843340630E+02 0.  0.
        -11    1    3    3    0    0  0.18491418945E+02 -0.17346272072E+02 -0.16108015293E+02  0.30038207105E+02  0.00000000000E+00 0. -1.
         11    1    3    3    0    0  0.43217959997E+02  0.75818016722E+02  0.46148045100E+02  0.98720847810E+02  0.00000000000E+00 0.  1.
        -13    1    4    4    0    0 -0.60503153174E+02 -0.79856368318E+01 -0.97635758435E+02  0.11513966851E+03  0.00000000000E+00 0.  1.
         13    1    4    4    0    0 -0.60799298212E+02 -0.81271846734E+02 -0.38003555662E+03  0.39335568133E+03  0.00000000000E+00 0. -1.
         21    1    1    2  502  501  0.59593072445E+02  0.30785738916E+02 -0.13694167383E+03  0.15248645197E+03  0.00000000000E+00 0.  1.
<scales pt_clust_5="13000.00000" pt_clust_6="13000.00000" pt_clust_7="13000.00000" pt_clust_8="13000.00000" pt_clust_9="67.07530"></scales>
<clustering>
<clus scale="   67.075">  2  9  1 -1</clus>
<clus scale="   87.843">  7  8 -1 -1</clus>
<clus scale="   91.921">  5  6 -1 -1</clus>
<clus scale="  126.402">  2  7  1 -1</clus>
<clus scale="   67.075">  2  5  1 -1</clus>
</clustering>
</event>
<event>
 9    1  0.1296032E-005  0.2259909E+03  0.7546771E-02  0.1129709E+00
         -1   -1    0    0    0  501 -0.00000000000E+00  0.00000000000E+00  0.33177750288E+03  0.33177750288E+03  0.00000000000E+00 0.  1.
          1   -1    0    0  502    0  0.00000000000E+00 -0.00000000000E+00 -0.20429734850E+03  0.20429734850E+03  0.00000000000E+00 0. -1.
         23    2    1    2    0    0  0.39009682114E+02  0.21994096755E+03  0.14852516847E+03  0.28330351800E+03  0.91133819943E+02 0.  0.
         23    2    1    2    0    0 -0.49679901326E+02 -0.17091464208E+03 -0.10988595829E+02  0.20159941027E+03  0.94030130867E+02 0.  0.
        -11    1    3    3    0    0  0.62613311045E+02  0.14867669158E+03  0.73874141599E+02  0.17743329489E+03  0.00000000000E+00 0. -1.
         11    1    3    3    0    0 -0.23603628930E+02  0.71264275965E+02  0.74651026873E+02  0.10587022311E+03  0.00000000000E+00 0.  1.
        -13    1    4    4    0    0 -0.72336140509E+02 -0.15191827851E+03  0.42968412399E+01  0.16831560657E+03  0.00000000000E+00 0.  1.
         13    1    4    4    0    0  0.22656239183E+02 -0.18996363572E+02 -0.15285437069E+02  0.33283803708E+02  0.00000000000E+00 0. -1.
         21    1    1    2  502  501  0.10670219211E+02 -0.49026325463E+02 -0.10056418259E+02  0.51171923108E+02  0.00000000000E+00 0. -1.
<scales pt_clust_5="13000.00000" pt_clust_6="13000.00000" pt_clust_7="13000.00000" pt_clust_8="13000.00000" pt_clust_9="50.17404"></scales>
<clustering>
<clus scale="   50.174">  2  9  1 -1</clus>
<clus scale="   91.134">  5  6 -1 -1</clus>
<clus scale="   94.030">  7  8 -1 -1</clus>
<clus scale="  224.801">  1  5  2 -1</clus>
<clus scale="   50.174">  2  5  1 -1</clus>
</clustering>
</event>
<event>
 9    1  0.1296032E-005  0.3768582E+03  0.7546771E-02  0.1052179E+00
          3   -1    0    0  502    0  0.00000000000E+00  0.00000000000E+00  0.41325922327E+03  0.41325922327E+03  0.00000000000E+00 0. -1.
         -3   -1    0    0    0  501 -0.00000000000E+00 -0.00000000000E+00 -0.50200427563E+03  0.50200427563E+03  0.00000000000E+00 0.  1.
         23    2    1    2    0    0 -0.36517716542E+03  0.68442303737E+02 -0.23588186236E+03  0.44981294817E+03  0.93020020793E+02 0.  0.
         23    2    1    2    0    0  0.33803174360E+03 -0.10489209341E+03  0.63942691289E+02  0.37065222541E+03  0.89591257925E+02 0.  0.
        -11    1    3    3    0    0 -0.87067015103E+02 -0.23333328857E+02 -0.54897227569E+02  0.10554058437E+03  0.00000000000E+00 0. -1.
         11    1    3    3    0    0 -0.27811015032E+03  0.91775632595E+02 -0.18098463479E+03  0.34427236380E+03  0.00000000000E+00 0.  1.
        -13    1    4    4    0    0  0.17459268354E+02 -0.18011313512E+02  0.26372619765E+02  0.36397095202E+02  0.00000000000E+00 0.  1.
         13    1    4    4    0    0  0.32057247524E+03 -0.86880779894E+02  0.37570071524E+02  0.33425513021E+03  0.00000000000E+00 0. -1.
         21    1    1    2  502  501  0.27145421823E+02  0.36449789669E+02  0.83194118716E+02  0.94798325311E+02  0.00000000000E+00 0. -1.
<scales pt_clust_5="13000.00000" pt_clust_6="13000.00000" pt_clust_7="13000.00000" pt_clust_8="13000.00000" pt_clust_9="45.44734"></scales>
<clustering>
<clus scale="   45.447">  1  9  2 -1</clus>
<clus scale="   89.591">  7  8 -1 -1</clus>
<clus scale="   93.020">  5  6 -1 -1</clus>
<clus scale="  376.027">  1  7  2 -1</clus>
<clus scale="   45.447">  1  5  2 -1</clus>
</clustering>
</event>
<event>
 9    1  0.1296032E-005  0.9599066E+02  0.7546771E-02  0.1289325E+00
         -1   -1    0    0    0  501 -0.00000000000E+00  0.00000000000E+00  0.28828978388E+02  0.28828978388E+02  0.00000000000E+00 0.  1.
          1   -1    0    0  502    0  0.00000000000E+00 -0.00000000000E+00 -0.59661470421E+03  0.59661470421E+03  0.00000000000E+00 0. -1.
         23    2    1    2    0    0 -0.42725434435E+02 -0.16439403188E+01 -0.10864442844E+03  0.14792151939E+03  0.90823998919E+02 0.  0.
         23    2    1    2    0    0  0.59958136167E+01  0.25353395778E+01 -0.26637581638E+03  0.28128661519E+03  0.90131607161E+02 0.  0.
        -13    1    3    3    0    0 -0.68143510092E+02 -0.11462118966E+02 -0.57189276942E+02  0.89696886992E+02  0.00000000000E+00 0.  1.
         13    1    3    3    0    0  0.25418075657E+02  0.98181786476E+01 -0.51455151500E+02  0.58224632398E+02  0.00000000000E+00 0. -1.
        -13    1    4    4    0    0  0.41350220595E+02  0.18076057349E+02 -0.19477557571E+03  0.19993526324E+03  0.00000000000E+00 0. -1.
         13    1    4    4    0    0 -0.35354406979E+02 -0.15540717771E+02 -0.71600240663E+02  0.81351351953E+02  0.00000000000E+00 0.  1.
         21    1    1    2  502  501  0.36729620818E+02 -0.89139925904E+00 -0.19276548100E+03  0.19623554801E+03  0.00000000000E+00 0. -1.
<scales pt_clust_5="13000.00000" pt_clust_6="13000.00000" pt_clust_7="13000.00000" pt_clust_8="13000.00000" pt_clust_9="36.74044"></scales>
<clustering>
<clus scale="   36.740">  2  9  1 -1</clus>
<clus scale="   90.132">  7  8 -1 -1</clus>
<clus scale="   90.824">  5  6 -1 -1</clus>
<clus scale="   95.336">  2  7  1 -1</clus>
<clus scale="   36.740">  2  5  1 -1</clus>
</clustering>
</event>
<event>
 9    1  0.1296032E-005  0.1077878E+03  0.7546771E-02  0.1264944E+00
         -1   -1    0    0    0  501 -0.00000000000E+00  0.00000000000E+00  0.13995967535E+03  0.13995967535E+03  0.00000000000E+00 0.  1.
          1   -1    0    0  502    0  0.00000000000E+00 -0.00000000000E+00 -0.25108644284E+03  0.25108644284E+03  0.00000000000E+00 0. -1.
         23    2    1    2    0    0  0.33467009099E+02 -0.40732744061E+02  0.88534119099E+02  0.13778592392E+03  0.91473894909E+02 0.  0.
         23    2    1    2    0    0 -0.42564637718E+02  0.70986946802E+02 -0.16645256164E+03  0.20742487519E+03  0.92020261737E+02 0.  0.
        -11    1    4    4    0    0 -0.55609354531E+02  0.69973907417E+01 -0.97452791497E+02  0.11242068475E+03  0.00000000000E+00 0. -1.
         11    1    4    4    0    0  0.13044716813E+02  0.63989556060E+02 -0.68999770138E+02  0.95004190437E+02  0.00000000000E+00 0.  1.
        -13    1    3    3    0    0 -0.27082582750E+02  0.71045827230E+01  0.18349217656E+02  0.33475889423E+02  0.00000000000E+00 0. -1.
         13    1    3    3    0    0  0.60549591849E+02 -0.47837326784E+02  0.70184901442E+02  0.10431003450E+03  0.00000000000E+00 0.  1.
         21    1    1    2  502  501  0.90976286188E+01 -0.30254202741E+02 -0.33208324950E+02  0.45835319089E+02  0.00000000000E+00 0. -1.
<scales pt_clust_5="13000.00000" pt_clust_6="13000.00000" pt_clust_7="13000.00000" pt_clust_8="13000.00000" pt_clust_9="31.59246"></scales>
<clustering>
<clus scale="   31.592">  2  9  1 -1</clus>
<clus scale="   91.474">  7  8 -1 -1</clus>
<clus scale="   92.020">  5  6 -1 -1</clus>
<clus scale="  107.322">  1  7  2 -1</clus>
<clus scale="   31.592">  2  5  1 -1</clus>
</clustering>
</event>
<event>
 9    1  0.1296032E-005  0.9432670E+02  0.7546771E-02  0.1293144E+00
          1   -1    0    0  502    0  0.00000000000E+00  0.00000000000E+00  0.28156875234E+02  0.28156875234E+02  0.00000000000E+00 0. -1.
         -1   -1    0    0    0  501 -0.00000000000E+00 -0.00000000000E+00 -0.62296040077E+03  0.62296040077E+03  0.00000000000E+00 0.  1.
         23    2    1    2    0    0  0.12711368979E+02  0.18919119324E+02 -0.39992221472E+03  0.41116235447E+03  0.92721043605E+02 0.  0.
         23    2    1    2    0    0  0.29300575319E+02 -0.12872362873E+02 -0.14167423228E+03  0.17189200995E+03  0.91929611947E+02 0.  0.
        -13    1    4    4    0    0 -0.24645758758E+02 -0.27744372686E+02 -0.82428265437E+02  0.90396806268E+02  0.00000000000E+00 0.  1.
         13    1    4    4    0    0  0.53946334077E+02  0.14872009813E+02 -0.59245966846E+02  0.81495203685E+02  0.00000000000E+00 0. -1.
        -13    1    3    3    0    0  0.24973808988E+02  0.52570683518E+02 -0.21125650625E+03  0.21912708489E+03  0.00000000000E+00 0. -1.
         13    1    3    3    0    0 -0.12262440010E+02 -0.33651564195E+02 -0.18866570847E+03  0.19203526958E+03  0.00000000000E+00 0.  1.
         21    1    1    2  502  501 -0.42011944298E+02 -0.60467564502E+01 -0.53207078536E+02  0.68062911586E+02  0.00000000000E+00 0. -1.
<scales pt_clust_5="13000.00000" pt_clust_6="13000.00000" pt_clust_7="13000.00000" pt_clust_8="13000.00000" pt_clust_9="42.44487"></scales>
<clustering>
<clus scale="   42.445">  1  9  2 -1</clus>
<clus scale="   91.930">  5  6 -1 -1</clus>
<clus scale="   92.721">  7  8 -1 -1</clus>
<clus scale="   93.549">  1  5  2 -1</clus>
<clus scale="   42.445">  1  5  2 -1</clus>
</clustering>
</event>
<event>
 9    1  0.1296032E-005  0.1088313E+03  0.7546771E-02  0.1263158E+00
         -1   -1    0    0    0  501 -0.00000000000E+00  0.00000000000E+00  0.13080510240E+03  0.13080510240E+03  0.00000000000E+00 0.  1.
          1   -1    0    0  502    0  0.00000000000E+00 -0.00000000000E+00 -0.13137312035E+03  0.13137312035E+03  0.00000000000E+00 0. -1.
         23    2    1    2    0    0  0.33107414300E+02  0.23452461874E+02  0.13438141726E+02  0.10309135755E+03  0.93814313929E+02 0.  0.
         23    2    1    2    0    0 -0.59695071085E+02 -0.41363842447E+02  0.11098343346E+02  0.11836884561E+03  0.92809166635E+02 0.  0.
        -13    1    4    4    0    0  0.19996062300E+02 -0.25312693737E+02 -0.11077279141E+02  0.34106906704E+02  0.00000000000E+00 0. -1.
         13    1    4    4    0    0 -0.79691133385E+02 -0.16051148710E+02  0.22175622487E+02  0.84261938904E+02  0.00000000000E+00 0.  1.
        -13    1    3    3    0    0  0.61125677520E+02  0.19008379964E+02 -0.11834993558E+02  0.65097880408E+02  0.00000000000E+00 0. -1.
         13    1    3    3    0    0 -0.28018263220E+02  0.44440819099E+01  0.25273135284E+02  0.37993477137E+02  0.00000000000E+00 0.  1.
         21    1    1    2  502  501  0.26587656786E+02  0.17911380574E+02 -0.25104503025E+02  0.40718019592E+02  0.00000000000E+00 0.  1.
<scales pt_clust_5="13000.00000" pt_clust_6="13000.00000" pt_clust_7="13000.00000" pt_clust_8="13000.00000" pt_clust_9="32.05809"></scales>
<clustering>
<clus scale="   32.058">  2  9  1 -1</clus>
<clus scale="   92.809">  5  6 -1 -1</clus>
<clus scale="   93.814">  7  8 -1 -1</clus>
<clus scale="  107.966">  2  5  1 -1</clus>
<clus scale="   32.058">  2  5  1 -1</clus>
</clustering>
</event>
<event>
 9    1  0.1296032E-005  0.9637262E+02  0.7546771E-02  0.1289041E+00
         -3   -1    0    0    0  501 -0.00000000000E+00  0.00000000000E+00  0.13228128861E+03  0.13228128861E+03  0.00000000000E+00 0.  1.
          3   -1    0    0  502    0  0.00000000000E+00 -0.00000000000E+00 -0.17162103302E+03  0.17162103302E+03  0.00000000000E+00 0. -1.
         23    2    1    2    0    0  0.15210995225E+02  0.14762149356E+02  0.77596123905E+02  0.12164260173E+03  0.91249485926E+02 0.  0.
         23    2    1    2    0    0 -0.33259855982E+02 -0.24676912942E+02 -0.52316569755E+02  0.11443850154E+03  0.92973002061E+02 0.  0.
        -11    1    3    3    0    0  0.91508602151E+01 -0.38030398674E+02  0.43523733563E+02  0.58518072843E+02  0.00000000000E+00 0. -1.
         11    1    3    3    0    0  0.60601350097E+01  0.52792548030E+02  0.34072390342E+02  0.63124528889E+02  0.00000000000E+00 0.  1.
        -13    1    4    4    0    0 -0.54427548353E+02 -0.28126243041E+02 -0.65161136961E+02  0.89439461858E+02  0.00000000000E+00 0. -1.
         13    1    4    4    0    0  0.21167692371E+02  0.34493300994E+01  0.12844567206E+02  0.24999039685E+02  0.00000000000E+00 0.  1.
         21    1    1    2  502  501  0.18048860757E+02  0.99147635854E+01 -0.64619298565E+02  0.67821218351E+02  0.00000000000E+00 0.  1.
<scales pt_clust_5="13000.00000" pt_clust_6="13000.00000" pt_clust_7="13000.00000" pt_clust_8="13000.00000" pt_clust_9="20.59281"></scales>
<clustering>
<clus scale="   20.593">  2  9  1 -1</clus>
<clus scale="   91.249">  5  6 -1 -1</clus>
<clus scale="   92.973">  7  8 -1 -1</clus>
<clus scale="   94.711">  1  5  2 -1</clus>
<clus scale="   20.593">  2  5  1 -1</clus>
</clustering>
</event>
<event>
 9    1  0.1296032E-005  0.1223944E+03  0.7546771E-02  0.1240152E+00
          1   -1    0    0  502    0  0.00000000000E+00  0.00000000000E+00  0.12846116984E+03  0.12846116984E+03  0.00000000000E+00 0. -1.
         -1   -1    0    0    0  501 -0.00000000000E+00 -0.00000000000E+00 -0.21876447468E+03  0.21876447468E+03  0.00000000000E+00 0.  1.
         23    2    1    2    0    0 -0.78852072743E+02 -0.51288546000E+01 -0.11783461178E+03  0.17053605619E+03  0.94623444239E+02 0.  0.
         23    2    1    2    0    0  0.71519094005E+02  0.31262329125E+02 -0.19984834238E+02  0.12196742883E+03  0.91566074866E+02 0.  0.
        -11    1    4    4    0    0  0.58755266207E+02 -0.24088176116E+02 -0.11494844790E+02  0.64533347909E+02  0.00000000000E+00 0.  1.
         11    1    4    4    0    0  0.12763827799E+02  0.55350505241E+02 -0.84899894480E+01  0.57434080922E+02  0.00000000000E+00 0. -1.
        -13    1    3    3    0    0 -0.35228209024E+02  0.35358341680E+01 -0.12087760111E+03  0.12595603711E+03  0.00000000000E+00 0.  1.
         13    1    3    3    0    0 -0.43623863719E+02 -0.86646887680E+01  0.30429893208E+01  0.44580019081E+02  0.00000000000E+00 0. -1.
         21    1    1    2  502  501  0.73329787378E+01 -0.26133474525E+02  0.47516141186E+02  0.54722159507E+02  0.00000000000E+00 0. -1.
<scales pt_clust_5="13000.00000" pt_clust_6="13000.00000" pt_clust_7="13000.00000" pt_clust_8="13000.00000" pt_clust_9="27.14279"></scales>
<clustering>
<clus scale="   27.143">  1  9  2 -1</clus>
<clus scale="   91.566">  5  6 -1 -1</clus>
<clus scale="   94.623">  7  8 -1 -1</clus>
<clus scale="  120.046">  1  5  2 -1</clus>
<clus scale="   27.143">  1  5  2 -1</clus>
</clustering>
</event>
<event>
 9    1  0.1296032E-005  0.9342892E+02  0.7546771E-02  0.1295717E+00
          1   -1    0    0  502    0  0.00000000000E+00  0.00000000000E+00  0.82859270607E+02  0.82859270607E+02  0.00000000000E+00 0. -1.
         -1   -1    0    0    0  501 -0.00000000000E+00 -0.00000000000E+00 -0.13466573951E+03  0.13466573951E+03  0.00000000000E+00 0.  1.
         23    2    1    2    0    0 -0.10515807268E+02  0.14692291030E+02 -0.26371868228E+02  0.95397287903E+02  0.89881708302E+02 0.  0.
         23    2    1    2    0    0  0.24981286683E+02  0.48798123344E+01 -0.18576390997E+02  0.96842304185E+02  0.91572224635E+02 0.  0.
        -11    1    3    3    0    0 -0.13121557729E+02  0.47301920383E+02  0.59038099416E+01  0.49441904504E+02  0.00000000000E+00 0.  1.
         11    1    3    3    0    0  0.26057504614E+01 -0.32609629354E+02 -0.32275678169E+02  0.45955383399E+02  0.00000000000E+00 0. -1.
        -11    1    4    4    0    0  0.24994159664E+02 -0.38209493742E+02  0.78018969395E+01  0.46320006748E+02  0.00000000000E+00 0. -1.
         11    1    4    4    0    0 -0.12872981019E-01  0.43089306076E+02 -0.26378287936E+02  0.50522297437E+02  0.00000000000E+00 0.  1.
         21    1    1    2  502  501 -0.14465479415E+02 -0.19572103364E+02 -0.68582096753E+01  0.25285418026E+02  0.00000000000E+00 0. -1.
<scales pt_clust_5="13000.00000" pt_clust_6="13000.00000" pt_clust_7="13000.00000" pt_clust_8="13000.00000" pt_clust_9="24.33757"></scales>
<clustering>
<clus scale="   24.338">  2  9  1 -1</clus>
<clus scale="   89.882">  5  6 -1 -1</clus>
<clus scale="   91.572">  7  8 -1 -1</clus>
<clus scale="   91.773">  2  5  1 -1</clus>
<clus scale="   93.429">  1  5  2 -1</clus>
</clustering>
</event>
<event>
 9    1  0.1296032E-005  0.1451338E+03  0.7546771E-02  0.1225257E+00
         -1   -1    0    0    0  501 -0.00000000000E+00  0.00000000000E+00  0.30848476157E+03  0.30848476157E+03  0.00000000000E+00 0.  1.
          1   -1    0    0  502    0  0.00000000000E+00 -0.00000000000E+00 -0.39870550551E+03  0.39870550551E+03  0.00000000000E+00 0. -1.
         23    2    1    2    0    0 -0.11203649855E+03  0.17181535534E+02  0.25418300662E+03  0.29273607183E+03  0.90763564977E+02 0.  0.
         23    2    1    2    0    0  0.71643844038E+01  0.34772285582E+02 -0.83834533489E+02  0.12880812624E+03  0.91120053403E+02 0.  0.
        -11    1    4    4    0    0 -0.16028197825E+02  0.49619003040E+02 -0.14374570942E+02  0.54088602108E+02  0.00000000000E+00 0.  1.
         11    1    4    4    0    0  0.23192582229E+02 -0.14846717458E+02 -0.69459962548E+02  0.74719524134E+02  0.00000000000E+00 0. -1.
        -13    1    3    3    0    0 -0.15444462345E+02  0.31372930176E+02  0.13083255868E+03  0.13542507365E+03  0.00000000000E+00 0.  1.
         13    1    3    3    0    0 -0.96592036200E+02 -0.14191394642E+02  0.12335044794E+03  0.15731099818E+03  0.00000000000E+00 0. -1.
         21    1    1    2  502  501  0.10487211414E+03 -0.51953821116E+02 -0.26056921707E+03  0.28564606900E+03  0.00000000000E+00 0. -1.
<scales pt_clust_5="13000.00000" pt_clust_6="13000.00000" pt_clust_7="13000.00000" pt_clust_8="13000.00000" pt_clust_9="113.25105"></scales>
<clustering>
<clus scale="   90.764">  7  8 -1 -1</clus>
<clus scale="   91.120">  5  6 -1 -1</clus>
<clus scale="   97.792">  2  5  1 -1</clus>
<clus scale="  113.251">  2  9  1 -1</clus>
<clus scale="   97.792">  2  5  1 -1</clus>
</clustering>
</event>
<event>
 9    1  0.1296032E-005  0.1038756E+03  0.7546771E-02  0.1275769E+00
         -1   -1    0    0    0  501 -0.00000000000E+00  0.00000000000E+00  0.32667233033E+02  0.32667233033E+02  0.00000000000E+00 0.  1.
          1   -1    0    0  502    0  0.00000000000E+00 -0.00000000000E+00 -0.66382530324E+03  0.66382530324E+03  0.00000000000E+00 0. -1.
         23    2    1    2    0    0  0.58472573153E+02  0.19593938142E+02 -0.18209305079E+03  0.21462605612E+03  0.95412266488E+02 0.  0.
         23    2    1    2    0    0  0.13266346100E+01  0.13594336317E+02 -0.31395570953E+03  0.33043354969E+03  0.10213509326E+03 0.  0.
        -11    1    3    3    0    0  0.36970166605E+02 -0.37427279744E+02 -0.87790100735E+02  0.10234596365E+03  0.00000000000E+00 0.  1.
         11    1    3    3    0    0  0.21502406548E+02  0.57021217885E+02 -0.94302950056E+02  0.11228009247E+03  0.00000000000E+00 0. -1.
        -13    1    4    4    0    0 -0.44323435332E+02  0.57186960870E+01 -0.23223648497E+03  0.23649747432E+03  0.00000000000E+00 0. -1.
         13    1    4    4    0    0  0.45650069942E+02  0.78756402297E+01 -0.81719224553E+02  0.93936075372E+02  0.00000000000E+00 0.  1.
         21    1    1    2  502  501 -0.59799207763E+02 -0.33188274458E+02 -0.13510930989E+03  0.15143293046E+03  0.00000000000E+00 0. -1.
<scales pt_clust_5="13000.00000" pt_clust_6="13000.00000" pt_clust_7="13000.00000" pt_clust_8="13000.00000" pt_clust_9="68.39157"></scales>
<clustering>
<clus scale="   68.392">  1  9  2 -1</clus>
<clus scale="   95.412">  5  6 -1 -1</clus>
<clus scale="   97.273">  1  5  2 -1</clus>
<clus scale="  102.135">  7  8 -1 -1</clus>
<clus scale="  103.876">  2  5  1 -1</clus>
</clustering>
</event>
<event>
 9    1  0.1296032E-005  0.1039300E+03  0.7546771E-02  0.1273877E+00
         -1   -1    0    0    0  501 -0.00000000000E+00  0.00000000000E+00  0.20324141117E+02  0.20324141117E+02  0.00000000000E+00 0.  1.
          1   -1    0    0  502    0  0.00000000000E+00 -0.00000000000E+00 -0.91097987786E+03  0.91097987786E+03  0.00000000000E+00 0. -1.
         23    2    1    2    0    0  0.43003544431E+02 -0.19622168424E+02 -0.16240848865E+03  0.19065766610E+03  0.87974394735E+02 0.  0.
         23    2    1    2    0    0 -0.38378346362E+02  0.43544012691E+02 -0.53646364028E+03  0.54732123988E+03  0.91642368869E+02 0.  0.
        -11    1    3    3    0    0  0.27035001744E+02  0.27743280224E+02 -0.29592588571E+02  0.48747330340E+02  0.00000000000E+00 0.  1.
         11    1    3    3    0    0  0.15968542687E+02 -0.47365448648E+02 -0.13281590008E+03  0.14191033576E+03  0.00000000000E+00 0. -1.
        -13    1    4    4    0    0 -0.31412923657E+02 -0.23013391156E+02 -0.14300368555E+03  0.14821080266E+03  0.00000000000E+00 0. -1.
         13    1    4    4    0    0 -0.69654227054E+01  0.66557403847E+02 -0.39345995473E+03  0.39911043722E+03  0.00000000000E+00 0.  1.
         21    1    1    2  502  501 -0.46251980690E+01 -0.23921844267E+02 -0.19178360781E+03  0.19332511300E+03  0.00000000000E+00 0. -1.
<scales pt_clust_5="13000.00000" pt_clust_6="13000.00000" pt_clust_7="13000.00000" pt_clust_8="13000.00000" pt_clust_9="24.36487"></scales>
<clustering>
<clus scale="   24.365">  2  9  1 -1</clus>
<clus scale="   87.974">  5  6 -1 -1</clus>
<clus scale="   91.642">  7  8 -1 -1</clus>
<clus scale="  100.711">  1  5  2 -1</clus>
<clus scale="   24.365">  2  5  1 -1</clus>
</clustering>
</event>
<event>
 9    1  0.1296032E-005  0.1217530E+03  0.7546771E-02  0.1240517E+00
          1   -1    0    0  502    0  0.00000000000E+00  0.00000000000E+00  0.20064171044E+03  0.20064171044E+03  0.00000000000E+00 0. -1.
         -1   -1    0    0    0  501 -0.00000000000E+00 -0.00000000000E+00 -0.23886803660E+03  0.23886803660E+03  0.00000000000E+00 0.  1.
         23    2    1    2    0    0  0.60429916788E+02  0.53792526543E+02 -0.17839082502E+03  0.21665017350E+03  0.92566735244E+02 0.  0.
         23    2    1    2    0    0 -0.17485561478E+02 -0.76239298309E+02  0.12098091396E+03  0.17074349976E+03  0.91644889129E+02 0.  0.
        -11    1    4    4    0    0  0.28988525251E+02  0.15535148998E+01  0.21143583399E+02  0.35913773454E+02  0.00000000000E+00 0.  1.
         11    1    4    4    0    0 -0.46474086728E+02 -0.77792813209E+02  0.99837330557E+02  0.13482972631E+03  0.00000000000E+00 0. -1.
        -11    1    3    3    0    0  0.82762329030E+02  0.46020891931E+02 -0.11487199111E+03  0.14887276428E+03  0.00000000000E+00 0. -1.
         11    1    3    3    0    0 -0.22332412243E+02  0.77716346114E+01 -0.63518833903E+02  0.67777409227E+02  0.00000000000E+00 0.  1.
         21    1    1    2  502  501 -0.42944355310E+02  0.22446771767E+02  0.19183584897E+02  0.52116073771E+02  0.00000000000E+00 0. -1.
<scales pt_clust_5="13000.00000" pt_clust_6="13000.00000" pt_clust_7="13000.00000" pt_clust_8="13000.00000" pt_clust_9="48.45694"></scales>
<clustering>
<clus scale="   48.457">  1  9  2 -1</clus>
<clus scale="   91.645">  5  6 -1 -1</clus>
<clus scale="   92.567">  7  8 -1 -1</clus>
<clus scale="  121.054">  1  5  2 -1</clus>
<clus scale="   48.457">  1  5  2 -1</clus>
</clustering>
</event>
<event>
 9    1  0.1296032E-005  0.1678961E+03  0.7546771E-02  0.1180367E+00
          1   -1    0    0  502    0  0.00000000000E+00  0.00000000000E+00  0.28766441154E+03  0.28766441154E+03  0.00000000000E+00 0. -1.
         -1   -1    0    0    0  501 -0.00000000000E+00 -0.00000000000E+00 -0.20718196265E+03  0.20718196265E+03  0.00000000000E+00 0.  1.
         23    2    1    2    0    0 -0.46046832778E+02  0.13449434378E+03 -0.13209269791E+03  0.21501120300E+03  0.92586701286E+02 0.  0.
         23    2    1    2    0    0  0.26700349424E+02 -0.12648901969E+03  0.20215947275E+03  0.25645017819E+03  0.90475746511E+02 0.  0.
        -11    1    4    4    0    0  0.18322967873E+02 -0.14486614020E+02 -0.19918471676E+01  0.23442708730E+02  0.00000000000E+00 0.  1.
         11    1    4    4    0    0  0.83773815507E+01 -0.11200240567E+03  0.20415131992E+03  0.23300746946E+03  0.00000000000E+00 0. -1.
        -11    1    3    3    0    0 -0.73072965679E+02  0.78326003452E+02 -0.78443142001E+02  0.13277028153E+03  0.00000000000E+00 0.  1.
         11    1    3    3    0    0  0.27026132901E+02  0.56168340324E+02 -0.53649555912E+02  0.82240921468E+02  0.00000000000E+00 0. -1.
         21    1    1    2  502  501  0.19346483354E+02 -0.80053240851E+01  0.10415674051E+02  0.23384993004E+02  0.00000000000E+00 0. -1.
<scales pt_clust_5="13000.00000" pt_clust_6="13000.00000" pt_clust_7="13000.00000" pt_clust_8="13000.00000" pt_clust_9="20.93733"></scales>
<clustering>
<clus scale="   20.937">  1  9  2 -1</clus>
<clus scale="   90.476">  5  6 -1 -1</clus>
<clus scale="   92.587">  7  8 -1 -1</clus>
<clus scale="  166.741">  1  5  2 -1</clus>
<clus scale="   20.937">  1  5  2 -1</clus>
</clustering>
</event>
<event>
 9    1  0.1296032E-005  0.9335988E+02  0.7546771E-02  0.1297678E+00
         -1   -1    0    0    0  501 -0.00000000000E+00  0.00000000000E+00  0.35966796471E+02  0.35966796471E+02  0.00000000000E+00 0.  1.
          1   -1    0    0  502    0  0.00000000000E+00 -0.00000000000E+00 -0.38490739845E+03  0.38490739845E+03  0.00000000000E+00 0. -1.
         23    2    1    2    0    0  0.71184121195E+01  0.14267932630E+02 -0.92502801071E+02  0.12874088533E+03  0.88109032771E+02 0.  0.
         23    2    1    2    0    0 -0.11274845512E+02  0.65105432885E+01 -0.11148632171E+03  0.14564115171E+03  0.92804287765E+02 0.  0.
        -11    1    3    3    0    0 -0.33182619232E+02 -0.10833066854E+02 -0.65240792977E+02  0.73991909185E+02  0.00000000000E+00 0. -1.
         11    1    3    3    0    0  0.40301031352E+02  0.25100999484E+02 -0.27262008093E+02  0.54748976140E+02  0.00000000000E+00 0.  1.
        -13    1    4    4    0    0  0.27218143586E+02 -0.17201022745E+02 -0.87016750144E+01  0.33352985950E+02  0.00000000000E+00 0.  1.
         13    1    4    4    0    0 -0.38492989097E+02  0.23711566033E+02 -0.10278464669E+03  0.11228816576E+03  0.00000000000E+00 0. -1.
         21    1    1    2  502  501  0.41564333920E+01 -0.20778475918E+02 -0.14495147920E+03  0.14649215788E+03  0.00000000000E+00 0. -1.
<scales pt_clust_5="13000.00000" pt_clust_6="13000.00000" pt_clust_7="13000.00000" pt_clust_8="13000.00000" pt_clust_9="21.19012"></scales>
<clustering>
<clus scale="   21.190">  2  9  1 -1</clus>
<clus scale="   88.109">  5  6 -1 -1</clus>
<clus scale="   88.694">  1  5  2 -1</clus>
<clus scale="   92.804">  7  8 -1 -1</clus>
<clus scale="   21.190">  2  5  1 -1</clus>
</clustering>
</event>
<event>
 9    1  0.1296032E-005  0.2278306E+03  0.7546771E-02  0.1129176E+00
          2   -1    0    0  502    0  0.00000000000E+00  0.00000000000E+00  0.11661002870E+04  0.11661002870E+04  0.00000000000E+00 0. -1.
         -2   -1    0    0    0  501 -0.00000000000E+00 -0.00000000000E+00 -0.69676986938E+02  0.69676986938E+02  0.00000000000E+00 0.  1.
         23    2    1    2    0    0  0.13890030632E+03 -0.10334793829E+03  0.18298021311E+03  0.27234521639E+03  0.10351843826E+03 0.  0.
         23    2    1    2    0    0 -0.14531886512E+03  0.15751931115E+03  0.84187755777E+03  0.87344672260E+03  0.90672206372E+02 0.  0.
        -11    1    4    4    0    0 -0.73837266494E+02  0.13939720032E+03  0.53050882939E+03  0.55346466865E+03  0.00000000000E+00 0.  1.
         11    1    4    4    0    0 -0.71481598622E+02  0.18122110838E+02  0.31136872838E+03  0.31998205396E+03  0.00000000000E+00 0. -1.
        -13    1    3    3    0    0  0.53776623652E+02 -0.15247481612E+02  0.47838943514E+01  0.56100771760E+02  0.00000000000E+00 0.  1.
         13    1    3    3    0    0  0.85123682668E+02 -0.88100456676E+02  0.17819631875E+03  0.21624444463E+03  0.00000000000E+00 0. -1.
         21    1    1    2  502  501  0.64185587964E+01 -0.54171372866E+02  0.71565529157E+02  0.89985334909E+02  0.00000000000E+00 0. -1.
<scales pt_clust_5="13000.00000" pt_clust_6="13000.00000" pt_clust_7="13000.00000" pt_clust_8="13000.00000" pt_clust_9="54.55030"></scales>
<clustering>
<clus scale="   54.550">  2  9  1 -1</clus>
<clus scale="   90.672">  5  6 -1 -1</clus>
<clus scale="  103.518">  7  8 -1 -1</clus>
<clus scale="  222.288">  1  5  2 -1</clus>
<clus scale="  222.288">  1  5  2 -1</clus>
</clustering>
</event>
<event>
 9    1  0.1296032E-005  0.9840958E+02  0.7546771E-02  0.1284110E+00
         -1   -1    0    0    0  501 -0.00000000000E+00  0.00000000000E+00  0.18373445383E+03  0.18373445383E+03  0.00000000000E+00 0.  1.
          1   -1    0    0  502    0  0.00000000000E+00 -0.00000000000E+00 -0.12994728257E+03  0.12994728257E+03  0.00000000000E+00 0. -1.
         23    2    1    2    0    0  0.27582805440E+02  0.30381832650E+02  0.13238612956E+03  0.16605977481E+03  0.91465264438E+02 0.  0.
         23    2    1    2    0    0  0.20660777341E+01 -0.17392254273E+02 -0.62659273155E+02  0.11154067860E+03  0.90600106428E+02 0.  0.
        -11    1    4    4    0    0 -0.42341342150E+02 -0.61380597433E+01 -0.45931795001E+02  0.62770971193E+02  0.00000000000E+00 0. -1.
         11    1    4    4    0    0  0.44407419885E+02 -0.11254194530E+02 -0.16727478154E+02  0.48769707408E+02  0.00000000000E+00 0.  1.
        -13    1    3    3    0    0 -0.11691069423E+01 -0.26050271122E+02  0.93912955666E+01  0.27716057963E+02  0.00000000000E+00 0. -1.
         13    1    3    3    0    0  0.28751912383E+02  0.56432103772E+02  0.12299483399E+03  0.13834371685E+03  0.00000000000E+00 0.  1.
         21    1    1    2  502  501 -0.29648883175E+02 -0.12989578377E+02 -0.15939685142E+02  0.36081282992E+02  0.00000000000E+00 0. -1.
<scales pt_clust_5="13000.00000" pt_clust_6="13000.00000" pt_clust_7="13000.00000" pt_clust_8="13000.00000" pt_clust_9="32.36951"></scales>
<clustering>
<clus scale="   32.370">  2  9  1 -1</clus>
<clus scale="   90.600">  5  6 -1 -1</clus>
<clus scale="   91.465">  7  8 -1 -1</clus>
<clus scale="   97.606">  2  5  1 -1</clus>
<clus scale="   32.370">  2  5  1 -1</clus>
</clustering>
</event>
<event>
 9    1  0.1296032E-005  0.1778171E+03  0.7546771E-02  0.1169986E+00
          1   -1    0    0  502    0  0.00000000000E+00  0.00000000000E+00  0.62135568417E+02  0.62135568417E+02  0.00000000000E+00 0. -1.
         -1   -1    0    0    0  501 -0.00000000000E+00 -0.00000000000E+00 -0.69108045502E+03  0.69108045502E+03  0.00000000000E+00 0.  1.
         23    2    1    2    0    0 -0.11117460328E+03 -0.97966747603E+02 -0.41455830933E+03  0.44969162557E+03  0.91688004788E+02 0.  0.
         23    2    1    2    0    0  0.13610515800E+03  0.88254112015E+02 -0.19975776212E+03  0.27303062668E+03  0.91264216736E+02 0.  0.
        -11    1    4    4    0    0  0.27143698502E+02 -0.18354282509E+02 -0.25602704662E+02  0.41583152127E+02  0.00000000000E+00 0.  1.
         11    1    4    4    0    0  0.10896145950E+03  0.10660839452E+03 -0.17415505746E+03  0.23144747456E+03  0.00000000000E+00 0. -1.
        -13    1    3    3    0    0 -0.31140058983E+02 -0.74142748547E+02 -0.28007895191E+03  0.29139504069E+03  0.00000000000E+00 0.  1.
         13    1    3    3    0    0 -0.80034544301E+02 -0.23823999056E+02 -0.13447935741E+03  0.15829658487E+03  0.00000000000E+00 0. -1.
         21    1    1    2  502  501 -0.24930554716E+02  0.97126355881E+01 -0.14628815156E+02  0.30493771190E+02  0.00000000000E+00 0.  1.
<scales pt_clust_5="13000.00000" pt_clust_6="13000.00000" pt_clust_7="13000.00000" pt_clust_8="13000.00000" pt_clust_9="26.75571"></scales>
<clustering>
<clus scale="   26.756">  1  9  2 -1</clus>
<clus scale="   91.264">  5  6 -1 -1</clus>
<clus scale="   91.688">  7  8 -1 -1</clus>
<clus scale="  177.599">  1  5  2 -1</clus>
<clus scale="   26.756">  1  5  2 -1</clus>
</clustering>
</event>
<event>
 9    1  0.1296032E-005  0.1419666E+03  0.7546771E-02  0.1231640E+00
          2   -1    0    0  502    0  0.00000000000E+00  0.00000000000E+00  0.60773198455E+03  0.60773198455E+03  0.00000000000E+00 0. -1.
         -2   -1    0    0    0  501 -0.00000000000E+00 -0.00000000000E+00 -0.61047527460E+02  0.61047527460E+02  0.00000000000E+00 0.  1.
         23    2    1    2    0    0  0.10598491108E+03  0.45258109857E+02  0.90096939021E+02  0.17278919272E+03  0.91964932533E+02 0.  0.
         23    2    1    2    0    0 -0.15781954208E+02 -0.78068548221E+01  0.27446931489E+03  0.28933551083E+03  0.89842172442E+02 0.  0.
        -13    1    3    3    0    0  0.20294983115E+01 -0.22415170752E+02  0.21091864841E+02  0.30845186103E+02  0.00000000000E+00 0. -1.
         13    1    3    3    0    0  0.10395541277E+03  0.67673280610E+02  0.69005074180E+02  0.14194400662E+03  0.00000000000E+00 0.  1.
        -13    1    4    4    0    0 -0.44843916829E+02  0.13684842724E+02  0.91311861960E+02  0.10264554511E+03  0.00000000000E+00 0.  1.
         13    1    4    4    0    0  0.29061962621E+02 -0.21491697547E+02  0.18315745293E+03  0.18668996572E+03  0.00000000000E+00 0. -1.
         21    1    1    2  502  501 -0.90202956869E+02 -0.37451255035E+02  0.18211820318E+03  0.20665480846E+03  0.00000000000E+00 0.  1.
<scales pt_clust_5="13000.00000" pt_clust_6="13000.00000" pt_clust_7="13000.00000" pt_clust_8="13000.00000" pt_clust_9="108.15245"></scales>
<clustering>
<clus scale="   89.842">  7  8 -1 -1</clus>
<clus scale="   91.551">  1  7  2 -1</clus>
<clus scale="   91.965">  5  6 -1 -1</clus>
<clus scale="  108.152">  1  9  2 -1</clus>
<clus scale="   91.551">  1  5  2 -1</clus>
</clustering>
</event>
<event>
 9    1  0.1296032E-005  0.1605993E+03  0.7546771E-02  0.1188069E+00
          1   -1    0    0  502    0  0.00000000000E+00  0.00000000000E+00  0.30767098293E+03  0.30767098293E+03  0.00000000000E+00 0. -1.
         -1   -1    0    0    0  501 -0.00000000000E+00 -0.00000000000E+00 -0.14428128679E+03  0.14428128679E+03  0.00000000000E+00 0.  1.
         23    2    1    2    0    0 -0.96098293585E+02  0.84110375355E+02 -0.26049933462E+02  0.15894958544E+03  0.90977658830E+02 0.  0.
         23    2    1    2    0    0  0.77109269131E+02 -0.12833800049E+03  0.14627581891E+03  0.22835146288E+03  0.91275920417E+02 0.  0.
        -11    1    3    3    0    0  0.34556555455E+01  0.44245609468E+02 -0.26537924398E+02  0.51709544030E+02  0.00000000000E+00 0.  1.
         11    1    3    3    0    0 -0.99553949130E+02  0.39864765887E+02  0.48799093585E+00  0.10724004141E+03  0.00000000000E+00 0. -1.
        -13    1    4    4    0    0  0.96223021320E+02 -0.11206606622E+03  0.10969151854E+03  0.18398342934E+03  0.00000000000E+00 0. -1.
         13    1    4    4    0    0 -0.19113752189E+02 -0.16271934263E+02  0.36584300361E+02  0.44368033541E+02  0.00000000000E+00 0.  1.
         21    1    1    2  502  501  0.18989024454E+02  0.44227625131E+02  0.43163810702E+02  0.64651221401E+02  0.00000000000E+00 0. -1.
<scales pt_clust_5="13000.00000" pt_clust_6="13000.00000" pt_clust_7="13000.00000" pt_clust_8="13000.00000" pt_clust_9="48.13176"></scales>
<clustering>
<clus scale="   48.132">  1  9  2 -1</clus>
<clus scale="   90.978">  5  6 -1 -1</clus>
<clus scale="   91.276">  7  8 -1 -1</clus>
<clus scale="  160.430">  2  5  1 -1</clus>
<clus scale="   48.132">  1  5  2 -1</clus>
</clustering>
</event>
<event>
 9    1  0.1296032E-005  0.9586862E+02  0.7546771E-02  0.1290705E+00
          1   -1    0    0  502    0  0.00000000000E+00  0.00000000000E+00  0.16569280735E+03  0.16569280735E+03  0.00000000000E+00 0. -1.
         -1   -1    0    0    0  501 -0.00000000000E+00 -0.00000000000E+00 -0.11952936462E+03  0.11952936462E+03  0.00000000000E+00 0.  1.
         23    2    1    2    0    0  0.82468794247E+01  0.38214245708E+02 -0.16163779448E+02  0.98744153612E+02  0.89223318204E+02 0.  0.
         23    2    1    2    0    0  0.48978949616E+02  0.17943711106E+01  0.50015027487E+02  0.11557614908E+03  0.91946647508E+02 0.  0.
        -11    1    4    4    0    0  0.44623082549E+02 -0.20283378170E+02  0.70016305323E+02  0.85468812659E+02  0.00000000000E+00 0. -1.
         11    1    4    4    0    0  0.43558670670E+01  0.22077749281E+02 -0.20001277836E+02  0.30107336419E+02  0.00000000000E+00 0.  1.
        -13    1    3    3    0    0  0.69218596035E+01  0.67442141448E+02 -0.15150804643E+02  0.69468708529E+02  0.00000000000E+00 0.  1.
         13    1    3    3    0    0  0.13250198212E+01 -0.29227895739E+02 -0.10129748050E+01  0.29275445083E+02  0.00000000000E+00 0. -1.
         21    1    1    2  502  501 -0.57225829041E+02 -0.40008616819E+02  0.12312194699E+02  0.70901869281E+02  0.00000000000E+00 0.  1.
<scales pt_clust_5="13000.00000" pt_clust_6="13000.00000" pt_clust_7="13000.00000" pt_clust_8="13000.00000" pt_clust_9="69.82467"></scales>
<clustering>
<clus scale="   69.825">  1  9  2 -1</clus>
<clus scale="   89.223">  7  8 -1 -1</clus>
<clus scale="   91.947">  5  6 -1 -1</clus>
<clus scale="   93.260">  2  7  1 -1</clus>
<clus scale="   69.825">  1  5  2 -1</clus>
</clustering>
</event>
<event>
 9    1  0.1296032E-005  0.1340784E+03  0.7546771E-02  0.1222722E+00
         -2   -1    0    0    0  501 -0.00000000000E+00  0.00000000000E+00  0.32813084566E+02  0.32813084566E+02  0.00000000000E+00 0.  1.
          2   -1    0    0  502    0  0.00000000000E+00 -0.00000000000E+00 -0.91796197551E+03  0.91796197551E+03  0.00000000000E+00 0. -1.
         23    2    1    2    0    0 -0.13132390520E+03  0.98099395672E+01 -0.41276723179E+03  0.44276646897E+03  0.91231329133E+02 0.  0.
         23    2    1    2    0    0  0.72868320239E+02 -0.33319919046E+02 -0.36480967605E+03  0.38334301408E+03  0.86288803443E+02 0.  0.
        -11    1    4    4    0    0  0.64372808757E+02  0.16620453310E+02 -0.22612182020E+03  0.23569296881E+03  0.00000000000E+00 0.  1.
         11    1    4    4    0    0  0.84955114822E+01 -0.49940372356E+02 -0.13868785585E+03  0.14765004527E+03  0.00000000000E+00 0. -1.
        -13    1    3    3    0    0 -0.11863908112E+03  0.40949417149E+02 -0.34491258377E+03  0.36703784107E+03  0.00000000000E+00 0.  1.
         13    1    3    3    0    0 -0.12684824072E+02 -0.31139477582E+02 -0.67854648020E+02  0.75728627901E+02  0.00000000000E+00 0. -1.
         21    1    1    2  502  501  0.58455584957E+02  0.23509979479E+02 -0.10757198310E+03  0.12466557703E+03  0.00000000000E+00 0.  1.
<scales pt_clust_5="13000.00000" pt_clust_6="13000.00000" pt_clust_7="13000.00000" pt_clust_8="13000.00000" pt_clust_9="63.00615"></scales>
<clustering>
<clus scale="   63.006">  1  9  2 -1</clus>
<clus scale="   86.289">  5  6 -1 -1</clus>
<clus scale="   91.231">  7  8 -1 -1</clus>
<clus scale="  130.766">  2  5  1 -1</clus>
<clus scale="  130.766">  2  5  1 -1</clus>
</clustering>
</event>
<event>
 9    1  0.1296032E-005  0.1310517E+03  0.7546771E-02  0.1226054E+00
          2   -1    0    0  502    0  0.00000000000E+00  0.00000000000E+00  0.31672342394E+03  0.31672342394E+03  0.00000000000E+00 0. -1.
         -2   -1    0    0    0  501 -0.00000000000E+00 -0.00000000000E+00 -0.11476203617E+03  0.11476203617E+03  0.00000000000E+00 0.  1.
         23    2    1    2    0    0 -0.78060121612E+02 -0.43717473622E+02 -0.66525652319E+01  0.12812558910E+03  0.91473000777E+02 0.  0.
         23    2    1    2    0    0  0.11019506694E+03  0.34864751961E+01  0.77606108397E+02  0.16259679598E+03  0.90884001429E+02 0.  0.
        -11    1    3    3    0    0 -0.63852057917E+02 -0.36938637361E+01  0.31264920060E+02  0.71191468280E+02  0.00000000000E+00 0. -1.
         11    1    3    3    0    0 -0.14208063695E+02 -0.40023609886E+02 -0.37917485291E+02  0.56934120816E+02  0.00000000000E+00 0.  1.
        -13    1    4    4    0    0  0.88687919957E+02 -0.28112958873E+02  0.22821140073E+02  0.95795041819E+02  0.00000000000E+00 0. -1.
         13    1    4    4    0    0  0.21507146981E+02  0.31599434069E+02  0.54784968324E+02  0.66801754161E+02  0.00000000000E+00 0.  1.
         21    1    1    2  502  501 -0.32134945326E+02  0.40230998426E+02  0.13100784460E+03  0.14076307504E+03  0.00000000000E+00 0.  1.
<scales pt_clust_5="13000.00000" pt_clust_6="13000.00000" pt_clust_7="13000.00000" pt_clust_8="13000.00000" pt_clust_9="51.48969"></scales>
<clustering>
<clus scale="   51.490">  1  9  2 -1</clus>
<clus scale="   90.884">  7  8 -1 -1</clus>
<clus scale="   91.473">  5  6 -1 -1</clus>
<clus scale="  130.641">  1  7  2 -1</clus>
<clus scale="   51.490">  1  5  2 -1</clus>
</clustering>
</event>
<event>
 9    1  0.1296032E-005  0.1179186E+03  0.7546771E-02  0.1247455E+00
         -2   -1    0    0    0  501 -0.00000000000E+00  0.00000000000E+00  0.25711853729E+03  0.25711853729E+03  0.00000000000E+00 0.  1.
          2   -1    0    0  502    0  0.00000000000E+00 -0.00000000000E+00 -0.18961721167E+03  0.18961721167E+03  0.00000000000E+00 0. -1.
         23    2    1    2    0    0 -0.25137131041E+02  0.10443949413E+03  0.13401507918E+03  0.19670283674E+03  0.95877428222E+02 0.  0.
         23    2    1    2    0    0  0.22063965978E+02 -0.25011939960E+02  0.48419213160E+02  0.11029112338E+03  0.93312892778E+02 0.  0.
        -13    1    4    4    0    0  0.15365918287E+02  0.34957908656E+02  0.13092051250E+02  0.40367915829E+02  0.00000000000E+00 0.  1.
         13    1    4    4    0    0  0.66980476912E+01 -0.59969848617E+02  0.35327161910E+02  0.69923207554E+02  0.00000000000E+00 0. -1.
        -13    1    3    3    0    0  0.76927596576E+01  0.11022442499E+03  0.98988896955E+02  0.14834892698E+03  0.00000000000E+00 0.  1.
         13    1    3    3    0    0 -0.32829890699E+02 -0.57849308520E+01  0.35026182229E+02  0.48353909768E+02  0.00000000000E+00 0. -1.
         21    1    1    2  502  501  0.30731650631E+01 -0.79427554174E+02 -0.11493296672E+03  0.13974178883E+03  0.00000000000E+00 0. -1.
<scales pt_clust_5="13000.00000" pt_clust_6="13000.00000" pt_clust_7="13000.00000" pt_clust_8="13000.00000" pt_clust_9="79.48698"></scales>
<clustering>
<clus scale="   79.487">  2  9  1 -1</clus>
<clus scale="   93.313">  5  6 -1 -1</clus>
<clus scale="   95.877">  7  8 -1 -1</clus>
<clus scale="  115.843">  2  5  1 -1</clus>
<clus scale="   79.487">  2  5  1 -1</clus>
</clustering>
</event>
<event>
 9    1  0.1296032E-005  0.1838738E+03  0.7546771E-02  0.1164429E+00
          2   -1    0    0  502    0  0.00000000000E+00  0.00000000000E+00  0.59188783578E+02  0.59188783578E+02  0.00000000000E+00 0. -1.
         -2   -1    0    0    0  501 -0.00000000000E+00 -0.00000000000E+00 -0.83718927377E+03  0.83718927377E+03  0.00000000000E+00 0.  1.
         23    2    1    2    0    0  0.80295085316E+02  0.14488329100E+03 -0.58575545597E+03  0.61549077197E+03  0.90999821118E+02 0.  0.
         23    2    1    2    0    0 -0.51125156512E+02 -0.13254491545E+03 -0.17764363624E+03  0.24601149033E+03  0.93714756770E+02 0.  0.
        -11    1    3    3    0    0  0.46197358181E+02  0.34771300381E+02 -0.93621518795E+02  0.11003739371E+03  0.00000000000E+00 0. -1.
         11    1    3    3    0    0  0.34097727135E+02  0.11011199062E+03 -0.49213393717E+03  0.50545337826E+03  0.00000000000E+00 0.  1.
        -13    1    4    4    0    0 -0.12325095157E+02 -0.15915658581E+02  0.93840489009E+01  0.22209829636E+02  0.00000000000E+00 0. -1.
         13    1    4    4    0    0 -0.38800061356E+02 -0.11662925687E+03 -0.18702768514E+03  0.22380166070E+03  0.00000000000E+00 0.  1.
         21    1    1    2  502  501 -0.29169928803E+02 -0.12338375544E+02 -0.14601397984E+02  0.34875795052E+02  0.00000000000E+00 0.  1.
<scales pt_clust_5="13000.00000" pt_clust_6="13000.00000" pt_clust_7="13000.00000" pt_clust_8="13000.00000" pt_clust_9="31.67207"></scales>
<clustering>
<clus scale="   31.672">  1  9  2 -1</clus>
<clus scale="   91.000">  5  6 -1 -1</clus>
<clus scale="   93.715">  7  8 -1 -1</clus>
<clus scale="  182.505">  2  5  1 -1</clus>
<clus scale="   31.672">  1  5  2 -1</clus>
</clustering>
</event>
<event>
 9    1  0.1296032E-005  0.1283122E+03  0.7546771E-02  0.1230599E+00
         -1   -1    0    0    0  501 -0.00000000000E+00  0.00000000000E+00  0.56144606391E+02  0.56144606391E+02  0.00000000000E+00 0.  1.
          1   -1    0    0  502    0  0.00000000000E+00 -0.00000000000E+00 -0.36386059895E+03  0.36386059895E+03  0.00000000000E+00 0. -1.
         23    2    1    2    0    0 -0.46225165682E+01  0.98786922163E+02 -0.98475338711E+02  0.16703249134E+03  0.91772747473E+02 0.  0.
         23    2    1    2    0    0  0.10616290795E+02 -0.76451825754E+02 -0.16372041852E+03  0.20191516132E+03  0.89486142175E+02 0.  0.
        -11    1    3    3    0    0  0.28437801910E+02  0.27928156830E+02  0.17708860953E+01  0.39897701174E+02  0.00000000000E+00 0.  1.
         11    1    3    3    0    0 -0.33060318478E+02  0.70858765333E+02 -0.10024622481E+03  0.12713479017E+03  0.00000000000E+00 0. -1.
        -13    1    4    4    0    0  0.24582772320E+02 -0.91672609584E+02 -0.11575861579E+03  0.14969381140E+03  0.00000000000E+00 0. -1.
         13    1    4    4    0    0 -0.13966481525E+02  0.15220783830E+02 -0.47961802729E+02  0.52221349921E+02  0.00000000000E+00 0.  1.
         21    1    1    2  502  501 -0.59937742263E+01 -0.22335096408E+02 -0.45520235334E+02  0.51057552682E+02  0.00000000000E+00 0.  1.
<scales pt_clust_5="13000.00000" pt_clust_6="13000.00000" pt_clust_7="13000.00000" pt_clust_8="13000.00000" pt_clust_9="23.12535"></scales>
<clustering>
<clus scale="   23.125">  2  9  1 -1</clus>
<clus scale="   89.486">  7  8 -1 -1</clus>
<clus scale="   91.773">  5  6 -1 -1</clus>
<clus scale="  126.687">  2  7  1 -1</clus>
<clus scale="   23.125">  2  5  1 -1</clus>
</clustering>
</event>
<event>
 9    1  0.1296032E-005  0.1233368E+03  0.7546771E-02  0.1239501E+00
         -1   -1    0    0    0  501 -0.00000000000E+00  0.00000000000E+00  0.13128882114E+03  0.13128882114E+03  0.00000000000E+00 0.  1.
          1   -1    0    0  502    0  0.00000000000E+00 -0.00000000000E+00 -0.27124168502E+03  0.27124168502E+03  0.00000000000E+00 0. -1.
         23    2    1    2    0    0 -0.61643419537E+02  0.49151020719E+02  0.77306761450E+02  0.14340367617E+03  0.91501611810E+02 0.  0.
         23    2    1    2    0    0  0.53905867765E+02 -0.24352632038E+02 -0.18996626754E+03  0.22144716482E+03  0.97225360546E+02 0.  0.
        -11    1    3    3    0    0 -0.34129041300E+02 -0.40831706441E+01 -0.11521898691E+02  0.36252143275E+02  0.00000000000E+00 0. -1.
         11    1    3    3    0    0 -0.27514378237E+02  0.53234191363E+02  0.88828660141E+02  0.10715153290E+03  0.00000000000E+00 0.  1.
        -11    1    4    4    0    0  0.67765213740E+02 -0.46568685984E+02 -0.11021139237E+03  0.13750388255E+03  0.00000000000E+00 0. -1.
         11    1    4    4    0    0 -0.13859345975E+02  0.22216053946E+02 -0.79754875177E+02  0.83943282270E+02  0.00000000000E+00 0.  1.
         21    1    1    2  502  501  0.77375517720E+01 -0.24798388681E+02 -0.27293357782E+02  0.37679665174E+02  0.00000000000E+00 0. -1.
<scales pt_clust_5="13000.00000" pt_clust_6="13000.00000" pt_clust_7="13000.00000" pt_clust_8="13000.00000" pt_clust_9="25.97749"></scales>
<clustering>
<clus scale="   25.977">  2  9  1 -1</clus>
<clus scale="   91.502">  5  6 -1 -1</clus>
<clus scale="   97.225">  7  8 -1 -1</clus>
<clus scale="  118.877">  1  5  2 -1</clus>
<clus scale="   25.977">  2  5  1 -1</clus>
</clustering>
</event>
<event>
 9    1  0.1296032E-005  0.1226344E+03  0.7546771E-02  0.1240748E+00
         -2   -1    0    0    0  501 -0.00000000000E+00  0.00000000000E+00  0.46172457851E+03  0.46172457851E+03  0.00000000000E+00 0.  1.
          2   -1    0    0  502    0  0.00000000000E+00 -0.00000000000E+00 -0.32783757595E+03  0.32783757595E+03  0.00000000000E+00 0. -1.
         23    2    1    2    0    0  0.11263169483E+02 -0.87517825059E+02  0.29613585806E+03  0.32236978618E+03  0.91867316929E+02 0.  0.
         23    2    1    2    0    0  0.60648881895E+02  0.43659887739E+02  0.12042867333E+03  0.17223229114E+03  0.97859205383E+02 0.  0.
        -11    1    3    3    0    0 -0.14082300285E+02 -0.86873213922E+02  0.14887470429E+03  0.17294202513E+03  0.00000000000E+00 0. -1.
         11    1    3    3    0    0  0.25345469767E+02 -0.64461113624E+00  0.14726115377E+03  0.14942776105E+03  0.00000000000E+00 0.  1.
        -13    1    4    4    0    0  0.35141399390E+02 -0.22331038239E+02  0.13035523355E+02  0.43629326022E+02  0.00000000000E+00 0. -1.
         13    1    4    4    0    0  0.25507482504E+02  0.65990925978E+02  0.10739314998E+03  0.12860296512E+03  0.00000000000E+00 0.  1.
         21    1    1    2  502  501 -0.71912051378E+02  0.43857937319E+02 -0.28267752883E+03  0.29496007714E+03  0.00000000000E+00 0. -1.
<scales pt_clust_5="13000.00000" pt_clust_6="13000.00000" pt_clust_7="13000.00000" pt_clust_8="13000.00000" pt_clust_9="84.23100"></scales>
<clustering>
<clus scale="   84.231">  2  9  1 -1</clus>
<clus scale="   91.867">  5  6 -1 -1</clus>
<clus scale="   97.859">  7  8 -1 -1</clus>
<clus scale="  117.908">  1  5  2 -1</clus>
<clus scale="   84.231">  2  5  1 -1</clus>
</clustering>
</event>
<event>
 9    1  0.1296032E-005  0.1926374E+03  0.7546771E-02  0.1176941E+00
          1   -1    0    0  502    0  0.00000000000E+00  0.00000000000E+00  0.23272180815E+03  0.23272180815E+03  0.00000000000E+00 0. -1.
         -1   -1    0    0    0  501 -0.00000000000E+00 -0.00000000000E+00 -0.66394797924E+03  0.66394797924E+03  0.00000000000E+00 0.  1.
         23    2    1    2    0    0 -0.15209462669E+03  0.89010724423E+02 -0.55924062421E+03  0.59311917850E+03  0.89356586773E+02 0.  0.
         23    2    1    2    0    0  0.27635699227E+02 -0.68486924181E+02 -0.61361853127E+01  0.11941032325E+03  0.93632162598E+02 0.  0.
        -11    1    3    3    0    0 -0.15287364881E+03  0.62537016473E+02 -0.41862907120E+03  0.45003503217E+03  0.00000000000E+00 0.  1.
         11    1    3    3    0    0  0.77902211946E+00  0.26473707950E+02 -0.14061155301E+03  0.14308414632E+03  0.00000000000E+00 0. -1.
        -13    1    4    4    0    0  0.26248168889E+02 -0.20720731828E+02 -0.46212669066E+02  0.57043193106E+02  0.00000000000E+00 0.  1.
         13    1    4    4    0    0  0.13875303376E+01 -0.47766192353E+02  0.40076483753E+02  0.62367130144E+02  0.00000000000E+00 0. -1.
         21    1    1    2  502  501  0.12445892747E+03 -0.20523800242E+02  0.13415063843E+03  0.18414028564E+03  0.00000000000E+00 0. -1.
<scales pt_clust_5="13000.00000" pt_clust_6="13000.00000" pt_clust_7="13000.00000" pt_clust_8="13000.00000" pt_clust_9="170.65925"></scales>
<clustering>
<clus scale="   89.357">  5  6 -1 -1</clus>
<clus scale="   93.632">  7  8 -1 -1</clus>
<clus scale="  119.253">  1  7  2 -1</clus>
<clus scale="  170.659">  1  9  2 -1</clus>
<clus scale="  119.253">  1  5  2 -1</clus>
</clustering>
</event>
<event>
 9    1  0.1296032E-005  0.9517532E+02  0.7546771E-02  0.1291870E+00
          1   -1    0    0  502    0  0.00000000000E+00  0.00000000000E+00  0.28538916353E+03  0.28538916353E+03  0.00000000000E+00 0. -1.
         -1   -1    0    0    0  501 -0.00000000000E+00 -0.00000000000E+00 -0.79743515633E+02  0.79743515633E+02  0.00000000000E+00 0.  1.
         23    2    1    2    0    0 -0.14795833707E+02  0.34569142668E+02  0.68517738815E+01  0.97672299742E+02  0.89883196492E+02 0.  0.
         23    2    1    2    0    0 -0.58771214698E+01 -0.22634615386E+02  0.21741613715E+03  0.23718509740E+03  0.91870165809E+02 0.  0.
        -11    1    4    4    0    0  0.39728443480E+02  0.51259651303E+01  0.73880352234E+02  0.84041246933E+02  0.00000000000E+00 0.  1.
         11    1    4    4    0    0 -0.45605564949E+02 -0.27760580517E+02  0.14353578492E+03  0.15314385047E+03  0.00000000000E+00 0. -1.
        -11    1    3    3    0    0  0.37839572101E+02  0.89070018596E+01  0.27345200314E+01  0.38969802395E+02  0.00000000000E+00 0.  1.
         11    1    3    3    0    0 -0.52635405808E+02  0.25662140809E+02  0.41172538501E+01  0.58702497346E+02  0.00000000000E+00 0. -1.
         21    1    1    2  502  501  0.20672955176E+02 -0.11934527282E+02 -0.18622263134E+02  0.30275282020E+02  0.00000000000E+00 0.  1.
<scales pt_clust_5="13000.00000" pt_clust_6="13000.00000" pt_clust_7="13000.00000" pt_clust_8="13000.00000" pt_clust_9="23.87057"></scales>
<clustering>
<clus scale="   23.871">  2  9  1 -1</clus>
<clus scale="   89.883">  7  8 -1 -1</clus>
<clus scale="   91.870">  5  6 -1 -1</clus>
<clus scale="   93.259">  2  7  1 -1</clus>
<clus scale="   95.175">  1  5  2 -1</clus>
</clustering>
</event>
<event>
 9    1  0.1296032E-005  0.1010289E+03  0.7546771E-02  0.1278929E+00
          2   -1    0    0  502    0  0.00000000000E+00  0.00000000000E+00  0.20887024997E+03  0.20887024997E+03  0.00000000000E+00 0. -1.
         -2   -1    0    0    0  501 -0.00000000000E+00 -0.00000000000E+00 -0.22468918478E+03  0.22468918478E+03  0.00000000000E+00 0.  1.
         23    2    1    2    0    0  0.28879768349E+02 -0.30343367462E+02 -0.19487791006E+03  0.21975058610E+03  0.92510319938E+02 0.  0.
         23    2    1    2    0    0 -0.75694565029E+01  0.26520103698E+02  0.14045061252E+03  0.16954427580E+03  0.90875047892E+02 0.  0.
        -13    1    4    4    0    0 -0.39394225644E+01  0.47852546824E+02  0.13988705408E+03  0.14789784713E+03  0.00000000000E+00 0. -1.
         13    1    4    4    0    0 -0.36300339386E+01 -0.21332443126E+02  0.56355843951E+00  0.21646428672E+02  0.00000000000E+00 0.  1.
        -13    1    3    3    0    0  0.80991984010E+01 -0.55701761265E+02 -0.16855700968E+03  0.17770691809E+03  0.00000000000E+00 0.  1.
         13    1    3    3    0    0  0.20780569948E+02  0.25358393802E+02 -0.26320900372E+02  0.42043668012E+02  0.00000000000E+00 0. -1.
         21    1    1    2  502  501 -0.21310311846E+02  0.38232637648E+01  0.38608362728E+02  0.44264572847E+02  0.00000000000E+00 0.  1.
<scales pt_clust_5="13000.00000" pt_clust_6="13000.00000" pt_clust_7="13000.00000" pt_clust_8="13000.00000" pt_clust_9="21.65056"></scales>
<clustering>
<clus scale="   21.651">  1  9  2 -1</clus>
<clus scale="   90.875">  5  6 -1 -1</clus>
<clus scale="   92.510">  7  8 -1 -1</clus>
<clus scale="   99.534">  1  5  2 -1</clus>
<clus scale="   21.651">  1  5  2 -1</clus>
</clustering>
</event>
<event>
 9    1  0.1296032E-005  0.1922954E+03  0.7546771E-02  0.1187629E+00
         -1   -1    0    0    0  501 -0.00000000000E+00  0.00000000000E+00  0.75736103842E+03  0.75736103842E+03  0.00000000000E+00 0.  1.
          1   -1    0    0  502    0  0.00000000000E+00 -0.00000000000E+00 -0.10270368469E+03  0.10270368469E+03  0.00000000000E+00 0. -1.
         23    2    1    2    0    0  0.14718175391E+02 -0.67590962690E+01  0.35498440955E+03  0.36731492175E+03  0.92973171674E+02 0.  0.
         23    2    1    2    0    0  0.45452784832E+02  0.15455086162E+03  0.26732083026E+03  0.32993208230E+03  0.10697115575E+03 0.  0.
        -11    1    4    4    0    0  0.68085050779E+02  0.13483527930E+03  0.16681870886E+03  0.22504356980E+03  0.00000000000E+00 0.  1.
         11    1    4    4    0    0 -0.22632265948E+02  0.19715582329E+02  0.10050212140E+03  0.10488851250E+03  0.00000000000E+00 0. -1.
        -11    1    3    3    0    0  0.70107407259E+01  0.41036823090E+02  0.11048063061E+03  0.11806413967E+03  0.00000000000E+00 0.  1.
         11    1    3    3    0    0  0.77074346647E+01 -0.47795919359E+02  0.24450377894E+03  0.24925078209E+03  0.00000000000E+00 0. -1.
         21    1    1    2  502  501 -0.60170960222E+02 -0.14779176536E+03  0.32352113918E+02  0.16281771905E+03  0.00000000000E+00 0. -1.
<scales pt_clust_5="13000.00000" pt_clust_6="13000.00000" pt_clust_7="13000.00000" pt_clust_8="13000.00000" pt_clust_9="159.79577"></scales>
<clustering>
<clus scale="   92.973">  7  8 -1 -1</clus>
<clus scale="   94.373">  1  7  2 -1</clus>
<clus scale="  106.971">  5  6 -1 -1</clus>
<clus scale="  159.796">  2  9  1 -1</clus>
<clus scale="  159.796">  2  5  1 -1</clus>
</clustering>
</event>
<event>
 9    1  0.1296032E-005  0.1730127E+03  0.7546771E-02  0.1196572E+00
         -2   -1    0    0    0  501 -0.00000000000E+00  0.00000000000E+00  0.10971287262E+03  0.10971287262E+03  0.00000000000E+00 0.  1.
          2   -1    0    0  502    0  0.00000000000E+00 -0.00000000000E+00 -0.54488590799E+03  0.54488590799E+03  0.00000000000E+00 0. -1.
         23    2    1    2    0    0 -0.33464599205E+02 -0.48525653361E+02  0.57831035814E+00  0.10642079720E+03  0.88602670383E+02 0.  0.
         23    2    1    2    0    0 -0.30855745129E+02  0.16707651852E+03 -0.21775496255E+03  0.29183088006E+03  0.94241173533E+02 0.  0.
        -13    1    4    4    0    0  0.30861672632E+01  0.13000033331E+03 -0.10079675176E+03  0.16452840561E+03  0.00000000000E+00 0.  1.
         13    1    4    4    0    0 -0.33941912393E+02  0.37076185216E+02 -0.11695821080E+03  0.12730247445E+03  0.00000000000E+00 0. -1.
        -13    1    3    3    0    0 -0.27038382643E+02  0.67964252419E+01 -0.31566890583E+02  0.42115722873E+02  0.00000000000E+00 0.  1.
         13    1    3    3    0    0 -0.64262165618E+01 -0.55322078603E+02  0.32145200941E+02  0.64305074324E+02  0.00000000000E+00 0. -1.
         21    1    1    2  502  501  0.64320344334E+02 -0.11855086516E+03 -0.21799638317E+03  0.25634710336E+03  0.00000000000E+00 0. -1.
<scales pt_clust_5="13000.00000" pt_clust_6="13000.00000" pt_clust_7="13000.00000" pt_clust_8="13000.00000" pt_clust_9="145.09301"></scales>
<clustering>
<clus scale="   88.603">  7  8 -1 -1</clus>
<clus scale="   94.241">  5  6 -1 -1</clus>
<clus scale="  106.419">  1  7  2 -1</clus>
<clus scale="  145.093">  2  9  1 -1</clus>
<clus scale="  145.093">  2  5  1 -1</clus>
</clustering>
</event>
<event>
 9    1  0.1296032E-005  0.1069847E+03  0.7546771E-02  0.1266621E+00
          1   -1    0    0  502    0  0.00000000000E+00  0.00000000000E+00  0.61538646900E+03  0.61538646900E+03  0.00000000000E+00 0. -1.
         -1   -1    0    0    0  501 -0.00000000000E+00 -0.00000000000E+00 -0.46226650763E+02  0.46226650763E+02  0.00000000000E+00 0.  1.
         23    2    1    2    0    0  0.29652368886E+02  0.56473181537E+02  0.10471107445E+03  0.15200712051E+03  0.89851390420E+02 0.  0.
         23    2    1    2    0    0  0.32253778880E+02 -0.56847033870E+02  0.13938589072E+03  0.17870062102E+03  0.90739153123E+02 0.  0.
        -13    1    3    3    0    0  0.36111990300E+02 -0.20150010296E+01  0.53959747448E+01  0.36568464775E+02  0.00000000000E+00 0.  1.
         13    1    3    3    0    0 -0.64596214138E+01  0.58488182567E+02  0.99315099706E+02  0.11543865574E+03  0.00000000000E+00 0. -1.
        -13    1    4    4    0    0  0.15969680285E+02 -0.76049078545E+02  0.13072139500E+03  0.15207424551E+03  0.00000000000E+00 0.  1.
         13    1    4    4    0    0  0.16284098595E+02  0.19202044675E+02  0.86644957135E+01  0.26626375508E+02  0.00000000000E+00 0. -1.
         21    1    1    2  502  501 -0.61906147766E+02  0.37385233307E+00  0.32506285307E+03  0.33090537823E+03  0.00000000000E+00 0. -1.
<scales pt_clust_5="13000.00000" pt_clust_6="13000.00000" pt_clust_7="13000.00000" pt_clust_8="13000.00000" pt_clust_9="61.90728"></scales>
<clustering>
<clus scale="   61.907">  1  9  2 -1</clus>
<clus scale="   89.851">  5  6 -1 -1</clus>
<clus scale="   90.739">  7  8 -1 -1</clus>
<clus scale="  106.233">  2  5  1 -1</clus>
<clus scale="   61.907">  1  5  2 -1</clus>
</clustering>
</event>
<event>
 9    1  0.1296032E-005  0.2438245E+03  0.7546771E-02  0.1117352E+00
         -1   -1    0    0    0  501 -0.00000000000E+00  0.00000000000E+00  0.37362096410E+03  0.37362096410E+03  0.00000000000E+00 0.  1.
          1   -1    0    0  502    0  0.00000000000E+00 -0.00000000000E+00 -0.37182608632E+03  0.37182608632E+03  0.00000000000E+00 0. -1.
         23    2    1    2    0    0  0.44724387624E+02 -0.22219915131E+03  0.26966599521E+03  0.36389589736E+03  0.91256459771E+02 0.  0.
         23    2    1    2    0    0 -0.15818458444E+02  0.22363339410E+03 -0.24948885266E+03  0.34726533308E+03  0.89924442590E+02 0.  0.
        -11    1    4    4    0    0 -0.29305368690E+02  0.17688822916E+02 -0.25458006618E+02  0.42659221642E+02  0.00000000000E+00 0.  1.
         11    1    4    4    0    0  0.13486910246E+02  0.20594457118E+03 -0.22403084604E+03  0.30460611144E+03  0.00000000000E+00 0. -1.
        -13    1    3    3    0    0  0.47190113236E+02 -0.52468651697E+02  0.11104284823E+03  0.13156891860E+03  0.00000000000E+00 0. -1.
         13    1    3    3    0    0 -0.24657256119E+01 -0.16973049961E+03  0.15862314698E+03  0.23232697876E+03  0.00000000000E+00 0.  1.
         21    1    1    2  502  501 -0.28905929180E+02 -0.14342427915E+01 -0.18382264770E+02  0.34285819988E+02  0.00000000000E+00 0. -1.
<scales pt_clust_5="13000.00000" pt_clust_6="13000.00000" pt_clust_7="13000.00000" pt_clust_8="13000.00000" pt_clust_9="28.94149"></scales>
<clustering>
<clus scale="   28.941">  2  9  1 -1</clus>
<clus scale="   89.924">  5  6 -1 -1</clus>
<clus scale="   91.256">  7  8 -1 -1</clus>
<clus scale="  243.329">  2  5  1 -1</clus>
<clus scale="   28.941">  2  5  1 -1</clus>
</clustering>
</event>
<event>
 9    1  0.1296032E-005  0.1002539E+03  0.7546771E-02  0.1280572E+00
          2   -1    0    0  502    0  0.00000000000E+00  0.00000000000E+00  0.43418051996E+03  0.43418051996E+03  0.00000000000E+00 0. -1.
         -2   -1    0    0    0  501 -0.00000000000E+00 -0.00000000000E+00 -0.40653307014E+02  0.40653307014E+02  0.00000000000E+00 0.  1.
         23    2    1    2    0    0 -0.27397639184E+02 -0.25122298165E+02  0.62114626910E+02  0.11604220290E+03  0.90696226375E+02 0.  0.
         23    2    1    2    0    0  0.45279351491E+02  0.11933236088E+02  0.19703690699E+03  0.22259129327E+03  0.92361893269E+02 0.  0.
        -11    1    3    3    0    0 -0.47305574391E+02 -0.79660575095E+01 -0.67311215981E+00  0.47976332923E+02  0.00000000000E+00 0. -1.
         11    1    3    3    0    0  0.19907935207E+02 -0.17156240656E+02  0.62787739070E+02  0.68065869973E+02  0.00000000000E+00 0.  1.
        -13    1    4    4    0    0  0.73336301434E+02  0.15810320110E+02  0.14916112324E+03  0.16696472686E+03  0.00000000000E+00 0.  1.
         13    1    4    4    0    0 -0.28056949943E+02 -0.38770840220E+01  0.47875783752E+02  0.55626566409E+02  0.00000000000E+00 0. -1.
         21    1    1    2  502  501 -0.17881712307E+02  0.13189062077E+02  0.13437567905E+03  0.13620033081E+03  0.00000000000E+00 0. -1.
<scales pt_clust_5="13000.00000" pt_clust_6="13000.00000" pt_clust_7="13000.00000" pt_clust_8="13000.00000" pt_clust_9="22.21952"></scales>
<clustering>
<clus scale="   22.220">  1  9  2 -1</clus>
<clus scale="   90.696">  5  6 -1 -1</clus>
<clus scale="   92.362">  7  8 -1 -1</clus>
<clus scale="   98.722">  2  5  1 -1</clus>
<clus scale="   22.220">  1  5  2 -1</clus>
</clustering>
</event>
<event>
 9    1  0.1296032E-005  0.1216067E+03  0.7546771E-02  0.1248361E+00
         -4   -1    0    0    0  501 -0.00000000000E+00  0.00000000000E+00  0.54597386968E+02  0.54597386968E+02  0.00000000000E+00 0.  1.
          4   -1    0    0  502    0  0.00000000000E+00 -0.00000000000E+00 -0.38667545649E+03  0.38667545649E+03  0.00000000000E+00 0. -1.
         23    2    1    2    0    0  0.41642103202E+02 -0.40505879764E+02 -0.58958366583E+02  0.13814424239E+03  0.11060267474E+03 0.  0.
         23    2    1    2    0    0 -0.19574500968E+02  0.45453260508E+02 -0.25145466094E+03  0.27181040046E+03  0.90566480063E+02 0.  0.
        -13    1    4    4    0    0  0.18770162032E+02 -0.12735104799E+02 -0.20508055995E+02  0.30579114402E+02  0.00000000000E+00 0.  1.
         13    1    4    4    0    0 -0.38344663000E+02  0.58188365307E+02 -0.23094660495E+03  0.24123128606E+03  0.00000000000E+00 0. -1.
        -13    1    3    3    0    0  0.71310891301E+01 -0.40008694739E+02  0.24761657757E+02  0.47588735871E+02  0.00000000000E+00 0.  1.
         13    1    3    3    0    0  0.34511014071E+02 -0.49718502544E+00 -0.83720024340E+02  0.90555506517E+02  0.00000000000E+00 0. -1.
         21    1    1    2  502  501 -0.22067602234E+02 -0.49473807439E+01 -0.21665041998E+02  0.31318200608E+02  0.00000000000E+00 0. -1.
<scales pt_clust_5="13000.00000" pt_clust_6="13000.00000" pt_clust_7="13000.00000" pt_clust_8="13000.00000" pt_clust_9="22.61539"></scales>
<clustering>
<clus scale="   22.615">  1  9  2 -1</clus>
<clus scale="   90.566">  5  6 -1 -1</clus>
<clus scale="  103.719">  2  5  1 -1</clus>
<clus scale="  110.603">  7  8 -1 -1</clus>
<clus scale="  103.719">  2  5  1 -1</clus>
</clustering>
</event>
<event>
 9    1  0.1296032E-005  0.2371329E+03  0.7546771E-02  0.1121838E+00
          2   -1    0    0  502    0  0.00000000000E+00  0.00000000000E+00  0.56671460385E+03  0.56671460385E+03  0.00000000000E+00 0. -1.
         -2   -1    0    0    0  501 -0.00000000000E+00 -0.00000000000E+00 -0.15218612616E+03  0.15218612616E+03  0.00000000000E+00 0.  1.
         23    2    1    2    0    0 -0.30193776105E+02  0.23357424288E+03  0.27167657682E+02  0.25314582443E+03  0.88747595758E+02 0.  0.
         23    2    1    2    0    0  0.20927374018E+02 -0.17715095672E+03  0.31993773853E+03  0.37735057681E+03  0.90624968060E+02 0.  0.
        -11    1    4    4    0    0 -0.13381111555E+02 -0.15811558311E+03  0.27664988096E+03  0.31892749709E+03  0.00000000000E+00 0. -1.
         11    1    4    4    0    0  0.34308485573E+02 -0.19035373614E+02  0.43287857572E+02  0.58423079721E+02  0.00000000000E+00 0.  1.
        -11    1    3    3    0    0 -0.29388146918E+02  0.10167714328E+03  0.53578880253E+02  0.11862799439E+03  0.00000000000E+00 0. -1.
         11    1    3    3    0    0 -0.80562918766E+00  0.13189709960E+03 -0.26411222571E+02  0.13451783004E+03  0.00000000000E+00 0.  1.
         21    1    1    2  502  501  0.92664020875E+01 -0.56423286153E+02  0.67423081480E+02  0.88404328764E+02  0.00000000000E+00 0. -1.
<scales pt_clust_5="13000.00000" pt_clust_6="13000.00000" pt_clust_7="13000.00000" pt_clust_8="13000.00000" pt_clust_9="57.17913"></scales>
<clustering>
<clus scale="   57.179">  1  9  2 -1</clus>
<clus scale="   88.748">  7  8 -1 -1</clus>
<clus scale="   90.625">  5  6 -1 -1</clus>
<clus scale="  236.422">  2  7  1 -1</clus>
<clus scale="   57.179">  1  5  2 -1</clus>
</clustering>
</event>
<event>
 9    1  0.1296032E-005  0.1051666E+03  0.7546771E-02  0.1269792E+00
          1   -1    0    0  502    0  0.00000000000E+00  0.00000000000E+00  0.17633976354E+03  0.17633976354E+03  0.00000000000E+00 0. -1.
         -1   -1    0    0    0  501 -0.00000000000E+00 -0.00000000000E+00 -0.37256556107E+03  0.37256556107E+03  0.00000000000E+00 0.  1.
         23    2    1    2    0    0 -0.68216445951E+02 -0.14318820255E+02 -0.22609374656E+03  0.25331544423E+03  0.90508673283E+02 0.  0.
         23    2    1    2    0    0  0.33565946774E+02 -0.15716915578E+02 -0.11070966872E+03  0.14772213836E+03  0.90506934520E+02 0.  0.
        -11    1    3    3    0    0 -0.37574974092E+02 -0.38702271612E+02 -0.19774903744E+03  0.20497420890E+03  0.00000000000E+00 0.  1.
         11    1    3    3    0    0 -0.30641471859E+02  0.24383451358E+02 -0.28344709116E+02  0.48341235324E+02  0.00000000000E+00 0. -1.
        -13    1    4    4    0    0  0.98877367855E+01  0.36450051323E+02 -0.27588224228E+02  0.46770543040E+02  0.00000000000E+00 0. -1.
         13    1    4    4    0    0  0.23678209989E+02 -0.52166966900E+02 -0.83121444490E+02  0.10095159532E+03  0.00000000000E+00 0.  1.
         21    1    1    2  502  501  0.34650499177E+02  0.30035735832E+02  0.14057761774E+03  0.14786774202E+03  0.00000000000E+00 0. -1.
<scales pt_clust_5="13000.00000" pt_clust_6="13000.00000" pt_clust_7="13000.00000" pt_clust_8="13000.00000" pt_clust_9="45.85632"></scales>
<clustering>
<clus scale="   45.856">  1  9  2 -1</clus>
<clus scale="   90.507">  7  8 -1 -1</clus>
<clus scale="   90.509">  5  6 -1 -1</clus>
<clus scale="  105.165">  1  7  2 -1</clus>
<clus scale="   45.856">  1  5  2 -1</clus>
</clustering>
</event>
<event>
 9    1  0.1296032E-005  0.1051107E+03  0.7546771E-02  0.1270929E+00
         -2   -1    0    0    0  501 -0.00000000000E+00  0.00000000000E+00  0.26269393390E+02  0.26269393390E+02  0.00000000000E+00 0.  1.
          2   -1    0    0  502    0  0.00000000000E+00 -0.00000000000E+00 -0.59355395336E+03  0.59355395336E+03  0.00000000000E+00 0. -1.
         23    2    1    2    0    0  0.59660233150E+02  0.16174993521E+02 -0.20090578801E+03  0.22999668565E+03  0.93350768184E+02 0.  0.
         23    2    1    2    0    0 -0.31048093929E+02 -0.14664600036E+02 -0.21819117168E+03  0.23889455492E+03  0.91017505673E+02 0.  0.
        -11    1    3    3    0    0 -0.23947968307E+01 -0.29754297488E+02 -0.90344109266E+02  0.95147839439E+02  0.00000000000E+00 0.  1.
         11    1    3    3    0    0  0.62055029980E+02  0.45929291009E+02 -0.11056167874E+03  0.13484884621E+03  0.00000000000E+00 0. -1.
        -13    1    4    4    0    0  0.30066417026E+02 -0.14984369788E+02 -0.10520792604E+03  0.11044106335E+03  0.00000000000E+00 0. -1.
         13    1    4    4    0    0 -0.61114510955E+02  0.31976975201E+00 -0.11298324564E+03  0.12845349157E+03  0.00000000000E+00 0.  1.
         21    1    1    2  502  501 -0.28612139221E+02 -0.15103934857E+01 -0.14818760028E+03  0.15093210618E+03  0.00000000000E+00 0. -1.
<scales pt_clust_5="13000.00000" pt_clust_6="13000.00000" pt_clust_7="13000.00000" pt_clust_8="13000.00000" pt_clust_9="28.65198"></scales>
<clustering>
<clus scale="   28.652">  2  9  1 -1</clus>
<clus scale="   91.018">  7  8 -1 -1</clus>
<clus scale="   93.351">  5  6 -1 -1</clus>
<clus scale="  103.044">  2  7  1 -1</clus>
<clus scale="   28.652">  2  5  1 -1</clus>
</clustering>
</event>
<event>
 9    1  0.1296032E-005  0.9765194E+02  0.7546771E-02  0.1285863E+00
         -1   -1    0    0    0  501 -0.00000000000E+00  0.00000000000E+00  0.16690464624E+03  0.16690464624E+03  0.00000000000E+00 0.  1.
          1   -1    0    0  502    0  0.00000000000E+00 -0.00000000000E+00 -0.10376676810E+03  0.10376676810E+03  0.00000000000E+00 0. -1.
         23    2    1    2    0    0 -0.19184496803E+02 -0.19304033239E+02  0.88527027880E+02  0.12950438850E+03  0.90518845316E+02 0.  0.
         23    2    1    2    0    0  0.35978683622E+02  0.35175548155E+02  0.30175048100E+01  0.10454889209E+03  0.91594653985E+02 0.  0.
        -11    1    3    3    0    0  0.25756064463E+02  0.42837039269E+01 -0.15032610666E+01  0.26153102488E+02  0.00000000000E+00 0. -1.
         11    1    3    3    0    0 -0.44940561265E+02 -0.23587737166E+02  0.90030288946E+02  0.10335128601E+03  0.00000000000E+00 0.  1.
        -13    1    4    4    0    0 -0.15296825175E+02  0.47511786628E+02  0.11265872077E+02  0.51169156752E+02  0.00000000000E+00 0.  1.
         13    1    4    4    0    0  0.51275508797E+02 -0.12336238474E+02 -0.82483672675E+01  0.53379735337E+02  0.00000000000E+00 0. -1.
         21    1    1    2  502  501 -0.16794186819E+02 -0.15871514916E+02 -0.28406654555E+02  0.36618133754E+02  0.00000000000E+00 0.  1.
<scales pt_clust_5="13000.00000" pt_clust_6="13000.00000" pt_clust_7="13000.00000" pt_clust_8="13000.00000" pt_clust_9="23.10735"></scales>
<clustering>
<clus scale="   23.107">  2  9  1 -1</clus>
<clus scale="   90.519">  5  6 -1 -1</clus>
<clus scale="   91.595">  7  8 -1 -1</clus>
<clus scale="   96.644">  1  5  2 -1</clus>
<clus scale="   23.107">  2  5  1 -1</clus>
</clustering>
</event>
<event>
 9    1  0.1296032E-005  0.1000001E+03  0.7546771E-02  0.1280649E+00
         -1   -1    0    0    0  501 -0.00000000000E+00  0.00000000000E+00  0.18916614162E+03  0.18916614162E+03  0.00000000000E+00 0.  1.
          1   -1    0    0  502    0  0.00000000000E+00 -0.00000000000E+00 -0.93616712672E+02  0.93616712672E+02  0.00000000000E+00 0. -1.
         23    2    1    2    0    0  0.50544567246E+02 -0.10378608111E+02  0.11489737180E+03  0.15507833271E+03  0.90473280276E+02 0.  0.
         23    2    1    2    0    0 -0.20809040474E+02  0.68085718067E+01 -0.59098272130E+00  0.92366577884E+02  0.89732171677E+02 0.  0.
        -11    1    3    3    0    0  0.39422489128E+02  0.34431496210E+02  0.85797735632E+02  0.10050329358E+03  0.00000000000E+00 0.  1.
         11    1    3    3    0    0  0.11122078118E+02 -0.44810104321E+02  0.29099636173E+02  0.54575039132E+02  0.00000000000E+00 0. -1.
        -13    1    4    4    0    0 -0.32758917203E+02  0.43009723895E+02 -0.31659874696E+01  0.54157238505E+02  0.00000000000E+00 0. -1.
         13    1    4    4    0    0  0.11949876728E+02 -0.36201152088E+02  0.25750047483E+01  0.38209339379E+02  0.00000000000E+00 0.  1.
         21    1    1    2  502  501 -0.29735526772E+02  0.35700363046E+01 -0.18756960133E+02  0.35337943702E+02  0.00000000000E+00 0. -1.
<scales pt_clust_5="13000.00000" pt_clust_6="13000.00000" pt_clust_7="13000.00000" pt_clust_8="13000.00000" pt_clust_9="29.94907"></scales>
<clustering>
<clus scale="   29.949">  2  9  1 -1</clus>
<clus scale="   89.732">  7  8 -1 -1</clus>
<clus scale="   90.473">  5  6 -1 -1</clus>
<clus scale="   99.330">  2  7  1 -1</clus>
<clus scale="   29.949">  2  5  1 -1</clus>
</clustering>
</event>
<event>
 9    1  0.1296032E-005  0.1015593E+03  0.7546771E-02  0.1279178E+00
          2   -1    0    0  502    0  0.00000000000E+00  0.00000000000E+00  0.16156758355E+03  0.16156758355E+03  0.00000000000E+00 0. -1.
         -2   -1    0    0    0  501 -0.00000000000E+00 -0.00000000000E+00 -0.91037511437E+02  0.91037511437E+02  0.00000000000E+00 0.  1.
         23    2    1    2    0    0 -0.40042950895E+02 -0.96678616015E+01 -0.14452563400E+02  0.10114523676E+03  0.91239119169E+02 0.  0.
         23    2    1    2    0    0  0.54539797876E+02 -0.62126352735E+01  0.77809520387E+02  0.12879264988E+03  0.86718157333E+02 0.  0.
        -11    1    4    4    0    0  0.13663433075E+02  0.28997394644E+02 -0.23804652602E+01  0.32143505011E+02  0.00000000000E+00 0.  1.
         11    1    4    4    0    0  0.40876364801E+02 -0.35210029917E+02  0.80189985647E+02  0.96649144871E+02  0.00000000000E+00 0. -1.
        -13    1    3    3    0    0 -0.37436089393E+01 -0.27153568867E+02  0.30346380335E+02  0.40892954278E+02  0.00000000000E+00 0. -1.
         13    1    3    3    0    0 -0.36299341956E+02  0.17485707266E+02 -0.44798943735E+02  0.60252282486E+02  0.00000000000E+00 0.  1.
         21    1    1    2  502  501 -0.14496846981E+02  0.15880496875E+02  0.71731151247E+01  0.22667208341E+02  0.00000000000E+00 0. -1.
<scales pt_clust_5="13000.00000" pt_clust_6="13000.00000" pt_clust_7="13000.00000" pt_clust_8="13000.00000" pt_clust_9="21.50230"></scales>
<clustering>
<clus scale="   21.502">  1  9  2 -1</clus>
<clus scale="   86.718">  5  6 -1 -1</clus>
<clus scale="   91.239">  7  8 -1 -1</clus>
<clus scale="   97.518">  1  5  2 -1</clus>
<clus scale="   21.502">  1  5  2 -1</clus>
</clustering>
</event>
<event>
 9    1  0.1296032E-005  0.1037900E+03  0.7546771E-02  0.1274502E+00
         -4   -1    0    0    0  501 -0.00000000000E+00  0.00000000000E+00  0.19961707723E+03  0.19961707723E+03  0.00000000000E+00 0.  1.
          4   -1    0    0  502    0  0.00000000000E+00 -0.00000000000E+00 -0.75717439251E+02  0.75717439251E+02  0.00000000000E+00 0. -1.
         23    2    1    2    0    0  0.17382003651E+02 -0.25628551463E+02  0.65787900118E+02  0.11614985572E+03  0.90574745276E+02 0.  0.
         23    2    1    2    0    0 -0.30228629474E+02  0.46445126676E+02  0.71732652958E+02  0.13118653713E+03  0.94833613192E+02 0.  0.
        -11    1    3    3    0    0 -0.29786611894E+02  0.12339795756E+02  0.98438988168E+01  0.33710757205E+02  0.00000000000E+00 0. -1.
         11    1    3    3    0    0  0.47168615545E+02 -0.37968347219E+02  0.55944001301E+02  0.82439098519E+02  0.00000000000E+00 0.  1.
        -13    1    4    4    0    0 -0.23204418579E+02  0.66982081327E+02  0.80954047575E+02  0.10760391294E+03  0.00000000000E+00 0.  1.
         13    1    4    4    0    0 -0.70242108955E+01 -0.20536954650E+02 -0.92213946168E+01  0.23582624190E+02  0.00000000000E+00 0. -1.
         21    1    1    2  502  501  0.12846625823E+02 -0.20816575214E+02 -0.13620915098E+02  0.27998123629E+02  0.00000000000E+00 0. -1.
<scales pt_clust_5="13000.00000" pt_clust_6="13000.00000" pt_clust_7="13000.00000" pt_clust_8="13000.00000" pt_clust_9="24.46151"></scales>
<clustering>
<clus scale="   24.462">  2  9  1 -1</clus>
<clus scale="   90.575">  5  6 -1 -1</clus>
<clus scale="   94.834">  7  8 -1 -1</clus>
<clus scale="   99.914">  1  5  2 -1</clus>
<clus scale="   24.462">  2  5  1 -1</clus>
</clustering>
</event>
<event>
 9    1  0.1296032E-005  0.1194447E+03  0.7546771E-02  0.1246886E+00
          1   -1    0    0  502    0  0.00000000000E+00  0.00000000000E+00  0.21227352629E+03  0.21227352629E+03  0.00000000000E+00 0. -1.
         -1   -1    0    0    0  501 -0.00000000000E+00 -0.00000000000E+00 -0.10185640323E+03  0.10185640323E+03  0.00000000000E+00 0.  1.
         23    2    1    2    0    0 -0.69118517725E+02 -0.31890292927E+01 -0.47468665142E+01  0.11616680660E+03  0.93191495395E+02 0.  0.
         23    2    1    2    0    0  0.48847443208E+02  0.34593003335E+02  0.61850691429E+02  0.13285218830E+03  0.10120003615E+03 0.  0.
        -11    1    3    3    0    0 -0.39476261759E+02  0.35703145991E+02  0.25130680364E+02  0.58861200903E+02  0.00000000000E+00 0. -1.
         11    1    3    3    0    0 -0.29642255966E+02 -0.38892175283E+02 -0.29877546879E+02  0.57305605699E+02  0.00000000000E+00 0.  1.
        -11    1    4    4    0    0  0.66653307969E+02  0.11841932224E+02  0.35550558929E+01  0.67790362475E+02  0.00000000000E+00 0.  1.
         11    1    4    4    0    0 -0.17805864761E+02  0.22751071112E+02  0.58295635536E+02  0.65061825821E+02  0.00000000000E+00 0. -1.
         21    1    1    2  502  501  0.20271074517E+02 -0.31403974042E+02  0.53313298151E+02  0.65110934623E+02  0.00000000000E+00 0.  1.
<scales pt_clust_5="13000.00000" pt_clust_6="13000.00000" pt_clust_7="13000.00000" pt_clust_8="13000.00000" pt_clust_9="37.37815"></scales>
<clustering>
<clus scale="   37.378">  1  9  2 -1</clus>
<clus scale="   93.191">  5  6 -1 -1</clus>
<clus scale="  101.200">  7  8 -1 -1</clus>
<clus scale="  112.740">  2  5  1 -1</clus>
<clus scale="   37.378">  1  5  2 -1</clus>
</clustering>
</event>
<event>
 9    1  0.1296032E-005  0.1123793E+03  0.7546771E-02  0.1262557E+00
          2   -1    0    0  502    0  0.00000000000E+00  0.00000000000E+00  0.39759628669E+03  0.39759628669E+03  0.00000000000E+00 0. -1.
         -2   -1    0    0    0  501 -0.00000000000E+00 -0.00000000000E+00 -0.79787119599E+02  0.79787119599E+02  0.00000000000E+00 0.  1.
         23    2    1    2    0    0 -0.54302184974E+02 -0.54650540909E+02  0.35119708853E+02  0.13413580030E+03  0.10403658038E+03 0.  0.
         23    2    1    2    0    0  0.16750921233E+02 -0.10016743501E+02  0.63330807184E+02  0.11149305291E+03  0.89660365801E+02 0.  0.
        -11    1    4    4    0    0 -0.19266280167E+02 -0.27262082713E+02 -0.35776769115E+01  0.33573955343E+02  0.00000000000E+00 0.  1.
         11    1    4    4    0    0  0.36017201400E+02  0.17245339213E+02  0.66908484095E+02  0.77919097564E+02  0.00000000000E+00 0. -1.
        -13    1    3    3    0    0 -0.99062931743E+01 -0.21921796470E+02 -0.36515221257E+02  0.43727121885E+02  0.00000000000E+00 0.  1.
         13    1    3    3    0    0 -0.44395891800E+02 -0.32728744439E+02  0.71634930110E+02  0.90408678417E+02  0.00000000000E+00 0. -1.
         21    1    1    2  502  501  0.37551263741E+02  0.64667284409E+02  0.21935865106E+03  0.23175455308E+03  0.00000000000E+00 0. -1.
<scales pt_clust_5="13000.00000" pt_clust_6="13000.00000" pt_clust_7="13000.00000" pt_clust_8="13000.00000" pt_clust_9="74.77938"></scales>
<clustering>
<clus scale="   74.779">  1  9  2 -1</clus>
<clus scale="   89.660">  5  6 -1 -1</clus>
<clus scale="   99.219">  1  5  2 -1</clus>
<clus scale="  104.037">  7  8 -1 -1</clus>
<clus scale="   74.779">  1  5  2 -1</clus>
</clustering>
</event>
<event>
 9    1  0.1296032E-005  0.9395182E+02  0.7546771E-02  0.1293952E+00
          2   -1    0    0  502    0  0.00000000000E+00  0.00000000000E+00  0.10731835457E+03  0.10731835457E+03  0.00000000000E+00 0. -1.
         -2   -1    0    0    0  501 -0.00000000000E+00 -0.00000000000E+00 -0.11945691477E+03  0.11945691477E+03  0.00000000000E+00 0.  1.
         23    2    1    2    0    0  0.15963595475E+02 -0.14836198639E+01 -0.45973540714E+02  0.10322377483E+03  0.91019469000E+02 0.  0.
         23    2    1    2    0    0 -0.25588444370E+02  0.20589302013E+02  0.27419926263E+02  0.10121726679E+03  0.91730010885E+02 0.  0.
        -11    1    4    4    0    0 -0.56254018995E+02  0.11225411433E+02 -0.24237039721E+01  0.57414273973E+02  0.00000000000E+00 0.  1.
         11    1    4    4    0    0  0.30665574625E+02  0.93638905797E+01  0.29843630235E+02  0.43802992814E+02  0.00000000000E+00 0. -1.
        -13    1    3    3    0    0  0.45398353790E+02 -0.26227466518E+02 -0.35672172044E+02  0.63414465109E+02  0.00000000000E+00 0. -1.
         13    1    3    3    0    0 -0.29434758316E+02  0.24743846654E+02 -0.10301368670E+02  0.39809309725E+02  0.00000000000E+00 0.  1.
         21    1    1    2  502  501  0.96248488949E+01 -0.19105682149E+02  0.64150542495E+01  0.22334227716E+02  0.00000000000E+00 0.  1.
<scales pt_clust_5="13000.00000" pt_clust_6="13000.00000" pt_clust_7="13000.00000" pt_clust_8="13000.00000" pt_clust_9="21.39310"></scales>
<clustering>
<clus scale="   21.393">  1  9  2 -1</clus>
<clus scale="   91.019">  7  8 -1 -1</clus>
<clus scale="   91.730">  5  6 -1 -1</clus>
<clus scale="   93.258">  2  7  1 -1</clus>
<clus scale="   21.393">  1  5  2 -1</clus>
</clustering>
</event>
<event>
 9    1  0.1296032E-005  0.1142923E+03  0.7546771E-02  0.1254652E+00
         -3   -1    0    0    0  501 -0.00000000000E+00  0.00000000000E+00  0.79956518080E+02  0.79956518080E+02  0.00000000000E+00 0.  1.
          3   -1    0    0  502    0  0.00000000000E+00 -0.00000000000E+00 -0.30384631512E+03  0.30384631512E+03  0.00000000000E+00 0. -1.
         23    2    1    2    0    0  0.40057535862E+02  0.73658228491E+02 -0.29324881281E+02  0.12674584206E+03  0.90412493683E+02 0.  0.
         23    2    1    2    0    0 -0.98702216305E+01 -0.54848233340E+02 -0.60655097769E+02  0.11850400773E+03  0.85196296788E+02 0.  0.
        -11    1    3    3    0    0 -0.86614228839E+01  0.48835413322E+02 -0.47946184734E+02  0.68983726133E+02  0.00000000000E+00 0.  1.
         11    1    3    3    0    0  0.48718958746E+02  0.24822815169E+02  0.18621303453E+02  0.57762115928E+02  0.00000000000E+00 0. -1.
        -11    1    4    4    0    0 -0.42021716706E+02 -0.26085527981E+02 -0.74667019426E+01  0.50020306705E+02  0.00000000000E+00 0.  1.
         11    1    4    4    0    0  0.32151495075E+02 -0.28762705360E+02 -0.53188395826E+02  0.68483701023E+02  0.00000000000E+00 0. -1.
         21    1    1    2  502  501 -0.30187314232E+02 -0.18809995150E+02 -0.13390981799E+03  0.13855298341E+03  0.00000000000E+00 0.  1.
<scales pt_clust_5="13000.00000" pt_clust_6="13000.00000" pt_clust_7="13000.00000" pt_clust_8="13000.00000" pt_clust_9="35.56810"></scales>
<clustering>
<clus scale="   35.568">  2  9  1 -1</clus>
<clus scale="   85.196">  7  8 -1 -1</clus>
<clus scale="   90.412">  5  6 -1 -1</clus>
<clus scale="  110.212">  2  7  1 -1</clus>
<clus scale="   35.568">  2  5  1 -1</clus>
</clustering>
</event>
<event>
 9    1  0.1296032E-005  0.1376304E+03  0.7546771E-02  0.1216561E+00
          1   -1    0    0  502    0  0.00000000000E+00  0.00000000000E+00  0.56706924873E+03  0.56706924873E+03  0.00000000000E+00 0. -1.
         -1   -1    0    0    0  501 -0.00000000000E+00 -0.00000000000E+00 -0.52080822357E+02  0.52080822357E+02  0.00000000000E+00 0.  1.
         23    2    1    2    0    0 -0.96126699994E+02 -0.15407175392E+02  0.15873174603E+03  0.20781189056E+03  0.92262078640E+02 0.  0.
         23    2    1    2    0    0  0.10893163872E+03 -0.26405047884E+02  0.18813688262E+03  0.23762435017E+03  0.92230779696E+02 0.  0.
        -13    1    4    4    0    0  0.14798147627E+02 -0.38184521498E+02  0.22453659324E+02  0.46703422490E+02  0.00000000000E+00 0.  1.
         13    1    4    4    0    0  0.94133491095E+02  0.11779473614E+02  0.16568322330E+03  0.19092092768E+03  0.00000000000E+00 0. -1.
        -13    1    3    3    0    0 -0.67532099673E+02 -0.50558753984E+02  0.76303663222E+02  0.11374981807E+03  0.00000000000E+00 0.  1.
         13    1    3    3    0    0 -0.28594600321E+02  0.35151578592E+02  0.82428082807E+02  0.94062072485E+02  0.00000000000E+00 0. -1.
         21    1    1    2  502  501 -0.12804938729E+02  0.41812223276E+02  0.16811979772E+03  0.17371383036E+03  0.00000000000E+00 0. -1.
<scales pt_clust_5="13000.00000" pt_clust_6="13000.00000" pt_clust_7="13000.00000" pt_clust_8="13000.00000" pt_clust_9="43.72903"></scales>
<clustering>
<clus scale="   43.729">  1  9  2 -1</clus>
<clus scale="   92.231">  5  6 -1 -1</clus>
<clus scale="   92.262">  7  8 -1 -1</clus>
<clus scale="  137.609">  1  5  2 -1</clus>
<clus scale="   43.729">  1  5  2 -1</clus>
</clustering>
</event>
<event>
 9    1  0.1296032E-005  0.1349551E+03  0.7546771E-02  0.1220431E+00
         -1   -1    0    0    0  501 -0.00000000000E+00  0.00000000000E+00  0.72767207093E+03  0.72767207093E+03  0.00000000000E+00 0.  1.
          1   -1    0    0  502    0  0.00000000000E+00 -0.00000000000E+00 -0.78038816589E+02  0.78038816589E+02  0.00000000000E+00 0. -1.
         23    2    1    2    0    0 -0.66228320729E+02 -0.68397987522E+02  0.34283930238E+03  0.36708931949E+03  0.90284583737E+02 0.  0.
         23    2    1    2    0    0  0.14836943722E+03 -0.22703152427E+02  0.24475538372E+03  0.30116115676E+03  0.90906113388E+02 0.  0.
        -11    1    3    3    0    0 -0.58048827793E+01 -0.68876939302E+02  0.21169775144E+03  0.22269635694E+03  0.00000000000E+00 0.  1.
         11    1    3    3    0    0 -0.60423437950E+02  0.47895178042E+00  0.13114155094E+03  0.14439296254E+03  0.00000000000E+00 0. -1.
        -11    1    4    4    0    0  0.11711537673E+02 -0.28338870472E+02  0.87657443692E+02  0.92865920170E+02  0.00000000000E+00 0.  1.
         11    1    4    4    0    0  0.13665789954E+03  0.56357180456E+01  0.15709794003E+03  0.20829523659E+03  0.00000000000E+00 0. -1.
         21    1    1    2  502  501 -0.82141116487E+02  0.91101139948E+02  0.62038568241E+02  0.13746041127E+03  0.00000000000E+00 0. -1.
<scales pt_clust_5="13000.00000" pt_clust_6="13000.00000" pt_clust_7="13000.00000" pt_clust_8="13000.00000" pt_clust_9="122.66450"></scales>
<clustering>
<clus scale="   90.285">  5  6 -1 -1</clus>
<clus scale="   90.906">  7  8 -1 -1</clus>
<clus scale="  122.665">  2  9  1 -1</clus>
<clus scale="  134.537">  1  5  2 -1</clus>
<clus scale="  122.665">  2  5  1 -1</clus>
</clustering>
</event>
<event>
 9    1  0.1296032E-005  0.1097351E+03  0.7546771E-02  0.1262964E+00
         -1   -1    0    0    0  501 -0.00000000000E+00  0.00000000000E+00  0.18611240824E+03  0.18611240824E+03  0.00000000000E+00 0.  1.
          1   -1    0    0  502    0  0.00000000000E+00 -0.00000000000E+00 -0.14663134227E+03  0.14663134227E+03  0.00000000000E+00 0. -1.
         23    2    1    2    0    0  0.41088501333E+02 -0.41657280832E+02  0.12586388041E+03  0.16769996894E+03  0.94116784916E+02 0.  0.
         23    2    1    2    0    0 -0.55004439922E+02  0.92863156885E+01 -0.65865756864E+02  0.12427023152E+03  0.89403962133E+02 0.  0.
        -11    1    3    3    0    0  0.48432664075E+02 -0.67826830332E+02  0.10003493207E+03  0.13020441428E+03  0.00000000000E+00 0.  1.
         11    1    3    3    0    0 -0.73441627421E+01  0.26169549500E+02  0.25828948340E+02  0.37495554667E+02  0.00000000000E+00 0. -1.
        -11    1    4    4    0    0 -0.34293088507E+01  0.39612748527E+02 -0.46942516684E+02  0.61518532799E+02  0.00000000000E+00 0. -1.
         11    1    4    4    0    0 -0.51575131071E+02 -0.30326432839E+02 -0.18923240179E+02  0.62751698723E+02  0.00000000000E+00 0.  1.
         21    1    1    2  502  501  0.13915938589E+02  0.32370965144E+02 -0.20517057579E+02  0.40773550040E+02  0.00000000000E+00 0.  1.
<scales pt_clust_5="13000.00000" pt_clust_6="13000.00000" pt_clust_7="13000.00000" pt_clust_8="13000.00000" pt_clust_9="35.23539"></scales>
<clustering>
<clus scale="   35.235">  2  9  1 -1</clus>
<clus scale="   89.404">  7  8 -1 -1</clus>
<clus scale="   94.117">  5  6 -1 -1</clus>
<clus scale="  105.721">  2  7  1 -1</clus>
<clus scale="   35.235">  2  5  1 -1</clus>
</clustering>
</event>
<event>
 9    1  0.1296032E-005  0.1016314E+03  0.7546771E-02  0.1277332E+00
          1   -1    0    0  502    0  0.00000000000E+00  0.00000000000E+00  0.10327073125E+03  0.10327073125E+03  0.00000000000E+00 0. -1.
         -1   -1    0    0    0  501 -0.00000000000E+00 -0.00000000000E+00 -0.17436270423E+03  0.17436270423E+03  0.00000000000E+00 0.  1.
         23    2    1    2    0    0 -0.19264889731E+02 -0.35383283106E+02 -0.10479727518E+03  0.14495869983E+03  0.91692110179E+02 0.  0.
         23    2    1    2    0    0  0.16019972751E+02  0.55360518595E+02  0.32816792010E+02  0.11241618501E+03  0.90769104145E+02 0.  0.
        -13    1    4    4    0    0 -0.21985306651E+02  0.24594488408E+02  0.50584596722E+02  0.60390760834E+02  0.00000000000E+00 0. -1.
         13    1    4    4    0    0  0.38005279402E+02  0.30766030188E+02 -0.17767804713E+02  0.52025424171E+02  0.00000000000E+00 0.  1.
        -13    1    3    3    0    0 -0.41785525418E+02 -0.51973833260E+02 -0.49711105801E+02  0.83177542150E+02  0.00000000000E+00 0.  1.
         13    1    3    3    0    0  0.22520635687E+02  0.16590550155E+02 -0.55086169384E+02  0.61781157675E+02  0.00000000000E+00 0. -1.
         21    1    1    2  502  501  0.32449169797E+01 -0.19977235490E+02  0.88851019045E+00  0.20258550648E+02  0.00000000000E+00 0.  1.
<scales pt_clust_5="13000.00000" pt_clust_6="13000.00000" pt_clust_7="13000.00000" pt_clust_8="13000.00000" pt_clust_9="20.23906"></scales>
<clustering>
<clus scale="   20.239">  1  9  2 -1</clus>
<clus scale="   90.769">  5  6 -1 -1</clus>
<clus scale="   91.692">  7  8 -1 -1</clus>
<clus scale="  100.799">  1  5  2 -1</clus>
<clus scale="   20.239">  1  5  2 -1</clus>
</clustering>
</event>
<event>
 9    1  0.1296032E-005  0.1118675E+03  0.7546771E-02  0.1262343E+00
          2   -1    0    0  502    0  0.00000000000E+00  0.00000000000E+00  0.35514309540E+03  0.35514309540E+03  0.00000000000E+00 0. -1.
         -2   -1    0    0    0  501 -0.00000000000E+00 -0.00000000000E+00 -0.41451825142E+02  0.41451825142E+02  0.00000000000E+00 0.  1.
         23    2    1    2    0    0  0.14922133445E+02  0.17748902971E+02  0.12668550512E+03  0.16648376312E+03  0.10549849549E+03 0.  0.
         23    2    1    2    0    0 -0.33753438320E+02 -0.33871942156E+02  0.17012720290E+03  0.20012022047E+03  0.93905454652E+02 0.  0.
        -11    1    4    4    0    0 -0.56800663161E+02 -0.50759771498E+02  0.11350855241E+03  0.13670062622E+03  0.00000000000E+00 0. -1.
         11    1    4    4    0    0  0.23047224841E+02  0.16887829342E+02  0.56618650485E+02  0.63419594256E+02  0.00000000000E+00 0.  1.
        -11    1    3    3    0    0 -0.39554847192E+02  0.69604642084E+01  0.17143351315E+02  0.43668392376E+02  0.00000000000E+00 0. -1.
         11    1    3    3    0    0  0.54476980638E+02  0.10788438762E+02  0.10954215381E+03  0.12281537074E+03  0.00000000000E+00 0.  1.
         21    1    1    2  502  501  0.18831304874E+02  0.16123039185E+02  0.16878562243E+02  0.29990936952E+02  0.00000000000E+00 0.  1.
<scales pt_clust_5="13000.00000" pt_clust_6="13000.00000" pt_clust_7="13000.00000" pt_clust_8="13000.00000" pt_clust_9="24.79053"></scales>
<clustering>
<clus scale="   24.791">  2  9  1 -1</clus>
<clus scale="   93.905">  5  6 -1 -1</clus>
<clus scale="  101.008">  1  5  2 -1</clus>
<clus scale="  105.498">  7  8 -1 -1</clus>
<clus scale="  101.008">  1  5  2 -1</clus>
</clustering>
</event>
<event>
 9    1  0.1636552E-005  0.1050179E+03  0.7546771E-02  0.1271253E+00
          2   -1    0    0  502    0  0.00000000000E+00  0.00000000000E+00  0.18050708910E+03  0.18050708910E+03  0.00000000000E+00 0. -1.
         -2   -1    0    0    0  501 -0.00000000000E+00 -0.00000000000E+00 -0.32896837169E+03  0.32896837169E+03  0.00000000000E+00 0.  1.
         23    2    1    2    0    0 -0.51386527873E+02  0.89970855032E+01 -0.29173292622E+03  0.31064971878E+03  0.93132296971E+02 0.  0.
         23    2    1    2    0    0  0.13948540720E+02 -0.23026486553E+00  0.67123646747E+02  0.11352054020E+03  0.90480463551E+02 0.  0.
        -11    1    4    4    0    0 -0.29940489397E+02 -0.61788034229E+01 -0.28541395577E+01  0.30704342196E+02  0.00000000000E+00 0.  1.
         11    1    4    4    0    0  0.43889030118E+02  0.59485385574E+01  0.69977786304E+02  0.82816198003E+02  0.00000000000E+00 0. -1.
        -13    1    3    3    0    0 -0.73437757256E+02  0.10246476236E+02 -0.26868000025E+03  0.27872394407E+03  0.00000000000E+00 0.  1.
         13    1    3    3    0    0  0.22051229383E+02 -0.12493907325E+01 -0.23052925976E+02  0.31925774706E+02  0.00000000000E+00 0. -1.
         21    1    1    2  502  501  0.37437987153E+02 -0.87668206376E+01  0.76147996890E+02  0.85305201814E+02  0.00000000000E+00 0. -1.
<scales pt_clust_5="13000.00000" pt_clust_6="13000.00000" pt_clust_7="13000.00000" pt_clust_8="13000.00000" pt_clust_9="38.45075"></scales>
<clustering>
<clus scale="   38.451">  1  9  2 -1</clus>
<clus scale="   90.480">  5  6 -1 -1</clus>
<clus scale="   93.132">  7  8 -1 -1</clus>
<clus scale="  102.673">  1  5  2 -1</clus>
<clus scale="   38.451">  1  5  2 -1</clus>
</clustering>
</event>
<event>
 9    1  0.1296032E-005  0.1584696E+03  0.7546771E-02  0.1191000E+00
          1   -1    0    0  502    0  0.00000000000E+00  0.00000000000E+00  0.34596829083E+03  0.34596829083E+03  0.00000000000E+00 0. -1.
         -1   -1    0    0    0  501 -0.00000000000E+00 -0.00000000000E+00 -0.25977433859E+03  0.25977433859E+03  0.00000000000E+00 0.  1.
         23    2    1    2    0    0 -0.11047347607E+03  0.67513572139E+02 -0.20964433268E+03  0.26276813122E+03  0.91290049982E+02 0.  0.
         23    2    1    2    0    0  0.93098754480E+02 -0.52426292574E+02  0.20856368957E+03  0.25271729932E+03  0.94611450303E+02 0.  0.
        -11    1    3    3    0    0 -0.78048510984E+02  0.44868622128E+02 -0.60494101355E+02  0.10846335610E+03  0.00000000000E+00 0.  1.
         11    1    3    3    0    0 -0.32424965087E+02  0.22644950011E+02 -0.14915023132E+03  0.15430477512E+03  0.00000000000E+00 0. -1.
        -13    1    4    4    0    0  0.92265048179E+02 -0.22607184697E+01  0.14212769702E+03  0.16946454562E+03  0.00000000000E+00 0. -1.
         13    1    4    4    0    0  0.83370630149E+00 -0.50165574105E+02  0.66435992554E+02  0.83252753697E+02  0.00000000000E+00 0.  1.
         21    1    1    2  502  501  0.17374721591E+02 -0.15087279565E+02  0.87274595345E+02  0.90257198869E+02  0.00000000000E+00 0. -1.
<scales pt_clust_5="13000.00000" pt_clust_6="13000.00000" pt_clust_7="13000.00000" pt_clust_8="13000.00000" pt_clust_9="23.01102"></scales>
<clustering>
<clus scale="   23.011">  1  9  2 -1</clus>
<clus scale="   91.290">  5  6 -1 -1</clus>
<clus scale="   94.611">  7  8 -1 -1</clus>
<clus scale="  156.509">  2  5  1 -1</clus>
<clus scale="   23.011">  1  5  2 -1</clus>
</clustering>
</event>
<event>
 9    1  0.1296032E-005  0.1006706E+03  0.7546771E-02  0.1281719E+00
         -3   -1    0    0    0  501 -0.00000000000E+00  0.00000000000E+00  0.17189450266E+03  0.17189450266E+03  0.00000000000E+00 0.  1.
          3   -1    0    0  502    0  0.00000000000E+00 -0.00000000000E+00 -0.13946395637E+03  0.13946395637E+03  0.00000000000E+00 0. -1.
         23    2    1    2    0    0 -0.19706691112E+02 -0.34143323587E+02  0.11267395972E+03  0.15033311853E+03  0.91381098205E+02 0.  0.
         23    2    1    2    0    0  0.76975091890E+01  0.61225185036E+02 -0.78252874190E+02  0.13133342380E+03  0.85540522319E+02 0.  0.
        -11    1    3    3    0    0  0.31102109924E+02 -0.23299805829E+02  0.19094232345E+02  0.43299098169E+02  0.00000000000E+00 0.  1.
         11    1    3    3    0    0 -0.50808801036E+02 -0.10843517758E+02  0.93579727373E+02  0.10703402036E+03  0.00000000000E+00 0. -1.
        -13    1    4    4    0    0 -0.30912029361E+02  0.99970497674E+01 -0.53465810295E+02  0.62562668052E+02  0.00000000000E+00 0. -1.
         13    1    4    4    0    0  0.38609538550E+02  0.51228135268E+02 -0.24787063895E+02  0.68770755752E+02  0.00000000000E+00 0.  1.
         21    1    1    2  502  501  0.12009181923E+02 -0.27081861449E+02 -0.19905392377E+01  0.29691916685E+02  0.00000000000E+00 0. -1.
<scales pt_clust_5="13000.00000" pt_clust_6="13000.00000" pt_clust_7="13000.00000" pt_clust_8="13000.00000" pt_clust_9="29.62512"></scales>
<clustering>
<clus scale="   29.625">  2  9  1 -1</clus>
<clus scale="   85.541">  7  8 -1 -1</clus>
<clus scale="   91.381">  5  6 -1 -1</clus>
<clus scale="   95.400">  2  7  1 -1</clus>
<clus scale="   29.625">  2  5  1 -1</clus>
</clustering>
</event>
<event>
 9    1  0.1296032E-005  0.1044150E+03  0.7546771E-02  0.1271320E+00
          2   -1    0    0  502    0  0.00000000000E+00  0.00000000000E+00  0.24551643050E+03  0.24551643050E+03  0.00000000000E+00 0. -1.
         -2   -1    0    0    0  501 -0.00000000000E+00 -0.00000000000E+00 -0.80936738080E+02  0.80936738080E+02  0.00000000000E+00 0.  1.
         23    2    1    2    0    0 -0.49219311390E+02  0.35117595841E+02 -0.66831546545E+01  0.10888854762E+03  0.90312042911E+02 0.  0.
         23    2    1    2    0    0  0.24088616732E+02 -0.25839168122E+02  0.90877664180E+02  0.13283317070E+03  0.90210738415E+02 0.  0.
        -11    1    3    3    0    0 -0.23152706615E+02 -0.27813735393E+02 -0.17021408743E+02  0.39992249945E+02  0.00000000000E+00 0.  1.
         11    1    3    3    0    0 -0.26066604775E+02  0.62931331234E+02  0.10338254089E+02  0.68896297672E+02  0.00000000000E+00 0. -1.
        -11    1    4    4    0    0 -0.21939172260E+02 -0.22566832994E+02  0.79214499685E+02  0.85238056003E+02  0.00000000000E+00 0.  1.
         11    1    4    4    0    0  0.46027788992E+02 -0.32723351290E+01  0.11663164495E+02  0.47595114694E+02  0.00000000000E+00 0. -1.
         21    1    1    2  502  501  0.25130694657E+02 -0.92784277183E+01  0.80385182892E+02  0.84731450262E+02  0.00000000000E+00 0.  1.
<scales pt_clust_5="13000.00000" pt_clust_6="13000.00000" pt_clust_7="13000.00000" pt_clust_8="13000.00000" pt_clust_9="26.78882"></scales>
<clustering>
<clus scale="   26.789">  1  9  2 -1</clus>
<clus scale="   90.211">  7  8 -1 -1</clus>
<clus scale="   90.312">  5  6 -1 -1</clus>
<clus scale="  104.327">  1  7  2 -1</clus>
<clus scale="   26.789">  1  5  2 -1</clus>
</clustering>
</event>
<event>
 9    1  0.1296032E-005  0.1010151E+03  0.7546771E-02  0.1278609E+00
          1   -1    0    0  502    0  0.00000000000E+00  0.00000000000E+00  0.23025181889E+03  0.23025181889E+03  0.00000000000E+00 0. -1.
         -1   -1    0    0    0  501 -0.00000000000E+00 -0.00000000000E+00 -0.74874011376E+02  0.74874011376E+02  0.00000000000E+00 0.  1.
         23    2    1    2    0    0 -0.63812148758E+02  0.25167690065E+02  0.86808798693E+02  0.14323234599E+03  0.90963368755E+02 0.  0.
         23    2    1    2    0    0  0.15643987807E+02 -0.57496355462E+01  0.54370344020E+02  0.10805265727E+03  0.91877362666E+02 0.  0.
        -11    1    4    4    0    0  0.34662329285E+02  0.34471672061E+02  0.28650781338E+02  0.56662514218E+02  0.00000000000E+00 0. -1.
         11    1    4    4    0    0 -0.19018341478E+02 -0.40221307607E+02  0.25719562681E+02  0.51390143050E+02  0.00000000000E+00 0.  1.
        -11    1    3    3    0    0 -0.14385575156E+02  0.36685283015E+02  0.83551046818E+02  0.92377119390E+02  0.00000000000E+00 0. -1.
         11    1    3    3    0    0 -0.49426573602E+02 -0.11517592950E+02  0.32577518755E+01  0.50855226601E+02  0.00000000000E+00 0.  1.
         21    1    1    2  502  501  0.48168160951E+02 -0.19418054519E+02  0.14198664803E+02  0.53840827008E+02  0.00000000000E+00 0.  1.
<scales pt_clust_5="13000.00000" pt_clust_6="13000.00000" pt_clust_7="13000.00000" pt_clust_8="13000.00000" pt_clust_9="51.93489"></scales>
<clustering>
<clus scale="   51.935">  2  9  1 -1</clus>
<clus scale="   90.963">  7  8 -1 -1</clus>
<clus scale="   91.877">  5  6 -1 -1</clus>
<clus scale="  100.184">  2  7  1 -1</clus>
<clus scale="  101.015">  1  5  2 -1</clus>
</clustering>
</event>
<event>
 9    1  0.1296032E-005  0.2019558E+03  0.7546771E-02  0.1148902E+00
          3   -1    0    0  502    0  0.00000000000E+00  0.00000000000E+00  0.42905182757E+03  0.42905182757E+03  0.00000000000E+00 0. -1.
         -3   -1    0    0    0  501 -0.00000000000E+00 -0.00000000000E+00 -0.13403248191E+03  0.13403248191E+03  0.00000000000E+00 0.  1.
         23    2    1    2    0    0  0.94113265882E+02 -0.16367681539E+03  0.29907937808E+02  0.21595845906E+03  0.10047967249E+03 0.  0.
         23    2    1    2    0    0 -0.54721521818E+02  0.14078737002E+03  0.19444815245E+03  0.26304891023E+03  0.92569523452E+02 0.  0.
        -11    1    3    3    0    0  0.44968516428E+02 -0.51326171259E+02  0.58679946536E+02  0.89999330282E+02  0.00000000000E+00 0. -1.
         11    1    3    3    0    0  0.49144749455E+02 -0.11235064413E+03 -0.28772008728E+02  0.12595912877E+03  0.00000000000E+00 0.  1.
        -13    1    4    4    0    0  0.20588011382E+02  0.51164602618E+02  0.93100520627E+02  0.10820993353E+03  0.00000000000E+00 0. -1.
         13    1    4    4    0    0 -0.75309533200E+02  0.89622767405E+02  0.10134763182E+03  0.15483897670E+03  0.00000000000E+00 0.  1.
         21    1    1    2  502  501 -0.39391744064E+02  0.22889445366E+02  0.70663255399E+02  0.84076940198E+02  0.00000000000E+00 0. -1.
<scales pt_clust_5="13000.00000" pt_clust_6="13000.00000" pt_clust_7="13000.00000" pt_clust_8="13000.00000" pt_clust_9="45.55915"></scales>
<clustering>
<clus scale="   45.559">  1  9  2 -1</clus>
<clus scale="   92.570">  7  8 -1 -1</clus>
<clus scale="  100.480">  5  6 -1 -1</clus>
<clus scale="  198.139">  1  7  2 -1</clus>
<clus scale="   45.559">  1  5  2 -1</clus>
</clustering>
</event>
<event>
 9    1  0.1296032E-005  0.1924144E+03  0.7546771E-02  0.1156567E+00
          2   -1    0    0  502    0  0.00000000000E+00  0.00000000000E+00  0.18845676843E+03  0.18845676843E+03  0.00000000000E+00 0. -1.
         -2   -1    0    0    0  501 -0.00000000000E+00 -0.00000000000E+00 -0.40006452512E+03  0.40006452512E+03  0.00000000000E+00 0.  1.
         23    2    1    2    0    0  0.84458287916E+02  0.15298527487E+03 -0.25556276677E+03  0.32172496721E+03  0.87503885880E+02 0.  0.
         23    2    1    2    0    0 -0.96504740802E+02 -0.12778035458E+03 -0.31435688055E+02  0.18639631142E+03  0.90079955667E+02 0.  0.
        -11    1    4    4    0    0 -0.77912268997E+02 -0.13648552409E+03 -0.42866208486E+02  0.16289914603E+03  0.00000000000E+00 0. -1.
         11    1    4    4    0    0 -0.18592471804E+02  0.87051695114E+01  0.11430520431E+02  0.23497165389E+02  0.00000000000E+00 0.  1.
        -13    1    3    3    0    0  0.30161171963E+02  0.46569812312E+02 -0.22588757349E+02  0.59905723195E+02  0.00000000000E+00 0. -1.
         13    1    3    3    0    0  0.54297115953E+02  0.10641546256E+03 -0.23297400942E+03  0.26181924402E+03  0.00000000000E+00 0.  1.
         21    1    1    2  502  501  0.12046452886E+02 -0.25204920291E+02  0.75390698138E+02  0.80400014923E+02  0.00000000000E+00 0.  1.
<scales pt_clust_5="13000.00000" pt_clust_6="13000.00000" pt_clust_7="13000.00000" pt_clust_8="13000.00000" pt_clust_9="27.93573"></scales>
<clustering>
<clus scale="   27.936">  1  9  2 -1</clus>
<clus scale="   87.504">  7  8 -1 -1</clus>
<clus scale="   90.080">  5  6 -1 -1</clus>
<clus scale="  191.222">  2  7  1 -1</clus>
<clus scale="   27.936">  1  5  2 -1</clus>
</clustering>
</event>
<event>
 9    1  0.1296032E-005  0.1137295E+03  0.7546771E-02  0.1256440E+00
         -1   -1    0    0    0  501 -0.00000000000E+00  0.00000000000E+00  0.29170340873E+02  0.29170340873E+02  0.00000000000E+00 0.  1.
          1   -1    0    0  502    0  0.00000000000E+00 -0.00000000000E+00 -0.65058590270E+03  0.65058590270E+03  0.00000000000E+00 0. -1.
         23    2    1    2    0    0  0.83957162082E+02  0.75909964258E+01 -0.25120971646E+03  0.27992687344E+03  0.90256880851E+02 0.  0.
         23    2    1    2    0    0 -0.58380587604E+02  0.25107894803E+02 -0.30637440197E+03  0.32368587523E+03  0.82876849891E+02 0.  0.
        -11    1    3    3    0    0  0.43893837378E+02  0.96366224141E+01 -0.27579770619E+02  0.52727385661E+02  0.00000000000E+00 0.  1.
         11    1    3    3    0    0  0.40063324704E+02 -0.20456259883E+01 -0.22362994584E+03  0.22719948778E+03  0.00000000000E+00 0. -1.
        -13    1    4    4    0    0  0.96097210456E+01 -0.18938852060E+02 -0.94382346020E+02  0.96742204318E+02  0.00000000000E+00 0. -1.
         13    1    4    4    0    0 -0.67990308650E+02  0.44046746863E+02 -0.21199205595E+03  0.22694367091E+03  0.00000000000E+00 0.  1.
         21    1    1    2  502  501 -0.25576574478E+02 -0.32698891229E+02 -0.63831443390E+02  0.76143494895E+02  0.00000000000E+00 0. -1.
<scales pt_clust_5="13000.00000" pt_clust_6="13000.00000" pt_clust_7="13000.00000" pt_clust_8="13000.00000" pt_clust_9="41.51360"></scales>
<clustering>
<clus scale="   41.514">  1  9  2 -1</clus>
<clus scale="   82.877">  7  8 -1 -1</clus>
<clus scale="   90.257">  5  6 -1 -1</clus>
<clus scale="  107.966">  2  7  1 -1</clus>
<clus scale="  107.966">  2  5  1 -1</clus>
</clustering>
</event>
<event>
 9    1  0.1296032E-005  0.9834881E+02  0.7546771E-02  0.1286455E+00
         -1   -1    0    0    0  501 -0.00000000000E+00  0.00000000000E+00  0.69185280973E+02  0.69185280973E+02  0.00000000000E+00 0.  1.
          1   -1    0    0  502    0  0.00000000000E+00 -0.00000000000E+00 -0.27364760837E+03  0.27364760837E+03  0.00000000000E+00 0. -1.
         23    2    1    2    0    0  0.27082594052E+02  0.50618539639E+01  0.73300460189E+01  0.99067832018E+02  0.94876849125E+02 0.  0.
         23    2    1    2    0    0 -0.13347930179E+02 -0.25563916524E+02 -0.15012109913E+03  0.17733974864E+03  0.89896390238E+02 0.  0.
        -13    1    3    3    0    0  0.20104626837E+02  0.46225865018E+02 -0.13814998016E+02  0.52267396980E+02  0.00000000000E+00 0. -1.
         13    1    3    3    0    0  0.69779672155E+01 -0.41164011054E+02  0.21145044035E+02  0.46800435038E+02  0.00000000000E+00 0.  1.
        -13    1    4    4    0    0 -0.42166383796E+02 -0.23689886864E+02 -0.37854085288E+02  0.61417802265E+02  0.00000000000E+00 0. -1.
         13    1    4    4    0    0  0.28818453616E+02 -0.18740296597E+01 -0.11226701384E+03  0.11592194638E+03  0.00000000000E+00 0.  1.
         21    1    1    2  502  501 -0.13734663873E+02  0.20502062560E+02 -0.61671274287E+02  0.66425308679E+02  0.00000000000E+00 0. -1.
<scales pt_clust_5="13000.00000" pt_clust_6="13000.00000" pt_clust_7="13000.00000" pt_clust_8="13000.00000" pt_clust_9="24.67743"></scales>
<clustering>
<clus scale="   24.677">  2  9  1 -1</clus>
<clus scale="   89.896">  7  8 -1 -1</clus>
<clus scale="   93.553">  2  7  1 -1</clus>
<clus scale="   94.877">  5  6 -1 -1</clus>
<clus scale="   24.677">  2  5  1 -1</clus>
</clustering>
</event>
<event>
 9    1  0.1296032E-005  0.1675757E+03  0.7546771E-02  0.1188268E+00
          2   -1    0    0  502    0  0.00000000000E+00  0.00000000000E+00  0.35850000561E+03  0.35850000561E+03  0.00000000000E+00 0. -1.
         -2   -1    0    0    0  501 -0.00000000000E+00 -0.00000000000E+00 -0.39059978009E+03  0.39059978009E+03  0.00000000000E+00 0.  1.
         23    2    1    2    0    0 -0.13588984560E+03 -0.10270628754E+03  0.23136958434E+03  0.30147573197E+03  0.91329627027E+02 0.  0.
         23    2    1    2    0    0 -0.49077698634E+01  0.10915987681E+03  0.89722360652E+01  0.14088305555E+03  0.88473552050E+02 0.  0.
        -11    1    4    4    0    0  0.31538998776E+02  0.74077803415E+01 -0.34968894940E+00  0.32399165665E+02  0.00000000000E+00 0. -1.
         11    1    4    4    0    0 -0.36446768640E+02  0.10175209646E+03  0.93219250146E+01  0.10848388989E+03  0.00000000000E+00 0.  1.
        -13    1    3    3    0    0 -0.66118811269E+02 -0.83914535409E+02  0.79092305610E+02  0.13292456230E+03  0.00000000000E+00 0.  1.
         13    1    3    3    0    0 -0.69771034335E+02 -0.18791752133E+02  0.15227727873E+03  0.16855116967E+03  0.00000000000E+00 0. -1.
         21    1    1    2  502  501  0.14079761547E+03 -0.64535892641E+01 -0.27244159488E+03  0.30674099817E+03  0.00000000000E+00 0.  1.
<scales pt_clust_5="13000.00000" pt_clust_6="13000.00000" pt_clust_7="13000.00000" pt_clust_8="13000.00000" pt_clust_9="140.50088"></scales>
<clustering>
<clus scale="   88.474">  5  6 -1 -1</clus>
<clus scale="   91.330">  7  8 -1 -1</clus>
<clus scale="  140.597">  1  5  2 -1</clus>
<clus scale="  140.501">  2  9  1 -1</clus>
<clus scale="  140.597">  1  5  2 -1</clus>
</clustering>
</event>
<event>
 9    1  0.1296032E-005  0.1196461E+03  0.7546771E-02  0.1249955E+00
          1   -1    0    0  502    0  0.00000000000E+00  0.00000000000E+00  0.16230645599E+03  0.16230645599E+03  0.00000000000E+00 0. -1.
         -1   -1    0    0    0  501 -0.00000000000E+00 -0.00000000000E+00 -0.15299039569E+03  0.15299039569E+03  0.00000000000E+00 0.  1.
         23    2    1    2    0    0  0.51020867457E+02 -0.13897522383E+02 -0.86090728514E+02  0.13619688149E+03  0.91332945575E+02 0.  0.
         23    2    1    2    0    0 -0.41815672600E+02  0.40431112121E+02  0.86445694736E+02  0.14962000744E+03  0.10737813179E+03 0.  0.
        -11    1    4    4    0    0 -0.77052830825E+02  0.38668353588E+02  0.54272321246E+02  0.10187180749E+03  0.00000000000E+00 0. -1.
         11    1    4    4    0    0  0.35237158225E+02  0.17627585331E+01  0.32173373489E+02  0.47748199957E+02  0.00000000000E+00 0.  1.
        -13    1    3    3    0    0  0.20884413190E+02 -0.11868394051E+02  0.16572022691E+02  0.29183033217E+02  0.00000000000E+00 0. -1.
         13    1    3    3    0    0  0.30136454267E+02 -0.20291283316E+01 -0.10266275120E+03  0.10701384827E+03  0.00000000000E+00 0.  1.
         21    1    1    2  502  501 -0.92051948565E+01 -0.26533589738E+02  0.89610940742E+01  0.29479962750E+02  0.00000000000E+00 0.  1.
<scales pt_clust_5="13000.00000" pt_clust_6="13000.00000" pt_clust_7="13000.00000" pt_clust_8="13000.00000" pt_clust_9="28.08500"></scales>
<clustering>
<clus scale="   28.085">  1  9  2 -1</clus>
<clus scale="   91.333">  7  8 -1 -1</clus>
<clus scale="  105.484">  2  7  1 -1</clus>
<clus scale="  107.378">  5  6 -1 -1</clus>
<clus scale="   28.085">  1  5  2 -1</clus>
</clustering>
</event>
<event>
 9    1  0.3770499E-005  0.9724342E+02  0.7546771E-02  0.1288707E+00
         -2   -1    0    0    0  501 -0.00000000000E+00  0.00000000000E+00  0.22025852905E+03  0.22025852905E+03  0.00000000000E+00 0.  1.
          2   -1    0    0  502    0  0.00000000000E+00 -0.00000000000E+00 -0.31586175894E+03  0.31586175894E+03  0.00000000000E+00 0. -1.
         23    2    1    2    0    0 -0.12272005428E+02  0.40257424496E+02  0.19571972344E+03  0.21642178045E+03  0.82224780729E+02 0.  0.
         23    2    1    2    0    0  0.25118905280E+02 -0.59471348068E+02 -0.24269231619E+03  0.26585469115E+03  0.87243084667E+02 0.  0.
        -11    1    4    4    0    0 -0.12343371005E+02  0.17949010425E+02 -0.62524569553E+02  0.66210630421E+02  0.00000000000E+00 0.  1.
         11    1    4    4    0    0  0.37462276284E+02 -0.77420358493E+02 -0.18016774664E+03  0.19964406072E+03  0.00000000000E+00 0. -1.
        -11    1    3    3    0    0 -0.40866776150E+02  0.47060121440E+02  0.14447244490E+03  0.15734368674E+03  0.00000000000E+00 0.  1.
         11    1    3    3    0    0  0.28594770722E+02 -0.68026969436E+01  0.51247278542E+02  0.59078093709E+02  0.00000000000E+00 0. -1.
         21    1    1    2  502  501 -0.12846899852E+02  0.19213923571E+02 -0.48630637136E+02  0.53843816386E+02  0.00000000000E+00 0. -1.
<scales pt_clust_5="13000.00000" pt_clust_6="13000.00000" pt_clust_7="13000.00000" pt_clust_8="13000.00000" pt_clust_9="23.11315"></scales>
<clustering>
<clus scale="   23.113">  2  9  1 -1</clus>
<clus scale="   82.225">  7  8 -1 -1</clus>
<clus scale="   87.243">  5  6 -1 -1</clus>
<clus scale="   92.768">  1  7  2 -1</clus>
<clus scale="   23.113">  2  5  1 -1</clus>
</clustering>
</event>
<event>
 9    1  0.1296032E-005  0.1149544E+03  0.7546771E-02  0.1253324E+00
          1   -1    0    0  502    0  0.00000000000E+00  0.00000000000E+00  0.57855860996E+03  0.57855860996E+03  0.00000000000E+00 0. -1.
         -1   -1    0    0    0  501 -0.00000000000E+00 -0.00000000000E+00 -0.34694390304E+02  0.34694390304E+02  0.00000000000E+00 0.  1.
         23    2    1    2    0    0 -0.39999897793E+02  0.60071640860E+02  0.12898882304E+03  0.17299591378E+03  0.89893691961E+02 0.  0.
         23    2    1    2    0    0  0.51324795253E+02 -0.25857339213E+02  0.29347348234E+03  0.31361863842E+03  0.94483484955E+02 0.  0.
        -13    1    3    3    0    0  0.22625785862E+02  0.69058626904E+01  0.64050127192E+02  0.68279103090E+02  0.00000000000E+00 0. -1.
         13    1    3    3    0    0 -0.62625683655E+02  0.53165778169E+02  0.64938695850E+02  0.10471681069E+03  0.00000000000E+00 0.  1.
        -13    1    4    4    0    0  0.38523549854E+02  0.26084855336E+02  0.71604956978E+02  0.85391764445E+02  0.00000000000E+00 0.  1.
         13    1    4    4    0    0  0.12801245399E+02 -0.51942194549E+02  0.22186852536E+03  0.22822687397E+03  0.00000000000E+00 0. -1.
         21    1    1    2  502  501 -0.11324897459E+02 -0.34214301646E+02  0.12140191428E+03  0.12663844807E+03  0.00000000000E+00 0. -1.
<scales pt_clust_5="13000.00000" pt_clust_6="13000.00000" pt_clust_7="13000.00000" pt_clust_8="13000.00000" pt_clust_9="36.03986"></scales>
<clustering>
<clus scale="   36.040">  1  9  2 -1</clus>
<clus scale="   89.894">  5  6 -1 -1</clus>
<clus scale="   94.483">  7  8 -1 -1</clus>
<clus scale="  111.213">  2  5  1 -1</clus>
<clus scale="   36.040">  1  5  2 -1</clus>
</clustering>
</event>
<event>
 9    1  0.1296032E-005  0.9612240E+02  0.7546771E-02  0.1289036E+00
          1   -1    0    0  502    0  0.00000000000E+00  0.00000000000E+00  0.93615676079E+02  0.93615676079E+02  0.00000000000E+00 0. -1.
         -1   -1    0    0    0  501 -0.00000000000E+00 -0.00000000000E+00 -0.17166277403E+03  0.17166277403E+03  0.00000000000E+00 0.  1.
         23    2    1    2    0    0  0.19425045681E+02  0.25733089543E+02 -0.85203015704E+02  0.12919505088E+03  0.91609404482E+02 0.  0.
         23    2    1    2    0    0 -0.24851247389E+02  0.54632470096E+00 -0.20270681061E+02  0.97713233724E+02  0.92298930474E+02 0.  0.
        -11    1    3    3    0    0 -0.21457863392E+02 -0.45665642819E+01  0.77148677407E+01  0.23255377764E+02  0.00000000000E+00 0.  1.
         11    1    3    3    0    0  0.40882909072E+02  0.30299653824E+02 -0.92917883444E+02  0.10593967312E+03  0.00000000000E+00 0. -1.
        -13    1    4    4    0    0 -0.17491958870E+02  0.41121611023E+02 -0.31855939222E+02  0.54879471407E+02  0.00000000000E+00 0.  1.
         13    1    4    4    0    0 -0.73592885190E+01 -0.40575286322E+02  0.11585258160E+02  0.42833762317E+02  0.00000000000E+00 0. -1.
         21    1    1    2  502  501  0.54262017081E+01 -0.26279414243E+02  0.27426598818E+02  0.38370165502E+02  0.00000000000E+00 0. -1.
<scales pt_clust_5="13000.00000" pt_clust_6="13000.00000" pt_clust_7="13000.00000" pt_clust_8="13000.00000" pt_clust_9="26.83377"></scales>
<clustering>
<clus scale="   26.834">  1  9  2 -1</clus>
<clus scale="   91.609">  5  6 -1 -1</clus>
<clus scale="   92.299">  7  8 -1 -1</clus>
<clus scale="   95.460">  2  5  1 -1</clus>
<clus scale="   26.834">  1  5  2 -1</clus>
</clustering>
</event>
<event>
 9    1  0.1296032E-005  0.3856889E+03  0.7546771E-02  0.1048852E+00
         -1   -1    0    0    0  501 -0.00000000000E+00  0.00000000000E+00  0.19733971557E+03  0.19733971557E+03  0.00000000000E+00 0.  1.
          1   -1    0    0  502    0  0.00000000000E+00 -0.00000000000E+00 -0.15887021873E+04  0.15887021873E+04  0.00000000000E+00 0. -1.
         23    2    1    2    0    0  0.11627571419E+03  0.34605576672E+03 -0.80919996127E+02  0.38474652880E+03  0.90593654642E+02 0.  0.
         23    2    1    2    0    0 -0.11907783438E+03 -0.40511849628E+03 -0.10740118499E+04  0.11575830464E+04  0.90534683132E+02 0.  0.
        -11    1    3    3    0    0  0.10822898795E+03  0.20392754674E+03 -0.73147471694E+02  0.24217867529E+03  0.00000000000E+00 0. -1.
         11    1    3    3    0    0  0.80467262434E+01  0.14212821998E+03 -0.77725244338E+01  0.14256785351E+03  0.00000000000E+00 0.  1.
        -13    1    4    4    0    0 -0.98229059425E+02 -0.31092894830E+03 -0.71514244603E+03  0.78597358551E+03  0.00000000000E+00 0. -1.
         13    1    4    4    0    0 -0.20848774960E+02 -0.94189547980E+02 -0.35886940390E+03  0.37160946088E+03  0.00000000000E+00 0.  1.
         21    1    1    2  502  501  0.28021201897E+01  0.59062729569E+02 -0.23643062573E+03  0.24371232772E+03  0.00000000000E+00 0. -1.
<scales pt_clust_5="13000.00000" pt_clust_6="13000.00000" pt_clust_7="13000.00000" pt_clust_8="13000.00000" pt_clust_9="59.12916"></scales>
<clustering>
<clus scale="   59.129">  2  9  1 -1</clus>
<clus scale="   90.535">  7  8 -1 -1</clus>
<clus scale="   90.594">  5  6 -1 -1</clus>
<clus scale="  385.675">  2  7  1 -1</clus>
<clus scale="   59.129">  2  5  1 -1</clus>
</clustering>
</event>
<event>
 9    1  0.1296032E-005  0.1090277E+03  0.7546771E-02  0.1262603E+00
          2   -1    0    0  502    0  0.00000000000E+00  0.00000000000E+00  0.14721301752E+03  0.14721301752E+03  0.00000000000E+00 0. -1.
         -2   -1    0    0    0  501 -0.00000000000E+00 -0.00000000000E+00 -0.17290995959E+03  0.17290995959E+03  0.00000000000E+00 0.  1.
         23    2    1    2    0    0  0.12042763522E+01  0.52944524297E+02 -0.10335844766E+03  0.14830057122E+03  0.92225364121E+02 0.  0.
         23    2    1    2    0    0  0.61658902732E+01 -0.77639513489E+02  0.41146718523E+02  0.12712910076E+03  0.91667025469E+02 0.  0.
        -11    1    3    3    0    0  0.33193759183E+02  0.38376151870E+02 -0.10105069286E+03  0.11307429951E+03  0.00000000000E+00 0. -1.
         11    1    3    3    0    0 -0.31989482830E+02  0.14568372427E+02 -0.23077548031E+01  0.35226271718E+02  0.00000000000E+00 0.  1.
        -13    1    4    4    0    0 -0.55932742219E+01  0.19484034651E+02 -0.16647117553E+01  0.20339213063E+02  0.00000000000E+00 0.  1.
         13    1    4    4    0    0  0.11759164495E+02 -0.97123548140E+02  0.42811430278E+02  0.10678988770E+03  0.00000000000E+00 0. -1.
         21    1    1    2  502  501 -0.73701666254E+01  0.24694989192E+02  0.36514787069E+02  0.44693305114E+02  0.00000000000E+00 0.  1.
<scales pt_clust_5="13000.00000" pt_clust_6="13000.00000" pt_clust_7="13000.00000" pt_clust_8="13000.00000" pt_clust_9="25.77134"></scales>
<clustering>
<clus scale="   25.771">  1  9  2 -1</clus>
<clus scale="   91.667">  7  8 -1 -1</clus>
<clus scale="   92.225">  5  6 -1 -1</clus>
<clus scale="  108.556">  1  7  2 -1</clus>
<clus scale="   25.771">  1  5  2 -1</clus>
</clustering>
</event>
<event>
 9    1  0.1296032E-005  0.2224177E+03  0.7546771E-02  0.1148860E+00
         -1   -1    0    0    0  501 -0.00000000000E+00  0.00000000000E+00  0.26996048821E+03  0.26996048821E+03  0.00000000000E+00 0.  1.
          1   -1    0    0  502    0  0.00000000000E+00 -0.00000000000E+00 -0.36621795587E+03  0.36621795587E+03  0.00000000000E+00 0. -1.
         23    2    1    2    0    0  0.88514248839E+02  0.76631330331E+02  0.68130198575E+02  0.16336344888E+03  0.91316808066E+02 0.  0.
         23    2    1    2    0    0  0.41306218952E+02 -0.22441955597E+03 -0.80018017957E+02  0.25877539362E+03  0.92149228550E+02 0.  0.
        -11    1    4    4    0    0  0.56795172153E+02 -0.72683592951E+02 -0.43269185830E+02  0.10188630284E+03  0.00000000000E+00 0. -1.
         11    1    4    4    0    0 -0.15488953201E+02 -0.15173596302E+03 -0.36748832127E+02  0.15688909078E+03  0.00000000000E+00 0.  1.
        -13    1    3    3    0    0 -0.15883467343E+02  0.21117206547E+02 -0.91615343940E+00  0.26439748190E+02  0.00000000000E+00 0. -1.
         13    1    3    3    0    0  0.10439771618E+03  0.55514123784E+02  0.69046352014E+02  0.13692370069E+03  0.00000000000E+00 0.  1.
         21    1    1    2  502  501 -0.12982046779E+03  0.14778822564E+03 -0.84369648277E+02  0.21403960158E+03  0.00000000000E+00 0. -1.
<scales pt_clust_5="13000.00000" pt_clust_6="13000.00000" pt_clust_7="13000.00000" pt_clust_8="13000.00000" pt_clust_9="202.43061"></scales>
<clustering>
<clus scale="   91.317">  7  8 -1 -1</clus>
<clus scale="   92.149">  5  6 -1 -1</clus>
<clus scale="  148.479">  1  7  2 -1</clus>
<clus scale="  202.431">  2  9  1 -1</clus>
<clus scale="  202.431">  2  5  1 -1</clus>
</clustering>
</event>
<event>
 9    1  0.1296032E-005  0.1263187E+03  0.7546771E-02  0.1233186E+00
         -1   -1    0    0    0  501 -0.00000000000E+00  0.00000000000E+00  0.58902539841E+02  0.58902539841E+02  0.00000000000E+00 0.  1.
          1   -1    0    0  502    0  0.00000000000E+00 -0.00000000000E+00 -0.54049856765E+03  0.54049856765E+03  0.00000000000E+00 0. -1.
         23    2    1    2    0    0 -0.97657215416E+02  0.25831151760E+02 -0.67480980139E+02  0.15215782330E+03  0.91619541515E+02 0.  0.
         23    2    1    2    0    0  0.59743363570E+02 -0.12504233416E+02 -0.18826370497E+03  0.21784429571E+03  0.91034549604E+02 0.  0.
        -11    1    4    4    0    0  0.11943740630E+02  0.23051192288E+02 -0.13642841797E+03  0.13887664899E+03  0.00000000000E+00 0. -1.
         11    1    4    4    0    0  0.47799622940E+02 -0.35555425704E+02 -0.51835287006E+02  0.78967646724E+02  0.00000000000E+00 0.  1.
        -13    1    3    3    0    0 -0.12981406016E+01 -0.26618027043E+02 -0.12231188849E+02  0.29322457492E+02  0.00000000000E+00 0. -1.
         13    1    3    3    0    0 -0.96359074815E+02  0.52449178803E+02 -0.55249791290E+02  0.12283536581E+03  0.00000000000E+00 0.  1.
         21    1    1    2  502  501  0.37913851846E+02 -0.13326918344E+02 -0.22585134270E+03  0.22939898847E+03  0.00000000000E+00 0.  1.
<scales pt_clust_5="13000.00000" pt_clust_6="13000.00000" pt_clust_7="13000.00000" pt_clust_8="13000.00000" pt_clust_9="40.18790"></scales>
<clustering>
<clus scale="   40.188">  2  9  1 -1</clus>
<clus scale="   91.035">  5  6 -1 -1</clus>
<clus scale="   91.620">  7  8 -1 -1</clus>
<clus scale="  125.895">  2  5  1 -1</clus>
<clus scale="   40.188">  2  5  1 -1</clus>
</clustering>
</event>
<event>
 9    1  0.1296032E-005  0.2694739E+03  0.7546771E-02  0.1101665E+00
         -2   -1    0    0    0  501 -0.00000000000E+00  0.00000000000E+00  0.60039585332E+02  0.60039585332E+02  0.00000000000E+00 0.  1.
          2   -1    0    0  502    0  0.00000000000E+00 -0.00000000000E+00 -0.22516522882E+04  0.22516522882E+04  0.00000000000E+00 0. -1.
         23    2    1    2    0    0 -0.44260166377E+02  0.21190613047E+03 -0.48215085738E+03  0.53615965490E+03  0.90191772445E+02 0.  0.
         23    2    1    2    0    0  0.99093986835E+02 -0.31227013109E+03 -0.98542117648E+03  0.10425147762E+04  0.91923395290E+02 0.  0.
        -11    1    3    3    0    0 -0.67281560065E+02  0.19227379578E+03 -0.43135456121E+03  0.47703540575E+03  0.00000000000E+00 0.  1.
         11    1    3    3    0    0  0.23021393689E+02  0.19632334689E+02 -0.50796296170E+02  0.59124249148E+02  0.00000000000E+00 0. -1.
        -11    1    4    4    0    0  0.30735966006E+02 -0.22201147086E+03 -0.71630220777E+03  0.75054823007E+03  0.00000000000E+00 0. -1.
         11    1    4    4    0    0  0.68358020829E+02 -0.90258660230E+02 -0.26911896871E+03  0.29196654616E+03  0.00000000000E+00 0.  1.
         21    1    1    2  502  501 -0.54833820459E+02  0.10036400062E+03 -0.72404066906E+03  0.73301744245E+03  0.00000000000E+00 0.  1.
<scales pt_clust_5="13000.00000" pt_clust_6="13000.00000" pt_clust_7="13000.00000" pt_clust_8="13000.00000" pt_clust_9="114.36643"></scales>
<clustering>
<clus scale="   90.192">  5  6 -1 -1</clus>
<clus scale="   91.923">  7  8 -1 -1</clus>
<clus scale="  114.366">  2  9  1 -1</clus>
<clus scale="  268.888">  1  5  2 -1</clus>
<clus scale="  114.366">  2  5  1 -1</clus>
</clustering>
</event>
<event>
 9    1  0.1296032E-005  0.1062468E+03  0.7546771E-02  0.1268126E+00
         -1   -1    0    0    0  501 -0.00000000000E+00  0.00000000000E+00  0.67765871744E+02  0.67765871744E+02  0.00000000000E+00 0.  1.
          1   -1    0    0  502    0  0.00000000000E+00 -0.00000000000E+00 -0.24701018568E+03  0.24701018568E+03  0.00000000000E+00 0. -1.
         23    2    1    2    0    0 -0.68525578367E+02  0.42199411910E+01 -0.45239710088E+02  0.12258209931E+03  0.90918517957E+02 0.  0.
         23    2    1    2    0    0  0.38816863340E+02 -0.10346368623E+02 -0.68225513766E+02  0.11975757531E+03  0.89851877515E+02 0.  0.
        -11    1    3    3    0    0 -0.31545823778E+01  0.22631728532E+02 -0.49514990748E+02  0.54533300241E+02  0.00000000000E+00 0. -1.
         11    1    3    3    0    0 -0.65370995990E+02 -0.18411787341E+02  0.42752806598E+01  0.68048799067E+02  0.00000000000E+00 0.  1.
        -13    1    4    4    0    0  0.89112895484E+01 -0.42710790997E+02 -0.67948159588E+01  0.44156452223E+02  0.00000000000E+00 0.  1.
         13    1    4    4    0    0  0.29905573792E+02  0.32364422374E+02 -0.61430697807E+02  0.75601123090E+02  0.00000000000E+00 0. -1.
         21    1    1    2  502  501  0.29708715027E+02  0.61264274317E+01 -0.65779090084E+02  0.72436382805E+02  0.00000000000E+00 0. -1.
<scales pt_clust_5="13000.00000" pt_clust_6="13000.00000" pt_clust_7="13000.00000" pt_clust_8="13000.00000" pt_clust_9="30.33382"></scales>
<clustering>
<clus scale="   30.334">  2  9  1 -1</clus>
<clus scale="   89.852">  7  8 -1 -1</clus>
<clus scale="   90.919">  5  6 -1 -1</clus>
<clus scale="  105.335">  2  7  1 -1</clus>
<clus scale="   30.334">  2  5  1 -1</clus>
</clustering>
</event>
<event>
 9    1  0.1296032E-005  0.1860340E+03  0.7546771E-02  0.1162327E+00
          1   -1    0    0  502    0  0.00000000000E+00  0.00000000000E+00  0.44699434124E+03  0.44699434124E+03  0.00000000000E+00 0. -1.
         -1   -1    0    0    0  501 -0.00000000000E+00 -0.00000000000E+00 -0.21144441647E+03  0.21144441647E+03  0.00000000000E+00 0.  1.
         23    2    1    2    0    0 -0.78650254450E-01 -0.17014635431E+03 -0.13195353845E+03  0.23384784211E+03  0.91232060601E+02 0.  0.
         23    2    1    2    0    0 -0.20698126753E+02  0.11205506959E+03  0.30052734626E+03  0.33353010039E+03  0.89111676822E+02 0.  0.
        -11    1    3    3    0    0  0.33857527187E+02 -0.24151424436E+02 -0.41654309043E+02  0.58861744039E+02  0.00000000000E+00 0. -1.
         11    1    3    3    0    0 -0.33936177441E+02 -0.14599492987E+03 -0.90299229408E+02  0.17498609808E+03  0.00000000000E+00 0.  1.
        -13    1    4    4    0    0  0.32576211277E+02  0.50991198196E+02  0.16345273915E+03  0.17429317190E+03  0.00000000000E+00 0.  1.
         13    1    4    4    0    0 -0.53274338030E+02  0.61063871395E+02  0.13707460711E+03  0.15923692850E+03  0.00000000000E+00 0. -1.
         21    1    1    2  502  501  0.20776777007E+02  0.58091284718E+02  0.66976116958E+02  0.91060815204E+02  0.00000000000E+00 0. -1.
<scales pt_clust_5="13000.00000" pt_clust_6="13000.00000" pt_clust_7="13000.00000" pt_clust_8="13000.00000" pt_clust_9="61.69499"></scales>
<clustering>
<clus scale="   61.695">  1  9  2 -1</clus>
<clus scale="   89.112">  7  8 -1 -1</clus>
<clus scale="   91.232">  5  6 -1 -1</clus>
<clus scale="  185.003">  1  7  2 -1</clus>
<clus scale="   61.695">  1  5  2 -1</clus>
</clustering>
</event>
<event>
 9    1  0.1296032E-005  0.1134179E+03  0.7546771E-02  0.1255251E+00
         -1   -1    0    0    0  501 -0.00000000000E+00  0.00000000000E+00  0.13469901904E+03  0.13469901904E+03  0.00000000000E+00 0.  1.
          1   -1    0    0  502    0  0.00000000000E+00 -0.00000000000E+00 -0.26992245348E+03  0.26992245348E+03  0.00000000000E+00 0. -1.
         23    2    1    2    0    0 -0.12213536451E+02 -0.62224597568E+02  0.85696944622E+02  0.14199719630E+03  0.93798541695E+02 0.  0.
         23    2    1    2    0    0  0.32319119278E+02  0.61132683951E+02 -0.21112782757E+03  0.24023408191E+03  0.91409649495E+02 0.  0.
        -11    1    4    4    0    0 -0.24864329152E+02  0.10881640169E+02 -0.11203713525E+03  0.11527777163E+03  0.00000000000E+00 0.  1.
         11    1    4    4    0    0  0.57183448430E+02  0.50251043781E+02 -0.99090692320E+02  0.12495631028E+03  0.00000000000E+00 0. -1.
        -13    1    3    3    0    0  0.30213053227E+02 -0.96841595329E+01  0.63373169065E+02  0.70871504065E+02  0.00000000000E+00 0. -1.
         13    1    3    3    0    0 -0.42426589678E+02 -0.52540438035E+02  0.22323775558E+02  0.71125692234E+02  0.00000000000E+00 0.  1.
         21    1    1    2  502  501 -0.20105582827E+02  0.10919136174E+01 -0.97925515009E+01  0.22390194306E+02  0.00000000000E+00 0.  1.
<scales pt_clust_5="13000.00000" pt_clust_6="13000.00000" pt_clust_7="13000.00000" pt_clust_8="13000.00000" pt_clust_9="20.13521"></scales>
<clustering>
<clus scale="   20.135">  2  9  1 -1</clus>
<clus scale="   91.410">  5  6 -1 -1</clus>
<clus scale="   93.799">  7  8 -1 -1</clus>
<clus scale="  111.450">  2  5  1 -1</clus>
<clus scale="   20.135">  2  5  1 -1</clus>
</clustering>
</event>
<event>
 9    1  0.1296032E-005  0.1186832E+03  0.7546771E-02  0.1245718E+00
         -3   -1    0    0    0  501 -0.00000000000E+00  0.00000000000E+00  0.33346426284E+03  0.33346426284E+03  0.00000000000E+00 0.  1.
          3   -1    0    0  502    0  0.00000000000E+00 -0.00000000000E+00 -0.66643968990E+02  0.66643968990E+02  0.00000000000E+00 0. -1.
         23    2    1    2    0    0  0.67832120100E+02 -0.30901993903E+02  0.18975738281E+03  0.22310772088E+03  0.90625940216E+02 0.  0.
         23    2    1    2    0    0 -0.81157341333E+02 -0.83804291459E+00  0.71952654616E+02  0.14219956012E+03  0.91958218910E+02 0.  0.
        -11    1    3    3    0    0 -0.12790826788E+02 -0.33872315647E+02  0.68170053505E+02  0.77188698733E+02  0.00000000000E+00 0.  1.
         11    1    3    3    0    0  0.80622946889E+02  0.29703217443E+01  0.12158732930E+03  0.14591902214E+03  0.00000000000E+00 0. -1.
        -13    1    4    4    0    0 -0.88947042866E+02 -0.28901180221E+02  0.55306147017E+02  0.10865369092E+03  0.00000000000E+00 0.  1.
         13    1    4    4    0    0  0.77897015324E+01  0.28063137306E+02  0.16646507599E+02  0.33545869205E+02  0.00000000000E+00 0. -1.
         21    1    1    2  502  501  0.13325221233E+02  0.31740036817E+02  0.51102564300E+01  0.34800950833E+02  0.00000000000E+00 0. -1.
<scales pt_clust_5="13000.00000" pt_clust_6="13000.00000" pt_clust_7="13000.00000" pt_clust_8="13000.00000" pt_clust_9="34.42370"></scales>
<clustering>
<clus scale="   34.424">  2  9  1 -1</clus>
<clus scale="   90.626">  5  6 -1 -1</clus>
<clus scale="   91.958">  7  8 -1 -1</clus>
<clus scale="  117.654">  1  5  2 -1</clus>
<clus scale="   34.424">  2  5  1 -1</clus>
</clustering>
</event>
<event>
 9    1  0.1296032E-005  0.9501858E+02  0.7546771E-02  0.1295073E+00
         -1   -1    0    0    0  501 -0.00000000000E+00  0.00000000000E+00  0.13794507179E+03  0.13794507179E+03  0.00000000000E+00 0.  1.
          1   -1    0    0  502    0  0.00000000000E+00 -0.00000000000E+00 -0.11983901066E+03  0.11983901066E+03  0.00000000000E+00 0. -1.
         23    2    1    2    0    0 -0.12892798042E+02 -0.17402478245E+02  0.47671223508E+02  0.10149779344E+03  0.86949330251E+02 0.  0.
         23    2    1    2    0    0  0.20517135381E+02 -0.33527585002E+02 -0.15060747736E+02  0.10278507495E+03  0.93770430888E+02 0.  0.
        -11    1    4    4    0    0  0.23179518757E+02  0.43855181377E+01  0.33591366419E+02  0.41047567005E+02  0.00000000000E+00 0.  1.
         11    1    4    4    0    0 -0.26623833762E+01 -0.37913103140E+02 -0.48652114155E+02  0.61737507941E+02  0.00000000000E+00 0. -1.
        -11    1    3    3    0    0 -0.56964424057E+01 -0.45995257061E+02  0.10779809416E+01  0.46359197265E+02  0.00000000000E+00 0.  1.
         11    1    3    3    0    0 -0.71963556367E+01  0.28592778815E+02  0.46593242566E+02  0.55138596170E+02  0.00000000000E+00 0. -1.
         21    1    1    2  502  501 -0.76243373381E+01  0.50930063247E+02 -0.14504414644E+02  0.53501214065E+02  0.00000000000E+00 0. -1.
<scales pt_clust_5="13000.00000" pt_clust_6="13000.00000" pt_clust_7="13000.00000" pt_clust_8="13000.00000" pt_clust_9="51.49759"></scales>
<clustering>
<clus scale="   51.498">  2  9  1 -1</clus>
<clus scale="   86.949">  7  8 -1 -1</clus>
<clus scale="   88.294">  1  7  2 -1</clus>
<clus scale="   93.770">  5  6 -1 -1</clus>
<clus scale="   51.498">  2  5  1 -1</clus>
</clustering>
</event>
<event>
 9    1  0.1296032E-005  0.2244806E+03  0.7546771E-02  0.1130667E+00
          1   -1    0    0  502    0  0.00000000000E+00  0.00000000000E+00  0.43725275935E+03  0.43725275935E+03  0.00000000000E+00 0. -1.
         -1   -1    0    0    0  501 -0.00000000000E+00 -0.00000000000E+00 -0.18301370630E+03  0.18301370630E+03  0.00000000000E+00 0.  1.
         23    2    1    2    0    0 -0.16209858150E+03 -0.11513826474E+03 -0.26894236915E+02  0.22123191917E+03  0.93206716207E+02 0.  0.
         23    2    1    2    0    0  0.15909151893E+03  0.15608801289E+03  0.25116033561E+03  0.34819851308E+03  0.92125518529E+02 0.  0.
        -11    1    4    4    0    0  0.74270739739E+02  0.12380140389E+03  0.19053954914E+03  0.23905700194E+03  0.00000000000E+00 0.  1.
         11    1    4    4    0    0  0.84820779190E+02  0.32286609000E+02  0.60620786468E+02  0.10914151114E+03  0.00000000000E+00 0. -1.
        -13    1    3    3    0    0 -0.12568980437E+03 -0.80606537836E+02 -0.60210537883E+02  0.16099891222E+03  0.00000000000E+00 0.  1.
         13    1    3    3    0    0 -0.36408777135E+02 -0.34531726907E+02  0.33316300969E+02  0.60233006947E+02  0.00000000000E+00 0. -1.
         21    1    1    2  502  501  0.30070625731E+01 -0.40949748150E+02  0.29972954358E+02  0.50836033399E+02  0.00000000000E+00 0.  1.
<scales pt_clust_5="13000.00000" pt_clust_6="13000.00000" pt_clust_7="13000.00000" pt_clust_8="13000.00000" pt_clust_9="41.06001"></scales>
<clustering>
<clus scale="   41.060">  1  9  2 -1</clus>
<clus scale="   92.126">  5  6 -1 -1</clus>
<clus scale="   93.207">  7  8 -1 -1</clus>
<clus scale="  224.034">  1  5  2 -1</clus>
<clus scale="   41.060">  1  5  2 -1</clus>
</clustering>
</event>
<event>
 9    1  0.1296032E-005  0.9288571E+02  0.7546771E-02  0.1300797E+00
          2   -1    0    0  502    0  0.00000000000E+00  0.00000000000E+00  0.29475632591E+03  0.29475632591E+03  0.00000000000E+00 0. -1.
         -2   -1    0    0    0  501 -0.00000000000E+00 -0.00000000000E+00 -0.10966954333E+03  0.10966954333E+03  0.00000000000E+00 0.  1.
         23    2    1    2    0    0 -0.82588015929E+01 -0.17311435353E+02 -0.71774765082E+02  0.11173748702E+03  0.83461101751E+02 0.  0.
         23    2    1    2    0    0 -0.30456609209E+02  0.19289430308E+01  0.15377455247E+03  0.18150190515E+03  0.91460388804E+02 0.  0.
        -11    1    4    4    0    0 -0.53086386682E+02  0.22415332697E+02  0.61359734943E+02  0.84176176340E+02  0.00000000000E+00 0.  1.
         11    1    4    4    0    0  0.22629777473E+02 -0.20486389666E+02  0.92414817523E+02  0.97325728807E+02  0.00000000000E+00 0. -1.
        -13    1    3    3    0    0 -0.39788246727E+02 -0.14465872570E+02 -0.11848392661E+02  0.43963057849E+02  0.00000000000E+00 0.  1.
         13    1    3    3    0    0  0.31529445134E+02 -0.28455627837E+01 -0.59926372421E+02  0.67774429172E+02  0.00000000000E+00 0. -1.
         21    1    1    2  502  501  0.38715410802E+02  0.15382492322E+02  0.10308699520E+03  0.11118647707E+03  0.00000000000E+00 0. -1.
<scales pt_clust_5="13000.00000" pt_clust_6="13000.00000" pt_clust_7="13000.00000" pt_clust_8="13000.00000" pt_clust_9="41.65938"></scales>
<clustering>
<clus scale="   41.659">  1  9  2 -1</clus>
<clus scale="   83.461">  7  8 -1 -1</clus>
<clus scale="   85.021">  2  7  1 -1</clus>
<clus scale="   91.460">  5  6 -1 -1</clus>
<clus scale="   41.659">  1  5  2 -1</clus>
</clustering>
</event>
<event>
 9    1  0.1296032E-005  0.1100746E+03  0.7546771E-02  0.1260984E+00
          3   -1    0    0  502    0  0.00000000000E+00  0.00000000000E+00  0.17715182790E+03  0.17715182790E+03  0.00000000000E+00 0. -1.
         -3   -1    0    0    0  501 -0.00000000000E+00 -0.00000000000E+00 -0.19026345204E+03  0.19026345204E+03  0.00000000000E+00 0.  1.
         23    2    1    2    0    0 -0.18234079392E+02  0.65667280629E+02 -0.11559556925E+03  0.16277811137E+03  0.92139592542E+02 0.  0.
         23    2    1    2    0    0 -0.17654811131E+02 -0.57779269526E+02  0.12153208680E+03  0.16324798056E+03  0.90717796992E+02 0.  0.
        -11    1    4    4    0    0 -0.33596048394E+02  0.11809985631E+02  0.26510941924E+02  0.44395948801E+02  0.00000000000E+00 0.  1.
         11    1    4    4    0    0  0.15941237263E+02 -0.69589255157E+02  0.95021144881E+02  0.11885203176E+03  0.00000000000E+00 0. -1.
        -13    1    3    3    0    0 -0.21391859013E+02  0.88712089137E+02 -0.94662406937E+02  0.13148542763E+03  0.00000000000E+00 0.  1.
         13    1    3    3    0    0  0.31577796215E+01 -0.23044808508E+02 -0.20933162317E+02  0.31292683744E+02  0.00000000000E+00 0. -1.
         21    1    1    2  502  501  0.35888890522E+02 -0.78880111028E+01 -0.19048141696E+02  0.41389188010E+02  0.00000000000E+00 0. -1.
<scales pt_clust_5="13000.00000" pt_clust_6="13000.00000" pt_clust_7="13000.00000" pt_clust_8="13000.00000" pt_clust_9="36.74552"></scales>
<clustering>
<clus scale="   36.746">  2  9  1 -1</clus>
<clus scale="   90.718">  5  6 -1 -1</clus>
<clus scale="   92.140">  7  8 -1 -1</clus>
<clus scale="  108.887">  1  5  2 -1</clus>
<clus scale="  108.887">  1  5  2 -1</clus>
</clustering>
</event>
<event>
 9    1  0.1296032E-005  0.9439068E+02  0.7546771E-02  0.1295817E+00
          1   -1    0    0  502    0  0.00000000000E+00  0.00000000000E+00  0.39570556896E+03  0.39570556896E+03  0.00000000000E+00 0. -1.
         -1   -1    0    0    0  501 -0.00000000000E+00 -0.00000000000E+00 -0.32902515506E+02  0.32902515506E+02  0.00000000000E+00 0.  1.
         23    2    1    2    0    0 -0.11656622265E+02  0.20101723299E+02  0.91216826058E+02  0.13200115895E+03  0.92541020553E+02 0.  0.
         23    2    1    2    0    0 -0.11873261514E+02 -0.15730628637E+02  0.16647848750E+03  0.18880897153E+03  0.86863766395E+02 0.  0.
        -11    1    4    4    0    0 -0.49535505626E+02 -0.12504875597E+02  0.89670306219E+02  0.10320320755E+03  0.00000000000E+00 0. -1.
         11    1    4    4    0    0  0.37662244112E+02 -0.32257530395E+01  0.76808181280E+02  0.85605763976E+02  0.00000000000E+00 0.  1.
        -13    1    3    3    0    0  0.33074059187E+02  0.35106418571E+02  0.45768292818E+02  0.66491282462E+02  0.00000000000E+00 0.  1.
         13    1    3    3    0    0 -0.44730681452E+02 -0.15004695272E+02  0.45448533240E+02  0.65509876484E+02  0.00000000000E+00 0. -1.
         21    1    1    2  502  501  0.23529883778E+02 -0.43710946625E+01  0.10510773989E+03  0.10779795399E+03  0.00000000000E+00 0.  1.
<scales pt_clust_5="13000.00000" pt_clust_6="13000.00000" pt_clust_7="13000.00000" pt_clust_8="13000.00000" pt_clust_9="23.93244"></scales>
<clustering>
<clus scale="   23.932">  1  9  2 -1</clus>
<clus scale="   86.864">  5  6 -1 -1</clus>
<clus scale="   88.832">  1  5  2 -1</clus>
<clus scale="   92.541">  7  8 -1 -1</clus>
<clus scale="   23.932">  1  5  2 -1</clus>
</clustering>
</event>
<event>
 9    1  0.1296032E-005  0.1400099E+03  0.7546771E-02  0.1214953E+00
          1   -1    0    0  502    0  0.00000000000E+00  0.00000000000E+00  0.69340056815E+03  0.69340056815E+03  0.00000000000E+00 0. -1.
         -1   -1    0    0    0  501 -0.00000000000E+00 -0.00000000000E+00 -0.94747464673E+02  0.94747464673E+02  0.00000000000E+00 0.  1.
         23    2    1    2    0    0 -0.10251303407E+03  0.28723712213E+02 -0.18822873599E+02  0.14089528687E+03  0.90350470356E+02 0.  0.
         23    2    1    2    0    0  0.93925867450E+02 -0.73348890853E+02  0.51710718509E+03  0.53707543249E+03  0.82752951255E+02 0.  0.
        -11    1    4    4    0    0  0.20071989893E+02 -0.18246388901E+02  0.26612370622E+02  0.38000444160E+02  0.00000000000E+00 0.  1.
         11    1    4    4    0    0  0.73853877557E+02 -0.55102501952E+02  0.49049481447E+03  0.49907498833E+03  0.00000000000E+00 0. -1.
        -13    1    3    3    0    0 -0.77882285197E+02 -0.23134994860E+02 -0.28150903001E+01  0.81294545131E+02  0.00000000000E+00 0.  1.
         13    1    3    3    0    0 -0.24630748869E+02  0.51858707073E+02 -0.16007783299E+02  0.59600741734E+02  0.00000000000E+00 0. -1.
         21    1    1    2  502  501  0.85871666166E+01  0.44625178640E+02  0.10036879198E+03  0.11017731347E+03  0.00000000000E+00 0.  1.
<scales pt_clust_5="13000.00000" pt_clust_6="13000.00000" pt_clust_7="13000.00000" pt_clust_8="13000.00000" pt_clust_9="45.44388"></scales>
<clustering>
<clus scale="   45.444">  1  9  2 -1</clus>
<clus scale="   82.753">  5  6 -1 -1</clus>
<clus scale="   90.350">  7  8 -1 -1</clus>
<clus scale="  135.232">  1  5  2 -1</clus>
<clus scale="   45.444">  1  5  2 -1</clus>
</clustering>
</event>
<event>
 9    1  0.1296032E-005  0.1749880E+03  0.7546771E-02  0.1175800E+00
          1   -1    0    0  502    0  0.00000000000E+00  0.00000000000E+00  0.17890625602E+03  0.17890625602E+03  0.00000000000E+00 0. -1.
         -1   -1    0    0    0  501 -0.00000000000E+00 -0.00000000000E+00 -0.21090463782E+03  0.21090463782E+03  0.00000000000E+00 0.  1.
         23    2    1    2    0    0  0.85399409154E+02  0.13082589462E+03 -0.93317604047E+02  0.20302237283E+03  0.90007971070E+02 0.  0.
         23    2    1    2    0    0 -0.87505652838E+02 -0.10717791295E+03  0.55433865948E+02  0.16232833463E+03  0.64290204738E+02 0.  0.
        -11    1    4    4    0    0 -0.68165395228E+02 -0.35637364378E+02  0.39731276593E+02  0.86574344849E+02  0.00000000000E+00 0. -1.
         11    1    4    4    0    0 -0.19340257610E+02 -0.71540548573E+02  0.15702589355E+02  0.75753989777E+02  0.00000000000E+00 0.  1.
        -13    1    3    3    0    0  0.35421982944E+02  0.12425562169E+03 -0.58982230647E+02  0.14203196798E+03  0.00000000000E+00 0.  1.
         13    1    3    3    0    0  0.49977426209E+02  0.65702729361E+01 -0.34335373400E+02  0.60990404848E+02  0.00000000000E+00 0. -1.
         21    1    1    2  502  501  0.21062436841E+01 -0.23647981670E+02  0.58853563034E+01  0.24460186392E+02  0.00000000000E+00 0. -1.
<scales pt_clust_5="13000.00000" pt_clust_6="13000.00000" pt_clust_7="13000.00000" pt_clust_8="13000.00000" pt_clust_9="23.74159"></scales>
<clustering>
<clus scale="   23.742">  1  9  2 -1</clus>
<clus scale="   64.290">  5  6 -1 -1</clus>
<clus scale="   90.008">  7  8 -1 -1</clus>
<clus scale="  163.256">  1  5  2 -1</clus>
<clus scale="   23.742">  1  5  2 -1</clus>
</clustering>
</event>
<event>
 9    1  0.1296032E-005  0.1644076E+03  0.7546771E-02  0.1201664E+00
          1   -1    0    0  502    0  0.00000000000E+00  0.00000000000E+00  0.18734357170E+03  0.18734357170E+03  0.00000000000E+00 0. -1.
         -1   -1    0    0    0  501 -0.00000000000E+00 -0.00000000000E+00 -0.29166846563E+03  0.29166846563E+03  0.00000000000E+00 0.  1.
         23    2    1    2    0    0 -0.64274333001E+02 -0.57677298725E+01 -0.11205522081E+03  0.15773692171E+03  0.90333312632E+02 0.  0.
         23    2    1    2    0    0 -0.92841487236E+02  0.22399170692E+02 -0.66225332185E+02  0.14682906292E+03  0.89731346230E+02 0.  0.
        -13    1    4    4    0    0 -0.61597381382E+01 -0.23176147046E+02  0.65002219925E+01  0.24846107377E+02  0.00000000000E+00 0. -1.
         13    1    4    4    0    0 -0.86681749098E+02  0.45575317738E+02 -0.72725554178E+02  0.12198295555E+03  0.00000000000E+00 0.  1.
        -13    1    3    3    0    0  0.16344792456E+02  0.20332048851E+02 -0.22560616509E+02  0.34489503739E+02  0.00000000000E+00 0. -1.
         13    1    3    3    0    0 -0.80619125457E+02 -0.26099778724E+02 -0.89494604297E+02  0.12324741797E+03  0.00000000000E+00 0.  1.
         21    1    1    2  502  501  0.15711582024E+03 -0.16631440819E+02  0.73955659065E+02  0.17444605269E+03  0.00000000000E+00 0. -1.
<scales pt_clust_5="13000.00000" pt_clust_6="13000.00000" pt_clust_7="13000.00000" pt_clust_8="13000.00000" pt_clust_9="137.76117"></scales>
<clustering>
<clus scale="   89.731">  5  6 -1 -1</clus>
<clus scale="   90.333">  7  8 -1 -1</clus>
<clus scale="  111.016">  2  7  1 -1</clus>
<clus scale="  137.761">  1  9  2 -1</clus>
<clus scale="  137.761">  1  5  2 -1</clus>
</clustering>
</event>
<event>
 9    1  0.1296032E-005  0.9335616E+02  0.7546771E-02  0.1295893E+00
          1   -1    0    0  502    0  0.00000000000E+00  0.00000000000E+00  0.57921421721E+02  0.57921421721E+02  0.00000000000E+00 0. -1.
         -1   -1    0    0    0  501 -0.00000000000E+00 -0.00000000000E+00 -0.25813714525E+03  0.25813714525E+03  0.00000000000E+00 0.  1.
         23    2    1    2    0    0 -0.15489219698E+02 -0.12297628559E+02 -0.16537266445E+03  0.18997866946E+03  0.91392719120E+02 0.  0.
         23    2    1    2    0    0 -0.27408720742E+01  0.25345940352E+02 -0.42389974007E+02  0.10242507534E+03  0.89688667565E+02 0.  0.
        -11    1    4    4    0    0  0.20546622302E+02 -0.28119331653E+02 -0.13581664289E+02  0.37380771869E+02  0.00000000000E+00 0. -1.
         11    1    4    4    0    0 -0.23287494377E+02  0.53465272005E+02 -0.28808309718E+02  0.65044303469E+02  0.00000000000E+00 0.  1.
        -13    1    3    3    0    0 -0.50329822396E+02  0.87981927631E+01 -0.73841678844E+02  0.89794725640E+02  0.00000000000E+00 0.  1.
         13    1    3    3    0    0  0.34840602698E+02 -0.21095821322E+02 -0.91530985610E+02  0.10018394382E+03  0.00000000000E+00 0. -1.
         21    1    1    2  502  501  0.18230091772E+02 -0.13048311793E+02  0.75469149350E+01  0.23654822166E+02  0.00000000000E+00 0. -1.
<scales pt_clust_5="13000.00000" pt_clust_6="13000.00000" pt_clust_7="13000.00000" pt_clust_8="13000.00000" pt_clust_9="22.41862"></scales>
<clustering>
<clus scale="   22.419">  1  9  2 -1</clus>
<clus scale="   89.689">  5  6 -1 -1</clus>
<clus scale="   91.393">  7  8 -1 -1</clus>
<clus scale="   91.689">  1  5  2 -1</clus>
<clus scale="   22.419">  1  5  2 -1</clus>
</clustering>
</event>
<event>
 9    1  0.1296032E-005  0.1555739E+03  0.7546771E-02  0.1193960E+00
         -1   -1    0    0    0  501 -0.00000000000E+00  0.00000000000E+00  0.55487406289E+02  0.55487406289E+02  0.00000000000E+00 0.  1.
          1   -1    0    0  502    0  0.00000000000E+00 -0.00000000000E+00 -0.59483763795E+03  0.59483763795E+03  0.00000000000E+00 0. -1.
         23    2    1    2    0    0  0.55031453388E+01  0.12572113417E+03 -0.12905415560E+03  0.20196624690E+03  0.91100502862E+02 0.  0.
         23    2    1    2    0    0  0.18196063665E+02 -0.12691923373E+03 -0.34625288370E+03  0.38006078538E+03  0.90086361303E+02 0.  0.
        -13    1    4    4    0    0  0.43331995438E+02 -0.10388935352E+03 -0.19632087112E+03  0.22630188696E+03  0.00000000000E+00 0. -1.
         13    1    4    4    0    0 -0.25135931774E+02 -0.23029880204E+02 -0.14993201257E+03  0.15375889842E+03  0.00000000000E+00 0.  1.
        -13    1    3    3    0    0 -0.17793507978E+02  0.10475560564E+03 -0.51013675713E+02  0.11786747197E+03  0.00000000000E+00 0.  1.
         13    1    3    3    0    0  0.23296653317E+02  0.20965528530E+02 -0.78040479892E+02  0.84098774926E+02  0.00000000000E+00 0. -1.
         21    1    1    2  502  501 -0.23699209003E+02  0.11980995567E+01 -0.64043192366E+02  0.68298011965E+02  0.00000000000E+00 0. -1.
<scales pt_clust_5="13000.00000" pt_clust_6="13000.00000" pt_clust_7="13000.00000" pt_clust_8="13000.00000" pt_clust_9="23.72947"></scales>
<clustering>
<clus scale="   23.729">  2  9  1 -1</clus>
<clus scale="   90.086">  5  6 -1 -1</clus>
<clus scale="   91.101">  7  8 -1 -1</clus>
<clus scale="  154.982">  2  5  1 -1</clus>
<clus scale="   23.729">  2  5  1 -1</clus>
</clustering>
</event>
<event>
 9    1  0.1296032E-005  0.1033174E+03  0.7546771E-02  0.1274835E+00
         -3   -1    0    0    0  501 -0.00000000000E+00  0.00000000000E+00  0.37620436430E+03  0.37620436430E+03  0.00000000000E+00 0.  1.
          3   -1    0    0  502    0  0.00000000000E+00 -0.00000000000E+00 -0.46559029847E+02  0.46559029847E+02  0.00000000000E+00 0. -1.
         23    2    1    2    0    0  0.41577633441E+02  0.25531498577E+02  0.22255001534E+03  0.24615777844E+03  0.93191123691E+02 0.  0.
         23    2    1    2    0    0 -0.71707423732E+00 -0.23031602964E+02  0.67506408262E+02  0.11965724753E+03  0.96071706547E+02 0.  0.
        -11    1    4    4    0    0  0.22792371020E+02 -0.28592178950E+02  0.83178647181E+02  0.90860839864E+02  0.00000000000E+00 0. -1.
         11    1    4    4    0    0 -0.23509445257E+02  0.55605759866E+01 -0.15672238919E+02  0.28796407664E+02  0.00000000000E+00 0.  1.
        -13    1    3    3    0    0  0.37102676403E+02  0.25553433719E+01  0.21941070332E+03  0.22254032243E+03  0.00000000000E+00 0.  1.
         13    1    3    3    0    0  0.44749570379E+01  0.22976155205E+02  0.31393120267E+01  0.23617456012E+02  0.00000000000E+00 0. -1.
         21    1    1    2  502  501 -0.40860559204E+02 -0.24998956131E+01  0.39588910852E+02  0.56948368185E+02  0.00000000000E+00 0. -1.
<scales pt_clust_5="13000.00000" pt_clust_6="13000.00000" pt_clust_7="13000.00000" pt_clust_8="13000.00000" pt_clust_9="40.93696"></scales>
<clustering>
<clus scale="   40.937">  2  9  1 -1</clus>
<clus scale="   93.191">  7  8 -1 -1</clus>
<clus scale="   96.072">  5  6 -1 -1</clus>
<clus scale="  100.644">  1  7  2 -1</clus>
<clus scale="   40.937">  2  5  1 -1</clus>
</clustering>
</event>
<event>
 9    1  0.1296032E-005  0.9717923E+02  0.7546771E-02  0.1287254E+00
          1   -1    0    0  502    0  0.00000000000E+00  0.00000000000E+00  0.39977612115E+03  0.39977612115E+03  0.00000000000E+00 0. -1.
         -1   -1    0    0    0  501 -0.00000000000E+00 -0.00000000000E+00 -0.33684652776E+02  0.33684652776E+02  0.00000000000E+00 0.  1.
         23    2    1    2    0    0  0.10840459854E+02  0.22264902240E+02  0.96174955571E+02  0.13528278219E+03  0.91861676647E+02 0.  0.
         23    2    1    2    0    0 -0.29119877411E+02 -0.33305425315E+02  0.18351741273E+03  0.20917892011E+03  0.90110827481E+02 0.  0.
        -13    1    4    4    0    0  0.12848285117E+02 -0.39343516075E+02  0.33387016187E+02  0.53175967668E+02  0.00000000000E+00 0. -1.
         13    1    4    4    0    0 -0.41968162527E+02  0.60380907602E+01  0.15013039654E+03  0.15600295244E+03  0.00000000000E+00 0.  1.
        -13    1    3    3    0    0  0.31307636315E+02  0.46348785100E+02  0.85015593459E+02  0.10176457686E+03  0.00000000000E+00 0. -1.
         13    1    3    3    0    0 -0.20467176461E+02 -0.24083882860E+02  0.11159362112E+02  0.33518205332E+02  0.00000000000E+00 0.  1.
         21    1    1    2  502  501  0.18279417557E+02  0.11040523075E+02  0.86399100075E+02  0.88999071623E+02  0.00000000000E+00 0. -1.
<scales pt_clust_5="13000.00000" pt_clust_6="13000.00000" pt_clust_7="13000.00000" pt_clust_8="13000.00000" pt_clust_9="21.35486"></scales>
<clustering>
<clus scale="   21.355">  1  9  2 -1</clus>
<clus scale="   90.111">  5  6 -1 -1</clus>
<clus scale="   91.862">  7  8 -1 -1</clus>
<clus scale="   95.526">  1  5  2 -1</clus>
<clus scale="   21.355">  1  5  2 -1</clus>
</clustering>
</event>
<event>
 9    1  0.1296032E-005  0.1243683E+03  0.7546771E-02  0.1236564E+00
         -1   -1    0    0    0  501 -0.00000000000E+00  0.00000000000E+00  0.26658259692E+03  0.26658259692E+03  0.00000000000E+00 0.  1.
          1   -1    0    0  502    0  0.00000000000E+00 -0.00000000000E+00 -0.12684459666E+03  0.12684459666E+03  0.00000000000E+00 0. -1.
         23    2    1    2    0    0 -0.72462270310E+02 -0.50241606797E+02  0.19903762602E+03  0.23621993365E+03  0.91699949874E+02 0.  0.
         23    2    1    2    0    0  0.49633222941E+02  0.22391356332E+02 -0.53851541009E+02  0.12078633899E+03  0.93405147390E+02 0.  0.
        -11    1    4    4    0    0  0.22438237554E+02  0.20775677677E+02  0.23636024683E+02  0.38649255495E+02  0.00000000000E+00 0.  1.
         11    1    4    4    0    0  0.27194985387E+02  0.16156786545E+01 -0.77487565692E+02  0.82137083492E+02  0.00000000000E+00 0. -1.
        -13    1    3    3    0    0 -0.42514812476E+02  0.17135887818E+02  0.11835254731E+03  0.12691916083E+03  0.00000000000E+00 0. -1.
         13    1    3    3    0    0 -0.29947457834E+02 -0.67377494615E+02  0.80685078719E+02  0.10930077282E+03  0.00000000000E+00 0.  1.
         21    1    1    2  502  501  0.22829047370E+02  0.27850250466E+02 -0.54480847546E+01  0.36420920942E+02  0.00000000000E+00 0. -1.
<scales pt_clust_5="13000.00000" pt_clust_6="13000.00000" pt_clust_7="13000.00000" pt_clust_8="13000.00000" pt_clust_9="36.01114"></scales>
<clustering>
<clus scale="   36.011">  2  9  1 -1</clus>
<clus scale="   91.700">  7  8 -1 -1</clus>
<clus scale="   93.405">  5  6 -1 -1</clus>
<clus scale="  123.093">  1  7  2 -1</clus>
<clus scale="   36.011">  2  5  1 -1</clus>
</clustering>
</event>
<event>
 9    1  0.1296032E-005  0.1026920E+03  0.7546771E-02  0.1279795E+00
          1   -1    0    0  502    0  0.00000000000E+00  0.00000000000E+00  0.71213260852E+03  0.71213260852E+03  0.00000000000E+00 0. -1.
         -1   -1    0    0    0  501 -0.00000000000E+00 -0.00000000000E+00 -0.23802996703E+02  0.23802996703E+02  0.00000000000E+00 0.  1.
         23    2    1    2    0    0  0.12575635564E+01  0.31172424140E+02  0.13405857665E+03  0.16974773632E+03  0.99344302905E+02 0.  0.
         23    2    1    2    0    0 -0.13236750828E+02 -0.99375565734E+01  0.42582755498E+03  0.43545092641E+03  0.89523383161E+02 0.  0.
        -11    1    4    4    0    0  0.38434967212E+02 -0.76579055805E+01  0.19509063386E+03  0.19898805402E+03  0.00000000000E+00 0.  1.
         11    1    4    4    0    0 -0.51671718040E+02 -0.22796509928E+01  0.23073692112E+03  0.23646287239E+03  0.00000000000E+00 0. -1.
        -13    1    3    3    0    0  0.50262583761E+02  0.16098081100E+02  0.71304347262E+02  0.88711811389E+02  0.00000000000E+00 0.  1.
         13    1    3    3    0    0 -0.49005020205E+02  0.15074343040E+02  0.62754229384E+02  0.81035924928E+02  0.00000000000E+00 0. -1.
         21    1    1    2  502  501  0.11979187271E+02 -0.21234867567E+02  0.12844348019E+03  0.13073694249E+03  0.00000000000E+00 0.  1.
<scales pt_clust_5="13000.00000" pt_clust_6="13000.00000" pt_clust_7="13000.00000" pt_clust_8="13000.00000" pt_clust_9="24.38074"></scales>
<clustering>
<clus scale="   24.381">  1  9  2 -1</clus>
<clus scale="   89.523">  5  6 -1 -1</clus>
<clus scale="   93.224">  1  5  2 -1</clus>
<clus scale="   99.344">  7  8 -1 -1</clus>
<clus scale="   24.381">  1  5  2 -1</clus>
</clustering>
</event>
<event>
 9    1  0.1296032E-005  0.1080833E+03  0.7546771E-02  0.1264741E+00
          2   -1    0    0  502    0  0.00000000000E+00  0.00000000000E+00  0.69504790423E+03  0.69504790423E+03  0.00000000000E+00 0. -1.
         -2   -1    0    0    0  501 -0.00000000000E+00 -0.00000000000E+00 -0.31596951082E+02  0.31596951082E+02  0.00000000000E+00 0.  1.
         23    2    1    2    0    0 -0.30995541044E+02 -0.59659479668E+02  0.17278529416E+03  0.20625800579E+03  0.90374941183E+02 0.  0.
         23    2    1    2    0    0  0.60192285434E+02  0.47424016606E+01  0.28211880498E+03  0.30276303269E+03  0.91808671909E+02 0.  0.
        -11    1    3    3    0    0 -0.48813324573E+02 -0.74709177027E+02  0.13389186663E+03  0.16090753163E+03  0.00000000000E+00 0. -1.
         11    1    3    3    0    0  0.17817783529E+02  0.15049697359E+02  0.38893427534E+02  0.45350474152E+02  0.00000000000E+00 0.  1.
        -11    1    4    4    0    0  0.74488770217E+02 -0.22643346340E+02  0.18108785874E+03  0.19711446067E+03  0.00000000000E+00 0.  1.
         11    1    4    4    0    0 -0.14296484783E+02  0.27385748001E+02  0.10103094624E+03  0.10564857201E+03  0.00000000000E+00 0. -1.
         21    1    1    2  502  501 -0.29196744390E+02  0.54917078008E+02  0.20854685401E+03  0.21762381684E+03  0.00000000000E+00 0.  1.
<scales pt_clust_5="13000.00000" pt_clust_6="13000.00000" pt_clust_7="13000.00000" pt_clust_8="13000.00000" pt_clust_9="62.19594"></scales>
<clustering>
<clus scale="   62.196">  1  9  2 -1</clus>
<clus scale="   90.375">  5  6 -1 -1</clus>
<clus scale="   91.809">  7  8 -1 -1</clus>
<clus scale="  106.868">  2  5  1 -1</clus>
<clus scale="   62.196">  1  5  2 -1</clus>
</clustering>
</event>
<event>
 9    1  0.1296032E-005  0.1114984E+03  0.7546771E-02  0.1261056E+00
          4   -1    0    0  502    0  0.00000000000E+00  0.00000000000E+00  0.83582175469E+02  0.83582175469E+02  0.00000000000E+00 0. -1.
         -4   -1    0    0    0  501 -0.00000000000E+00 -0.00000000000E+00 -0.22127152254E+03  0.22127152254E+03  0.00000000000E+00 0.  1.
         23    2    1    2    0    0  0.26822835219E+02 -0.53608313990E+02 -0.95417141959E+02  0.14513630010E+03  0.91470207216E+02 0.  0.
         23    2    1    2    0    0 -0.82413442685E+01  0.39814093562E+02 -0.66504704658E+02  0.12620969197E+03  0.99261920206E+02 0.  0.
        -13    1    3    3    0    0  0.57096271917E+02 -0.54524706213E+02 -0.65792270005E+02  0.10276940521E+03  0.00000000000E+00 0. -1.
         13    1    3    3    0    0 -0.30273436698E+02  0.91639222395E+00 -0.29624871954E+02  0.42366894888E+02  0.00000000000E+00 0.  1.
        -13    1    4    4    0    0  0.22891343711E+02  0.40118333730E+02 -0.79920491485E+02  0.92308067239E+02  0.00000000000E+00 0.  1.
         13    1    4    4    0    0 -0.31132687979E+02 -0.30424016823E+00  0.13415786828E+02  0.33901624726E+02  0.00000000000E+00 0. -1.
         21    1    1    2  502  501 -0.18581490951E+02  0.13794220427E+02  0.24232499549E+02  0.33507705943E+02  0.00000000000E+00 0.  1.
<scales pt_clust_5="13000.00000" pt_clust_6="13000.00000" pt_clust_7="13000.00000" pt_clust_8="13000.00000" pt_clust_9="23.14200"></scales>
<clustering>
<clus scale="   23.142">  1  9  2 -1</clus>
<clus scale="   91.470">  5  6 -1 -1</clus>
<clus scale="   99.262">  7  8 -1 -1</clus>
<clus scale="  104.622">  2  5  1 -1</clus>
<clus scale="   23.142">  1  5  2 -1</clus>
</clustering>
</event>
<event>
 9    1  0.1296032E-005  0.1209933E+03  0.7546771E-02  0.1242783E+00
         -2   -1    0    0    0  501 -0.00000000000E+00  0.00000000000E+00  0.13143763851E+03  0.13143763851E+03  0.00000000000E+00 0.  1.
          2   -1    0    0  502    0  0.00000000000E+00 -0.00000000000E+00 -0.25842762080E+03  0.25842762080E+03  0.00000000000E+00 0. -1.
         23    2    1    2    0    0  0.77160799879E+02  0.79626004891E+02  0.29752756566E+02  0.14702432164E+03  0.91852245135E+02 0.  0.
         23    2    1    2    0    0 -0.40460483328E+02 -0.80376132765E+01 -0.49457400763E+02  0.10874412631E+03  0.87621895548E+02 0.  0.
        -11    1    4    4    0    0  0.39297197545E+01  0.34111486166E+02 -0.26476452438E+02  0.43359413274E+02  0.00000000000E+00 0.  1.
         11    1    4    4    0    0 -0.44390203083E+02 -0.42149099442E+02 -0.22980948325E+02  0.65384713041E+02  0.00000000000E+00 0. -1.
        -11    1    3    3    0    0  0.43837451681E+02  0.42317743795E+01 -0.22471651287E+02  0.49442948899E+02  0.00000000000E+00 0.  1.
         11    1    3    3    0    0  0.33323348198E+02  0.75394230511E+02  0.52224407853E+02  0.97581372737E+02  0.00000000000E+00 0. -1.
         21    1    1    2  502  501 -0.36700316551E+02 -0.71588391614E+02 -0.10728533809E+03  0.13409681136E+03  0.00000000000E+00 0. -1.
<scales pt_clust_5="13000.00000" pt_clust_6="13000.00000" pt_clust_7="13000.00000" pt_clust_8="13000.00000" pt_clust_9="80.44757"></scales>
<clustering>
<clus scale="   80.448">  2  9  1 -1</clus>
<clus scale="   87.622">  5  6 -1 -1</clus>
<clus scale="   91.852">  7  8 -1 -1</clus>
<clus scale="  117.814">  2  5  1 -1</clus>
<clus scale="   80.448">  2  5  1 -1</clus>
</clustering>
</event>
<event>
 9    1  0.1296032E-005  0.1945989E+03  0.7546771E-02  0.1154495E+00
         -1   -1    0    0    0  501 -0.00000000000E+00  0.00000000000E+00  0.23379298562E+03  0.23379298562E+03  0.00000000000E+00 0.  1.
          1   -1    0    0  502    0  0.00000000000E+00 -0.00000000000E+00 -0.30005388675E+03  0.30005388675E+03  0.00000000000E+00 0. -1.
         23    2    1    2    0    0 -0.14387195997E+03 -0.94408385502E+02  0.11296101729E+03  0.22441673300E+03  0.89390125332E+02 0.  0.
         23    2    1    2    0    0  0.13186846300E+03  0.11706559309E+03 -0.90263792496E+02  0.21685054571E+03  0.88221099051E+02 0.  0.
        -11    1    4    4    0    0  0.60652030920E+02  0.35238618922E+02 -0.82217514761E+02  0.10807473734E+03  0.00000000000E+00 0. -1.
         11    1    4    4    0    0  0.71216432081E+02  0.81826974166E+02 -0.80462777343E+01  0.10877580836E+03  0.00000000000E+00 0.  1.
        -13    1    3    3    0    0 -0.89353409416E+02 -0.83626212746E+02  0.32491645884E+02  0.12662180809E+03  0.00000000000E+00 0.  1.
         13    1    3    3    0    0 -0.54518550551E+02 -0.10782172755E+02  0.80469371409E+02  0.97794924911E+02  0.00000000000E+00 0. -1.
         21    1    1    2  502  501  0.12003496965E+02 -0.22657207586E+02 -0.88958125927E+02  0.92579593666E+02  0.00000000000E+00 0. -1.
<scales pt_clust_5="13000.00000" pt_clust_6="13000.00000" pt_clust_7="13000.00000" pt_clust_8="13000.00000" pt_clust_9="25.64046"></scales>
<clustering>
<clus scale="   25.640">  2  9  1 -1</clus>
<clus scale="   88.221">  5  6 -1 -1</clus>
<clus scale="   89.390">  7  8 -1 -1</clus>
<clus scale="  194.065">  2  5  1 -1</clus>
<clus scale="   25.640">  2  5  1 -1</clus>
</clustering>
</event>
<event>
 9    1  0.1296032E-005  0.1899785E+03  0.7546771E-02  0.1158562E+00
         -1   -1    0    0    0  501 -0.00000000000E+00  0.00000000000E+00  0.51506481690E+03  0.51506481690E+03  0.00000000000E+00 0.  1.
          1   -1    0    0  502    0  0.00000000000E+00 -0.00000000000E+00 -0.23578628696E+03  0.23578628696E+03  0.00000000000E+00 0. -1.
         23    2    1    2    0    0 -0.18088098389E+03 -0.46074640187E+02  0.29818364214E+03  0.36339674361E+03  0.91120283280E+02 0.  0.
         23    2    1    2    0    0  0.14614134633E+03 -0.21853588444E+02  0.13239143607E+03  0.21800899388E+03  0.90363469574E+02 0.  0.
        -11    1    3    3    0    0 -0.13127320130E+03 -0.99083075355E+01  0.25908202350E+03  0.29061025935E+03  0.00000000000E+00 0.  1.
         11    1    3    3    0    0 -0.49607782589E+02 -0.36166332651E+02  0.39101618641E+02  0.72786484262E+02  0.00000000000E+00 0. -1.
        -11    1    4    4    0    0  0.11817208235E+03  0.11697248457E+02  0.58990903825E+02  0.13259484682E+03  0.00000000000E+00 0. -1.
         11    1    4    4    0    0  0.27969263977E+02 -0.33550836901E+02  0.73400532249E+02  0.85414147064E+02  0.00000000000E+00 0.  1.
         21    1    1    2  502  501  0.34739637558E+02  0.67928228630E+02 -0.15129654828E+03  0.16944536637E+03  0.00000000000E+00 0. -1.
<scales pt_clust_5="13000.00000" pt_clust_6="13000.00000" pt_clust_7="13000.00000" pt_clust_8="13000.00000" pt_clust_9="76.29605"></scales>
<clustering>
<clus scale="   76.296">  2  9  1 -1</clus>
<clus scale="   90.363">  7  8 -1 -1</clus>
<clus scale="   91.120">  5  6 -1 -1</clus>
<clus scale="  189.617">  2  7  1 -1</clus>
<clus scale="   76.296">  2  5  1 -1</clus>
</clustering>
</event>
<event>
 9    1  0.1296032E-005  0.1084889E+03  0.7546771E-02  0.1263913E+00
          1   -1    0    0  502    0  0.00000000000E+00  0.00000000000E+00  0.29372114331E+03  0.29372114331E+03  0.00000000000E+00 0. -1.
         -1   -1    0    0    0  501 -0.00000000000E+00 -0.00000000000E+00 -0.78224417771E+02  0.78224417771E+02  0.00000000000E+00 0.  1.
         23    2    1    2    0    0  0.15923415850E+02  0.52340953917E+02  0.87665214041E+01  0.10738744511E+03  0.91989569193E+02 0.  0.
         23    2    1    2    0    0 -0.47264458120E+02 -0.48930084349E+02  0.93301393707E+02  0.14682965723E+03  0.90695733194E+02 0.  0.
        -11    1    3    3    0    0  0.24398114390E+02 -0.10102637619E+01  0.38600966042E+02  0.45676287043E+02  0.00000000000E+00 0. -1.
         11    1    3    3    0    0 -0.84746985401E+01  0.53351217679E+02 -0.29834444637E+02  0.61711158067E+02  0.00000000000E+00 0.  1.
        -11    1    4    4    0    0 -0.22501600911E+02 -0.14162288263E+02 -0.14924801330E+02  0.30490033570E+02  0.00000000000E+00 0.  1.
         11    1    4    4    0    0 -0.24762857209E+02 -0.34767796086E+02  0.10822619504E+03  0.11633962366E+03  0.00000000000E+00 0. -1.
         21    1    1    2  502  501  0.31341042270E+02 -0.34108695680E+01  0.11342881042E+03  0.11772845873E+03  0.00000000000E+00 0.  1.
<scales pt_clust_5="13000.00000" pt_clust_6="13000.00000" pt_clust_7="13000.00000" pt_clust_8="13000.00000" pt_clust_9="31.52610"></scales>
<clustering>
<clus scale="   31.526">  1  9  2 -1</clus>
<clus scale="   90.696">  7  8 -1 -1</clus>
<clus scale="   91.990">  5  6 -1 -1</clus>
<clus scale="  107.394">  1  7  2 -1</clus>
<clus scale="   31.526">  1  5  2 -1</clus>
</clustering>
</event>
<event>
 9    1  0.1296032E-005  0.9786271E+02  0.7546771E-02  0.1288275E+00
          1   -1    0    0  502    0  0.00000000000E+00  0.00000000000E+00  0.20287572643E+03  0.20287572643E+03  0.00000000000E+00 0. -1.
         -1   -1    0    0    0  501 -0.00000000000E+00 -0.00000000000E+00 -0.41465798897E+03  0.41465798897E+03  0.00000000000E+00 0.  1.
         23    2    1    2    0    0 -0.26160116510E+02 -0.14355634229E+02 -0.35991068947E+03  0.37286584036E+03  0.92751251084E+02 0.  0.
         23    2    1    2    0    0  0.18974783473E+02  0.51043254926E+02  0.11105525582E+02  0.10263658969E+03  0.86287198146E+02 0.  0.
        -11    1    4    4    0    0 -0.21204361780E+02 -0.13467928416E+02 -0.31310645296E+01  0.25314296739E+02  0.00000000000E+00 0.  1.
         11    1    4    4    0    0  0.40179145253E+02  0.64511183343E+02  0.14236590112E+02  0.77322292953E+02  0.00000000000E+00 0. -1.
        -13    1    3    3    0    0  0.26518258769E+02 -0.31623205587E+02 -0.17647020241E+03  0.18123183362E+03  0.00000000000E+00 0. -1.
         13    1    3    3    0    0 -0.52678375279E+02  0.17267571359E+02 -0.18344048706E+03  0.19163400673E+03  0.00000000000E+00 0.  1.
         21    1    1    2  502  501  0.71853330371E+01 -0.36687620698E+02  0.13702290135E+03  0.14203128535E+03  0.00000000000E+00 0. -1.
<scales pt_clust_5="13000.00000" pt_clust_6="13000.00000" pt_clust_7="13000.00000" pt_clust_8="13000.00000" pt_clust_9="37.38463"></scales>
<clustering>
<clus scale="   37.385">  1  9  2 -1</clus>
<clus scale="   86.287">  5  6 -1 -1</clus>
<clus scale="   91.759">  1  5  2 -1</clus>
<clus scale="   92.751">  7  8 -1 -1</clus>
<clus scale="   37.385">  1  5  2 -1</clus>
</clustering>
</event>
<event>
 9    1  0.1296032E-005  0.1639630E+03  0.7546771E-02  0.1184390E+00
         -1   -1    0    0    0  501 -0.00000000000E+00  0.00000000000E+00  0.27178221010E+03  0.27178221010E+03  0.00000000000E+00 0.  1.
          1   -1    0    0  502    0  0.00000000000E+00 -0.00000000000E+00 -0.59623410446E+03  0.59623410446E+03  0.00000000000E+00 0. -1.
         23    2    1    2    0    0  0.76372454872E+02 -0.11992078467E+03  0.21298673709E+03  0.27174316635E+03  0.90924429203E+02 0.  0.
         23    2    1    2    0    0 -0.14520216759E+02  0.44415413317E+02 -0.46161524372E+03  0.47267724782E+03  0.90286110448E+02 0.  0.
        -11    1    4    4    0    0 -0.40686806086E+02 -0.73888995020E+01 -0.14476115889E+03  0.15055166937E+03  0.00000000000E+00 0.  1.
         11    1    4    4    0    0  0.26166589327E+02  0.51804312819E+02 -0.31685408483E+03  0.32212557845E+03  0.00000000000E+00 0. -1.
        -13    1    3    3    0    0  0.23001919950E+02 -0.10686076214E+03  0.16941783542E+03  0.20162022161E+03  0.00000000000E+00 0.  1.
         13    1    3    3    0    0  0.53370534922E+02 -0.13060022533E+02  0.43568901673E+02  0.70122944742E+02  0.00000000000E+00 0. -1.
         21    1    1    2  502  501 -0.61852238112E+02  0.75505371355E+02 -0.75823387730E+02  0.12359590038E+03  0.00000000000E+00 0. -1.
<scales pt_clust_5="13000.00000" pt_clust_6="13000.00000" pt_clust_7="13000.00000" pt_clust_8="13000.00000" pt_clust_9="97.60513"></scales>
<clustering>
<clus scale="   90.286">  5  6 -1 -1</clus>
<clus scale="   90.924">  7  8 -1 -1</clus>
<clus scale="   97.605">  2  9  1 -1</clus>
<clus scale="  163.610">  2  5  1 -1</clus>
<clus scale="   97.605">  2  5  1 -1</clus>
</clustering>
</event>
<event>
 9    1  0.1296032E-005  0.9120777E+02  0.7546771E-02  0.1300374E+00
         -2   -1    0    0    0  501 -0.00000000000E+00  0.00000000000E+00  0.11828248099E+03  0.11828248099E+03  0.00000000000E+00 0.  1.
          2   -1    0    0  502    0  0.00000000000E+00 -0.00000000000E+00 -0.16936854975E+03  0.16936854975E+03  0.00000000000E+00 0. -1.
         23    2    1    2    0    0 -0.28871099959E+02 -0.13423014082E+01  0.37018353799E+02  0.10153967155E+03  0.90025575221E+02 0.  0.
         23    2    1    2    0    0 -0.32895726784E+02 -0.10413691152E+02 -0.33067867123E+02  0.10255080222E+03  0.90733727995E+02 0.  0.
        -11    1    4    4    0    0 -0.24763240936E+02  0.38243852614E+02 -0.51096346151E+01  0.45846687234E+02  0.00000000000E+00 0.  1.
         11    1    4    4    0    0 -0.81324858481E+01 -0.48657543766E+02 -0.27958232508E+02  0.56704114986E+02  0.00000000000E+00 0. -1.
        -13    1    3    3    0    0 -0.28863134402E+02  0.38467503689E+02  0.38647560665E+02  0.61696542147E+02  0.00000000000E+00 0.  1.
         13    1    3    3    0    0 -0.79655563853E-02 -0.39809805097E+02 -0.16292068661E+01  0.39843129399E+02  0.00000000000E+00 0. -1.
         21    1    1    2  502  501  0.61766826743E+02  0.11755992560E+02 -0.55036555437E+02  0.83560556971E+02  0.00000000000E+00 0. -1.
<scales pt_clust_5="13000.00000" pt_clust_6="13000.00000" pt_clust_7="13000.00000" pt_clust_8="13000.00000" pt_clust_9="62.87563"></scales>
<clustering>
<clus scale="   62.876">  2  9  1 -1</clus>
<clus scale="   90.026">  7  8 -1 -1</clus>
<clus scale="   90.503">  1  7  2 -1</clus>
<clus scale="   90.734">  5  6 -1 -1</clus>
<clus scale="   62.876">  2  5  1 -1</clus>
</clustering>
</event>
<event>
 9    1  0.1296032E-005  0.9778343E+02  0.7546771E-02  0.1286541E+00
         -2   -1    0    0    0  501 -0.00000000000E+00  0.00000000000E+00  0.37864090509E+02  0.37864090509E+02  0.00000000000E+00 0.  1.
          2   -1    0    0  502    0  0.00000000000E+00 -0.00000000000E+00 -0.72178046867E+03  0.72178046867E+03  0.00000000000E+00 0. -1.
         23    2    1    2    0    0  0.99653362208E+01 -0.70530215779E+01 -0.12749610628E+03  0.15720829551E+03  0.91159958431E+02 0.  0.
         23    2    1    2    0    0  0.24292844679E+02  0.64884041069E+02 -0.13419468707E+03  0.17489387485E+03  0.88201883950E+02 0.  0.
        -11    1    3    3    0    0  0.19309774856E+02 -0.43744336764E+02 -0.41763642094E+02  0.63487291680E+02  0.00000000000E+00 0.  1.
         11    1    3    3    0    0 -0.93444386351E+01  0.36691315186E+02 -0.85732464184E+02  0.93721003828E+02  0.00000000000E+00 0. -1.
        -11    1    4    4    0    0  0.90179091257E-01  0.30439923094E+02 -0.12892312203E+03  0.13246799027E+03  0.00000000000E+00 0. -1.
         11    1    4    4    0    0  0.24202665588E+02  0.34444117975E+02 -0.52715650411E+01  0.42425884582E+02  0.00000000000E+00 0.  1.
         21    1    1    2  502  501 -0.34258180900E+02 -0.57831019491E+02 -0.42222558481E+03  0.42754238882E+03  0.00000000000E+00 0. -1.
<scales pt_clust_5="13000.00000" pt_clust_6="13000.00000" pt_clust_7="13000.00000" pt_clust_8="13000.00000" pt_clust_9="67.21644"></scales>
<clustering>
<clus scale="   67.216">  2  9  1 -1</clus>
<clus scale="   88.202">  7  8 -1 -1</clus>
<clus scale="   91.160">  5  6 -1 -1</clus>
<clus scale="   95.032">  2  7  1 -1</clus>
<clus scale="   67.216">  2  5  1 -1</clus>
</clustering>
</event>
<event>
 9    1  0.1296032E-005  0.1573426E+03  0.7546771E-02  0.1192278E+00
         -2   -1    0    0    0  501 -0.00000000000E+00  0.00000000000E+00  0.60125515487E+02  0.60125515487E+02  0.00000000000E+00 0.  1.
          2   -1    0    0  502    0  0.00000000000E+00 -0.00000000000E+00 -0.64033150934E+03  0.64033150934E+03  0.00000000000E+00 0. -1.
         23    2    1    2    0    0 -0.10200933776E+03  0.12263708331E+03 -0.20533279815E+03  0.27510044629E+03  0.89849531775E+02 0.  0.
         23    2    1    2    0    0  0.59156184611E+02 -0.95315462220E+02 -0.31306899932E+03  0.34534019019E+03  0.93076082356E+02 0.  0.
        -13    1    4    4    0    0 -0.25482680432E+02 -0.25470945173E+02 -0.77251131291E+02  0.85240092303E+02  0.00000000000E+00 0.  1.
         13    1    4    4    0    0  0.84638865043E+02 -0.69844517047E+02 -0.23581786803E+03  0.26010009789E+03  0.00000000000E+00 0. -1.
        -13    1    3    3    0    0 -0.86504733442E+01  0.77683777105E+02 -0.10469296145E+03  0.13065303705E+03  0.00000000000E+00 0.  1.
         13    1    3    3    0    0 -0.93358864419E+02  0.44953306201E+02 -0.10063983671E+03  0.14444740924E+03  0.00000000000E+00 0. -1.
         21    1    1    2  502  501  0.42853153153E+02 -0.27321621086E+02 -0.61804196376E+02  0.80016388344E+02  0.00000000000E+00 0. -1.
<scales pt_clust_5="13000.00000" pt_clust_6="13000.00000" pt_clust_7="13000.00000" pt_clust_8="13000.00000" pt_clust_9="50.82188"></scales>
<clustering>
<clus scale="   50.822">  1  9  2 -1</clus>
<clus scale="   89.850">  7  8 -1 -1</clus>
<clus scale="   93.076">  5  6 -1 -1</clus>
<clus scale="  155.456">  1  7  2 -1</clus>
<clus scale="  157.343">  2  5  1 -1</clus>
</clustering>
</event>
<event>
 9    1  0.1296032E-005  0.1026512E+03  0.7546771E-02  0.1279157E+00
         -2   -1    0    0    0  501 -0.00000000000E+00  0.00000000000E+00  0.16045004711E+03  0.16045004711E+03  0.00000000000E+00 0.  1.
          2   -1    0    0  502    0  0.00000000000E+00 -0.00000000000E+00 -0.24745147836E+03  0.24745147836E+03  0.00000000000E+00 0. -1.
         23    2    1    2    0    0  0.33661751390E+02 -0.33714099867E+02  0.11062465574E+03  0.14513600899E+03  0.80974641786E+02 0.  0.
         23    2    1    2    0    0 -0.49395772399E+01  0.69821378943E+02 -0.89417875002E+02  0.14513169468E+03  0.90378249879E+02 0.  0.
        -11    1    4    4    0    0  0.29646121398E+02  0.86842228613E+01  0.66636901403E+00  0.30899066140E+02  0.00000000000E+00 0.  1.
         11    1    4    4    0    0 -0.34585698638E+02  0.61137156082E+02 -0.90084244016E+02  0.11423262854E+03  0.00000000000E+00 0. -1.
        -13    1    3    3    0    0 -0.68052737399E+01 -0.32273868546E+02  0.67763372962E+01  0.33672438117E+02  0.00000000000E+00 0. -1.
         13    1    3    3    0    0  0.40467025130E+02 -0.14402313216E+01  0.10384831844E+03  0.11146357087E+03  0.00000000000E+00 0.  1.
         21    1    1    2  502  501 -0.28722174150E+02 -0.36107279076E+02 -0.10820821198E+03  0.11763382180E+03  0.00000000000E+00 0. -1.
<scales pt_clust_5="13000.00000" pt_clust_6="13000.00000" pt_clust_7="13000.00000" pt_clust_8="13000.00000" pt_clust_9="46.13782"></scales>
<clustering>
<clus scale="   46.138">  2  9  1 -1</clus>
<clus scale="   80.975">  7  8 -1 -1</clus>
<clus scale="   90.378">  5  6 -1 -1</clus>
<clus scale="   94.477">  1  7  2 -1</clus>
<clus scale="   46.138">  2  5  1 -1</clus>
</clustering>
</event>
<event>
 9    1  0.1296032E-005  0.2078587E+03  0.7546771E-02  0.1143329E+00
         -3   -1    0    0    0  501 -0.00000000000E+00  0.00000000000E+00  0.93596561873E+03  0.93596561873E+03  0.00000000000E+00 0.  1.
          3   -1    0    0  502    0  0.00000000000E+00 -0.00000000000E+00 -0.61390342074E+02  0.61390342074E+02  0.00000000000E+00 0. -1.
         23    2    1    2    0    0  0.42499714155E+02  0.19360173527E+03  0.62577102030E+03  0.66268737657E+03  0.90979841740E+02 0.  0.
         23    2    1    2    0    0 -0.28311788852E+02 -0.16345370257E+03  0.22467427409E+03  0.29352910024E+03  0.90344523760E+02 0.  0.
        -11    1    4    4    0    0 -0.39078403380E+02 -0.45862904670E+02  0.33812947225E+02  0.69093002797E+02  0.00000000000E+00 0.  1.
         11    1    4    4    0    0  0.10766614528E+02 -0.11759079790E+03  0.19086132687E+03  0.22443609744E+03  0.00000000000E+00 0. -1.
        -11    1    3    3    0    0  0.20209286150E+02  0.18978795919E+03  0.59230798234E+03  0.62229947023E+03  0.00000000000E+00 0.  1.
         11    1    3    3    0    0  0.22290428005E+02  0.38137760839E+01  0.33463037959E+02  0.40387906335E+02  0.00000000000E+00 0. -1.
         21    1    1    2  502  501 -0.14187925303E+02 -0.30148032699E+02  0.24129982258E+02  0.41139484000E+02  0.00000000000E+00 0. -1.
<scales pt_clust_5="13000.00000" pt_clust_6="13000.00000" pt_clust_7="13000.00000" pt_clust_8="13000.00000" pt_clust_9="33.31968"></scales>
<clustering>
<clus scale="   33.320">  2  9  1 -1</clus>
<clus scale="   90.345">  5  6 -1 -1</clus>
<clus scale="   90.980">  7  8 -1 -1</clus>
<clus scale="  207.581">  2  5  1 -1</clus>
<clus scale="   33.320">  2  5  1 -1</clus>
</clustering>
</event>
<event>
 9    1  0.1296032E-005  0.9669400E+02  0.7546771E-02  0.1287772E+00
          2   -1    0    0  502    0  0.00000000000E+00  0.00000000000E+00  0.56383721388E+03  0.56383721388E+03  0.00000000000E+00 0.  1.
         -2   -1    0    0    0  501 -0.00000000000E+00 -0.00000000000E+00 -0.28051539681E+02  0.28051539681E+02  0.00000000000E+00 0. -1.
         23    2    1    2    0    0  0.95369821133E+01  0.51370710779E+01  0.10052692283E+03  0.13615116017E+03  0.91181865936E+02 0.  0.
         23    2    1    2    0    0 -0.39153277927E+02 -0.74353795683E+01  0.38371132516E+03  0.39624352353E+03  0.90478090391E+02 0.  0.
        -11    1    4    4    0    0 -0.61984975448E+02 -0.28082107713E+02  0.26896684331E+03  0.27744171415E+03  0.00000000000E+00 0.  1.
         11    1    4    4    0    0  0.22831697521E+02  0.20646728145E+02  0.11474448185E+03  0.11880180938E+03  0.00000000000E+00 0. -1.
        -11    1    3    3    0    0  0.22361927633E+02 -0.28035189479E+02  0.93169785999E+02  0.99833044027E+02  0.00000000000E+00 0.  1.
         11    1    3    3    0    0 -0.12824945519E+02  0.33172260557E+02  0.73571368324E+01  0.36318116147E+02  0.00000000000E+00 0. -1.
         21    1    1    2  502  501  0.29616295814E+02  0.22983084904E+01  0.51547426203E+02  0.59494069854E+02  0.00000000000E+00 0. -1.
<scales pt_clust_5="13000.00000" pt_clust_6="13000.00000" pt_clust_7="13000.00000" pt_clust_8="13000.00000" pt_clust_9="29.70534"></scales>
<clustering>
<clus scale="   29.705">  2  9  1 -1</clus>
<clus scale="   90.478">  5  6 -1 -1</clus>
<clus scale="   91.182">  7  8 -1 -1</clus>
<clus scale="   96.031">  1  5  2 -1</clus>
<clus scale="   96.031">  1  5  2 -1</clus>
</clustering>
</event>
<event>
 9    1  0.1296032E-005  0.9417088E+02  0.7546771E-02  0.1293903E+00
          1   -1    0    0  502    0  0.00000000000E+00  0.00000000000E+00  0.37993486389E+03  0.37993486389E+03  0.00000000000E+00 0. -1.
         -1   -1    0    0    0  501 -0.00000000000E+00 -0.00000000000E+00 -0.29462479366E+02  0.29462479366E+02  0.00000000000E+00 0.  1.
         23    2    1    2    0    0 -0.35782325880E+01 -0.78128327004E+01  0.14847007170E+03  0.17494463168E+03  0.92132610188E+02 0.  0.
         23    2    1    2    0    0  0.13249858410E+02  0.27337723412E+02  0.14754302050E+03  0.17579628632E+03  0.90622742820E+02 0.  0.
        -11    1    3    3    0    0 -0.19997074989E+01 -0.50071887361E+02  0.75845643097E+02  0.90905194080E+02  0.00000000000E+00 0.  1.
         11    1    3    3    0    0 -0.15785250891E+01  0.42259054661E+02  0.72624428607E+02  0.84039437604E+02  0.00000000000E+00 0. -1.
        -13    1    4    4    0    0 -0.30749605167E+01  0.49774530788E+02  0.13753874280E+03  0.14630059832E+03  0.00000000000E+00 0. -1.
         13    1    4    4    0    0  0.16324818927E+02 -0.22436807376E+02  0.10004277697E+02  0.29495687998E+02  0.00000000000E+00 0.  1.
         21    1    1    2  502  501 -0.96716258222E+01 -0.19524890711E+02  0.54459292322E+02  0.58656425254E+02  0.00000000000E+00 0. -1.
<scales pt_clust_5="13000.00000" pt_clust_6="13000.00000" pt_clust_7="13000.00000" pt_clust_8="13000.00000" pt_clust_9="21.78903"></scales>
<clustering>
<clus scale="   21.789">  1  9  2 -1</clus>
<clus scale="   90.623">  7  8 -1 -1</clus>
<clus scale="   92.133">  5  6 -1 -1</clus>
<clus scale="   92.694">  1  7  2 -1</clus>
<clus scale="   21.789">  1  5  2 -1</clus>
</clustering>
</event>
<event>
 9    1  0.1296032E-005  0.1580244E+03  0.7546771E-02  0.1191095E+00
         -1   -1    0    0    0  501 -0.00000000000E+00  0.00000000000E+00  0.10975322779E+03  0.10975322779E+03  0.00000000000E+00 0.  1.
          1   -1    0    0  502    0  0.00000000000E+00 -0.00000000000E+00 -0.55377566579E+03  0.55377566579E+03  0.00000000000E+00 0. -1.
         23    2    1    2    0    0  0.91109288912E+02  0.79032401411E+02 -0.25017004230E+01  0.15139606594E+03  0.91473970491E+02 0.  0.
         23    2    1    2    0    0 -0.12949022808E+03 -0.86101913528E+02 -0.20656970539E+03  0.27396259016E+03  0.90571512870E+02 0.  0.
        -11    1    4    4    0    0 -0.46775811017E+01 -0.48628337542E+02 -0.45321396964E+02  0.66638007172E+02  0.00000000000E+00 0.  1.
         11    1    4    4    0    0 -0.12481264698E+03 -0.37473575986E+02 -0.16124830842E+03  0.20732458299E+03  0.00000000000E+00 0. -1.
        -11    1    3    3    0    0  0.11300176913E+02  0.68435588910E+02  0.94542255352E+01  0.70003615680E+02  0.00000000000E+00 0. -1.
         11    1    3    3    0    0  0.79809112000E+02  0.10596812500E+02 -0.11955925958E+02  0.81392450257E+02  0.00000000000E+00 0.  1.
         21    1    1    2  502  501  0.38380939170E+02  0.70695121170E+01 -0.23495103219E+03  0.23817023748E+03  0.00000000000E+00 0.  1.
<scales pt_clust_5="13000.00000" pt_clust_6="13000.00000" pt_clust_7="13000.00000" pt_clust_8="13000.00000" pt_clust_9="39.02659"></scales>
<clustering>
<clus scale="   39.027">  2  9  1 -1</clus>
<clus scale="   90.572">  5  6 -1 -1</clus>
<clus scale="   91.474">  7  8 -1 -1</clus>
<clus scale="  157.504">  2  5  1 -1</clus>
<clus scale="   39.027">  2  5  1 -1</clus>
</clustering>
</event>
<event>
 9    1  0.1296032E-005  0.9547917E+02  0.7546771E-02  0.1292051E+00
         -2   -1    0    0    0  501 -0.00000000000E+00  0.00000000000E+00  0.23085418983E+03  0.23085418983E+03  0.00000000000E+00 0.  1.
          2   -1    0    0  502    0  0.00000000000E+00 -0.00000000000E+00 -0.96072183868E+02  0.96072183868E+02  0.00000000000E+00 0. -1.
         23    2    1    2    0    0  0.12501465927E+02  0.14008849585E+01  0.14906063209E+03  0.17638668165E+03  0.93460902482E+02 0.  0.
         23    2    1    2    0    0 -0.45622646293E+02  0.28780870129E+02 -0.68749226784E+01  0.10512201098E+03  0.89964483500E+02 0.  0.
        -11    1    4    4    0    0 -0.55258572392E+02  0.54093396994E+02 -0.64703529090E+00  0.77330615385E+02  0.00000000000E+00 0. -1.
         11    1    4    4    0    0  0.96359260986E+01 -0.25312526865E+02 -0.62278873875E+01  0.27791395600E+02  0.00000000000E+00 0.  1.
        -11    1    3    3    0    0  0.50975617709E+02  0.15557265299E+02  0.82910670814E+02  0.98563286468E+02  0.00000000000E+00 0.  1.
         11    1    3    3    0    0 -0.38474151782E+02 -0.14156380341E+02  0.66149961279E+02  0.77823395178E+02  0.00000000000E+00 0. -1.
         21    1    1    2  502  501  0.33121180366E+02 -0.30181755087E+02 -0.74037034518E+01  0.45417681070E+02  0.00000000000E+00 0. -1.
<scales pt_clust_5="13000.00000" pt_clust_6="13000.00000" pt_clust_7="13000.00000" pt_clust_8="13000.00000" pt_clust_9="44.81017"></scales>
<clustering>
<clus scale="   44.810">  2  9  1 -1</clus>
<clus scale="   89.964">  5  6 -1 -1</clus>
<clus scale="   92.059">  2  5  1 -1</clus>
<clus scale="   93.461">  7  8 -1 -1</clus>
<clus scale="   44.810">  2  5  1 -1</clus>
</clustering>
</event>
<event>
 9    1  0.1296032E-005  0.1184004E+03  0.7546771E-02  0.1249186E+00
          1   -1    0    0  502    0  0.00000000000E+00  0.00000000000E+00  0.36593198022E+02  0.36593198022E+02  0.00000000000E+00 0. -1.
         -1   -1    0    0    0  501 -0.00000000000E+00 -0.00000000000E+00 -0.71405599411E+03  0.71405599411E+03  0.00000000000E+00 0.  1.
         23    2    1    2    0    0  0.33455539932E+02 -0.71035151843E+02 -0.40374294927E+03  0.42413661301E+03  0.10352889194E+03 0.  0.
         23    2    1    2    0    0 -0.35230743745E+02  0.21244737234E+02 -0.25185358547E+03  0.27210329571E+03  0.94432149478E+02 0.  0.
        -11    1    4    4    0    0 -0.18721121315E+02  0.52896641244E+02 -0.87712546593E+02  0.10412504919E+03  0.00000000000E+00 0. -1.
         11    1    4    4    0    0 -0.16509622430E+02 -0.31651904010E+02 -0.16414103888E+03  0.16797824652E+03  0.00000000000E+00 0.  1.
        -13    1    3    3    0    0 -0.93053587908E+01 -0.84549442291E+02 -0.26873303833E+03  0.28187345349E+03  0.00000000000E+00 0.  1.
         13    1    3    3    0    0  0.42760898723E+02  0.13514290448E+02 -0.13500991094E+03  0.14226315953E+03  0.00000000000E+00 0. -1.
         21    1    1    2  502  501  0.17752038122E+01  0.49790414609E+02 -0.21866261344E+02  0.54409283405E+02  0.00000000000E+00 0. -1.
<scales pt_clust_5="13000.00000" pt_clust_6="13000.00000" pt_clust_7="13000.00000" pt_clust_8="13000.00000" pt_clust_9="49.82205"></scales>
<clustering>
<clus scale="   49.822">  1  9  2 -1</clus>
<clus scale="   94.432">  5  6 -1 -1</clus>
<clus scale="  103.529">  7  8 -1 -1</clus>
<clus scale="  110.534">  1  5  2 -1</clus>
<clus scale="   49.822">  1  5  2 -1</clus>
</clustering>
</event>
<event>
 9    1  0.1296032E-005  0.1972793E+03  0.7546771E-02  0.1152581E+00
          1   -1    0    0  502    0  0.00000000000E+00  0.00000000000E+00  0.80159634492E+03  0.80159634492E+03  0.00000000000E+00 0. -1.
         -1   -1    0    0    0  501 -0.00000000000E+00 -0.00000000000E+00 -0.10037044153E+03  0.10037044153E+03  0.00000000000E+00 0.  1.
         23    2    1    2    0    0  0.15532605100E+03 -0.46602730381E+02  0.62407484999E+02  0.19400580068E+03  0.86287657946E+02 0.  0.
         23    2    1    2    0    0 -0.21429498082E+03  0.58714164926E+02  0.45569879019E+03  0.51519994260E+03  0.91650976566E+02 0.  0.
        -11    1    4    4    0    0 -0.20431902502E+03  0.26163061841E+02  0.38134006542E+03  0.43341782991E+03  0.00000000000E+00 0. -1.
         11    1    4    4    0    0 -0.99759557987E+01  0.32551103085E+02  0.74358724769E+02  0.81782112686E+02  0.00000000000E+00 0.  1.
        -13    1    3    3    0    0  0.89301386131E+02 -0.34703554781E+02 -0.87532698815E+01  0.96206517518E+02  0.00000000000E+00 0.  1.
         13    1    3    3    0    0  0.66024664871E+02 -0.11899175600E+02  0.71160754881E+02  0.97799283159E+02  0.00000000000E+00 0. -1.
         21    1    1    2  502  501  0.58968929820E+02 -0.12111434545E+02  0.18311962820E+03  0.19276104317E+03  0.00000000000E+00 0.  1.
<scales pt_clust_5="13000.00000" pt_clust_6="13000.00000" pt_clust_7="13000.00000" pt_clust_8="13000.00000" pt_clust_9="60.19985"></scales>
<clustering>
<clus scale="   60.200">  1  9  2 -1</clus>
<clus scale="   86.288">  7  8 -1 -1</clus>
<clus scale="   91.651">  5  6 -1 -1</clus>
<clus scale="  194.846">  2  7  1 -1</clus>
<clus scale="   60.200">  1  5  2 -1</clus>
</clustering>
</event>
<event>
 9    1  0.1296032E-005  0.2906980E+03  0.7546771E-02  0.1090084E+00
         -1   -1    0    0    0  501 -0.00000000000E+00  0.00000000000E+00  0.21673256539E+03  0.21673256539E+03  0.00000000000E+00 0.  1.
          1   -1    0    0  502    0  0.00000000000E+00 -0.00000000000E+00 -0.75124186127E+03  0.75124186127E+03  0.00000000000E+00 0. -1.
         23    2    1    2    0    0  0.24392310423E+03  0.14874511237E+03  0.34582812726E+02  0.30223971028E+03  0.92354113629E+02 0.  0.
         23    2    1    2    0    0 -0.19552149722E+03 -0.15309193502E+03 -0.33467775493E+03  0.42633609559E+03  0.89930363719E+02 0.  0.
        -11    1    4    4    0    0 -0.16638227914E+03 -0.10480378328E+03 -0.20072082751E+03  0.28099065180E+03  0.00000000000E+00 0. -1.
         11    1    4    4    0    0 -0.29139218081E+02 -0.48288151735E+02 -0.13395692741E+03  0.14534544379E+03  0.00000000000E+00 0.  1.
        -13    1    3    3    0    0  0.10888434196E+03  0.21664562410E+02 -0.10171324549E+02  0.11148367159E+03  0.00000000000E+00 0. -1.
         13    1    3    3    0    0  0.13503876227E+03  0.12708054996E+03  0.44754137274E+02  0.19075603869E+03  0.00000000000E+00 0.  1.
         21    1    1    2  502  501 -0.48401607004E+02  0.43468226496E+01 -0.23441435368E+03  0.23939862079E+03  0.00000000000E+00 0. -1.
<scales pt_clust_5="13000.00000" pt_clust_6="13000.00000" pt_clust_7="13000.00000" pt_clust_8="13000.00000" pt_clust_9="48.59640"></scales>
<clustering>
<clus scale="   48.596">  2  9  1 -1</clus>
<clus scale="   89.930">  5  6 -1 -1</clus>
<clus scale="   92.354">  7  8 -1 -1</clus>
<clus scale="  289.937">  2  5  1 -1</clus>
<clus scale="   48.596">  2  5  1 -1</clus>
</clustering>
</event>
<event>
 9    1  0.1296032E-005  0.1280086E+03  0.7546771E-02  0.1240002E+00
          3   -1    0    0  502    0  0.00000000000E+00  0.00000000000E+00  0.19648310517E+03  0.19648310517E+03  0.00000000000E+00 0. -1.
         -3   -1    0    0    0  501 -0.00000000000E+00 -0.00000000000E+00 -0.15104141153E+03  0.15104141153E+03  0.00000000000E+00 0.  1.
         23    2    1    2    0    0 -0.14175344078E+02  0.50653935615E+02 -0.17342041570E+02  0.10667322134E+03  0.91168350718E+02 0.  0.
         23    2    1    2    0    0  0.57445456893E+02  0.52726302664E+02  0.46493601329E+02  0.12760313956E+03  0.89670857869E+02 0.  0.
        -11    1    4    4    0    0  0.68984002500E+02  0.45757236852E+01  0.23597865593E+02  0.73051961703E+02  0.00000000000E+00 0.  1.
         11    1    4    4    0    0 -0.11538545607E+02  0.48150578978E+02  0.22895735736E+02  0.54551177857E+02  0.00000000000E+00 0. -1.
        -13    1    3    3    0    0 -0.33296236985E+02  0.27823146234E+02 -0.47468673865E+02  0.64312066226E+02  0.00000000000E+00 0. -1.
         13    1    3    3    0    0  0.19120892908E+02  0.22830789382E+02  0.30126632295E+02  0.42361155116E+02  0.00000000000E+00 0.  1.
         21    1    1    2  502  501 -0.43270112815E+02 -0.10338023828E+03  0.16290133889E+02  0.11324815580E+03  0.00000000000E+00 0.  1.
<scales pt_clust_5="13000.00000" pt_clust_6="13000.00000" pt_clust_7="13000.00000" pt_clust_8="13000.00000" pt_clust_9="91.35284"></scales>
<clustering>
<clus scale="   89.671">  5  6 -1 -1</clus>
<clus scale="   91.168">  7  8 -1 -1</clus>
<clus scale="  105.254">  2  7  1 -1</clus>
<clus scale="   91.353">  2  9  1 -1</clus>
<clus scale="  128.009">  1  5  2 -1</clus>
</clustering>
</event>
<event>
 9    1  0.1296032E-005  0.1864114E+03  0.7546771E-02  0.1161941E+00
          1   -1    0    0  502    0  0.00000000000E+00  0.00000000000E+00  0.12688497780E+04  0.12688497780E+04  0.00000000000E+00 0. -1.
         -1   -1    0    0    0  501 -0.00000000000E+00 -0.00000000000E+00 -0.66603155001E+02  0.66603155001E+02  0.00000000000E+00 0.  1.
         23    2    1    2    0    0 -0.12781616343E+03 -0.25396912246E+02  0.28148632913E+03  0.32347390633E+03  0.91754235895E+02 0.  0.
         23    2    1    2    0    0  0.15491375230E+03  0.17972291081E+03  0.46960498847E+03  0.53438934635E+03  0.93512207635E+02 0.  0.
        -11    1    4    4    0    0  0.13316290449E+03  0.18386417026E+03  0.38513148354E+03  0.44706224606E+03  0.00000000000E+00 0.  1.
         11    1    4    4    0    0  0.21750847802E+02 -0.41412594527E+01  0.84473504923E+02  0.87327100284E+02  0.00000000000E+00 0. -1.
        -13    1    3    3    0    0 -0.73630128401E+02  0.22920201344E+02  0.89053992784E+02  0.11780214374E+03  0.00000000000E+00 0.  1.
         13    1    3    3    0    0 -0.54186035033E+02 -0.48317113590E+02  0.19243233634E+03  0.20567176259E+03  0.00000000000E+00 0. -1.
         21    1    1    2  502  501 -0.27097588862E+02 -0.15432599856E+03  0.45115530536E+03  0.47758968028E+03  0.00000000000E+00 0. -1.
<scales pt_clust_5="13000.00000" pt_clust_6="13000.00000" pt_clust_7="13000.00000" pt_clust_8="13000.00000" pt_clust_9="156.68693"></scales>
<clustering>
<clus scale="   91.754">  7  8 -1 -1</clus>
<clus scale="   93.512">  5  6 -1 -1</clus>
<clus scale="  156.687">  1  9  2 -1</clus>
<clus scale="  185.536">  2  7  1 -1</clus>
<clus scale="  156.687">  1  5  2 -1</clus>
</clustering>
</event>
<event>
 9    1  0.1296032E-005  0.1093250E+03  0.7546771E-02  0.1261882E+00
          2   -1    0    0  502    0  0.00000000000E+00  0.00000000000E+00  0.61558461314E+03  0.61558461314E+03  0.00000000000E+00 0. -1.
         -2   -1    0    0    0  501 -0.00000000000E+00 -0.00000000000E+00 -0.55875196183E+02  0.55875196183E+02  0.00000000000E+00 0.  1.
         23    2    1    2    0    0 -0.58537362168E+02  0.12471624130E+02  0.21665214551E+02  0.11175462851E+03  0.91856144561E+02 0.  0.
         23    2    1    2    0    0  0.44811772953E+02 -0.45514126366E+02  0.32697703213E+03  0.34562680936E+03  0.92001527805E+02 0.  0.
        -13    1    4    4    0    0  0.21129859411E+02  0.12753425487E+02  0.18608947560E+02  0.30909767868E+02  0.00000000000E+00 0.  1.
         13    1    4    4    0    0  0.23681913542E+02 -0.58267551853E+02  0.30836808457E+03  0.31471704150E+03  0.00000000000E+00 0. -1.
        -13    1    3    3    0    0 -0.46767383249E+02  0.50659007472E+02  0.74751989728E+01  0.69349850567E+02  0.00000000000E+00 0.  1.
         13    1    3    3    0    0 -0.11769978919E+02 -0.38187383342E+02  0.14190015578E+02  0.42404777943E+02  0.00000000000E+00 0. -1.
         21    1    1    2  502  501  0.13725589215E+02  0.33042502236E+02  0.21106717028E+03  0.21407837145E+03  0.00000000000E+00 0.  1.
<scales pt_clust_5="13000.00000" pt_clust_6="13000.00000" pt_clust_7="13000.00000" pt_clust_8="13000.00000" pt_clust_9="35.77987"></scales>
<clustering>
<clus scale="   35.780">  1  9  2 -1</clus>
<clus scale="   91.856">  7  8 -1 -1</clus>
<clus scale="   92.002">  5  6 -1 -1</clus>
<clus scale="  109.203">  2  7  1 -1</clus>
<clus scale="   35.780">  1  5  2 -1</clus>
</clustering>
</event>
<event>
 9    1  0.1296032E-005  0.1040700E+03  0.7546771E-02  0.1275156E+00
          2   -1    0    0  502    0  0.00000000000E+00  0.00000000000E+00  0.72940186117E+03  0.72940186117E+03  0.00000000000E+00 0. -1.
         -2   -1    0    0    0  501 -0.00000000000E+00 -0.00000000000E+00 -0.35343046257E+02  0.35343046257E+02  0.00000000000E+00 0.  1.
         23    2    1    2    0    0  0.10715585877E+02  0.28750851310E+02  0.80959322766E+02  0.12367153258E+03  0.88310819251E+02 0.  0.
         23    2    1    2    0    0 -0.97809799716E+01 -0.79639181121E+02  0.31560621990E+03  0.33925763200E+03  0.95133527681E+02 0.  0.
        -13    1    3    3    0    0  0.39450436413E+02  0.45422582402E+02  0.49319661042E+02  0.77794452826E+02  0.00000000000E+00 0.  1.
         13    1    3    3    0    0 -0.28734850536E+02 -0.16671731092E+02  0.31639661724E+02  0.45877079756E+02  0.00000000000E+00 0. -1.
        -13    1    4    4    0    0 -0.42968910852E+02 -0.62195562832E+01  0.96903928029E+02  0.10618559906E+03  0.00000000000E+00 0.  1.
         13    1    4    4    0    0  0.33187930881E+02 -0.73419624837E+02  0.21870229187E+03  0.23307203294E+03  0.00000000000E+00 0. -1.
         21    1    1    2  502  501 -0.93460590552E+00  0.50888329811E+02  0.29749327225E+03  0.30181574285E+03  0.00000000000E+00 0.  1.
<scales pt_clust_5="13000.00000" pt_clust_6="13000.00000" pt_clust_7="13000.00000" pt_clust_8="13000.00000" pt_clust_9="50.89691"></scales>
<clustering>
<clus scale="   50.897">  1  9  2 -1</clus>
<clus scale="   88.311">  5  6 -1 -1</clus>
<clus scale="   95.134">  7  8 -1 -1</clus>
<clus scale="   97.872">  2  5  1 -1</clus>
<clus scale="   50.897">  1  5  2 -1</clus>
</clustering>
</event>
<event>
 9    1  0.1296032E-005  0.1131547E+03  0.7546771E-02  0.1255224E+00
          4   -1    0    0  502    0  0.00000000000E+00  0.00000000000E+00  0.38630719821E+03  0.38630719821E+03  0.00000000000E+00 0. -1.
         -4   -1    0    0    0  501 -0.00000000000E+00 -0.00000000000E+00 -0.49114052641E+02  0.49114052641E+02  0.00000000000E+00 0.  1.
         23    2    1    2    0    0 -0.74456809045E+02 -0.18785689906E+02  0.94807635353E+02  0.15267116683E+03  0.91778422856E+02 0.  0.
         23    2    1    2    0    0  0.54464344920E+02 -0.84214524145E+01  0.14513390762E+03  0.17980446040E+03  0.90711118998E+02 0.  0.
        -11    1    4    4    0    0  0.44605264600E+02  0.33799486089E+02  0.11211282517E+03  0.12530490995E+03  0.00000000000E+00 0.  1.
         11    1    4    4    0    0  0.98590803194E+01 -0.42220938504E+02  0.33021082446E+02  0.54499550445E+02  0.00000000000E+00 0. -1.
        -13    1    3    3    0    0  0.93154145223E+01 -0.18630369000E+02  0.57143255578E+02  0.60821207278E+02  0.00000000000E+00 0. -1.
         13    1    3    3    0    0 -0.83772223567E+02 -0.15532090672E+00  0.37664379775E+02  0.91849959553E+02  0.00000000000E+00 0.  1.
         21    1    1    2  502  501  0.19992464125E+02  0.27207142321E+02  0.97251602600E+02  0.10294562362E+03  0.00000000000E+00 0. -1.
<scales pt_clust_5="13000.00000" pt_clust_6="13000.00000" pt_clust_7="13000.00000" pt_clust_8="13000.00000" pt_clust_9="33.76281"></scales>
<clustering>
<clus scale="   33.763">  1  9  2 -1</clus>
<clus scale="   90.711">  5  6 -1 -1</clus>
<clus scale="   91.778">  7  8 -1 -1</clus>
<clus scale="  112.291">  1  5  2 -1</clus>
<clus scale="   33.763">  1  5  2 -1</clus>
</clustering>
</event>
<event>
 9    1  0.1296032E-005  0.1111392E+03  0.7546771E-02  0.1258478E+00
         -1   -1    0    0    0  501 -0.00000000000E+00  0.00000000000E+00  0.81865083670E+02  0.81865083670E+02  0.00000000000E+00 0.  1.
          1   -1    0    0  502    0  0.00000000000E+00 -0.00000000000E+00 -0.25940171480E+03  0.25940171480E+03  0.00000000000E+00 0. -1.
         23    2    1    2    0    0 -0.65041587304E+02 -0.11040389684E+02  0.87781786326E+01  0.11437815276E+03  0.93021541195E+02 0.  0.
         23    2    1    2    0    0  0.41579167588E+02  0.11216216699E+02 -0.16928201527E+03  0.19789498877E+03  0.93012876493E+02 0.  0.
        -13    1    4    4    0    0 -0.27723891541E+02  0.13345965559E+02 -0.33838696907E+02  0.45736051067E+02  0.00000000000E+00 0.  1.
         13    1    4    4    0    0  0.69303059129E+02 -0.21297488603E+01 -0.13544331836E+03  0.15215893770E+03  0.00000000000E+00 0. -1.
        -13    1    3    3    0    0 -0.79845734205E+02 -0.33449827138E+02  0.16269291312E+01  0.86584520006E+02  0.00000000000E+00 0.  1.
         13    1    3    3    0    0  0.14804146901E+02  0.22409437454E+02  0.71512495014E+01  0.27793632758E+02  0.00000000000E+00 0. -1.
         21    1    1    2  502  501  0.23462419715E+02 -0.17582701439E+00 -0.17032794492E+02  0.28993656931E+02  0.00000000000E+00 0.  1.
<scales pt_clust_5="13000.00000" pt_clust_6="13000.00000" pt_clust_7="13000.00000" pt_clust_8="13000.00000" pt_clust_9="23.46308"></scales>
<clustering>
<clus scale="   23.463">  2  9  1 -1</clus>
<clus scale="   93.013">  5  6 -1 -1</clus>
<clus scale="   93.022">  7  8 -1 -1</clus>
<clus scale="  111.132">  2  5  1 -1</clus>
<clus scale="   23.463">  2  5  1 -1</clus>
</clustering>
</event>
<event>
 9    1  0.1296032E-005  0.1527202E+03  0.7546771E-02  0.1217371E+00
         -1   -1    0    0    0  501 -0.00000000000E+00  0.00000000000E+00  0.26836943177E+03  0.26836943177E+03  0.00000000000E+00 0.  1.
          1   -1    0    0  502    0  0.00000000000E+00 -0.00000000000E+00 -0.15745724713E+03  0.15745724713E+03  0.00000000000E+00 0. -1.
         23    2    1    2    0    0 -0.12911167300E+03  0.33140644123E+02  0.12901330321E+03  0.20635958346E+03  0.90397560152E+02 0.  0.
         23    2    1    2    0    0  0.32753023616E+02  0.26423502315E+02 -0.34830299074E+02  0.10495621241E+03  0.89619723049E+02 0.  0.
        -11    1    3    3    0    0 -0.11331081693E+03  0.59402435212E+02  0.11722647430E+03  0.17352243895E+03  0.00000000000E+00 0. -1.
         11    1    3    3    0    0 -0.15800856074E+02 -0.26261791088E+02  0.11786828915E+02  0.32837144512E+02  0.00000000000E+00 0.  1.
        -13    1    4    4    0    0  0.62373945291E+02  0.16084165644E+02 -0.10523290468E+02  0.65268285391E+02  0.00000000000E+00 0.  1.
         13    1    4    4    0    0 -0.29620921676E+02  0.10339336670E+02 -0.24307008607E+02  0.39687927019E+02  0.00000000000E+00 0. -1.
         21    1    1    2  502  501  0.96358649389E+02 -0.59564146438E+02  0.16729180497E+02  0.11451088303E+03  0.00000000000E+00 0.  1.
<scales pt_clust_5="13000.00000" pt_clust_6="13000.00000" pt_clust_7="13000.00000" pt_clust_8="13000.00000" pt_clust_9="123.09238"></scales>
<clustering>
<clus scale="   89.620">  7  8 -1 -1</clus>
<clus scale="   90.398">  5  6 -1 -1</clus>
<clus scale="   99.008">  2  7  1 -1</clus>
<clus scale="  123.092">  2  9  1 -1</clus>
<clus scale="   99.008">  2  5  1 -1</clus>
</clustering>
</event>
<event>
 9    1  0.1296032E-005  0.1432407E+03  0.7546771E-02  0.1209859E+00
         -1   -1    0    0    0  501 -0.00000000000E+00  0.00000000000E+00  0.47392400530E+03  0.47392400530E+03  0.00000000000E+00 0.  1.
          1   -1    0    0  502    0  0.00000000000E+00 -0.00000000000E+00 -0.38995572372E+03  0.38995572372E+03  0.00000000000E+00 0. -1.
         23    2    1    2    0    0 -0.74993455554E+02 -0.87451236821E+02  0.42355218176E+03  0.44765923191E+03  0.87923830896E+02 0.  0.
         23    2    1    2    0    0  0.95195832184E+02  0.54966494468E+02 -0.34862313644E+03  0.37691270782E+03  0.91877832335E+02 0.  0.
        -11    1    3    3    0    0  0.16443745530E+02 -0.31252545047E+02  0.73876979545E+02  0.81883615246E+02  0.00000000000E+00 0. -1.
         11    1    3    3    0    0 -0.91437201084E+02 -0.56198691774E+02  0.34967520222E+03  0.36577561666E+03  0.00000000000E+00 0.  1.
        -13    1    4    4    0    0  0.63615291597E+02 -0.14837505387E+02 -0.13518167802E+03  0.15013708058E+03  0.00000000000E+00 0.  1.
         13    1    4    4    0    0  0.31580540587E+02  0.69803999855E+02 -0.21344145842E+03  0.22677562724E+03  0.00000000000E+00 0. -1.
         21    1    1    2  502  501 -0.20202376630E+02  0.32484742354E+02  0.90392362521E+01  0.39307789295E+02  0.00000000000E+00 0.  1.
<scales pt_clust_5="13000.00000" pt_clust_6="13000.00000" pt_clust_7="13000.00000" pt_clust_8="13000.00000" pt_clust_9="38.25434"></scales>
<clustering>
<clus scale="   38.254">  1  9  2 -1</clus>
<clus scale="   87.924">  5  6 -1 -1</clus>
<clus scale="   91.878">  7  8 -1 -1</clus>
<clus scale="  140.737">  1  5  2 -1</clus>
<clus scale="  143.241">  2  5  1 -1</clus>
</clustering>
</event>
<event>
 9    1  0.1296032E-005  0.1356247E+03  0.7546771E-02  0.1230173E+00
         -1   -1    0    0    0  501 -0.00000000000E+00  0.00000000000E+00  0.81996767341E+02  0.81996767341E+02  0.00000000000E+00 0.  1.
          1   -1    0    0  502    0  0.00000000000E+00 -0.00000000000E+00 -0.37436762190E+03  0.37436762190E+03  0.00000000000E+00 0. -1.
         23    2    1    2    0    0  0.25225539964E+02 -0.68180143922E+02 -0.34553600303E+02  0.14491023590E+03  0.12049964848E+03 0.  0.
         23    2    1    2    0    0 -0.35559710661E+02  0.38693648873E+02 -0.78603911866E+02  0.12953749504E+03  0.88542058800E+02 0.  0.
        -13    1    4    4    0    0 -0.59503647087E+02  0.36255941039E+02 -0.79166361999E+02  0.10546321705E+03  0.00000000000E+00 0. -1.
         13    1    4    4    0    0  0.23943936426E+02  0.24377078338E+01  0.56245013372E+00  0.24074278000E+02  0.00000000000E+00 0.  1.
        -13    1    3    3    0    0  0.62966941549E+02 -0.53688639740E+02  0.11596149302E+02  0.83557025101E+02  0.00000000000E+00 0.  1.
         13    1    3    3    0    0 -0.37741401585E+02 -0.14491504182E+02 -0.46149749604E+02  0.61353210801E+02  0.00000000000E+00 0. -1.
         21    1    1    2  502  501  0.10334170697E+02  0.29486495049E+02 -0.17921334239E+03  0.18191665829E+03  0.00000000000E+00 0. -1.
<scales pt_clust_5="13000.00000" pt_clust_6="13000.00000" pt_clust_7="13000.00000" pt_clust_8="13000.00000" pt_clust_9="31.24498"></scales>
<clustering>
<clus scale="   31.245">  2  9  1 -1</clus>
<clus scale="   88.542">  5  6 -1 -1</clus>
<clus scale="  108.229">  2  5  1 -1</clus>
<clus scale="  120.500">  7  8 -1 -1</clus>
<clus scale="   31.245">  2  5  1 -1</clus>
</clustering>
</event>
<event>
 9    1  0.1296032E-005  0.1678303E+03  0.7546771E-02  0.1180221E+00
         -1   -1    0    0    0  501 -0.00000000000E+00  0.00000000000E+00  0.10422161476E+04  0.10422161476E+04  0.00000000000E+00 0.  1.
          1   -1    0    0  502    0  0.00000000000E+00 -0.00000000000E+00 -0.21943355083E+03  0.21943355083E+03  0.00000000000E+00 0. -1.
         23    2    1    2    0    0 -0.90088890748E+02  0.68430277053E+02  0.43300628209E+03  0.45685699668E+03  0.91788692278E+02 0.  0.
         23    2    1    2    0    0  0.75040575183E+02 -0.19063370676E+03  0.55497457975E+03  0.59875727570E+03  0.92418574722E+02 0.  0.
        -11    1    4    4    0    0  0.49924713072E+02 -0.11198281220E+03  0.44287993852E+03  0.45953810196E+03  0.00000000000E+00 0.  1.
         11    1    4    4    0    0  0.25115862111E+02 -0.78650894564E+02  0.11209464123E+03  0.13921917374E+03  0.00000000000E+00 0. -1.
        -11    1    3    3    0    0 -0.82928519624E+01 -0.22062462596E+02  0.63191190993E+02  0.67443682199E+02  0.00000000000E+00 0.  1.
         11    1    3    3    0    0 -0.81796038786E+02  0.90492739649E+02  0.36981509109E+03  0.38941331448E+03  0.00000000000E+00 0. -1.
         21    1    1    2  502  501  0.15048315565E+02  0.12220342971E+03 -0.16519826504E+03  0.20603542610E+03  0.00000000000E+00 0. -1.
<scales pt_clust_5="13000.00000" pt_clust_6="13000.00000" pt_clust_7="13000.00000" pt_clust_8="13000.00000" pt_clust_9="123.12648"></scales>
<clustering>
<clus scale="   91.789">  7  8 -1 -1</clus>
<clus scale="   92.419">  5  6 -1 -1</clus>
<clus scale="  123.126">  2  9  1 -1</clus>
<clus scale="  167.484">  1  7  2 -1</clus>
<clus scale="  123.126">  2  5  1 -1</clus>
</clustering>
</event>
<event>
 9    1  0.1296032E-005  0.1257017E+03  0.7546771E-02  0.1248957E+00
         -1   -1    0    0    0  501 -0.00000000000E+00  0.00000000000E+00  0.17407617570E+03  0.17407617570E+03  0.00000000000E+00 0.  1.
          1   -1    0    0  502    0  0.00000000000E+00 -0.00000000000E+00 -0.30903580570E+03  0.30903580570E+03  0.00000000000E+00 0. -1.
         23    2    1    2    0    0  0.79805471830E+02  0.34831130675E+02  0.11466548969E+03  0.16948429802E+03  0.89412704639E+02 0.  0.
         23    2    1    2    0    0  0.15558608559E+02 -0.16705653923E+02 -0.12185176113E+03  0.15316313310E+03  0.89944118638E+02 0.  0.
        -13    1    3    3    0    0  0.42963188840E+02  0.14444870309E+02  0.11882147555E+03  0.12717323982E+03  0.00000000000E+00 0.  1.
         13    1    3    3    0    0  0.36842282990E+02  0.20386260366E+02 -0.41559858603E+01  0.42311058201E+02  0.00000000000E+00 0. -1.
        -13    1    4    4    0    0 -0.24978895537E+02  0.14815786258E+02 -0.85364043427E+02  0.90169133604E+02  0.00000000000E+00 0.  1.
         13    1    4    4    0    0  0.40537504096E+02 -0.31521440182E+02 -0.36487717704E+02  0.62993999498E+02  0.00000000000E+00 0. -1.
         21    1    1    2  502  501 -0.95364080390E+02 -0.18125476751E+02 -0.12777335857E+03  0.16046455028E+03  0.00000000000E+00 0. -1.
<scales pt_clust_5="13000.00000" pt_clust_6="13000.00000" pt_clust_7="13000.00000" pt_clust_8="13000.00000" pt_clust_9="88.35321"></scales>
<clustering>
<clus scale="   89.413">  5  6 -1 -1</clus>
<clus scale="   89.944">  7  8 -1 -1</clus>
<clus scale="   92.796">  2  7  1 -1</clus>
<clus scale="   88.353">  2  9  1 -1</clus>
<clus scale="   92.796">  2  5  1 -1</clus>
</clustering>
</event>
<event>
 9    1  0.1296032E-005  0.1075505E+03  0.7546771E-02  0.1266238E+00
          1   -1    0    0  502    0  0.00000000000E+00  0.00000000000E+00  0.23293649985E+03  0.23293649985E+03  0.00000000000E+00 0. -1.
         -1   -1    0    0    0  501 -0.00000000000E+00 -0.00000000000E+00 -0.59662168679E+02  0.59662168679E+02  0.00000000000E+00 0.  1.
         23    2    1    2    0    0  0.45086269637E+02 -0.38774867255E+02  0.60051780076E+02  0.12529356157E+03  0.92498639132E+02 0.  0.
         23    2    1    2    0    0 -0.29238994245E+02  0.25801151676E+02  0.94473161860E+02  0.13953834571E+03  0.95000807363E+02 0.  0.
        -11    1    3    3    0    0 -0.55773398647E+01 -0.47872702622E+02  0.55668248101E+02  0.73633254871E+02  0.00000000000E+00 0. -1.
         11    1    3    3    0    0  0.50663609502E+02  0.90978353663E+01  0.43835319750E+01  0.51660306703E+02  0.00000000000E+00 0.  1.
        -13    1    4    4    0    0  0.19250497435E+02  0.11601531451E+02  0.85268350812E+02  0.88180887009E+02  0.00000000000E+00 0.  1.
         13    1    4    4    0    0 -0.48489491680E+02  0.14199620225E+02  0.92048110483E+01  0.51357458702E+02  0.00000000000E+00 0. -1.
         21    1    1    2  502  501 -0.15847275392E+02  0.12973715579E+02  0.18749389237E+02  0.27766761245E+02  0.00000000000E+00 0. -1.
<scales pt_clust_5="13000.00000" pt_clust_6="13000.00000" pt_clust_7="13000.00000" pt_clust_8="13000.00000" pt_clust_9="20.48056"></scales>
<clustering>
<clus scale="   20.481">  1  9  2 -1</clus>
<clus scale="   92.499">  5  6 -1 -1</clus>
<clus scale="   95.001">  7  8 -1 -1</clus>
<clus scale="  105.347">  2  5  1 -1</clus>
<clus scale="   20.481">  1  5  2 -1</clus>
</clustering>
</event>
<event>
 9    1  0.1296032E-005  0.1271547E+03  0.7546771E-02  0.1231754E+00
         -1   -1    0    0    0  501 -0.00000000000E+00  0.00000000000E+00  0.14729153209E+03  0.14729153209E+03  0.00000000000E+00 0.  1.
          1   -1    0    0  502    0  0.00000000000E+00 -0.00000000000E+00 -0.23243876310E+03  0.23243876310E+03  0.00000000000E+00 0. -1.
         23    2    1    2    0    0 -0.17569629835E+02  0.93852028403E+02  0.68711189454E+02  0.14890141649E+03  0.91288055892E+02 0.  0.
         23    2    1    2    0    0  0.41814989417E+02 -0.52532700552E+02 -0.14167724993E+03  0.18139705464E+03  0.91237439214E+02 0.  0.
        -11    1    3    3    0    0  0.62215951245E+01  0.10381618135E+03  0.65498054325E+02  0.12290851426E+03  0.00000000000E+00 0. -1.
         11    1    3    3    0    0 -0.23791224960E+02 -0.99641529500E+01  0.32131351288E+01  0.25992902232E+02  0.00000000000E+00 0.  1.
        -13    1    4    4    0    0 -0.95282626050E+01 -0.45722220743E+02 -0.23318299037E+02  0.52202033753E+02  0.00000000000E+00 0.  1.
         13    1    4    4    0    0  0.51343252022E+02 -0.68104798087E+01 -0.11835895090E+03  0.12919502088E+03  0.00000000000E+00 0. -1.
         21    1    1    2  502  501 -0.24245359581E+02 -0.41319327851E+02 -0.12181170531E+02  0.49431824069E+02  0.00000000000E+00 0.  1.
<scales pt_clust_5="13000.00000" pt_clust_6="13000.00000" pt_clust_7="13000.00000" pt_clust_8="13000.00000" pt_clust_9="47.90746"></scales>
<clustering>
<clus scale="   47.907">  2  9  1 -1</clus>
<clus scale="   91.237">  7  8 -1 -1</clus>
<clus scale="   91.288">  5  6 -1 -1</clus>
<clus scale="  127.118">  2  7  1 -1</clus>
<clus scale="   47.907">  2  5  1 -1</clus>
</clustering>
</event>
<event>
 9    1  0.1296032E-005  0.1203060E+03  0.7546771E-02  0.1244154E+00
         -1   -1    0    0    0  501 -0.00000000000E+00  0.00000000000E+00  0.10096174264E+03  0.10096174264E+03  0.00000000000E+00 0.  1.
          1   -1    0    0  502    0  0.00000000000E+00 -0.00000000000E+00 -0.23389525863E+03  0.23389525863E+03  0.00000000000E+00 0. -1.
         23    2    1    2    0    0  0.35779515496E+02 -0.74698839757E+02  0.24050260757E+02  0.12636851412E+03  0.92360683893E+02 0.  0.
         23    2    1    2    0    0 -0.14269467930E+02  0.62345351807E+02 -0.10490725589E+03  0.15080612558E+03  0.87443665106E+02 0.  0.
        -13    1    4    4    0    0  0.23296493471E+02 -0.10924595914E+02 -0.29629265564E+02  0.39242410499E+02  0.00000000000E+00 0. -1.
         13    1    4    4    0    0 -0.37565961401E+02  0.73269947721E+02 -0.75277990328E+02  0.11156371508E+03  0.00000000000E+00 0.  1.
        -13    1    3    3    0    0  0.59965769163E+02 -0.29686927552E+02 -0.58460864943E+01  0.67166836058E+02  0.00000000000E+00 0. -1.
         13    1    3    3    0    0 -0.24186253667E+02 -0.45011912205E+02  0.29896347252E+02  0.59201678065E+02  0.00000000000E+00 0.  1.
         21    1    1    2  502  501 -0.21510047567E+02  0.12353487950E+02 -0.52076520853E+02  0.57682361559E+02  0.00000000000E+00 0. -1.
<scales pt_clust_5="13000.00000" pt_clust_6="13000.00000" pt_clust_7="13000.00000" pt_clust_8="13000.00000" pt_clust_9="24.80506"></scales>
<clustering>
<clus scale="   24.805">  2  9  1 -1</clus>
<clus scale="   87.444">  5  6 -1 -1</clus>
<clus scale="   92.361">  7  8 -1 -1</clus>
<clus scale="  116.574">  2  5  1 -1</clus>
<clus scale="   24.805">  2  5  1 -1</clus>
</clustering>
</event>
<event>
 9    1  0.1296032E-005  0.2598299E+03  0.7546771E-02  0.1107450E+00
         -1   -1    0    0    0  501 -0.00000000000E+00  0.00000000000E+00  0.48486403154E+03  0.48486403154E+03  0.00000000000E+00 0.  1.
          1   -1    0    0  502    0  0.00000000000E+00 -0.00000000000E+00 -0.15223199855E+03  0.15223199855E+03  0.00000000000E+00 0. -1.
         23    2    1    2    0    0 -0.42358430760E+02 -0.24028436506E+03  0.18347962725E+03  0.31977640168E+03  0.95191179785E+02 0.  0.
         23    2    1    2    0    0  0.62243563717E+02  0.23160267306E+03  0.14633130341E+03  0.29543929689E+03  0.91419190539E+02 0.  0.
        -11    1    3    3    0    0 -0.63945816161E+02 -0.20574378572E+03  0.17635722407E+03  0.27842672869E+03  0.00000000000E+00 0.  1.
         11    1    3    3    0    0  0.21587385401E+02 -0.34540579345E+02  0.71224031794E+01  0.41349672998E+02  0.00000000000E+00 0. -1.
        -11    1    4    4    0    0 -0.23474794995E+01  0.15611836234E+03  0.10302742783E+03  0.18706443972E+03  0.00000000000E+00 0. -1.
         11    1    4    4    0    0  0.64591043216E+02  0.75484310715E+02  0.43303875579E+02  0.10837485718E+03  0.00000000000E+00 0.  1.
         21    1    1    2  502  501 -0.19885132956E+02  0.86816920020E+01  0.28211023211E+01  0.21880331511E+02  0.00000000000E+00 0. -1.
<scales pt_clust_5="13000.00000" pt_clust_6="13000.00000" pt_clust_7="13000.00000" pt_clust_8="13000.00000" pt_clust_9="21.69770"></scales>
<clustering>
<clus scale="   21.698">  2  9  1 -1</clus>
<clus scale="   91.419">  7  8 -1 -1</clus>
<clus scale="   95.191">  5  6 -1 -1</clus>
<clus scale="  258.472">  2  7  1 -1</clus>
<clus scale="   21.698">  2  5  1 -1</clus>
</clustering>
</event>
<event>
 9    1  0.1296032E-005  0.9553240E+02  0.7546771E-02  0.1290302E+00
          1   -1    0    0  502    0  0.00000000000E+00  0.00000000000E+00  0.40859367147E+02  0.40859367147E+02  0.00000000000E+00 0. -1.
         -1   -1    0    0    0  501 -0.00000000000E+00 -0.00000000000E+00 -0.48780062556E+03  0.48780062556E+03  0.00000000000E+00 0.  1.
         23    2    1    2    0    0 -0.11932858202E+02  0.12177193952E+02 -0.26009265324E+03  0.27610334427E+03  0.91072450789E+02 0.  0.
         23    2    1    2    0    0  0.61841219715E+02  0.14330184456E+02 -0.14116748416E+03  0.17989131642E+03  0.91667532413E+02 0.  0.
        -11    1    3    3    0    0 -0.34352599793E+02 -0.14558984254E+02 -0.21917763633E+03  0.22233061283E+03  0.00000000000E+00 0.  1.
         11    1    3    3    0    0  0.22419741590E+02  0.26736178206E+02 -0.40915016908E+02  0.53772731441E+02  0.00000000000E+00 0. -1.
        -13    1    4    4    0    0  0.70970066910E+02 -0.19287884812E+02 -0.11422190490E+03  0.13585071386E+03  0.00000000000E+00 0. -1.
         13    1    4    4    0    0 -0.91288471951E+01  0.33618069268E+02 -0.26945579254E+02  0.44040602559E+02  0.00000000000E+00 0.  1.
         21    1    1    2  502  501 -0.49908361513E+02 -0.26507378408E+02 -0.45681121023E+02  0.72665332015E+02  0.00000000000E+00 0.  1.
<scales pt_clust_5="13000.00000" pt_clust_6="13000.00000" pt_clust_7="13000.00000" pt_clust_8="13000.00000" pt_clust_9="56.51093"></scales>
<clustering>
<clus scale="   56.511">  1  9  2 -1</clus>
<clus scale="   91.072">  5  6 -1 -1</clus>
<clus scale="   91.668">  7  8 -1 -1</clus>
<clus scale="   94.962">  2  5  1 -1</clus>
<clus scale="   56.511">  1  5  2 -1</clus>
</clustering>
</event>
<event>
 9    1  0.1296032E-005  0.1139506E+03  0.7546771E-02  0.1257220E+00
          1   -1    0    0  502    0  0.00000000000E+00  0.00000000000E+00  0.98047778609E+02  0.98047778609E+02  0.00000000000E+00 0. -1.
         -1   -1    0    0    0  501 -0.00000000000E+00 -0.00000000000E+00 -0.22795673666E+03  0.22795673666E+03  0.00000000000E+00 0.  1.
         23    2    1    2    0    0 -0.35813664704E+02  0.23284508193E+02 -0.11045933772E+03  0.15610446972E+03  0.10169834450E+03 0.  0.
         23    2    1    2    0    0  0.57171660803E+02 -0.30393207963E+02 -0.56803051721E+02  0.12628839061E+03  0.92357051866E+02 0.  0.
        -11    1    3    3    0    0  0.27926808775E+02 -0.17235688496E+02 -0.47724617205E+02  0.57919035676E+02  0.00000000000E+00 0. -1.
         11    1    3    3    0    0 -0.63740473479E+02  0.40520196689E+02 -0.62734720519E+02  0.98185434040E+02  0.00000000000E+00 0.  1.
        -13    1    4    4    0    0  0.57156327349E+02 -0.40130242821E+00  0.52188479609E+01  0.57395497852E+02  0.00000000000E+00 0. -1.
         13    1    4    4    0    0  0.15333453597E-01 -0.29991905535E+02 -0.62021899682E+02  0.68892892760E+02  0.00000000000E+00 0.  1.
         21    1    1    2  502  501 -0.21357996098E+02  0.71086997701E+01  0.37353431393E+02  0.43611654940E+02  0.00000000000E+00 0.  1.
<scales pt_clust_5="13000.00000" pt_clust_6="13000.00000" pt_clust_7="13000.00000" pt_clust_8="13000.00000" pt_clust_9="22.50994"></scales>
<clustering>
<clus scale="   22.510">  1  9  2 -1</clus>
<clus scale="   92.357">  7  8 -1 -1</clus>
<clus scale="  101.698">  5  6 -1 -1</clus>
<clus scale="  105.698">  1  7  2 -1</clus>
<clus scale="   22.510">  1  5  2 -1</clus>
</clustering>
</event>
<event>
 9    1  0.1296032E-005  0.1142032E+03  0.7546771E-02  0.1258598E+00
          2   -1    0    0  502    0  0.00000000000E+00  0.00000000000E+00  0.20188207390E+03  0.20188207390E+03  0.00000000000E+00 0. -1.
         -2   -1    0    0    0  501 -0.00000000000E+00 -0.00000000000E+00 -0.91411048805E+02  0.91411048805E+02  0.00000000000E+00 0.  1.
         23    2    1    2    0    0 -0.24996478567E+01 -0.36997955862E+02  0.18500233411E+02  0.10890234159E+03  0.10070930638E+03 0.  0.
         23    2    1    2    0    0  0.26009791125E+01  0.78251805346E+02  0.55941268735E+02  0.12961837119E+03  0.86841156538E+02 0.  0.
        -13    1    4    4    0    0 -0.29826639753E+02  0.78939907349E+02  0.37945979370E+02  0.92525859961E+02  0.00000000000E+00 0. -1.
         13    1    4    4    0    0  0.32427618865E+02 -0.68810200280E+00  0.17995289364E+02  0.37092511224E+02  0.00000000000E+00 0.  1.
        -13    1    3    3    0    0 -0.28390494773E+02 -0.50801227519E+02  0.41620142997E+02  0.71547335478E+02  0.00000000000E+00 0.  1.
         13    1    3    3    0    0  0.25890846916E+02  0.13803271658E+02 -0.23119909586E+02  0.37355006114E+02  0.00000000000E+00 0. -1.
         21    1    1    2  502  501 -0.10133125580E+00 -0.41253849485E+02  0.36029522954E+02  0.54772409931E+02  0.00000000000E+00 0.  1.
<scales pt_clust_5="13000.00000" pt_clust_6="13000.00000" pt_clust_7="13000.00000" pt_clust_8="13000.00000" pt_clust_9="41.25397"></scales>
<clustering>
<clus scale="   41.254">  1  9  2 -1</clus>
<clus scale="   86.841">  5  6 -1 -1</clus>
<clus scale="  100.709">  7  8 -1 -1</clus>
<clus scale="  102.183">  1  5  2 -1</clus>
<clus scale="   41.254">  1  5  2 -1</clus>
</clustering>
</event>
<event>
 9    1  0.1296032E-005  0.9988791E+02  0.7546771E-02  0.1280651E+00
          1   -1    0    0  502    0  0.00000000000E+00  0.00000000000E+00  0.89743906538E+02  0.89743906538E+02  0.00000000000E+00 0. -1.
         -1   -1    0    0    0  501 -0.00000000000E+00 -0.00000000000E+00 -0.17751487093E+03  0.17751487093E+03  0.00000000000E+00 0.  1.
         23    2    1    2    0    0 -0.28506436423E+02 -0.16454230633E+02 -0.86005123631E+02  0.13005676333E+03  0.91839652512E+02 0.  0.
         23    2    1    2    0    0  0.34763127897E+02  0.42185115974E+02 -0.14801081584E+02  0.10768689679E+03  0.91593322101E+02 0.  0.
        -11    1    4    4    0    0  0.28978228004E+02  0.20251846802E+02  0.36976876377E+02  0.51158228896E+02  0.00000000000E+00 0. -1.
         11    1    4    4    0    0  0.57848998926E+01  0.21933269172E+02 -0.51777957961E+02  0.56528667895E+02  0.00000000000E+00 0.  1.
        -11    1    3    3    0    0  0.21810256452E+02 -0.34082706986E+01  0.72989320821E+01  0.23250333443E+02  0.00000000000E+00 0. -1.
         11    1    3    3    0    0 -0.50316692875E+02 -0.13045959934E+02 -0.93304055713E+02  0.10680642989E+03  0.00000000000E+00 0.  1.
         21    1    1    2  502  501 -0.62566914737E+01 -0.25730885341E+02  0.13035240825E+02  0.29515117347E+02  0.00000000000E+00 0.  1.
<scales pt_clust_5="13000.00000" pt_clust_6="13000.00000" pt_clust_7="13000.00000" pt_clust_8="13000.00000" pt_clust_9="26.48065"></scales>
<clustering>
<clus scale="   26.481">  1  9  2 -1</clus>
<clus scale="   91.593">  5  6 -1 -1</clus>
<clus scale="   91.840">  7  8 -1 -1</clus>
<clus scale="   99.661">  1  5  2 -1</clus>
<clus scale="   26.481">  1  5  2 -1</clus>
</clustering>
</event>
<event>
 9    1  0.1296032E-005  0.1839826E+03  0.7546771E-02  0.1164111E+00
          1   -1    0    0  502    0  0.00000000000E+00  0.00000000000E+00  0.18541638297E+03  0.18541638297E+03  0.00000000000E+00 0. -1.
         -1   -1    0    0    0  501 -0.00000000000E+00 -0.00000000000E+00 -0.48578924704E+03  0.48578924704E+03  0.00000000000E+00 0.  1.
         23    2    1    2    0    0 -0.19047222556E+01 -0.16322802247E+03 -0.40864628427E+03  0.44911367086E+03  0.89801383164E+02 0.  0.
         23    2    1    2    0    0  0.38287187106E+01  0.13635054448E+03  0.10583481338E+03  0.19503558487E+03  0.90728945636E+02 0.  0.
        -11    1    3    3    0    0 -0.31082897040E+02 -0.49400391836E+02 -0.72827101490E+02  0.93329158966E+02  0.00000000000E+00 0. -1.
         11    1    3    3    0    0  0.29178174784E+02 -0.11382763064E+03 -0.33581918278E+03  0.35578451190E+03  0.00000000000E+00 0.  1.
        -13    1    4    4    0    0 -0.31632050669E+02  0.64592700925E+02  0.86867252647E+02  0.11277731698E+03  0.00000000000E+00 0.  1.
         13    1    4    4    0    0  0.35460769379E+02  0.71757843559E+02  0.18967560732E+02  0.82258267896E+02  0.00000000000E+00 0. -1.
         21    1    1    2  502  501 -0.19239964549E+01  0.26877477989E+02  0.24386068277E+01  0.27056374271E+02  0.00000000000E+00 0.  1.
<scales pt_clust_5="13000.00000" pt_clust_6="13000.00000" pt_clust_7="13000.00000" pt_clust_8="13000.00000" pt_clust_9="26.94625"></scales>
<clustering>
<clus scale="   26.946">  1  9  2 -1</clus>
<clus scale="   89.801">  5  6 -1 -1</clus>
<clus scale="   90.729">  7  8 -1 -1</clus>
<clus scale="  183.527">  2  5  1 -1</clus>
<clus scale="   26.946">  1  5  2 -1</clus>
</clustering>
</event>
<event>
 9    1  0.1296032E-005  0.1151300E+03  0.7546771E-02  0.1254188E+00
         -1   -1    0    0    0  501 -0.00000000000E+00  0.00000000000E+00  0.16287539325E+03  0.16287539325E+03  0.00000000000E+00 0.  1.
          1   -1    0    0  502    0  0.00000000000E+00 -0.00000000000E+00 -0.11730744827E+03  0.11730744827E+03  0.00000000000E+00 0. -1.
         23    2    1    2    0    0 -0.36270586115E+02  0.31762992668E+02  0.32738489371E+02  0.10171958450E+03  0.83370390811E+02 0.  0.
         23    2    1    2    0    0  0.50880023510E+02 -0.75485734391E+02 -0.47560160683E+01  0.12912399660E+03  0.91452249395E+02 0.  0.
        -13    1    4    4    0    0  0.75603238989E+02 -0.70366441120E+02  0.73933625796E+00  0.10328519933E+03  0.00000000000E+00 0. -1.
         13    1    4    4    0    0 -0.24723215479E+02 -0.51192932709E+01 -0.54953523262E+01  0.25838797271E+02  0.00000000000E+00 0.  1.
        -13    1    3    3    0    0 -0.15118855796E+02 -0.23959563679E+02 -0.81031808688E+01  0.29466965104E+02  0.00000000000E+00 0. -1.
         13    1    3    3    0    0 -0.21151730319E+02  0.55722556347E+02  0.40841670240E+02  0.72252619395E+02  0.00000000000E+00 0.  1.
         21    1    1    2  502  501 -0.14609437395E+02  0.43722741722E+02  0.17585471675E+02  0.49339260420E+02  0.00000000000E+00 0.  1.
<scales pt_clust_5="13000.00000" pt_clust_6="13000.00000" pt_clust_7="13000.00000" pt_clust_8="13000.00000" pt_clust_9="46.09896"></scales>
<clustering>
<clus scale="   46.099">  1  9  2 -1</clus>
<clus scale="   83.370">  7  8 -1 -1</clus>
<clus scale="   91.452">  5  6 -1 -1</clus>
<clus scale="  108.821">  1  7  2 -1</clus>
<clus scale="  115.130">  2  5  1 -1</clus>
</clustering>
</event>
<event>
 9    1  0.1296032E-005  0.1084688E+03  0.7546771E-02  0.1263730E+00
         -1   -1    0    0    0  501 -0.00000000000E+00  0.00000000000E+00  0.18361668765E+03  0.18361668765E+03  0.00000000000E+00 0.  1.
          1   -1    0    0  502    0  0.00000000000E+00 -0.00000000000E+00 -0.26217506221E+03  0.26217506221E+03  0.00000000000E+00 0. -1.
         23    2    1    2    0    0  0.38175338420E+02  0.49501282741E+02  0.13552754151E+03  0.17501638321E+03  0.91407255873E+02 0.  0.
         23    2    1    2    0    0 -0.28030225041E+02 -0.28553787572E+02 -0.61945603320E+02  0.11686501729E+03  0.90659595157E+02 0.  0.
        -11    1    3    3    0    0  0.65267107952E+02  0.25152677316E+02  0.11065748154E+03  0.13091039217E+03  0.00000000000E+00 0.  1.
         11    1    3    3    0    0 -0.27091769532E+02  0.24348605425E+02  0.24870059966E+02  0.44105991036E+02  0.00000000000E+00 0. -1.
        -11    1    4    4    0    0  0.22388935395E+02 -0.39669443504E+02 -0.17697968148E+02  0.48868673530E+02  0.00000000000E+00 0.  1.
         11    1    4    4    0    0 -0.50419160436E+02  0.11115655932E+02 -0.44247635172E+02  0.67996343756E+02  0.00000000000E+00 0. -1.
         21    1    1    2  502  501 -0.10145113378E+02 -0.20947495170E+02 -0.15214031275E+03  0.15391034937E+03  0.00000000000E+00 0. -1.
<scales pt_clust_5="13000.00000" pt_clust_6="13000.00000" pt_clust_7="13000.00000" pt_clust_8="13000.00000" pt_clust_9="23.27490"></scales>
<clustering>
<clus scale="   23.275">  2  9  1 -1</clus>
<clus scale="   90.660">  7  8 -1 -1</clus>
<clus scale="   91.407">  5  6 -1 -1</clus>
<clus scale="  107.840">  2  7  1 -1</clus>
<clus scale="   23.275">  2  5  1 -1</clus>
</clustering>
</event>
<event>
 9    1  0.1296032E-005  0.1236784E+03  0.7546771E-02  0.1237391E+00
         -1   -1    0    0    0  501 -0.00000000000E+00  0.00000000000E+00  0.13559489170E+03  0.13559489170E+03  0.00000000000E+00 0.  1.
          1   -1    0    0  502    0  0.00000000000E+00 -0.00000000000E+00 -0.32637268782E+03  0.32637268782E+03  0.00000000000E+00 0. -1.
         23    2    1    2    0    0  0.66912141656E+02  0.59913756314E+02  0.66542557541E+02  0.14412898412E+03  0.90985488967E+02 0.  0.
         23    2    1    2    0    0 -0.60238899261E+02 -0.26049289646E+02 -0.82881823393E+02  0.14001808165E+03  0.91806187512E+02 0.  0.
        -11    1    4    4    0    0 -0.17186475222E+02 -0.56136093314E+02 -0.31874582203E+02  0.66802880879E+02  0.00000000000E+00 0.  1.
         11    1    4    4    0    0 -0.43052424039E+02  0.30086803668E+02 -0.51007241190E+02  0.73215200774E+02  0.00000000000E+00 0. -1.
        -13    1    3    3    0    0  0.26855008509E+02 -0.16325281245E+02 -0.54289278818E+01  0.31893252385E+02  0.00000000000E+00 0.  1.
         13    1    3    3    0    0  0.40057133147E+02  0.76239037559E+02  0.71971485423E+02  0.11223573173E+03  0.00000000000E+00 0. -1.
         21    1    1    2  502  501 -0.66732423953E+01 -0.33864466668E+02 -0.17443853027E+03  0.17782051375E+03  0.00000000000E+00 0.  1.
<scales pt_clust_5="13000.00000" pt_clust_6="13000.00000" pt_clust_7="13000.00000" pt_clust_8="13000.00000" pt_clust_9="34.51571"></scales>
<clustering>
<clus scale="   34.516">  2  9  1 -1</clus>
<clus scale="   90.985">  7  8 -1 -1</clus>
<clus scale="   91.806">  5  6 -1 -1</clus>
<clus scale="  123.070">  1  7  2 -1</clus>
<clus scale="   34.516">  2  5  1 -1</clus>
</clustering>
</event>
<event>
 9    1  0.1296032E-005  0.1338967E+03  0.7546771E-02  0.1239059E+00
          1   -1    0    0  502    0  0.00000000000E+00  0.00000000000E+00  0.61949918561E+02  0.61949918561E+02  0.00000000000E+00 0. -1.
         -1   -1    0    0    0  501 -0.00000000000E+00 -0.00000000000E+00 -0.43579669052E+03  0.43579669052E+03  0.00000000000E+00 0.  1.
         23    2    1    2    0    0  0.18047591862E+02 -0.28510840271E+01 -0.11253736919E+03  0.14647082422E+03  0.91952154032E+02 0.  0.
         23    2    1    2    0    0  0.15099723681E+02 -0.92341365969E+02 -0.12294726042E+03  0.18009041896E+03  0.92528917813E+02 0.  0.
        -13    1    3    3    0    0  0.44292402014E+02  0.25594940889E+02 -0.84125941931E+02  0.98458580027E+02  0.00000000000E+00 0.  1.
         13    1    3    3    0    0 -0.26244810152E+02 -0.28446024916E+02 -0.28411427260E+02  0.48012244193E+02  0.00000000000E+00 0. -1.
        -13    1    4    4    0    0 -0.33469128235E+02 -0.11555844732E+02 -0.20664123549E+02  0.40996659551E+02  0.00000000000E+00 0. -1.
         13    1    4    4    0    0  0.48568851916E+02 -0.80785521237E+02 -0.10228313688E+03  0.13909375941E+03  0.00000000000E+00 0.  1.
         21    1    1    2  502  501 -0.33147315543E+02  0.95192449996E+02 -0.13836214234E+03  0.17118536590E+03  0.00000000000E+00 0.  1.
<scales pt_clust_5="13000.00000" pt_clust_6="13000.00000" pt_clust_7="13000.00000" pt_clust_8="13000.00000" pt_clust_9="96.78181"></scales>
<clustering>
<clus scale="   91.952">  5  6 -1 -1</clus>
<clus scale="   92.529">  7  8 -1 -1</clus>
<clus scale="   93.750">  2  5  1 -1</clus>
<clus scale="   96.782">  2  9  1 -1</clus>
<clus scale="  133.897">  1  5  2 -1</clus>
</clustering>
</event>
<event>
 9    1  0.1296032E-005  0.1134152E+03  0.7546771E-02  0.1254546E+00
          1   -1    0    0  502    0  0.00000000000E+00  0.00000000000E+00  0.63161941790E+02  0.63161941790E+02  0.00000000000E+00 0. -1.
         -1   -1    0    0    0  501 -0.00000000000E+00 -0.00000000000E+00 -0.38447549949E+03  0.38447549949E+03  0.00000000000E+00 0.  1.
         23    2    1    2    0    0 -0.62551648288E+02 -0.20993777899E+02 -0.21253092426E+03  0.24111718272E+03  0.92815163752E+02 0.  0.
         23    2    1    2    0    0  0.46052214541E+02  0.52228976423E+02 -0.12264317374E+03  0.16857314380E+03  0.92341130076E+02 0.  0.
        -11    1    4    4    0    0  0.23805935744E+02 -0.21819486586E+02 -0.13929608255E+02  0.35168829347E+02  0.00000000000E+00 0. -1.
         11    1    4    4    0    0  0.22246278797E+02  0.74048463010E+02 -0.10871356549E+03  0.13340431446E+03  0.00000000000E+00 0.  1.
        -11    1    3    3    0    0 -0.84822554873E+02 -0.20480078826E+02 -0.13751956820E+03  0.16286783317E+03  0.00000000000E+00 0.  1.
         11    1    3    3    0    0  0.22270906585E+02 -0.51369907312E+00 -0.75011356068E+02  0.78249349557E+02  0.00000000000E+00 0. -1.
         21    1    1    2  502  501  0.16499433747E+02 -0.31235198524E+02  0.13860540303E+02  0.37947114756E+02  0.00000000000E+00 0. -1.
<scales pt_clust_5="13000.00000" pt_clust_6="13000.00000" pt_clust_7="13000.00000" pt_clust_8="13000.00000" pt_clust_9="35.32519"></scales>
<clustering>
<clus scale="   35.325">  1  9  2 -1</clus>
<clus scale="   92.341">  5  6 -1 -1</clus>
<clus scale="   92.815">  7  8 -1 -1</clus>
<clus scale="  113.028">  1  5  2 -1</clus>
<clus scale="   35.325">  1  5  2 -1</clus>
</clustering>
</event>
<event>
 9    1  0.1296032E-005  0.1403955E+03  0.7546771E-02  0.1213741E+00
         -3   -1    0    0    0  501 -0.00000000000E+00  0.00000000000E+00  0.44949254829E+03  0.44949254829E+03  0.00000000000E+00 0.  1.
          3   -1    0    0  502    0  0.00000000000E+00 -0.00000000000E+00 -0.63416129385E+02  0.63416129385E+02  0.00000000000E+00 0. -1.
         23    2    1    2    0    0 -0.76129984292E+02 -0.43060847037E+02  0.16607183155E+03  0.20885427868E+03  0.91598282922E+02 0.  0.
         23    2    1    2    0    0  0.10583092758E+03  0.76690365864E+02  0.20145479378E+03  0.25550354514E+03  0.87272161596E+02 0.  0.
        -11    1    3    3    0    0 -0.95295461829E+02 -0.26598603804E+02  0.14702209204E+03  0.17721231988E+03  0.00000000000E+00 0. -1.
         11    1    3    3    0    0  0.19165477537E+02 -0.16462243234E+02  0.19049739507E+02  0.31641958801E+02  0.00000000000E+00 0.  1.
        -11    1    4    4    0    0  0.56438162519E+02  0.79194652704E+02  0.85678808482E+02  0.12960678002E+03  0.00000000000E+00 0. -1.
         11    1    4    4    0    0  0.49392765062E+02 -0.25042868393E+01  0.11577598530E+03  0.12589676511E+03  0.00000000000E+00 0.  1.
         21    1    1    2  502  501 -0.29700943288E+02 -0.33629518827E+02  0.18549793574E+02  0.48550853858E+02  0.00000000000E+00 0. -1.
<scales pt_clust_5="13000.00000" pt_clust_6="13000.00000" pt_clust_7="13000.00000" pt_clust_8="13000.00000" pt_clust_9="44.86748"></scales>
<clustering>
<clus scale="   44.867">  2  9  1 -1</clus>
<clus scale="   87.272">  7  8 -1 -1</clus>
<clus scale="   91.598">  5  6 -1 -1</clus>
<clus scale="  137.612">  2  7  1 -1</clus>
<clus scale="   44.867">  2  5  1 -1</clus>
</clustering>
</event>
<event>
 9    1  0.1296032E-005  0.1215890E+03  0.7546771E-02  0.1241161E+00
          1   -1    0    0  502    0  0.00000000000E+00  0.00000000000E+00  0.38376046456E+03  0.38376046456E+03  0.00000000000E+00 0. -1.
         -1   -1    0    0    0  501 -0.00000000000E+00 -0.00000000000E+00 -0.50752369555E+02  0.50752369555E+02  0.00000000000E+00 0.  1.
         23    2    1    2    0    0 -0.27112225453E+02  0.79175856091E+02  0.83824074019E+02  0.15041376482E+03  0.92703485946E+02 0.  0.
         23    2    1    2    0    0  0.74327358988E+01 -0.69784245647E+02  0.21269385061E+03  0.24159004448E+03  0.90564833152E+02 0.  0.
        -11    1    4    4    0    0  0.45351661019E+02 -0.14804160683E+02  0.93057328428E+02  0.10457343212E+03  0.00000000000E+00 0.  1.
         11    1    4    4    0    0 -0.37918925121E+02 -0.54980084964E+02  0.11963652218E+03  0.13701661236E+03  0.00000000000E+00 0. -1.
        -13    1    3    3    0    0  0.26756390459E+02  0.75967476172E+00  0.33201012143E+02  0.42647259507E+02  0.00000000000E+00 0.  1.
         13    1    3    3    0    0 -0.53868615911E+02  0.78416181330E+02  0.50623061876E+02  0.10776650532E+03  0.00000000000E+00 0. -1.
         21    1    1    2  502  501  0.19679489554E+02 -0.93916104442E+01  0.36490170381E+02  0.42509024810E+02  0.00000000000E+00 0. -1.
<scales pt_clust_5="13000.00000" pt_clust_6="13000.00000" pt_clust_7="13000.00000" pt_clust_8="13000.00000" pt_clust_9="21.80561"></scales>
<clustering>
<clus scale="   21.806">  1  9  2 -1</clus>
<clus scale="   90.565">  5  6 -1 -1</clus>
<clus scale="   92.703">  7  8 -1 -1</clus>
<clus scale="  119.966">  1  5  2 -1</clus>
<clus scale="   21.806">  1  5  2 -1</clus>
</clustering>
</event>
<event>
 9    1  0.1296032E-005  0.9575702E+02  0.7546771E-02  0.1290813E+00
         -1   -1    0    0    0  501 -0.00000000000E+00  0.00000000000E+00  0.13937374980E+03  0.13937374980E+03  0.00000000000E+00 0.  1.
          1   -1    0    0  502    0  0.00000000000E+00 -0.00000000000E+00 -0.98447391465E+02  0.98447391465E+02  0.00000000000E+00 0. -1.
         23    2    1    2    0    0  0.26336055934E+02  0.30594453846E+02  0.47413160435E+02  0.10868711482E+03  0.89080147599E+02 0.  0.
         23    2    1    2    0    0 -0.11326005013E+02 -0.61149126131E+01  0.14480443309E+02  0.93578788466E+02  0.91551274521E+02 0.  0.
        -11    1    3    3    0    0 -0.26004759338E+02 -0.10921251681E+02  0.27778442038E+01  0.28341447827E+02  0.00000000000E+00 0. -1.
         11    1    3    3    0    0  0.52340815272E+02  0.41515705527E+02  0.44635316231E+02  0.80345666988E+02  0.00000000000E+00 0.  1.
        -13    1    4    4    0    0 -0.32708185909E+02  0.12536256591E+02 -0.26367558071E+02  0.43843258015E+02  0.00000000000E+00 0. -1.
         13    1    4    4    0    0  0.21382180896E+02 -0.18651169204E+02  0.40848001379E+02  0.49735530451E+02  0.00000000000E+00 0.  1.
         21    1    1    2  502  501 -0.15010050921E+02 -0.24479541233E+02 -0.20967245412E+02  0.35555237979E+02  0.00000000000E+00 0. -1.
<scales pt_clust_5="13000.00000" pt_clust_6="13000.00000" pt_clust_7="13000.00000" pt_clust_8="13000.00000" pt_clust_9="28.71497"></scales>
<clustering>
<clus scale="   28.715">  2  9  1 -1</clus>
<clus scale="   89.080">  5  6 -1 -1</clus>
<clus scale="   91.551">  7  8 -1 -1</clus>
<clus scale="   93.397">  1  5  2 -1</clus>
<clus scale="   28.715">  2  5  1 -1</clus>
</clustering>
</event>
<event>
 9    1  0.1296032E-005  0.1063482E+03  0.7546771E-02  0.1267932E+00
         -2   -1    0    0    0  501 -0.00000000000E+00  0.00000000000E+00  0.14917341764E+03  0.14917341764E+03  0.00000000000E+00 0.  1.
          2   -1    0    0  502    0  0.00000000000E+00 -0.00000000000E+00 -0.11647571058E+03  0.11647571058E+03  0.00000000000E+00 0. -1.
         23    2    1    2    0    0  0.96629643697E+01 -0.62951117960E+02  0.26469531342E+02  0.11406583585E+03  0.90852422569E+02 0.  0.
         23    2    1    2    0    0 -0.41575689623E+02  0.29561108779E+02  0.12716914508E+01  0.10513028943E+03  0.91914979389E+02 0.  0.
        -11    1    4    4    0    0 -0.30687994525E+02  0.61819791851E+02 -0.89184920923E+01  0.69591516535E+02  0.00000000000E+00 0. -1.
         11    1    4    4    0    0 -0.10887695098E+02 -0.32258683071E+02  0.10190183543E+02  0.35538772892E+02  0.00000000000E+00 0.  1.
        -11    1    3    3    0    0 -0.26602689361E+02 -0.31584544806E+02 -0.21229559001E+02  0.46432539530E+02  0.00000000000E+00 0.  1.
         11    1    3    3    0    0  0.36265653731E+02 -0.31366573154E+02  0.47699090343E+02  0.67633296323E+02  0.00000000000E+00 0. -1.
         21    1    1    2  502  501  0.31912725254E+02  0.33390009180E+02  0.49564842695E+01  0.46453002944E+02  0.00000000000E+00 0.  1.
<scales pt_clust_5="13000.00000" pt_clust_6="13000.00000" pt_clust_7="13000.00000" pt_clust_8="13000.00000" pt_clust_9="46.18782"></scales>
<clustering>
<clus scale="   46.188">  2  9  1 -1</clus>
<clus scale="   90.852">  7  8 -1 -1</clus>
<clus scale="   91.915">  5  6 -1 -1</clus>
<clus scale="  105.431">  1  7  2 -1</clus>
<clus scale="   46.188">  2  5  1 -1</clus>
</clustering>
</event>
<event>
 9    1  0.1296032E-005  0.1629427E+03  0.7546771E-02  0.1208860E+00
          1   -1    0    0  502    0  0.00000000000E+00  0.00000000000E+00  0.12135862903E+03  0.12135862903E+03  0.00000000000E+00 0. -1.
         -1   -1    0    0    0  501 -0.00000000000E+00 -0.00000000000E+00 -0.12117552993E+04  0.12117552993E+04  0.00000000000E+00 0.  1.
         23    2    1    2    0    0  0.23239715502E+02  0.24223570550E+02 -0.36139254663E+03  0.37435872307E+03  0.91722489266E+02 0.  0.
         23    2    1    2    0    0 -0.11203837852E+03 -0.66545180849E+02  0.51065715597E+02  0.17250761362E+03  0.10084795533E+03 0.  0.
        -11    1    4    4    0    0 -0.10052515828E+03 -0.10040985409E+02  0.54409600550E+02  0.11474551611E+03  0.00000000000E+00 0. -1.
         11    1    4    4    0    0 -0.11513220236E+02 -0.56504195440E+02 -0.33438849533E+01  0.57762097513E+02  0.00000000000E+00 0.  1.
        -13    1    3    3    0    0  0.54284867866E+02  0.28176279702E+02 -0.29045254738E+03  0.29682222271E+03  0.00000000000E+00 0.  1.
         13    1    3    3    0    0 -0.31045152364E+02 -0.39527091518E+01 -0.70939999247E+02  0.77536500360E+02  0.00000000000E+00 0. -1.
         21    1    1    2  502  501  0.88798663016E+02  0.42321610298E+02 -0.78006983921E+03  0.78624759160E+03  0.00000000000E+00 0.  1.
<scales pt_clust_5="13000.00000" pt_clust_6="13000.00000" pt_clust_7="13000.00000" pt_clust_8="13000.00000" pt_clust_9="127.98444"></scales>
<clustering>
<clus scale="   91.722">  7  8 -1 -1</clus>
<clus scale="   97.672">  2  7  1 -1</clus>
<clus scale="  100.848">  5  6 -1 -1</clus>
<clus scale="  127.984">  2  9  1 -1</clus>
<clus scale="  162.943">  1  5  2 -1</clus>
</clustering>
</event>
<event>
 9    1  0.1296032E-005  0.2859695E+03  0.7546771E-02  0.1092505E+00
          2   -1    0    0  502    0  0.00000000000E+00  0.00000000000E+00  0.61528937059E+03  0.61528937059E+03  0.00000000000E+00 0. -1.
         -2   -1    0    0    0  501 -0.00000000000E+00 -0.00000000000E+00 -0.17585162972E+03  0.17585162972E+03  0.00000000000E+00 0.  1.
         23    2    1    2    0    0  0.24945266211E+03 -0.94427349863E+02  0.53057162251E+02  0.29067170871E+03  0.10262467901E+03 0.  0.
         23    2    1    2    0    0 -0.23796010982E+03  0.12266326055E+03  0.33919465071E+03  0.44429227492E+03  0.10330210612E+03 0.  0.
        -13    1    3    3    0    0  0.22027108937E+03 -0.87424310264E+02  0.87368669239E+01  0.23714699172E+03  0.00000000000E+00 0. -1.
         13    1    3    3    0    0  0.29181572744E+02 -0.70030395991E+01  0.44320295328E+02  0.53524716995E+02  0.00000000000E+00 0.  1.
        -13    1    4    4    0    0 -0.12910485989E+03  0.10754791950E+03  0.25699680996E+03  0.30705370892E+03  0.00000000000E+00 0.  1.
         13    1    4    4    0    0 -0.10885524993E+03  0.15115341053E+02  0.82197840752E+02  0.13723856599E+03  0.00000000000E+00 0. -1.
         21    1    1    2  502  501 -0.11492552292E+02 -0.28235910686E+02  0.47185927907E+02  0.56177016679E+02  0.00000000000E+00 0.  1.
<scales pt_clust_5="13000.00000" pt_clust_6="13000.00000" pt_clust_7="13000.00000" pt_clust_8="13000.00000" pt_clust_9="30.48517"></scales>
<clustering>
<clus scale="   30.485">  1  9  2 -1</clus>
<clus scale="  102.625">  5  6 -1 -1</clus>
<clus scale="  103.302">  7  8 -1 -1</clus>
<clus scale="  285.725">  2  5  1 -1</clus>
<clus scale="   30.485">  1  5  2 -1</clus>
</clustering>
</event>
<event>
 9    1  0.1296032E-005  0.1583293E+03  0.7546771E-02  0.1190860E+00
          1   -1    0    0  502    0  0.00000000000E+00  0.00000000000E+00  0.47073019064E+03  0.47073019064E+03  0.00000000000E+00 0. -1.
         -1   -1    0    0    0  501 -0.00000000000E+00 -0.00000000000E+00 -0.79256960258E+02  0.79256960258E+02  0.00000000000E+00 0.  1.
         23    2    1    2    0    0 -0.88894795582E+02 -0.96369847224E+02  0.73495316717E+02  0.17626611671E+03  0.92080129146E+02 0.  0.
         23    2    1    2    0    0  0.10824804854E+03  0.61530223172E+02  0.23970232688E+03  0.28588359747E+03  0.93640896040E+02 0.  0.
        -11    1    3    3    0    0 -0.69754108427E+02 -0.10697059424E+03  0.83109945594E+02  0.15236668511E+03  0.00000000000E+00 0. -1.
         11    1    3    3    0    0 -0.19140687155E+02  0.10600747018E+02 -0.96146288775E+01  0.23899431595E+02  0.00000000000E+00 0.  1.
        -13    1    4    4    0    0  0.30177066666E+01  0.23230173299E+02  0.24779125023E+01  0.23556051354E+02  0.00000000000E+00 0. -1.
         13    1    4    4    0    0  0.10523034188E+03  0.38300049873E+02  0.23722441438E+03  0.26232754612E+03  0.00000000000E+00 0.  1.
         21    1    1    2  502  501 -0.19353252961E+02  0.34839624052E+02  0.78275586780E+02  0.87837436722E+02  0.00000000000E+00 0. -1.
<scales pt_clust_5="13000.00000" pt_clust_6="13000.00000" pt_clust_7="13000.00000" pt_clust_8="13000.00000" pt_clust_9="39.85408"></scales>
<clustering>
<clus scale="   39.854">  1  9  2 -1</clus>
<clus scale="   92.080">  5  6 -1 -1</clus>
<clus scale="   93.641">  7  8 -1 -1</clus>
<clus scale="  157.411">  2  5  1 -1</clus>
<clus scale="   39.854">  1  5  2 -1</clus>
</clustering>
</event>
<event>
 9    1  0.1296032E-005  0.1150369E+03  0.7546771E-02  0.1251769E+00
         -2   -1    0    0    0  501 -0.00000000000E+00  0.00000000000E+00  0.25286771512E+03  0.25286771512E+03  0.00000000000E+00 0.  1.
          2   -1    0    0  502    0  0.00000000000E+00 -0.00000000000E+00 -0.10267366522E+03  0.10267366522E+03  0.00000000000E+00 0. -1.
         23    2    1    2    0    0 -0.74653300071E+02  0.11631967169E+02  0.18911581326E+03  0.22238088503E+03  0.89331121834E+02 0.  0.
         23    2    1    2    0    0  0.56669961057E+02 -0.20572143624E+02 -0.30769265936E+02  0.11148584535E+03  0.88586953936E+02 0.  0.
        -11    1    4    4    0    0  0.24328013809E+02 -0.21738185384E+02 -0.59728330020E+02  0.68057875126E+02  0.00000000000E+00 0. -1.
         11    1    4    4    0    0  0.32341947248E+02  0.11660417600E+01  0.28959064084E+02  0.43427970224E+02  0.00000000000E+00 0.  1.
        -13    1    3    3    0    0 -0.42864704443E+02  0.27456840574E+02  0.17805454929E+03  0.18518823802E+03  0.00000000000E+00 0.  1.
         13    1    3    3    0    0 -0.31788595628E+02 -0.15824873405E+02  0.11061263975E+02  0.37192647002E+02  0.00000000000E+00 0. -1.
         21    1    1    2  502  501  0.17983339014E+02  0.89401764551E+01 -0.81524974229E+01  0.21674649971E+02  0.00000000000E+00 0.  1.
<scales pt_clust_5="13000.00000" pt_clust_6="13000.00000" pt_clust_7="13000.00000" pt_clust_8="13000.00000" pt_clust_9="20.08301"></scales>
<clustering>
<clus scale="   20.083">  2  9  1 -1</clus>
<clus scale="   88.587">  5  6 -1 -1</clus>
<clus scale="   89.331">  7  8 -1 -1</clus>
<clus scale="  114.460">  2  5  1 -1</clus>
<clus scale="   20.083">  2  5  1 -1</clus>
</clustering>
</event>
<event>
 9    1  0.1296032E-005  0.9405382E+02  0.7546771E-02  0.1299175E+00
          1   -1    0    0  502    0  0.00000000000E+00  0.00000000000E+00  0.51485959290E+03  0.51485959290E+03  0.00000000000E+00 0. -1.
         -1   -1    0    0    0  501 -0.00000000000E+00 -0.00000000000E+00 -0.62820778915E+02  0.62820778915E+02  0.00000000000E+00 0.  1.
         23    2    1    2    0    0 -0.37672898656E+01 -0.40996851508E+01 -0.10244631290E+02  0.84441452184E+02  0.83632568330E+02 0.  0.
         23    2    1    2    0    0  0.42972235612E+02  0.65322439218E+01  0.17332469537E+03  0.20162255476E+03  0.93385873230E+02 0.  0.
        -11    1    4    4    0    0  0.41270052568E+02 -0.18506471934E+02  0.25988527627E+02  0.52164262773E+02  0.00000000000E+00 0.  1.
         11    1    4    4    0    0  0.17021830443E+01  0.25038715856E+02  0.14733616774E+03  0.14945829198E+03  0.00000000000E+00 0. -1.
        -13    1    3    3    0    0  0.13463122528E+02  0.34742081259E+02 -0.17783542459E+02  0.41285860302E+02  0.00000000000E+00 0.  1.
         13    1    3    3    0    0 -0.17230412394E+02 -0.38841766410E+02  0.75389111690E+01  0.43155591882E+02  0.00000000000E+00 0. -1.
         21    1    1    2  502  501 -0.39204945747E+02 -0.24325587710E+01  0.28895874990E+03  0.29161636487E+03  0.00000000000E+00 0. -1.
<scales pt_clust_5="13000.00000" pt_clust_6="13000.00000" pt_clust_7="13000.00000" pt_clust_8="13000.00000" pt_clust_9="39.28034"></scales>
<clustering>
<clus scale="   39.280">  1  9  2 -1</clus>
<clus scale="   83.633">  7  8 -1 -1</clus>
<clus scale="   84.378">  2  7  1 -1</clus>
<clus scale="   93.386">  5  6 -1 -1</clus>
<clus scale="   39.280">  1  5  2 -1</clus>
</clustering>
</event>
<event>
 9    1  0.1296032E-005  0.1011160E+03  0.7546771E-02  0.1278247E+00
          1   -1    0    0  502    0  0.00000000000E+00  0.00000000000E+00  0.14881236110E+03  0.14881236110E+03  0.00000000000E+00 0. -1.
         -1   -1    0    0    0  501 -0.00000000000E+00 -0.00000000000E+00 -0.92778304643E+02  0.92778304643E+02  0.00000000000E+00 0.  1.
         23    2    1    2    0    0  0.38330677744E+02  0.15695185857E+02  0.18640592581E+01  0.10100270234E+03  0.92100442174E+02 0.  0.
         23    2    1    2    0    0 -0.46015446051E+02  0.96598124063E+01  0.47207950477E+02  0.11319450258E+03  0.91507767845E+02 0.  0.
        -11    1    4    4    0    0 -0.64044669357E+02  0.29801852402E+02  0.16997375457E+02  0.72655219028E+02  0.00000000000E+00 0. -1.
         11    1    4    4    0    0  0.18029223306E+02 -0.20142039995E+02  0.30210575019E+02  0.40539283555E+02  0.00000000000E+00 0.  1.
        -13    1    3    3    0    0 -0.24022296726E+02  0.28079392127E+02  0.53399845573E+01  0.37336824146E+02  0.00000000000E+00 0. -1.
         13    1    3    3    0    0  0.62352974470E+02 -0.12384206270E+02 -0.34759252992E+01  0.63665878199E+02  0.00000000000E+00 0.  1.
         21    1    1    2  502  501  0.76847683073E+01 -0.25354998264E+02  0.69620467227E+01  0.27393460815E+02  0.00000000000E+00 0. -1.
<scales pt_clust_5="13000.00000" pt_clust_6="13000.00000" pt_clust_7="13000.00000" pt_clust_8="13000.00000" pt_clust_9="26.49399"></scales>
<clustering>
<clus scale="   26.494">  1  9  2 -1</clus>
<clus scale="   91.508">  5  6 -1 -1</clus>
<clus scale="   92.100">  7  8 -1 -1</clus>
<clus scale="  100.576">  1  5  2 -1</clus>
<clus scale="   26.494">  1  5  2 -1</clus>
</clustering>
</event>
<event>
 9    1  0.1296032E-005  0.1879915E+03  0.7546771E-02  0.1162919E+00
         -1   -1    0    0    0  501 -0.00000000000E+00  0.00000000000E+00  0.44358314751E+03  0.44358314751E+03  0.00000000000E+00 0.  1.
          1   -1    0    0  502    0  0.00000000000E+00 -0.00000000000E+00 -0.10361766853E+03  0.10361766853E+03  0.00000000000E+00 0. -1.
         23    2    1    2    0    0 -0.15502265387E+03 -0.20565135081E+02  0.26221612782E+03  0.32432879343E+03  0.10943911807E+03 0.  0.
         23    2    1    2    0    0  0.14805769197E+03 -0.13958080303E+02  0.69506392655E+02  0.18670146193E+03  0.88940368275E+02 0.  0.
        -11    1    4    4    0    0  0.99542360781E+02  0.22846117558E+01  0.87414192578E+02  0.13249581920E+03  0.00000000000E+00 0.  1.
         11    1    4    4    0    0  0.48515331193E+02 -0.16242692059E+02 -0.17907799923E+02  0.54205642734E+02  0.00000000000E+00 0. -1.
        -13    1    3    3    0    0 -0.11273440385E+03  0.20769771924E+02  0.23001180746E+03  0.25699389255E+03  0.00000000000E+00 0.  1.
         13    1    3    3    0    0 -0.42288250014E+02 -0.41334907006E+02  0.32204320365E+02  0.67334900880E+02  0.00000000000E+00 0. -1.
         21    1    1    2  502  501  0.69649618928E+01  0.34523215384E+02  0.82429584954E+01  0.36170560673E+02  0.00000000000E+00 0. -1.
<scales pt_clust_5="13000.00000" pt_clust_6="13000.00000" pt_clust_7="13000.00000" pt_clust_8="13000.00000" pt_clust_9="35.21879"></scales>
<clustering>
<clus scale="   35.219">  2  9  1 -1</clus>
<clus scale="   88.940">  5  6 -1 -1</clus>
<clus scale="  109.439">  7  8 -1 -1</clus>
<clus scale="  176.845">  2  5  1 -1</clus>
<clus scale="   35.219">  2  5  1 -1</clus>
</clustering>
</event>
<event>
 9    1  0.1296032E-005  0.1032569E+03  0.7546771E-02  0.1276711E+00
         -2   -1    0    0    0  501 -0.00000000000E+00  0.00000000000E+00  0.32472083120E+03  0.32472083120E+03  0.00000000000E+00 0.  1.
          2   -1    0    0  502    0  0.00000000000E+00 -0.00000000000E+00 -0.54725535297E+02  0.54725535297E+02  0.00000000000E+00 0. -1.
         23    2    1    2    0    0 -0.19602985719E+02  0.38896039741E+02  0.18314391453E+03  0.21036196267E+03  0.93879086877E+02 0.  0.
         23    2    1    2    0    0  0.48730565189E+02 -0.16079246762E+02  0.84773476151E+02  0.13202580674E+03  0.87241396296E+02 0.  0.
        -11    1    3    3    0    0 -0.23538970660E+02  0.68198205288E+02  0.11089817175E+03  0.13230072880E+03  0.00000000000E+00 0.  1.
         11    1    3    3    0    0  0.39359849418E+01 -0.29302165547E+02  0.72245742781E+02  0.78061233870E+02  0.00000000000E+00 0. -1.
        -13    1    4    4    0    0 -0.83492671941E+00  0.23539984276E+02  0.59016292690E+02  0.63543298350E+02  0.00000000000E+00 0.  1.
         13    1    4    4    0    0  0.49565491908E+02 -0.39619231037E+02  0.25757183461E+02  0.68482508394E+02  0.00000000000E+00 0. -1.
         21    1    1    2  502  501 -0.29127579470E+02 -0.22816792980E+02  0.20779052238E+01  0.37058597084E+02  0.00000000000E+00 0. -1.
<scales pt_clust_5="13000.00000" pt_clust_6="13000.00000" pt_clust_7="13000.00000" pt_clust_8="13000.00000" pt_clust_9="37.00030"></scales>
<clustering>
<clus scale="   37.000">  2  9  1 -1</clus>
<clus scale="   87.241">  7  8 -1 -1</clus>
<clus scale="   93.879">  5  6 -1 -1</clus>
<clus scale="   97.261">  2  7  1 -1</clus>
<clus scale="   37.000">  2  5  1 -1</clus>
</clustering>
</event>
<event>
 9    1  0.1296032E-005  0.1964413E+03  0.7546771E-02  0.1152875E+00
          3   -1    0    0  502    0  0.00000000000E+00  0.00000000000E+00  0.30515099142E+03  0.30515099142E+03  0.00000000000E+00 0. -1.
         -3   -1    0    0    0  501 -0.00000000000E+00 -0.00000000000E+00 -0.72811495122E+03  0.72811495122E+03  0.00000000000E+00 0.  1.
         23    2    1    2    0    0  0.17132515302E+03 -0.30265283978E+02 -0.59340513790E+03  0.62527897336E+03  0.92605838758E+02 0.  0.
         23    2    1    2    0    0 -0.15981811706E+03  0.65827800891E+02 -0.35374071770E+02  0.19880517856E+03  0.91635387026E+02 0.  0.
        -11    1    3    3    0    0  0.15067302867E+03 -0.42266748490E+02 -0.57261183030E+03  0.59361026591E+03  0.00000000000E+00 0.  1.
         11    1    3    3    0    0  0.20652124351E+02  0.12001464512E+02 -0.20793307599E+02  0.31668707450E+02  0.00000000000E+00 0. -1.
        -13    1    4    4    0    0 -0.13926172468E+03  0.60288407411E+02  0.64348163602E+01  0.15188787605E+03  0.00000000000E+00 0. -1.
         13    1    4    4    0    0 -0.20556392385E+02  0.55393934794E+01 -0.41808888131E+02  0.46917302509E+02  0.00000000000E+00 0.  1.
         21    1    1    2  502  501 -0.11507035955E+02 -0.35562516913E+02  0.20581524988E+03  0.20918179072E+03  0.00000000000E+00 0.  1.
<scales pt_clust_5="13000.00000" pt_clust_6="13000.00000" pt_clust_7="13000.00000" pt_clust_8="13000.00000" pt_clust_9="37.37786"></scales>
<clustering>
<clus scale="   37.378">  1  9  2 -1</clus>
<clus scale="   91.635">  7  8 -1 -1</clus>
<clus scale="   92.606">  5  6 -1 -1</clus>
<clus scale="  195.986">  1  7  2 -1</clus>
<clus scale="   37.378">  1  5  2 -1</clus>
</clustering>
</event>
<event>
 9    1  0.1296032E-005  0.1293113E+03  0.7546771E-02  0.1242481E+00
         -1   -1    0    0    0  501 -0.00000000000E+00  0.00000000000E+00  0.24204645667E+02  0.24204645667E+02  0.00000000000E+00 0.  1.
          1   -1    0    0  502    0  0.00000000000E+00 -0.00000000000E+00 -0.12126724253E+04  0.12126724253E+04  0.00000000000E+00 0. -1.
         23    2    1    2    0    0  0.82286619660E+02 -0.54123654911E+01 -0.30047182805E+03  0.32444115128E+03  0.90434283978E+02 0.  0.
         23    2    1    2    0    0  0.20917790556E+02  0.15433976238E+02 -0.56261892438E+03  0.57093658909E+03  0.93556256344E+02 0.  0.
        -11    1    4    4    0    0 -0.27041007589E+02  0.35904214167E+02 -0.25685187316E+03  0.26075508324E+03  0.00000000000E+00 0. -1.
         11    1    4    4    0    0  0.47958798145E+02 -0.20470237929E+02 -0.30576705122E+03  0.31018150585E+03  0.00000000000E+00 0.  1.
        -13    1    3    3    0    0  0.68620480635E+02  0.29100407550E+02 -0.25538577020E+03  0.26604040239E+03  0.00000000000E+00 0.  1.
         13    1    3    3    0    0  0.13666139025E+02 -0.34512773041E+02 -0.45086057843E+02  0.58400748888E+02  0.00000000000E+00 0. -1.
         21    1    1    2  502  501 -0.10320441022E+03 -0.10021610747E+02 -0.32537702724E+03  0.34149933063E+03  0.00000000000E+00 0. -1.
<scales pt_clust_5="13000.00000" pt_clust_6="13000.00000" pt_clust_7="13000.00000" pt_clust_8="13000.00000" pt_clust_9="92.42858"></scales>
<clustering>
<clus scale="   90.434">  7  8 -1 -1</clus>
<clus scale="   93.556">  5  6 -1 -1</clus>
<clus scale="   97.101">  2  5  1 -1</clus>
<clus scale="   92.429">  2  9  1 -1</clus>
<clus scale="   97.101">  2  5  1 -1</clus>
</clustering>
</event>
<event>
 9    1  0.1296032E-005  0.1604237E+03  0.7546771E-02  0.1189278E+00
          2   -1    0    0  502    0  0.00000000000E+00  0.00000000000E+00  0.30177702698E+03  0.30177702698E+03  0.00000000000E+00 0. -1.
         -2   -1    0    0    0  501 -0.00000000000E+00 -0.00000000000E+00 -0.23922565752E+03  0.23922565752E+03  0.00000000000E+00 0.  1.
         23    2    1    2    0    0  0.91799803757E+02 -0.92830995161E+02 -0.16553165063E+03  0.22730308734E+03  0.84977458919E+02 0.  0.
         23    2    1    2    0    0 -0.74397387444E+02  0.11972538658E+03  0.13615470826E+03  0.21634988273E+03  0.91651665151E+02 0.  0.
        -11    1    4    4    0    0  0.20825995221E+02  0.15639128538E+02  0.30451787720E+02  0.40070135933E+02  0.00000000000E+00 0.  1.
         11    1    4    4    0    0 -0.95223382665E+02  0.10408625804E+03  0.10570292054E+03  0.17627974679E+03  0.00000000000E+00 0. -1.
        -13    1    3    3    0    0  0.60794723635E+02 -0.84174619760E+01 -0.94612856146E+02  0.11277608184E+03  0.00000000000E+00 0.  1.
         13    1    3    3    0    0  0.31005080121E+02 -0.84413533185E+02 -0.70918794483E+02  0.11452700550E+03  0.00000000000E+00 0. -1.
         21    1    1    2  502  501 -0.17402416313E+02 -0.26894391416E+02  0.91928311825E+02  0.97349714422E+02  0.00000000000E+00 0. -1.
<scales pt_clust_5="13000.00000" pt_clust_6="13000.00000" pt_clust_7="13000.00000" pt_clust_8="13000.00000" pt_clust_9="32.03361"></scales>
<clustering>
<clus scale="   32.034">  1  9  2 -1</clus>
<clus scale="   84.977">  7  8 -1 -1</clus>
<clus scale="   91.652">  5  6 -1 -1</clus>
<clus scale="  156.706">  2  7  1 -1</clus>
<clus scale="   32.034">  1  5  2 -1</clus>
</clustering>
</event>
<event>
 9    1  0.1296032E-005  0.1145991E+03  0.7546771E-02  0.1252447E+00
         -1   -1    0    0    0  501 -0.00000000000E+00  0.00000000000E+00  0.73402401350E+03  0.73402401350E+03  0.00000000000E+00 0.  1.
          1   -1    0    0  502    0  0.00000000000E+00 -0.00000000000E+00 -0.35513740354E+02  0.35513740354E+02  0.00000000000E+00 0. -1.
         23    2    1    2    0    0 -0.48286400718E+02 -0.38620026449E+02  0.40008449189E+03  0.41495746746E+03  0.91098936392E+02 0.  0.
         23    2    1    2    0    0  0.31888689123E+02  0.88540976987E+02  0.25456694062E+03  0.28613626438E+03  0.90626935483E+02 0.  0.
        -11    1    3    3    0    0 -0.69980471221E+02 -0.26666085800E+02  0.36099391912E+03  0.36868001861E+03  0.00000000000E+00 0.  1.
         11    1    3    3    0    0  0.21694070503E+02 -0.11953940648E+02  0.39090572769E+02  0.46277448843E+02  0.00000000000E+00 0. -1.
        -13    1    4    4    0    0  0.56210783479E+02  0.90075544224E+02  0.21138268798E+03  0.23654998758E+03  0.00000000000E+00 0. -1.
         13    1    4    4    0    0 -0.24322094356E+02 -0.15345672369E+01  0.43184252646E+02  0.49586276802E+02  0.00000000000E+00 0.  1.
         21    1    1    2  502  501  0.16397711595E+02 -0.49920950538E+02  0.43858840634E+02  0.68444022018E+02  0.00000000000E+00 0.  1.
<scales pt_clust_5="13000.00000" pt_clust_6="13000.00000" pt_clust_7="13000.00000" pt_clust_8="13000.00000" pt_clust_9="52.54509"></scales>
<clustering>
<clus scale="   52.545">  2  9  1 -1</clus>
<clus scale="   90.627">  7  8 -1 -1</clus>
<clus scale="   91.099">  5  6 -1 -1</clus>
<clus scale="  114.224">  2  7  1 -1</clus>
<clus scale="   52.545">  2  5  1 -1</clus>
</clustering>
</event>
<event>
 9    1  0.1296032E-005  0.9211937E+02  0.7546771E-02  0.1297811E+00
          1   -1    0    0  502    0  0.00000000000E+00  0.00000000000E+00  0.13009300813E+03  0.13009300813E+03  0.00000000000E+00 0. -1.
         -1   -1    0    0    0  501 -0.00000000000E+00 -0.00000000000E+00 -0.10742833550E+03  0.10742833550E+03  0.00000000000E+00 0.  1.
         23    2    1    2    0    0 -0.26987271096E+01 -0.18404968762E+02 -0.44993932193E+02  0.10337810430E+03  0.91195134248E+02 0.  0.
         23    2    1    2    0    0 -0.37419856327E+01 -0.36625906287E+01  0.62162122874E+02  0.11050701139E+03  0.91215420949E+02 0.  0.
        -11    1    3    3    0    0  0.28980152877E+02  0.82774659178E+01  0.12408005057E+02  0.32593316681E+02  0.00000000000E+00 0. -1.
         11    1    3    3    0    0 -0.31678879987E+02 -0.26682434680E+02 -0.57401937250E+02  0.70784787615E+02  0.00000000000E+00 0.  1.
        -13    1    4    4    0    0 -0.37366975958E+02  0.19670181632E+02  0.54372938629E+02  0.68844922782E+02  0.00000000000E+00 0. -1.
         13    1    4    4    0    0  0.33624990325E+02 -0.23332772261E+02  0.77891842456E+01  0.41662088605E+02  0.00000000000E+00 0.  1.
         21    1    1    2  502  501  0.64407127423E+01  0.22067559391E+02  0.54964819475E+01  0.23636227954E+02  0.00000000000E+00 0. -1.
<scales pt_clust_5="13000.00000" pt_clust_6="13000.00000" pt_clust_7="13000.00000" pt_clust_8="13000.00000" pt_clust_9="22.98826"></scales>
<clustering>
<clus scale="   22.988">  1  9  2 -1</clus>
<clus scale="   91.195">  5  6 -1 -1</clus>
<clus scale="   91.215">  7  8 -1 -1</clus>
<clus scale="   92.099">  2  5  1 -1</clus>
<clus scale="   22.988">  1  5  2 -1</clus>
</clustering>
</event>
<event>
 9    1  0.1305722E-005  0.9558873E+02  0.7546771E-02  0.1291158E+00
          1   -1    0    0  502    0  0.00000000000E+00  0.00000000000E+00  0.59582454068E+03  0.59582454068E+03  0.00000000000E+00 0. -1.
         -1   -1    0    0    0  501 -0.00000000000E+00 -0.00000000000E+00 -0.24357424482E+03  0.24357424482E+03  0.00000000000E+00 0.  1.
         23    2    1    2    0    0 -0.75040216021E+01  0.42537842739E+02 -0.16706636512E+03  0.19423945772E+03  0.89174089152E+02 0.  0.
         23    2    1    2    0    0  0.32559405446E+02  0.38721535754E+02 -0.13597483013E+02  0.10550356369E+03  0.91578590252E+02 0.  0.
        -13    1    4    4    0    0  0.94538003695E+01  0.66971848263E+02 -0.39346530629E+01  0.67750160855E+02  0.00000000000E+00 0.  1.
         13    1    4    4    0    0  0.23105605077E+02 -0.28250312509E+02 -0.96628299500E+01  0.37753402833E+02  0.00000000000E+00 0. -1.
        -13    1    3    3    0    0 -0.18361704609E+02  0.67058418165E+02 -0.13901349738E+03  0.15543080807E+03  0.00000000000E+00 0.  1.
         13    1    3    3    0    0  0.10857683007E+02 -0.24520575425E+02 -0.28052867743E+02  0.38808649655E+02  0.00000000000E+00 0. -1.
         21    1    1    2  502  501 -0.25055383844E+02 -0.81259378493E+02  0.53291414399E+03  0.53965576409E+03  0.00000000000E+00 0. -1.
<scales pt_clust_5="13000.00000" pt_clust_6="13000.00000" pt_clust_7="13000.00000" pt_clust_8="13000.00000" pt_clust_9="85.03446"></scales>
<clustering>
<clus scale="   85.034">  1  9  2 -1</clus>
<clus scale="   89.174">  7  8 -1 -1</clus>
<clus scale="   91.579">  5  6 -1 -1</clus>
<clus scale="   93.288">  2  7  1 -1</clus>
<clus scale="   85.034">  1  5  2 -1</clus>
</clustering>
</event>
<event>
 9    1  0.1296032E-005  0.4085240E+03  0.7546771E-02  0.1041097E+00
         -1   -1    0    0    0  501 -0.00000000000E+00  0.00000000000E+00  0.94835610037E+03  0.94835610037E+03  0.00000000000E+00 0.  1.
          1   -1    0    0  502    0  0.00000000000E+00 -0.00000000000E+00 -0.26791330972E+03  0.26791330972E+03  0.00000000000E+00 0. -1.
         23    2    1    2    0    0 -0.38039382395E+03  0.15764187859E+03  0.42114002136E+03  0.59625920786E+03  0.92820806845E+02 0.  0.
         23    2    1    2    0    0  0.38796418184E+03 -0.13193234607E+02  0.25367279325E+03  0.47525379409E+03  0.10404813755E+03 0.  0.
        -11    1    4    4    0    0  0.53525080351E+02 -0.59619767141E+01  0.84979995727E+02  0.10060854371E+03  0.00000000000E+00 0. -1.
         11    1    4    4    0    0  0.33443910149E+03 -0.72312578928E+01  0.16869279752E+03  0.37464525038E+03  0.00000000000E+00 0.  1.
        -13    1    3    3    0    0 -0.23535390939E+03  0.48925403095E+02  0.25366087965E+03  0.34946959752E+03  0.00000000000E+00 0.  1.
         13    1    3    3    0    0 -0.14503991457E+03  0.10871647549E+03  0.16747914171E+03  0.24678961034E+03  0.00000000000E+00 0. -1.
         21    1    1    2  502  501 -0.75703578912E+01 -0.14444864398E+03  0.56299760412E+01  0.14475640814E+03  0.00000000000E+00 0.  1.
<scales pt_clust_5="13000.00000" pt_clust_6="13000.00000" pt_clust_7="13000.00000" pt_clust_8="13000.00000" pt_clust_9="144.64688"></scales>
<clustering>
<clus scale="   92.821">  7  8 -1 -1</clus>
<clus scale="  104.048">  5  6 -1 -1</clus>
<clus scale="  144.647">  2  9  1 -1</clus>
<clus scale="  405.810">  1  7  2 -1</clus>
<clus scale="  144.647">  2  5  1 -1</clus>
</clustering>
</event>
<event>
 9    1  0.1296032E-005  0.1451561E+03  0.7546771E-02  0.1206647E+00
          2   -1    0    0  502    0  0.00000000000E+00  0.00000000000E+00  0.34403073101E+03  0.34403073101E+03  0.00000000000E+00 0. -1.
         -2   -1    0    0    0  501 -0.00000000000E+00 -0.00000000000E+00 -0.13850775149E+03  0.13850775149E+03  0.00000000000E+00 0.  1.
         23    2    1    2    0    0  0.10165521994E+03  0.56832692740E+02 -0.27246305763E+02  0.15307846130E+03  0.95534891169E+02 0.  0.
         23    2    1    2    0    0 -0.11130548516E+03  0.15346791131E+02  0.20308068717E+03  0.25081894817E+03  0.95099654223E+02 0.  0.
        -11    1    3    3    0    0  0.17944945334E+02  0.18007325806E+02 -0.51704491991E+02  0.57616311386E+02  0.00000000000E+00 0.  1.
         11    1    3    3    0    0  0.83710274607E+02  0.38825366935E+02  0.24458186228E+02  0.95462149912E+02  0.00000000000E+00 0. -1.
        -11    1    4    4    0    0 -0.11287320291E+03  0.40755178426E+02  0.18072304802E+03  0.21693815844E+03  0.00000000000E+00 0.  1.
         11    1    4    4    0    0  0.15677177503E+01 -0.25408387296E+02  0.22357639157E+02  0.33880789728E+02  0.00000000000E+00 0. -1.
         21    1    1    2  502  501  0.96502652151E+01 -0.72179483871E+02  0.29688598108E+02  0.78641073035E+02  0.00000000000E+00 0.  1.
<scales pt_clust_5="13000.00000" pt_clust_6="13000.00000" pt_clust_7="13000.00000" pt_clust_8="13000.00000" pt_clust_9="72.82174"></scales>
<clustering>
<clus scale="   72.822">  2  9  1 -1</clus>
<clus scale="   95.100">  7  8 -1 -1</clus>
<clus scale="   95.535">  5  6 -1 -1</clus>
<clus scale="  144.870">  1  7  2 -1</clus>
<clus scale="  144.870">  1  5  2 -1</clus>
</clustering>
</event>
<event>
 9    1  0.1296032E-005  0.1163014E+03  0.7546771E-02  0.1250476E+00
         -4   -1    0    0    0  501 -0.00000000000E+00  0.00000000000E+00  0.12007604126E+03  0.12007604126E+03  0.00000000000E+00 0.  1.
          4   -1    0    0  502    0  0.00000000000E+00 -0.00000000000E+00 -0.17299562635E+03  0.17299562635E+03  0.00000000000E+00 0. -1.
         23    2    1    2    0    0 -0.21978601322E+02 -0.62721621307E+02  0.36375526782E+02  0.11856570320E+03  0.91200802245E+02 0.  0.
         23    2    1    2    0    0  0.20712133493E+02  0.82925799069E+02 -0.54200046734E+02  0.13399082729E+03  0.87807836246E+02 0.  0.
        -11    1    4    4    0    0  0.41916022279E+02  0.23426258812E+02 -0.52011607245E+02  0.70788062651E+02  0.00000000000E+00 0. -1.
         11    1    4    4    0    0 -0.21203888786E+02  0.59499540256E+02 -0.21884394885E+01  0.63202764637E+02  0.00000000000E+00 0.  1.
        -13    1    3    3    0    0 -0.45222225985E+02 -0.38327934346E+02  0.54308817468E+02  0.80396069114E+02  0.00000000000E+00 0.  1.
         13    1    3    3    0    0  0.23243624663E+02 -0.24393686961E+02 -0.17933290687E+02  0.38169634081E+02  0.00000000000E+00 0. -1.
         21    1    1    2  502  501  0.12664678284E+01 -0.20204177761E+02 -0.35095065135E+02  0.40515137129E+02  0.00000000000E+00 0.  1.
<scales pt_clust_5="13000.00000" pt_clust_6="13000.00000" pt_clust_7="13000.00000" pt_clust_8="13000.00000" pt_clust_9="20.24383"></scales>
<clustering>
<clus scale="   20.244">  2  9  1 -1</clus>
<clus scale="   87.808">  5  6 -1 -1</clus>
<clus scale="   91.201">  7  8 -1 -1</clus>
<clus scale="  113.660">  2  5  1 -1</clus>
<clus scale="   20.244">  2  5  1 -1</clus>
</clustering>
</event>
<event>
 9    1  0.1296032E-005  0.9935122E+02  0.7546771E-02  0.1282671E+00
         -2   -1    0    0    0  501 -0.00000000000E+00  0.00000000000E+00  0.40695674911E+03  0.40695674911E+03  0.00000000000E+00 0.  1.
          2   -1    0    0  502    0  0.00000000000E+00 -0.00000000000E+00 -0.33236928369E+02  0.33236928369E+02  0.00000000000E+00 0. -1.
         23    2    1    2    0    0 -0.21802965509E+02  0.40688380992E+02  0.23008865298E+03  0.25233601088E+03  0.92745676472E+02 0.  0.
         23    2    1    2    0    0  0.16132332272E+02 -0.13348676103E+02  0.11254272416E+03  0.14607122298E+03  0.90733114811E+02 0.  0.
        -11    1    4    4    0    0  0.91781054980E+01  0.36418538808E+02  0.73121637832E+02  0.82202928832E+02  0.00000000000E+00 0.  1.
         11    1    4    4    0    0  0.69542267738E+01 -0.49767214911E+02  0.39421086329E+02  0.63868294148E+02  0.00000000000E+00 0. -1.
        -11    1    3    3    0    0 -0.44993534213E+02 -0.32580140462E+00  0.17068199798E+03  0.17651308366E+03  0.00000000000E+00 0.  1.
         11    1    3    3    0    0  0.23190568703E+02  0.41014182397E+02  0.59406654998E+02  0.75822927222E+02  0.00000000000E+00 0. -1.
         21    1    1    2  502  501  0.56706332377E+01 -0.27339704889E+02  0.31088443599E+02  0.41786443617E+02  0.00000000000E+00 0. -1.
<scales pt_clust_5="13000.00000" pt_clust_6="13000.00000" pt_clust_7="13000.00000" pt_clust_8="13000.00000" pt_clust_9="27.92160"></scales>
<clustering>
<clus scale="   27.922">  2  9  1 -1</clus>
<clus scale="   90.733">  5  6 -1 -1</clus>
<clus scale="   92.746">  7  8 -1 -1</clus>
<clus scale="   97.475">  2  5  1 -1</clus>
<clus scale="   27.922">  2  5  1 -1</clus>
</clustering>
</event>
<event>
 9    1  0.1296032E-005  0.9181731E+02  0.7546771E-02  0.1298749E+00
         -1   -1    0    0    0  501 -0.00000000000E+00  0.00000000000E+00  0.10134509491E+03  0.10134509491E+03  0.00000000000E+00 0.  1.
          1   -1    0    0  502    0  0.00000000000E+00 -0.00000000000E+00 -0.10549404927E+03  0.10549404927E+03  0.00000000000E+00 0. -1.
         23    2    1    2    0    0 -0.43347286758E+01  0.17264612821E+02  0.97345405991E+01  0.90194584425E+02  0.87883132912E+02 0.  0.
         23    2    1    2    0    0  0.80337366995E+01 -0.37040122821E+02 -0.78552254599E+01  0.95642333941E+02  0.87459932830E+02 0.  0.
        -11    1    3    3    0    0 -0.39131430645E+02  0.20853538887E+02  0.26230711099E+02  0.51518823290E+02  0.00000000000E+00 0.  1.
         11    1    3    3    0    0  0.34796701969E+02 -0.35889260669E+01 -0.16496170500E+02  0.38675761135E+02  0.00000000000E+00 0. -1.
        -13    1    4    4    0    0 -0.19710481160E+02  0.20474068340E+02  0.86136191582E+01  0.29696548233E+02  0.00000000000E+00 0.  1.
         13    1    4    4    0    0  0.27744217860E+02 -0.57514191161E+02 -0.16468844618E+02  0.65945785708E+02  0.00000000000E+00 0. -1.
         21    1    1    2  502  501 -0.36990080238E+01  0.19775510001E+02 -0.60282695013E+01  0.21002225819E+02  0.00000000000E+00 0.  1.
<scales pt_clust_5="13000.00000" pt_clust_6="13000.00000" pt_clust_7="13000.00000" pt_clust_8="13000.00000" pt_clust_9="20.11849"></scales>
<clustering>
<clus scale="   20.118">  2  9  1 -1</clus>
<clus scale="   87.460">  7  8 -1 -1</clus>
<clus scale="   87.883">  5  6 -1 -1</clus>
<clus scale="   91.412">  2  7  1 -1</clus>
<clus scale="   20.118">  2  5  1 -1</clus>
</clustering>
</event>
<event>
 9    1  0.1296032E-005  0.9294705E+02  0.7546771E-02  0.1295918E+00
         -2   -1    0    0    0  501 -0.00000000000E+00  0.00000000000E+00  0.31250609266E+02  0.31250609266E+02  0.00000000000E+00 0.  1.
          2   -1    0    0  502    0  0.00000000000E+00 -0.00000000000E+00 -0.61575133942E+03  0.61575133942E+03  0.00000000000E+00 0. -1.
         23    2    1    2    0    0 -0.35393086123E+02 -0.38753922497E+01 -0.15626831863E+03  0.18499851379E+03  0.92395743883E+02 0.  0.
         23    2    1    2    0    0 -0.32297814274E+02 -0.47633699191E+01 -0.31379608039E+03  0.32876545198E+03  0.92481910905E+02 0.  0.
        -11    1    3    3    0    0 -0.66550536889E+01 -0.26999470479E+02 -0.14318568842E+03  0.14586090125E+03  0.00000000000E+00 0.  1.
         11    1    3    3    0    0 -0.28738032434E+02  0.23124078230E+02 -0.13082630209E+02  0.39137612540E+02  0.00000000000E+00 0. -1.
        -13    1    4    4    0    0  0.15117633203E+02  0.33226792791E+02 -0.13889083921E+03  0.14360789606E+03  0.00000000000E+00 0.  1.
         13    1    4    4    0    0 -0.47415447478E+02 -0.37990162710E+02 -0.17490524118E+03  0.18515755592E+03  0.00000000000E+00 0. -1.
         21    1    1    2  502  501  0.67690900397E+02  0.86387621688E+01 -0.11443633113E+03  0.13323798291E+03  0.00000000000E+00 0.  1.
<scales pt_clust_5="13000.00000" pt_clust_6="13000.00000" pt_clust_7="13000.00000" pt_clust_8="13000.00000" pt_clust_9="68.23992"></scales>
<clustering>
<clus scale="   68.240">  1  9  2 -1</clus>
<clus scale="   92.396">  5  6 -1 -1</clus>
<clus scale="   92.482">  7  8 -1 -1</clus>
<clus scale="   92.861">  1  5  2 -1</clus>
<clus scale="   92.947">  2  5  1 -1</clus>
</clustering>
</event>
<event>
 9    1  0.1296032E-005  0.1218176E+03  0.7546771E-02  0.1240968E+00
         -1   -1    0    0    0  501 -0.00000000000E+00  0.00000000000E+00  0.29878909170E+02  0.29878909170E+02  0.00000000000E+00 0.  1.
          1   -1    0    0  502    0  0.00000000000E+00 -0.00000000000E+00 -0.76655168233E+03  0.76655168233E+03  0.00000000000E+00 0. -1.
         23    2    1    2    0    0  0.75542514436E+02 -0.62810630746E+02 -0.23357206934E+03  0.26776521671E+03  0.86547402516E+02 0.  0.
         23    2    1    2    0    0 -0.64702248487E+02  0.19910034670E+02 -0.28786615000E+03  0.30892942946E+03  0.89373830812E+02 0.  0.
        -13    1    4    4    0    0  0.20891446076E+02  0.10245972164E+02 -0.37217241445E+02  0.43892545215E+02  0.00000000000E+00 0.  1.
         13    1    4    4    0    0 -0.85593694562E+02  0.96640625064E+01 -0.25064890855E+03  0.26503688425E+03  0.00000000000E+00 0. -1.
        -13    1    3    3    0    0  0.47260310320E+01 -0.33276216936E+02 -0.15242524317E+03  0.15608682436E+03  0.00000000000E+00 0. -1.
         13    1    3    3    0    0  0.70816483404E+02 -0.29534413809E+02 -0.81146826170E+02  0.11167839235E+03  0.00000000000E+00 0.  1.
         21    1    1    2  502  501 -0.10840265949E+02  0.42900596076E+02 -0.21523455382E+03  0.21973594532E+03  0.00000000000E+00 0.  1.
<scales pt_clust_5="13000.00000" pt_clust_6="13000.00000" pt_clust_7="13000.00000" pt_clust_8="13000.00000" pt_clust_9="44.24898"></scales>
<clustering>
<clus scale="   44.249">  2  9  1 -1</clus>
<clus scale="   86.547">  7  8 -1 -1</clus>
<clus scale="   89.374">  5  6 -1 -1</clus>
<clus scale="  119.759">  1  7  2 -1</clus>
<clus scale="   44.249">  2  5  1 -1</clus>
</clustering>
</event>
<event>
 9    1  0.1296032E-005  0.1200451E+03  0.7546771E-02  0.1247135E+00
         -1   -1    0    0    0  501 -0.00000000000E+00  0.00000000000E+00  0.22011718965E+03  0.22011718965E+03  0.00000000000E+00 0.  1.
          1   -1    0    0  502    0  0.00000000000E+00 -0.00000000000E+00 -0.28557720892E+03  0.28557720892E+03  0.00000000000E+00 0. -1.
         23    2    1    2    0    0 -0.64983251729E+02 -0.42126083408E+02  0.18415412192E+03  0.21461297742E+03  0.78412751165E+02 0.  0.
         23    2    1    2    0    0  0.58141817100E+02  0.64673367253E+02 -0.21253274796E+03  0.24714720942E+03  0.91369901179E+02 0.  0.
        -11    1    4    4    0    0 -0.16606532654E+02  0.28298456796E+02 -0.11194526769E+03  0.11665471504E+03  0.00000000000E+00 0.  1.
         11    1    4    4    0    0  0.74748349755E+02  0.36374910457E+02 -0.10058748028E+03  0.13049249438E+03  0.00000000000E+00 0. -1.
        -11    1    3    3    0    0 -0.40973935514E+02 -0.64798201332E+02  0.11880231507E+03  0.14139186806E+03  0.00000000000E+00 0.  1.
         11    1    3    3    0    0 -0.24009316215E+02  0.22672117925E+02  0.65351806855E+02  0.73221109357E+02  0.00000000000E+00 0. -1.
         21    1    1    2  502  501  0.68414346287E+01 -0.22547283845E+02 -0.37081393233E+02  0.43934211734E+02  0.00000000000E+00 0. -1.
<scales pt_clust_5="13000.00000" pt_clust_6="13000.00000" pt_clust_7="13000.00000" pt_clust_8="13000.00000" pt_clust_9="23.56237"></scales>
<clustering>
<clus scale="   23.562">  2  9  1 -1</clus>
<clus scale="   78.413">  7  8 -1 -1</clus>
<clus scale="   91.370">  5  6 -1 -1</clus>
<clus scale="  110.503">  1  7  2 -1</clus>
<clus scale="   23.562">  2  5  1 -1</clus>
</clustering>
</event>
<event>
 9    1  0.1296032E-005  0.1639183E+03  0.7546771E-02  0.1185957E+00
         -2   -1    0    0    0  501 -0.00000000000E+00  0.00000000000E+00  0.98721387876E+02  0.98721387876E+02  0.00000000000E+00 0.  1.
          2   -1    0    0  502    0  0.00000000000E+00 -0.00000000000E+00 -0.39127305832E+03  0.39127305832E+03  0.00000000000E+00 0. -1.
         23    2    1    2    0    0 -0.11469044935E+03  0.97298277996E+02 -0.48804677596E+02  0.17815298947E+03  0.82071536047E+02 0.  0.
         23    2    1    2    0    0  0.88162271495E+02 -0.68934165368E+02 -0.14312456874E+03  0.20398442479E+03  0.92738870541E+02 0.  0.
        -11    1    3    3    0    0 -0.65129210863E+02  0.29697736967E+02  0.14596643584E+02  0.73053622035E+02  0.00000000000E+00 0.  1.
         11    1    3    3    0    0 -0.49561238483E+02  0.67600541028E+02 -0.63401321180E+02  0.10509936743E+03  0.00000000000E+00 0. -1.
        -13    1    4    4    0    0 -0.15984877610E+02 -0.22240778732E+02 -0.48612188694E+02  0.55797073762E+02  0.00000000000E+00 0. -1.
         13    1    4    4    0    0  0.10414714910E+03 -0.46693386637E+02 -0.94512380044E+02  0.14818735103E+03  0.00000000000E+00 0.  1.
         21    1    1    2  502  501  0.26528177850E+02 -0.28364112627E+02 -0.10062242411E+03  0.10785703194E+03  0.00000000000E+00 0. -1.
<scales pt_clust_5="13000.00000" pt_clust_6="13000.00000" pt_clust_7="13000.00000" pt_clust_8="13000.00000" pt_clust_9="38.83641"></scales>
<clustering>
<clus scale="   38.836">  2  9  1 -1</clus>
<clus scale="   82.072">  5  6 -1 -1</clus>
<clus scale="   92.739">  7  8 -1 -1</clus>
<clus scale="  158.128">  1  5  2 -1</clus>
<clus scale="   38.836">  2  5  1 -1</clus>
</clustering>
</event>
<event>
 9    1  0.1296032E-005  0.1101989E+03  0.7546771E-02  0.1260478E+00
         -1   -1    0    0    0  501 -0.00000000000E+00  0.00000000000E+00  0.43597053725E+03  0.43597053725E+03  0.00000000000E+00 0.  1.
          1   -1    0    0  502    0  0.00000000000E+00 -0.00000000000E+00 -0.53599845579E+02  0.53599845579E+02  0.00000000000E+00 0. -1.
         23    2    1    2    0    0 -0.60000501967E+02  0.24860977037E+02  0.32050196600E+03  0.33958948427E+03  0.91549872756E+02 0.  0.
         23    2    1    2    0    0  0.35766550676E+02 -0.32991748746E+02  0.66913635923E+02  0.12392624517E+03  0.92263632804E+02 0.  0.
        -11    1    3    3    0    0 -0.68163103579E+02 -0.13956431320E+02  0.16420284942E+03  0.17833554447E+03  0.00000000000E+00 0. -1.
         11    1    3    3    0    0  0.81626016119E+01  0.38817408357E+02  0.15629911658E+03  0.16125393980E+03  0.00000000000E+00 0.  1.
        -13    1    4    4    0    0  0.66959757833E+02 -0.19694880834E+02  0.38651887809E+02  0.79783870120E+02  0.00000000000E+00 0. -1.
         13    1    4    4    0    0 -0.31193207157E+02 -0.13296867912E+02  0.28261748114E+02  0.44142375055E+02  0.00000000000E+00 0.  1.
         21    1    1    2  502  501  0.24233951291E+02  0.81307717088E+01 -0.50449102486E+01  0.26054653388E+02  0.00000000000E+00 0.  1.
<scales pt_clust_5="13000.00000" pt_clust_6="13000.00000" pt_clust_7="13000.00000" pt_clust_8="13000.00000" pt_clust_9="25.56157"></scales>
<clustering>
<clus scale="   25.562">  2  9  1 -1</clus>
<clus scale="   91.550">  5  6 -1 -1</clus>
<clus scale="   92.264">  7  8 -1 -1</clus>
<clus scale="  109.602">  1  5  2 -1</clus>
<clus scale="   25.562">  2  5  1 -1</clus>
</clustering>
</event>
<event>
 9    1  0.1296032E-005  0.9700835E+02  0.7546771E-02  0.1287083E+00
         -1   -1    0    0    0  501 -0.00000000000E+00  0.00000000000E+00  0.25701881642E+02  0.25701881642E+02  0.00000000000E+00 0.  1.
          1   -1    0    0  502    0  0.00000000000E+00 -0.00000000000E+00 -0.71535933267E+03  0.71535933267E+03  0.00000000000E+00 0. -1.
         23    2    1    2    0    0 -0.11622718795E+02 -0.41231606816E+02 -0.13522718457E+03  0.16815764074E+03  0.90307628133E+02 0.  0.
         23    2    1    2    0    0  0.24973582904E+02  0.75229824480E+01 -0.26894191868E+03  0.28512220926E+03  0.91020016936E+02 0.  0.
        -13    1    3    3    0    0 -0.20948425629E+02 -0.59547722664E+02 -0.50116738500E+02  0.80600591119E+02  0.00000000000E+00 0.  1.
         13    1    3    3    0    0  0.93257068341E+01  0.18316115848E+02 -0.85110446071E+02  0.87557049620E+02  0.00000000000E+00 0. -1.
        -13    1    4    4    0    0  0.25605851731E+02 -0.28916116081E+02 -0.22378326497E+03  0.22709194414E+03  0.00000000000E+00 0. -1.
         13    1    4    4    0    0 -0.63226882691E+00  0.36439098529E+02 -0.45158653714E+02  0.58030265127E+02  0.00000000000E+00 0.  1.
         21    1    1    2  502  501 -0.13350864110E+02  0.33708624368E+02 -0.28548834778E+03  0.28778136431E+03  0.00000000000E+00 0. -1.
<scales pt_clust_5="13000.00000" pt_clust_6="13000.00000" pt_clust_7="13000.00000" pt_clust_8="13000.00000" pt_clust_9="36.25627"></scales>
<clustering>
<clus scale="   36.256">  2  9  1 -1</clus>
<clus scale="   90.308">  5  6 -1 -1</clus>
<clus scale="   91.020">  7  8 -1 -1</clus>
<clus scale="   96.340">  1  5  2 -1</clus>
<clus scale="   36.256">  2  5  1 -1</clus>
</clustering>
</event>
<event>
 9    1  0.1296032E-005  0.9859884E+02  0.7546771E-02  0.1283509E+00
         -1   -1    0    0    0  501 -0.00000000000E+00  0.00000000000E+00  0.82810908524E+02  0.82810908524E+02  0.00000000000E+00 0.  1.
          1   -1    0    0  502    0  0.00000000000E+00 -0.00000000000E+00 -0.31208332748E+03  0.31208332748E+03  0.00000000000E+00 0. -1.
         23    2    1    2    0    0  0.40700059018E+02  0.63977163603E+01 -0.16409800183E+02  0.10103103675E+03  0.90777548246E+02 0.  0.
         23    2    1    2    0    0 -0.35329601770E+02  0.18175666162E+02 -0.21642769170E+02  0.10099608484E+03  0.90295426765E+02 0.  0.
        -13    1    3    3    0    0 -0.27687759031E+02 -0.70653395394E+01  0.28549936893E+01  0.28717277237E+02  0.00000000000E+00 0.  1.
         13    1    3    3    0    0  0.68387818048E+02  0.13463055900E+02 -0.19264793872E+02  0.72313759510E+02  0.00000000000E+00 0. -1.
        -13    1    4    4    0    0 -0.55580616060E+02  0.28065844665E+02  0.90486180509E+01  0.62918788982E+02  0.00000000000E+00 0.  1.
         13    1    4    4    0    0  0.20251014290E+02 -0.98901785029E+01 -0.30691387221E+02  0.38077295861E+02  0.00000000000E+00 0. -1.
         21    1    1    2  502  501 -0.53704572475E+01 -0.24573382522E+02 -0.19121984961E+03  0.19286711442E+03  0.00000000000E+00 0.  1.
<scales pt_clust_5="13000.00000" pt_clust_6="13000.00000" pt_clust_7="13000.00000" pt_clust_8="13000.00000" pt_clust_9="25.15339"></scales>
<clustering>
<clus scale="   25.153">  2  9  1 -1</clus>
<clus scale="   90.295">  7  8 -1 -1</clus>
<clus scale="   90.778">  5  6 -1 -1</clus>
<clus scale="   98.155">  2  7  1 -1</clus>
<clus scale="   25.153">  2  5  1 -1</clus>
</clustering>
</event>
<event>
 9    1  0.1296032E-005  0.1381044E+03  0.7546771E-02  0.1216481E+00
         -2   -1    0    0    0  501 -0.00000000000E+00  0.00000000000E+00  0.10241188307E+04  0.10241188307E+04  0.00000000000E+00 0.  1.
          2   -1    0    0  502    0  0.00000000000E+00 -0.00000000000E+00 -0.24035837703E+02  0.24035837703E+02  0.00000000000E+00 0. -1.
         23    2    1    2    0    0 -0.93720594277E+02 -0.22048855903E+02  0.47735892125E+03  0.49476200269E+03  0.87453975187E+02 0.  0.
         23    2    1    2    0    0  0.10879689570E+03  0.37384408064E+02  0.50442813229E+03  0.52515766217E+03  0.90047048861E+02 0.  0.
        -11    1    3    3    0    0 -0.17210552003E+02 -0.42581890935E+02  0.11473498936E+03  0.12358615747E+03  0.00000000000E+00 0.  1.
         11    1    3    3    0    0 -0.76510042274E+02  0.20533035032E+02  0.36262393189E+03  0.37117584522E+03  0.00000000000E+00 0. -1.
        -13    1    4    4    0    0  0.11712085187E+03  0.13279349509E+02  0.44777794508E+03  0.46303209734E+03  0.00000000000E+00 0.  1.
         13    1    4    4    0    0 -0.83239561745E+01  0.24105058555E+02  0.56650187210E+02  0.62125564828E+02  0.00000000000E+00 0. -1.
         21    1    1    2  502  501 -0.15076301422E+02 -0.15335552161E+02  0.18295939479E+02  0.28235003561E+02  0.00000000000E+00 0. -1.
<scales pt_clust_5="13000.00000" pt_clust_6="13000.00000" pt_clust_7="13000.00000" pt_clust_8="13000.00000" pt_clust_9="21.50521"></scales>
<clustering>
<clus scale="   21.505">  2  9  1 -1</clus>
<clus scale="   87.454">  5  6 -1 -1</clus>
<clus scale="   90.047">  7  8 -1 -1</clus>
<clus scale="  136.428">  1  5  2 -1</clus>
<clus scale="   21.505">  2  5  1 -1</clus>
</clustering>
</event>
<event>
 9    1  0.1296032E-005  0.2289377E+03  0.7546771E-02  0.1127422E+00
          2   -1    0    0  502    0  0.00000000000E+00  0.00000000000E+00  0.84597811339E+03  0.84597811339E+03  0.00000000000E+00 0. -1.
         -2   -1    0    0    0  501 -0.00000000000E+00 -0.00000000000E+00 -0.71962136387E+02  0.71962136387E+02  0.00000000000E+00 0.  1.
         23    2    1    2    0    0 -0.64051147537E+02 -0.18282394100E+03  0.35221906310E+03  0.41188438434E+03  0.89796073121E+02 0.  0.
         23    2    1    2    0    0  0.78168957767E+02  0.21402951025E+03  0.36245095008E+03  0.43753547767E+03  0.90263978366E+02 0.  0.
        -11    1    4    4    0    0  0.66817769370E+01  0.26819593691E+02  0.55020277305E+01  0.28181714958E+02  0.00000000000E+00 0.  1.
         11    1    4    4    0    0  0.71487180830E+02  0.18720991656E+03  0.35694892235E+03  0.40935376271E+03  0.00000000000E+00 0. -1.
        -13    1    3    3    0    0 -0.25289792426E+02 -0.84872646946E+02  0.24950102752E+03  0.26475215303E+03  0.00000000000E+00 0. -1.
         13    1    3    3    0    0 -0.38761355111E+02 -0.97951294052E+02  0.10271803558E+03  0.14713223131E+03  0.00000000000E+00 0.  1.
         21    1    1    2  502  501 -0.14117810230E+02 -0.31205569249E+02  0.59345963827E+02  0.68520387772E+02  0.00000000000E+00 0.  1.
<scales pt_clust_5="13000.00000" pt_clust_6="13000.00000" pt_clust_7="13000.00000" pt_clust_8="13000.00000" pt_clust_9="34.25055"></scales>
<clustering>
<clus scale="   34.251">  1  9  2 -1</clus>
<clus scale="   89.796">  7  8 -1 -1</clus>
<clus scale="   90.264">  5  6 -1 -1</clus>
<clus scale="  228.754">  2  7  1 -1</clus>
<clus scale="   34.251">  1  5  2 -1</clus>
</clustering>
</event>
<event>
 9    1  0.1296032E-005  0.1289221E+03  0.7546771E-02  0.1233622E+00
         -1   -1    0    0    0  501 -0.00000000000E+00  0.00000000000E+00  0.86168925502E+02  0.86168925502E+02  0.00000000000E+00 0.  1.
          1   -1    0    0  502    0  0.00000000000E+00 -0.00000000000E+00 -0.59080605115E+03  0.59080605115E+03  0.00000000000E+00 0. -1.
         23    2    1    2    0    0 -0.87402347782E+02  0.37956061510E+02  0.16965570604E+02  0.12155771221E+03  0.73543278466E+02 0.  0.
         23    2    1    2    0    0  0.81402343914E+02  0.63955292627E+01 -0.23025422086E+03  0.26065125935E+03  0.90856086117E+02 0.  0.
        -11    1    3    3    0    0 -0.17489889820E+02  0.11511559804E+02 -0.27516163500E+02  0.34576748094E+02  0.00000000000E+00 0. -1.
         11    1    3    3    0    0 -0.69912457962E+02  0.26444501706E+02  0.44481734104E+02  0.86980964111E+02  0.00000000000E+00 0.  1.
        -13    1    4    4    0    0  0.29174572098E+02  0.41470493542E+02 -0.15205572244E+03  0.16028693091E+03  0.00000000000E+00 0.  1.
         13    1    4    4    0    0  0.52227771817E+02 -0.35074964279E+02 -0.78198498417E+02  0.10036432844E+03  0.00000000000E+00 0. -1.
         21    1    1    2  502  501  0.60000038678E+01 -0.44351590772E+02 -0.29134847539E+03  0.29476600510E+03  0.00000000000E+00 0. -1.
<scales pt_clust_5="13000.00000" pt_clust_6="13000.00000" pt_clust_7="13000.00000" pt_clust_8="13000.00000" pt_clust_9="44.75560"></scales>
<clustering>
<clus scale="   44.756">  2  9  1 -1</clus>
<clus scale="   73.543">  5  6 -1 -1</clus>
<clus scale="   90.856">  7  8 -1 -1</clus>
<clus scale="  117.366">  1  5  2 -1</clus>
<clus scale="   44.756">  2  5  1 -1</clus>
</clustering>
</event>
<event>
 9    1  0.1296032E-005  0.1302352E+03  0.7546771E-02  0.1239745E+00
          1   -1    0    0  502    0  0.00000000000E+00  0.00000000000E+00  0.18863263141E+03  0.18863263141E+03  0.00000000000E+00 0. -1.
         -1   -1    0    0    0  501 -0.00000000000E+00 -0.00000000000E+00 -0.16031293598E+03  0.16031293598E+03  0.00000000000E+00 0.  1.
         23    2    1    2    0    0  0.44117613098E+02  0.24045389921E+01 -0.38799470209E+02  0.10770136908E+03  0.90233255616E+02 0.  0.
         23    2    1    2    0    0  0.64347454847E+02  0.35221785787E+02  0.12941459635E+02  0.11429682690E+03  0.86689757882E+02 0.  0.
        -13    1    3    3    0    0  0.40892442502E+02  0.23130438185E+02 -0.61108055780E+02  0.77080500164E+02  0.00000000000E+00 0.  1.
         13    1    3    3    0    0  0.32251705967E+01 -0.20725899193E+02  0.22308585571E+02  0.30620868912E+02  0.00000000000E+00 0. -1.
        -13    1    4    4    0    0  0.20223022832E+02 -0.19652409163E+02  0.30692289842E+02  0.41679785197E+02  0.00000000000E+00 0. -1.
         13    1    4    4    0    0  0.44124432016E+02  0.54874194950E+02 -0.17750830207E+02  0.72617041699E+02  0.00000000000E+00 0.  1.
         21    1    1    2  502  501 -0.10846506795E+03 -0.37626324779E+02  0.54177706009E+02  0.12694737142E+03  0.00000000000E+00 0. -1.
<scales pt_clust_5="13000.00000" pt_clust_6="13000.00000" pt_clust_7="13000.00000" pt_clust_8="13000.00000" pt_clust_9="97.19104"></scales>
<clustering>
<clus scale="   86.690">  7  8 -1 -1</clus>
<clus scale="   90.233">  5  6 -1 -1</clus>
<clus scale="  100.470">  2  5  1 -1</clus>
<clus scale="   97.191">  1  9  2 -1</clus>
<clus scale="   97.191">  1  5  2 -1</clus>
</clustering>
</event>
<event>
 9    1  0.1296032E-005  0.1332753E+03  0.7546771E-02  0.1230734E+00
          2   -1    0    0  502    0  0.00000000000E+00  0.00000000000E+00  0.63181204901E+02  0.63181204901E+02  0.00000000000E+00 0. -1.
         -2   -1    0    0    0  501 -0.00000000000E+00 -0.00000000000E+00 -0.38528439442E+03  0.38528439442E+03  0.00000000000E+00 0.  1.
         23    2    1    2    0    0 -0.92090026683E+02  0.42330222135E+02 -0.28908414104E+03  0.31985697528E+03  0.92013169264E+02 0.  0.
         23    2    1    2    0    0  0.71065244295E+02 -0.43673780184E+02 -0.19844013802E+02  0.10376052227E+03  0.58436230845E+02 0.  0.
        -11    1    3    3    0    0 -0.97094247819E+02  0.21550438387E+02 -0.27905156698E+03  0.29624566054E+03  0.00000000000E+00 0.  1.
         11    1    3    3    0    0  0.50042211362E+01  0.20779783748E+02 -0.10032574059E+02  0.23611314747E+02  0.00000000000E+00 0. -1.
        -13    1    4    4    0    0  0.36531214694E+01 -0.31597703999E+02 -0.14820180257E+02  0.35091280075E+02  0.00000000000E+00 0.  1.
         13    1    4    4    0    0  0.67412122826E+02 -0.12076076185E+02 -0.50238335456E+01  0.68669242193E+02  0.00000000000E+00 0. -1.
         21    1    1    2  502  501  0.21024782388E+02  0.13435580483E+01 -0.13175034678E+02  0.24848101768E+02  0.00000000000E+00 0.  1.
<scales pt_clust_5="13000.00000" pt_clust_6="13000.00000" pt_clust_7="13000.00000" pt_clust_8="13000.00000" pt_clust_9="21.06767"></scales>
<clustering>
<clus scale="   21.068">  1  9  2 -1</clus>
<clus scale="   58.436">  7  8 -1 -1</clus>
<clus scale="   92.013">  5  6 -1 -1</clus>
<clus scale="  112.742">  1  7  2 -1</clus>
<clus scale="   21.068">  1  5  2 -1</clus>
</clustering>
</event>
<event>
 9    1  0.1296032E-005  0.1467111E+03  0.7546771E-02  0.1210101E+00
          1   -1    0    0  502    0  0.00000000000E+00  0.00000000000E+00  0.18653565918E+03  0.18653565918E+03  0.00000000000E+00 0. -1.
         -1   -1    0    0    0  501 -0.00000000000E+00 -0.00000000000E+00 -0.54263612181E+03  0.54263612181E+03  0.00000000000E+00 0.  1.
         23    2    1    2    0    0  0.18773451726E+01  0.10177827187E+03 -0.42701167722E+03  0.45047949624E+03  0.10114575128E+03 0.  0.
         23    2    1    2    0    0 -0.42782406493E+02 -0.12706999644E+03 -0.39019304269E+02  0.15870222536E+03  0.75410688418E+02 0.  0.
        -11    1    4    4    0    0 -0.52383646541E+02 -0.57294003955E+02  0.11093031175E+01  0.77639422123E+02  0.00000000000E+00 0. -1.
         11    1    4    4    0    0  0.96012400477E+01 -0.69775992486E+02 -0.40128607387E+02  0.81062803237E+02  0.00000000000E+00 0.  1.
        -11    1    3    3    0    0  0.94840434675E+01  0.12073584627E+03 -0.33476204376E+03  0.35599538986E+03  0.00000000000E+00 0.  1.
         11    1    3    3    0    0 -0.76066982949E+01 -0.18957574402E+02 -0.92249633461E+02  0.94484106387E+02  0.00000000000E+00 0. -1.
         21    1    1    2  502  501  0.40905061321E+02  0.25291724573E+02  0.10993051886E+03  0.11999005938E+03  0.00000000000E+00 0.  1.
<scales pt_clust_5="13000.00000" pt_clust_6="13000.00000" pt_clust_7="13000.00000" pt_clust_8="13000.00000" pt_clust_9="48.09257"></scales>
<clustering>
<clus scale="   48.093">  1  9  2 -1</clus>
<clus scale="   75.411">  5  6 -1 -1</clus>
<clus scale="  101.146">  7  8 -1 -1</clus>
<clus scale="  130.309">  1  5  2 -1</clus>
<clus scale="   48.093">  1  5  2 -1</clus>
</clustering>
</event>
<event>
 9    1  0.1296032E-005  0.9282850E+02  0.7546771E-02  0.1297178E+00
         -1   -1    0    0    0  501 -0.00000000000E+00  0.00000000000E+00  0.25737529177E+03  0.25737529177E+03  0.00000000000E+00 0.  1.
          1   -1    0    0  502    0  0.00000000000E+00 -0.00000000000E+00 -0.50271353665E+02  0.50271353665E+02  0.00000000000E+00 0. -1.
         23    2    1    2    0    0 -0.26521644299E+02  0.16527584259E+02  0.13804796821E+03  0.16789286165E+03  0.90300680000E+02 0.  0.
         23    2    1    2    0    0  0.86642411565E+01 -0.70593201154E+00  0.73652881805E+02  0.11545680607E+03  0.88487059256E+02 0.  0.
        -11    1    3    3    0    0  0.13592202385E+02 -0.14892235974E+02  0.10554754992E+03  0.10745609314E+03  0.00000000000E+00 0.  1.
         11    1    3    3    0    0 -0.40113846684E+02  0.31419820233E+02  0.32500418287E+02  0.60436768511E+02  0.00000000000E+00 0. -1.
        -11    1    4    4    0    0  0.34965579445E+02 -0.15944452668E+01  0.80911440183E+02  0.88157785555E+02  0.00000000000E+00 0.  1.
         11    1    4    4    0    0 -0.26301338288E+02  0.88851325530E+00 -0.72585583771E+01  0.27299020518E+02  0.00000000000E+00 0. -1.
         21    1    1    2  502  501  0.17857403142E+02 -0.15821652247E+02 -0.45969119099E+01  0.24296977712E+02  0.00000000000E+00 0. -1.
<scales pt_clust_5="13000.00000" pt_clust_6="13000.00000" pt_clust_7="13000.00000" pt_clust_8="13000.00000" pt_clust_9="23.85815"></scales>
<clustering>
<clus scale="   23.858">  2  9  1 -1</clus>
<clus scale="   88.487">  7  8 -1 -1</clus>
<clus scale="   90.301">  5  6 -1 -1</clus>
<clus scale="   91.065">  2  7  1 -1</clus>
<clus scale="   23.858">  2  5  1 -1</clus>
</clustering>
</event>
<event>
 9    1  0.1296032E-005  0.1163383E+03  0.7546771E-02  0.1251354E+00
         -2   -1    0    0    0  501 -0.00000000000E+00  0.00000000000E+00  0.11999823022E+03  0.11999823022E+03  0.00000000000E+00 0.  1.
          2   -1    0    0  502    0  0.00000000000E+00 -0.00000000000E+00 -0.16181229992E+03  0.16181229992E+03  0.00000000000E+00 0. -1.
         23    2    1    2    0    0  0.28545373975E+02 -0.52971501778E+02  0.19524821096E+02  0.11219859196E+03  0.92663299223E+02 0.  0.
         23    2    1    2    0    0 -0.51730853586E+02  0.75213768031E+02 -0.51933241015E+02  0.13613431698E+03  0.86615810471E+02 0.  0.
        -11    1    3    3    0    0 -0.20081306282E+02 -0.45983918244E+02  0.34438262857E+02  0.60858635769E+02  0.00000000000E+00 0.  1.
         11    1    3    3    0    0  0.48626680257E+02 -0.69875835335E+01 -0.14913441761E+02  0.51339956190E+02  0.00000000000E+00 0. -1.
        -13    1    4    4    0    0 -0.57633928119E+01  0.47504183046E+02 -0.65171128106E+02  0.80852582162E+02  0.00000000000E+00 0.  1.
         13    1    4    4    0    0 -0.45967460774E+02  0.27709584984E+02  0.13237887091E+02  0.55281734819E+02  0.00000000000E+00 0. -1.
         21    1    1    2  502  501  0.23185479610E+02 -0.22242266253E+02 -0.94056497816E+01  0.33477621192E+02  0.00000000000E+00 0.  1.
<scales pt_clust_5="13000.00000" pt_clust_6="13000.00000" pt_clust_7="13000.00000" pt_clust_8="13000.00000" pt_clust_9="32.12919"></scales>
<clustering>
<clus scale="   32.129">  2  9  1 -1</clus>
<clus scale="   86.616">  7  8 -1 -1</clus>
<clus scale="   92.663">  5  6 -1 -1</clus>
<clus scale="  111.581">  2  7  1 -1</clus>
<clus scale="   32.129">  2  5  1 -1</clus>
</clustering>
</event>
<event>
 9    1  0.1296032E-005  0.1173175E+03  0.7546771E-02  0.1249013E+00
          2   -1    0    0  502    0  0.00000000000E+00  0.00000000000E+00  0.62059568489E+03  0.62059568489E+03  0.00000000000E+00 0. -1.
         -2   -1    0    0    0  501 -0.00000000000E+00 -0.00000000000E+00 -0.13400593743E+03  0.13400593743E+03  0.00000000000E+00 0.  1.
         23    2    1    2    0    0  0.86666869983E+02 -0.28603671741E+02 -0.72504630099E+02  0.15052877076E+03  0.95250580314E+02 0.  0.
         23    2    1    2    0    0 -0.13881906334E+01  0.17314144986E+01  0.95904865683E+02  0.13233235587E+03  0.91154727134E+02 0.  0.
        -13    1    4    4    0    0  0.27899062768E+02 -0.84375804378E+01 -0.24087189916E+01  0.29246408227E+02  0.00000000000E+00 0.  1.
         13    1    4    4    0    0 -0.29287253402E+02  0.10168994936E+02  0.98313584675E+02  0.10308594764E+03  0.00000000000E+00 0. -1.
        -13    1    3    3    0    0  0.56735460771E+02  0.20059839097E+02 -0.71412614575E+02  0.93386675570E+02  0.00000000000E+00 0.  1.
         13    1    3    3    0    0  0.29931409212E+02 -0.48663510838E+02 -0.10920155235E+01  0.57142095187E+02  0.00000000000E+00 0. -1.
         21    1    1    2  502  501 -0.85278679350E+02  0.26872257242E+02  0.46318951187E+03  0.47174049569E+03  0.00000000000E+00 0. -1.
<scales pt_clust_5="13000.00000" pt_clust_6="13000.00000" pt_clust_7="13000.00000" pt_clust_8="13000.00000" pt_clust_9="89.41237"></scales>
<clustering>
<clus scale="   89.412">  1  9  2 -1</clus>
<clus scale="   91.155">  5  6 -1 -1</clus>
<clus scale="   95.251">  7  8 -1 -1</clus>
<clus scale="  114.017">  1  5  2 -1</clus>
<clus scale="   89.412">  1  5  2 -1</clus>
</clustering>
</event>
<event>
 9    1  0.1296032E-005  0.1438397E+03  0.7546771E-02  0.1208522E+00
          2   -1    0    0  502    0  0.00000000000E+00  0.00000000000E+00  0.88430855576E+03  0.88430855576E+03  0.00000000000E+00 0. -1.
         -2   -1    0    0    0  501 -0.00000000000E+00 -0.00000000000E+00 -0.43844734234E+02  0.43844734234E+02  0.00000000000E+00 0.  1.
         23    2    1    2    0    0  0.46833510810E+02 -0.10519250087E+03  0.11321004195E+03  0.18487355725E+03  0.90015990784E+02 0.  0.
         23    2    1    2    0    0 -0.36552832738E+02  0.87754223070E+02  0.59037713313E+03  0.60491426662E+03  0.91319206003E+02 0.  0.
        -11    1    3    3    0    0  0.16246404430E+02 -0.11106584079E+03  0.72539874357E+02  0.13364729708E+03  0.00000000000E+00 0.  1.
         11    1    3    3    0    0  0.30587106380E+02  0.58733399131E+01  0.40670167589E+02  0.51226260162E+02  0.00000000000E+00 0. -1.
        -13    1    4    4    0    0 -0.24057030120E+02 -0.95195954110E+01  0.57016532948E+02  0.62611887245E+02  0.00000000000E+00 0.  1.
         13    1    4    4    0    0 -0.12495802618E+02  0.97273818481E+02  0.53336060018E+03  0.54230237937E+03  0.00000000000E+00 0. -1.
         21    1    1    2  502  501 -0.10280678072E+02  0.17438277802E+02  0.13687664645E+03  0.13836546613E+03  0.00000000000E+00 0. -1.
<scales pt_clust_5="13000.00000" pt_clust_6="13000.00000" pt_clust_7="13000.00000" pt_clust_8="13000.00000" pt_clust_9="20.24317"></scales>
<clustering>
<clus scale="   20.243">  1  9  2 -1</clus>
<clus scale="   90.016">  5  6 -1 -1</clus>
<clus scale="   91.319">  7  8 -1 -1</clus>
<clus scale="  143.016">  2  5  1 -1</clus>
<clus scale="   20.243">  1  5  2 -1</clus>
</clustering>
</event>
<event>
 9    1  0.1296032E-005  0.1379924E+03  0.7546771E-02  0.1216099E+00
          1   -1    0    0  502    0  0.00000000000E+00  0.00000000000E+00  0.13233849403E+03  0.13233849403E+03  0.00000000000E+00 0. -1.
         -1   -1    0    0    0  501 -0.00000000000E+00 -0.00000000000E+00 -0.18904490408E+03  0.18904490408E+03  0.00000000000E+00 0.  1.
         23    2    1    2    0    0 -0.10657492546E+03  0.30139682559E+02 -0.66708760522E+02  0.15702251590E+03  0.89103291567E+02 0.  0.
         23    2    1    2    0    0  0.98259379893E+02 -0.11449580155E+02 -0.12925802217E+02  0.13363355867E+03  0.88909240339E+02 0.  0.
        -11    1    4    4    0    0  0.79677137673E+02 -0.47178241791E+02 -0.11798012667E+02  0.93345732999E+02  0.00000000000E+00 0. -1.
         11    1    4    4    0    0  0.18582242220E+02  0.35728661636E+02 -0.11277895509E+01  0.40287825673E+02  0.00000000000E+00 0.  1.
        -13    1    3    3    0    0 -0.37087878335E+02  0.30305488379E+02  0.14595821740E+02  0.50069665044E+02  0.00000000000E+00 0. -1.
         13    1    3    3    0    0 -0.69487047120E+02 -0.16580582017E+00 -0.81304582263E+02  0.10695285085E+03  0.00000000000E+00 0.  1.
         21    1    1    2  502  501  0.83155455619E+01 -0.18690102404E+02  0.22928152695E+02  0.30727323539E+02  0.00000000000E+00 0. -1.
<scales pt_clust_5="13000.00000" pt_clust_6="13000.00000" pt_clust_7="13000.00000" pt_clust_8="13000.00000" pt_clust_9="20.45650"></scales>
<clustering>
<clus scale="   20.456">  1  9  2 -1</clus>
<clus scale="   88.909">  5  6 -1 -1</clus>
<clus scale="   89.103">  7  8 -1 -1</clus>
<clus scale="  137.867">  1  5  2 -1</clus>
<clus scale="   20.456">  1  5  2 -1</clus>
</clustering>
</event>
<event>
 9    1  0.1296032E-005  0.9970639E+02  0.7546771E-02  0.1283283E+00
         -1   -1    0    0    0  501 -0.00000000000E+00  0.00000000000E+00  0.72992469510E+02  0.72992469510E+02  0.00000000000E+00 0.  1.
          1   -1    0    0  502    0  0.00000000000E+00 -0.00000000000E+00 -0.18584588560E+03  0.18584588560E+03  0.00000000000E+00 0. -1.
         23    2    1    2    0    0 -0.15186304849E+02 -0.17180334144E+02 -0.15108035272E+02  0.99030549234E+02  0.95147302723E+02 0.  0.
         23    2    1    2    0    0  0.11489568264E+02  0.42084526686E+02 -0.70871605938E+02  0.12298275403E+03  0.90547532788E+02 0.  0.
        -11    1    3    3    0    0  0.12528373887E+01  0.27846565501E+02 -0.37007463438E+02  0.46330909357E+02  0.00000000000E+00 0. -1.
         11    1    3    3    0    0 -0.16439142237E+02 -0.45026899645E+02  0.21899428166E+02  0.52699639877E+02  0.00000000000E+00 0.  1.
        -13    1    4    4    0    0 -0.34891060380E+02 -0.20670448158E+01 -0.15135991134E+02  0.38088804081E+02  0.00000000000E+00 0.  1.
         13    1    4    4    0    0  0.46380628644E+02  0.44151571502E+02 -0.55735614803E+02  0.84893949944E+02  0.00000000000E+00 0. -1.
         21    1    1    2  502  501  0.36967365846E+01 -0.24904192542E+02 -0.26873774879E+02  0.36825051851E+02  0.00000000000E+00 0. -1.
<scales pt_clust_5="13000.00000" pt_clust_6="13000.00000" pt_clust_7="13000.00000" pt_clust_8="13000.00000" pt_clust_9="25.17707"></scales>
<clustering>
<clus scale="   25.177">  2  9  1 -1</clus>
<clus scale="   90.548">  7  8 -1 -1</clus>
<clus scale="   95.147">  5  6 -1 -1</clus>
<clus scale="   95.327">  2  7  1 -1</clus>
<clus scale="   25.177">  2  5  1 -1</clus>
</clustering>
</event>
<event>
 9    1  0.1296032E-005  0.1250544E+03  0.7546771E-02  0.1235103E+00
         -1   -1    0    0    0  501 -0.00000000000E+00  0.00000000000E+00  0.14572118846E+03  0.14572118846E+03  0.00000000000E+00 0.  1.
          1   -1    0    0  502    0  0.00000000000E+00 -0.00000000000E+00 -0.15220087321E+03  0.15220087321E+03  0.00000000000E+00 0. -1.
         23    2    1    2    0    0  0.10193278553E+03  0.17839388193E+01  0.35413875973E+02  0.14161887308E+03  0.91696714216E+02 0.  0.
         23    2    1    2    0    0 -0.63110290961E+02 -0.14677465302E+01 -0.23973805909E+02  0.11354335141E+03  0.91281357218E+02 0.  0.
        -13    1    4    4    0    0 -0.79940510616E+02  0.20389910403E+02 -0.11609512804E+02  0.83312750953E+02  0.00000000000E+00 0. -1.
         13    1    4    4    0    0  0.16830219655E+02 -0.21857656934E+02 -0.12364293106E+02  0.30230600461E+02  0.00000000000E+00 0.  1.
        -13    1    3    3    0    0 -0.23071990396E+01 -0.20449978236E+02  0.28036742387E+02  0.34779069869E+02  0.00000000000E+00 0. -1.
         13    1    3    3    0    0  0.10423998457E+03  0.22233917055E+02  0.73771335859E+01  0.10683980322E+03  0.00000000000E+00 0.  1.
         21    1    1    2  502  501 -0.38822494570E+02 -0.31619228913E+00 -0.17919754808E+02  0.42759837168E+02  0.00000000000E+00 0. -1.
<scales pt_clust_5="13000.00000" pt_clust_6="13000.00000" pt_clust_7="13000.00000" pt_clust_8="13000.00000" pt_clust_9="38.82378"></scales>
<clustering>
<clus scale="   38.824">  2  9  1 -1</clus>
<clus scale="   91.281">  5  6 -1 -1</clus>
<clus scale="   91.697">  7  8 -1 -1</clus>
<clus scale="  124.750">  2  5  1 -1</clus>
<clus scale="   38.824">  2  5  1 -1</clus>
</clustering>
</event>
<event>
 9    1  0.1296032E-005  0.1525598E+03  0.7546771E-02  0.1197554E+00
         -1   -1    0    0    0  501 -0.00000000000E+00  0.00000000000E+00  0.77857163733E+03  0.77857163733E+03  0.00000000000E+00 0.  1.
          1   -1    0    0  502    0  0.00000000000E+00 -0.00000000000E+00 -0.50137170423E+02  0.50137170423E+02  0.00000000000E+00 0. -1.
         23    2    1    2    0    0  0.75416926938E+02  0.10284326592E+03  0.56598256605E+03  0.58727676795E+03  0.91067485346E+02 0.  0.
         23    2    1    2    0    0 -0.81830376214E+02 -0.66855621550E+02  0.11372709489E+03  0.18051940076E+03  0.92127722935E+02 0.  0.
        -13    1    4    4    0    0 -0.13612460121E+01 -0.26381123084E+02  0.80148130344E+02  0.84389214023E+02  0.00000000000E+00 0.  1.
         13    1    4    4    0    0 -0.80469130202E+02 -0.40474498467E+02  0.33578964550E+02  0.96130186736E+02  0.00000000000E+00 0. -1.
        -13    1    3    3    0    0  0.14720868157E+02 -0.16167016281E+02  0.10878642479E+03  0.11096198715E+03  0.00000000000E+00 0.  1.
         13    1    3    3    0    0  0.60696058781E+02  0.11901028220E+03  0.45719614126E+03  0.47631478080E+03  0.00000000000E+00 0. -1.
         21    1    1    2  502  501  0.64134492757E+01 -0.35987644372E+02  0.48724805960E+02  0.60912639041E+02  0.00000000000E+00 0. -1.
<scales pt_clust_5="13000.00000" pt_clust_6="13000.00000" pt_clust_7="13000.00000" pt_clust_8="13000.00000" pt_clust_9="36.55466"></scales>
<clustering>
<clus scale="   36.555">  2  9  1 -1</clus>
<clus scale="   91.067">  7  8 -1 -1</clus>
<clus scale="   92.128">  5  6 -1 -1</clus>
<clus scale="  151.922">  1  7  2 -1</clus>
<clus scale="   36.555">  2  5  1 -1</clus>
</clustering>
</event>
<event>
 9    1  0.1296032E-005  0.9490031E+02  0.7546771E-02  0.1291820E+00
         -2   -1    0    0    0  501 -0.00000000000E+00  0.00000000000E+00  0.26286172303E+03  0.26286172303E+03  0.00000000000E+00 0.  1.
          2   -1    0    0  502    0  0.00000000000E+00 -0.00000000000E+00 -0.15951010395E+03  0.15951010395E+03  0.00000000000E+00 0. -1.
         23    2    1    2    0    0 -0.47928342960E+01  0.30754384303E+02  0.22565221949E+03  0.24479700000E+03  0.89654021869E+02 0.  0.
         23    2    1    2    0    0  0.20026846955E+02  0.18988324644E+01 -0.90677612074E+02  0.12963401869E+03  0.90431572512E+02 0.  0.
        -11    1    4    4    0    0  0.51948094561E+02  0.20199387908E+02 -0.51507972924E+02  0.75892628596E+02  0.00000000000E+00 0. -1.
         11    1    4    4    0    0 -0.31921247606E+02 -0.18300555444E+02 -0.39169639150E+02  0.53741390096E+02  0.00000000000E+00 0.  1.
        -13    1    3    3    0    0 -0.22104340556E+02  0.44748517471E+02  0.21385872362E+03  0.21960552214E+03  0.00000000000E+00 0.  1.
         13    1    3    3    0    0  0.17311506260E+02 -0.13994133168E+02  0.11793495868E+02  0.25191477862E+02  0.00000000000E+00 0. -1.
         21    1    1    2  502  501 -0.15234012659E+02 -0.32653216768E+02 -0.31622988334E+02  0.47940808276E+02  0.00000000000E+00 0. -1.
<scales pt_clust_5="13000.00000" pt_clust_6="13000.00000" pt_clust_7="13000.00000" pt_clust_8="13000.00000" pt_clust_9="36.03204"></scales>
<clustering>
<clus scale="   36.032">  2  9  1 -1</clus>
<clus scale="   89.654">  7  8 -1 -1</clus>
<clus scale="   90.432">  5  6 -1 -1</clus>
<clus scale="   94.160">  1  7  2 -1</clus>
<clus scale="   36.032">  2  5  1 -1</clus>
</clustering>
</event>
<event>
 9    1  0.1296032E-005  0.1655674E+03  0.7546771E-02  0.1183543E+00
         -2   -1    0    0    0  501 -0.00000000000E+00  0.00000000000E+00  0.12829767499E+03  0.12829767499E+03  0.00000000000E+00 0.  1.
          2   -1    0    0  502    0  0.00000000000E+00 -0.00000000000E+00 -0.30107992000E+03  0.30107992000E+03  0.00000000000E+00 0. -1.
         23    2    1    2    0    0 -0.78697173391E+02  0.94991534828E+02 -0.11126245662E+02  0.15284503681E+03  0.89561013543E+02 0.  0.
         23    2    1    2    0    0  0.53322389571E+02 -0.13326530312E+03 -0.15102647406E+03  0.22939713837E+03  0.95974647580E+02 0.  0.
        -11    1    4    4    0    0  0.26264196133E+02 -0.14081694246E+03 -0.13607284726E+03  0.19757287021E+03  0.00000000000E+00 0. -1.
         11    1    4    4    0    0  0.27058193438E+02  0.75516393441E+01 -0.14953626805E+02  0.31824268155E+02  0.00000000000E+00 0.  1.
        -11    1    3    3    0    0  0.16439705654E+02  0.36510644568E+02 -0.95310379162E+01  0.41159832027E+02  0.00000000000E+00 0. -1.
         11    1    3    3    0    0 -0.95136879045E+02  0.58480890260E+02 -0.15952077454E+01  0.11168520478E+03  0.00000000000E+00 0.  1.
         21    1    1    2  502  501  0.25374783820E+02  0.38273768291E+02 -0.10629525284E+02  0.47135419813E+02  0.00000000000E+00 0.  1.
<scales pt_clust_5="13000.00000" pt_clust_6="13000.00000" pt_clust_7="13000.00000" pt_clust_8="13000.00000" pt_clust_9="45.92125"></scales>
<clustering>
<clus scale="   45.921">  1  9  2 -1</clus>
<clus scale="   89.561">  7  8 -1 -1</clus>
<clus scale="   95.975">  5  6 -1 -1</clus>
<clus scale="  161.934">  1  7  2 -1</clus>
<clus scale="  165.567">  2  5  1 -1</clus>
</clustering>
</event>
<event>
 9    1  0.1296032E-005  0.1293355E+03  0.7546771E-02  0.1235994E+00
          2   -1    0    0  502    0  0.00000000000E+00  0.00000000000E+00  0.43000464944E+03  0.43000464944E+03  0.00000000000E+00 0. -1.
         -2   -1    0    0    0  501 -0.00000000000E+00 -0.00000000000E+00 -0.15432527547E+03  0.15432527547E+03  0.00000000000E+00 0.  1.
         23    2    1    2    0    0  0.59117119516E+02 -0.78592892223E+02 -0.11332322582E+03  0.16231682541E+03  0.61910595007E+02 0.  0.
         23    2    1    2    0    0 -0.21649630753E+02  0.30611243150E+02  0.19168340749E+03  0.21551633195E+03  0.91098879855E+02 0.  0.
        -11    1    3    3    0    0  0.52777511187E+02 -0.37999697669E+02 -0.99692327133E+02  0.11902941989E+03  0.00000000000E+00 0.  1.
         11    1    3    3    0    0  0.63396083287E+01 -0.40593194554E+02 -0.13630898685E+02  0.43287405522E+02  0.00000000000E+00 0. -1.
        -11    1    4    4    0    0 -0.36660411499E+02  0.38672180912E+01  0.21675028079E+02  0.42763863124E+02  0.00000000000E+00 0.  1.
         11    1    4    4    0    0  0.15010780747E+02  0.26744025059E+02  0.17000837941E+03  0.17275246883E+03  0.00000000000E+00 0. -1.
         21    1    1    2  502  501 -0.37467488763E+02  0.47981649073E+02  0.19731919229E+03  0.20649676755E+03  0.00000000000E+00 0. -1.
<scales pt_clust_5="13000.00000" pt_clust_6="13000.00000" pt_clust_7="13000.00000" pt_clust_8="13000.00000" pt_clust_9="60.87735"></scales>
<clustering>
<clus scale="   60.877">  1  9  2 -1</clus>
<clus scale="   61.911">  5  6 -1 -1</clus>
<clus scale="   91.099">  7  8 -1 -1</clus>
<clus scale="  110.732">  2  5  1 -1</clus>
<clus scale="   60.877">  1  5  2 -1</clus>
</clustering>
</event>
<event>
 9    1  0.1296032E-005  0.9415118E+02  0.7546771E-02  0.1295100E+00
          2   -1    0    0  502    0  0.00000000000E+00  0.00000000000E+00  0.26398602585E+03  0.26398602585E+03  0.00000000000E+00 0. -1.
         -2   -1    0    0    0  501 -0.00000000000E+00 -0.00000000000E+00 -0.15505612903E+03  0.15505612903E+03  0.00000000000E+00 0.  1.
         23    2    1    2    0    0 -0.25350190391E+02 -0.32164813916E+02 -0.64339807921E+02  0.11911205971E+03  0.91492428533E+02 0.  0.
         23    2    1    2    0    0 -0.37202920213E+02  0.77444591280E+01 -0.17763272456E+02  0.97438505839E+02  0.87947112813E+02 0.  0.
        -11    1    3    3    0    0  0.20173613421E+02  0.13286339279E+02  0.48495525913E+01  0.24637768775E+02  0.00000000000E+00 0. -1.
         11    1    3    3    0    0 -0.45523803812E+02 -0.45451153195E+02 -0.69189360512E+02  0.94474290939E+02  0.00000000000E+00 0.  1.
        -13    1    4    4    0    0 -0.34431911829E+02  0.44102500599E+02  0.19533788376E+01  0.55985737471E+02  0.00000000000E+00 0. -1.
         13    1    4    4    0    0 -0.27710083834E+01 -0.36358041471E+02 -0.19716651293E+02  0.41452768367E+02  0.00000000000E+00 0.  1.
         21    1    1    2  502  501  0.62553110604E+02  0.24420354788E+02  0.19103297720E+03  0.20249158933E+03  0.00000000000E+00 0. -1.
<scales pt_clust_5="13000.00000" pt_clust_6="13000.00000" pt_clust_7="13000.00000" pt_clust_8="13000.00000" pt_clust_9="67.15091"></scales>
<clustering>
<clus scale="   67.151">  1  9  2 -1</clus>
<clus scale="   87.947">  7  8 -1 -1</clus>
<clus scale="   90.710">  1  7  2 -1</clus>
<clus scale="   91.492">  5  6 -1 -1</clus>
<clus scale="   67.151">  1  5  2 -1</clus>
</clustering>
</event>
<event>
 9    1  0.1296032E-005  0.3397459E+03  0.7546771E-02  0.1066986E+00
         -1   -1    0    0    0  501 -0.00000000000E+00  0.00000000000E+00  0.27290897488E+03  0.27290897488E+03  0.00000000000E+00 0.  1.
          1   -1    0    0  502    0  0.00000000000E+00 -0.00000000000E+00 -0.76722322669E+03  0.76722322669E+03  0.00000000000E+00 0. -1.
         23    2    1    2    0    0  0.16164808633E+03 -0.32302507032E+03  0.25748890107E+02  0.37394278423E+03  0.93246451209E+02 0.  0.
         23    2    1    2    0    0 -0.13821264446E+03  0.18943728326E+03 -0.44528515580E+03  0.51131313125E+03  0.90404805362E+02 0.  0.
        -11    1    4    4    0    0 -0.44694757742E+02  0.10862216926E+03 -0.28971962085E+03  0.31262414451E+03  0.00000000000E+00 0. -1.
         11    1    4    4    0    0 -0.93517886719E+02  0.80815113997E+02 -0.15556553495E+03  0.19868898674E+03  0.00000000000E+00 0.  1.
        -13    1    3    3    0    0  0.13423911736E+03 -0.26044933688E+03  0.57520100731E+02  0.29860100418E+03  0.00000000000E+00 0. -1.
         13    1    3    3    0    0  0.27408968973E+02 -0.62575733440E+02 -0.31771210624E+02  0.75341780044E+02  0.00000000000E+00 0.  1.
         21    1    1    2  502  501 -0.23435441868E+02  0.13358778706E+03 -0.74777986113E+02  0.15487628609E+03  0.00000000000E+00 0.  1.
<scales pt_clust_5="13000.00000" pt_clust_6="13000.00000" pt_clust_7="13000.00000" pt_clust_8="13000.00000" pt_clust_9="135.62786"></scales>
<clustering>
<clus scale="   90.405">  5  6 -1 -1</clus>
<clus scale="   93.246">  7  8 -1 -1</clus>
<clus scale="  135.628">  2  9  1 -1</clus>
<clus scale="  338.977">  2  5  1 -1</clus>
<clus scale="  135.628">  2  5  1 -1</clus>
</clustering>
</event>
<event>
 9    1  0.1296032E-005  0.1659040E+03  0.7546771E-02  0.1190180E+00
         -2   -1    0    0    0  501 -0.00000000000E+00  0.00000000000E+00  0.30892327801E+03  0.30892327801E+03  0.00000000000E+00 0.  1.
          2   -1    0    0  502    0  0.00000000000E+00 -0.00000000000E+00 -0.64782600393E+03  0.64782600393E+03  0.00000000000E+00 0. -1.
         23    2    1    2    0    0 -0.14974398268E+02 -0.10270395619E+03  0.95329521044E+02  0.16976925450E+03  0.94665447603E+02 0.  0.
         23    2    1    2    0    0 -0.88137973354E+02 -0.58682952112E+02 -0.54725353163E+03  0.56460263170E+03  0.89876095935E+02 0.  0.
        -11    1    3    3    0    0  0.36791888089E+02 -0.34735706417E+02  0.56733639362E+02  0.76019196028E+02  0.00000000000E+00 0.  1.
         11    1    3    3    0    0 -0.51766286357E+02 -0.67968249770E+02  0.38595881682E+02  0.93750058468E+02  0.00000000000E+00 0. -1.
        -13    1    4    4    0    0  0.79217215481E+01 -0.40290640704E+02 -0.15739938648E+03  0.16266731775E+03  0.00000000000E+00 0.  1.
         13    1    4    4    0    0 -0.96059694902E+02 -0.18392311408E+02 -0.38985414515E+03  0.40193531395E+03  0.00000000000E+00 0. -1.
         21    1    1    2  502  501  0.10311237162E+03  0.16138690830E+03  0.11302128466E+03  0.22237739575E+03  0.00000000000E+00 0.  1.
<scales pt_clust_5="13000.00000" pt_clust_6="13000.00000" pt_clust_7="13000.00000" pt_clust_8="13000.00000" pt_clust_9="136.24460"></scales>
<clustering>
<clus scale="   89.876">  7  8 -1 -1</clus>
<clus scale="   94.665">  5  6 -1 -1</clus>
<clus scale="  138.887">  2  7  1 -1</clus>
<clus scale="  136.245">  2  9  1 -1</clus>
<clus scale="  138.887">  2  5  1 -1</clus>
</clustering>
</event>
<event>
 9    1  0.1296032E-005  0.1109263E+03  0.7546771E-02  0.1259129E+00
         -1   -1    0    0    0  501 -0.00000000000E+00  0.00000000000E+00  0.54876952015E+02  0.54876952015E+02  0.00000000000E+00 0.  1.
          1   -1    0    0  502    0  0.00000000000E+00 -0.00000000000E+00 -0.32349482554E+03  0.32349482554E+03  0.00000000000E+00 0. -1.
         23    2    1    2    0    0 -0.50815286149E+01  0.44225533715E+02 -0.95023044934E+02  0.13969859374E+03  0.92220378759E+02 0.  0.
         23    2    1    2    0    0  0.18014531770E+02 -0.81101650169E+02 -0.11940200272E+03  0.17186021419E+03  0.91526465849E+02 0.  0.
        -11    1    3    3    0    0  0.37010007549E+02  0.11288256327E+02 -0.11192180264E+02  0.40279402785E+02  0.00000000000E+00 0. -1.
         11    1    3    3    0    0 -0.42091536164E+02  0.32937277388E+02 -0.83830864670E+02  0.99419190953E+02  0.00000000000E+00 0.  1.
        -13    1    4    4    0    0  0.43854841084E+02 -0.67253991769E+01 -0.50614077343E+02  0.67307227738E+02  0.00000000000E+00 0. -1.
         13    1    4    4    0    0 -0.25840309314E+02 -0.74376250992E+02 -0.68787925379E+02  0.10455298645E+03  0.00000000000E+00 0.  1.
         21    1    1    2  502  501 -0.12933003155E+02  0.36876116454E+02 -0.54192825869E+02  0.66812969632E+02  0.00000000000E+00 0.  1.
<scales pt_clust_5="13000.00000" pt_clust_6="13000.00000" pt_clust_7="13000.00000" pt_clust_8="13000.00000" pt_clust_9="39.07826"></scales>
<clustering>
<clus scale="   39.078">  2  9  1 -1</clus>
<clus scale="   91.526">  7  8 -1 -1</clus>
<clus scale="   92.220">  5  6 -1 -1</clus>
<clus scale="  110.350">  2  7  1 -1</clus>
<clus scale="   39.078">  2  5  1 -1</clus>
</clustering>
</event>
<event>
 9    1  0.1296032E-005  0.8689227E+02  0.7546771E-02  0.1316912E+00
          1   -1    0    0  502    0  0.00000000000E+00  0.00000000000E+00  0.10254323839E+03  0.10254323839E+03  0.00000000000E+00 0. -1.
         -1   -1    0    0    0  501 -0.00000000000E+00 -0.00000000000E+00 -0.13376791134E+03  0.13376791134E+03  0.00000000000E+00 0.  1.
         23    2    1    2    0    0 -0.14383447974E+01  0.69323999501E-03 -0.53446743105E+02  0.10125170466E+03  0.85984210825E+02 0.  0.
         23    2    1    2    0    0 -0.72771357503E+01 -0.42780100683E+02  0.24736108298E+02  0.91328932952E+02  0.76459173558E+02 0.  0.
        -11    1    3    3    0    0 -0.39741265739E+02 -0.17877839433E+02 -0.24151799283E+02  0.49822632949E+02  0.00000000000E+00 0.  1.
         11    1    3    3    0    0  0.38302920942E+02  0.17878532673E+02 -0.29294943822E+02  0.51429071708E+02  0.00000000000E+00 0. -1.
        -13    1    4    4    0    0 -0.34971743215E+02 -0.28344712936E+01  0.24371832878E+02  0.42720525381E+02  0.00000000000E+00 0. -1.
         13    1    4    4    0    0  0.27694607465E+02 -0.39945629390E+02  0.36427541974E+00  0.48608407571E+02  0.00000000000E+00 0.  1.
         21    1    1    2  502  501  0.87154805477E+01  0.42779407443E+02 -0.25140381465E+01  0.43730512119E+02  0.00000000000E+00 0.  1.
<scales pt_clust_5="13000.00000" pt_clust_6="13000.00000" pt_clust_7="13000.00000" pt_clust_8="13000.00000" pt_clust_9="43.65819"></scales>
<clustering>
<clus scale="   43.658">  1  9  2 -1</clus>
<clus scale="   76.459">  7  8 -1 -1</clus>
<clus scale="   77.479">  1  7  2 -1</clus>
<clus scale="   85.984">  5  6 -1 -1</clus>
<clus scale="   43.658">  1  5  2 -1</clus>
</clustering>
</event>
<event>
 9    1  0.1296032E-005  0.1220173E+03  0.7546771E-02  0.1239812E+00
         -2   -1    0    0    0  501 -0.00000000000E+00  0.00000000000E+00  0.67013840398E+02  0.67013840398E+02  0.00000000000E+00 0.  1.
          2   -1    0    0  502    0  0.00000000000E+00 -0.00000000000E+00 -0.46571561673E+03  0.46571561673E+03  0.00000000000E+00 0. -1.
         23    2    1    2    0    0  0.57165423815E+02  0.43473330123E+02 -0.37669853794E+02  0.12252893524E+03  0.91850454406E+02 0.  0.
         23    2    1    2    0    0 -0.94428154198E+02 -0.65637041430E+02 -0.31047886949E+03  0.34360208086E+03  0.91871453997E+02 0.  0.
        -11    1    3    3    0    0  0.43298217029E+02 -0.90110113023E+00  0.20623003582E+02  0.47967237338E+02  0.00000000000E+00 0.  1.
         11    1    3    3    0    0  0.13867206787E+02  0.44374431253E+02 -0.58292857377E+02  0.74561697903E+02  0.00000000000E+00 0. -1.
        -13    1    4    4    0    0  0.27737290493E+01 -0.48363213713E+02 -0.99317381084E+02  0.11050174749E+03  0.00000000000E+00 0.  1.
         13    1    4    4    0    0 -0.97201883248E+02 -0.17273827717E+02 -0.21116148841E+03  0.23310033337E+03  0.00000000000E+00 0. -1.
         21    1    1    2  502  501  0.37262730383E+02  0.22163711308E+02 -0.50553053047E+02  0.66598441024E+02  0.00000000000E+00 0.  1.
<scales pt_clust_5="13000.00000" pt_clust_6="13000.00000" pt_clust_7="13000.00000" pt_clust_8="13000.00000" pt_clust_9="43.35598"></scales>
<clustering>
<clus scale="   43.356">  2  9  1 -1</clus>
<clus scale="   91.850">  5  6 -1 -1</clus>
<clus scale="   91.871">  7  8 -1 -1</clus>
<clus scale="  122.001">  1  5  2 -1</clus>
<clus scale="   43.356">  2  5  1 -1</clus>
</clustering>
</event>
<event>
 9    1  0.1296032E-005  0.9532970E+02  0.7546771E-02  0.1290514E+00
         -1   -1    0    0    0  501 -0.00000000000E+00  0.00000000000E+00  0.33732345210E+03  0.33732345210E+03  0.00000000000E+00 0.  1.
          1   -1    0    0  502    0  0.00000000000E+00 -0.00000000000E+00 -0.59942827369E+02  0.59942827369E+02  0.00000000000E+00 0. -1.
         23    2    1    2    0    0 -0.23847009294E+02 -0.45591611761E+01  0.25693754917E+03  0.27405392978E+03  0.92191032369E+02 0.  0.
         23    2    1    2    0    0  0.14320676208E+02  0.26049405404E+02  0.10087244191E+02  0.97525293369E+02  0.92335134496E+02 0.  0.
        -13    1    3    3    0    0 -0.55827212129E+02 -0.20558875505E+02  0.16595197833E+03  0.17629351687E+03  0.00000000000E+00 0.  1.
         13    1    3    3    0    0  0.31980202834E+02  0.15999714329E+02  0.90985570839E+02  0.97760412913E+02  0.00000000000E+00 0. -1.
        -13    1    4    4    0    0 -0.27445192531E+02 -0.29564060486E+01 -0.23775789559E+02  0.36431677136E+02  0.00000000000E+00 0.  1.
         13    1    4    4    0    0  0.41765868740E+02  0.29005811453E+02  0.33863033750E+02  0.61093616232E+02  0.00000000000E+00 0. -1.
         21    1    1    2  502  501  0.95263330862E+01 -0.21490244228E+02  0.10355831364E+02  0.25687056318E+02  0.00000000000E+00 0.  1.
<scales pt_clust_5="13000.00000" pt_clust_6="13000.00000" pt_clust_7="13000.00000" pt_clust_8="13000.00000" pt_clust_9="23.50705"></scales>
<clustering>
<clus scale="   23.507">  2  9  1 -1</clus>
<clus scale="   92.191">  5  6 -1 -1</clus>
<clus scale="   92.335">  7  8 -1 -1</clus>
<clus scale="   95.190">  1  5  2 -1</clus>
<clus scale="   23.507">  2  5  1 -1</clus>
</clustering>
</event>
<event>
 9    1  0.1296032E-005  0.1739901E+03  0.7546771E-02  0.1174445E+00
         -3   -1    0    0    0  501 -0.00000000000E+00  0.00000000000E+00  0.34875167821E+03  0.34875167821E+03  0.00000000000E+00 0.  1.
          3   -1    0    0  502    0  0.00000000000E+00 -0.00000000000E+00 -0.15711355392E+03  0.15711355392E+03  0.00000000000E+00 0. -1.
         23    2    1    2    0    0 -0.11126262202E+03 -0.11506164835E+03  0.18154878430E+03  0.25658895651E+03  0.85201980875E+02 0.  0.
         23    2    1    2    0    0  0.89097195509E+02  0.98737096659E+02  0.75928129680E+02  0.17791421743E+03  0.90559722741E+02 0.  0.
        -11    1    4    4    0    0  0.96771199383E+02  0.48573265269E+02  0.64021795953E+02  0.12578878124E+03  0.00000000000E+00 0. -1.
         11    1    4    4    0    0 -0.76740038737E+01  0.50163831390E+02  0.11906333727E+02  0.52125436190E+02  0.00000000000E+00 0.  1.
        -11    1    3    3    0    0 -0.23777788648E+02 -0.70348758339E+02  0.11851671465E+03  0.13985901003E+03  0.00000000000E+00 0. -1.
         11    1    3    3    0    0 -0.87484833376E+02 -0.44712890011E+02  0.63032069642E+02  0.11672994649E+03  0.00000000000E+00 0.  1.
         21    1    1    2  502  501  0.22165426515E+02  0.16324551691E+02 -0.65838789687E+02  0.71362058182E+02  0.00000000000E+00 0. -1.
<scales pt_clust_5="13000.00000" pt_clust_6="13000.00000" pt_clust_7="13000.00000" pt_clust_8="13000.00000" pt_clust_9="27.52812"></scales>
<clustering>
<clus scale="   27.528">  2  9  1 -1</clus>
<clus scale="   85.202">  7  8 -1 -1</clus>
<clus scale="   90.560">  5  6 -1 -1</clus>
<clus scale="  171.263">  1  7  2 -1</clus>
<clus scale="   27.528">  2  5  1 -1</clus>
</clustering>
</event>
<event>
 9    1  0.1296032E-005  0.1081009E+03  0.7546771E-02  0.1264267E+00
         -2   -1    0    0    0  501 -0.00000000000E+00  0.00000000000E+00  0.82320023282E+02  0.82320023282E+02  0.00000000000E+00 0.  1.
          2   -1    0    0  502    0  0.00000000000E+00 -0.00000000000E+00 -0.48372274123E+03  0.48372274123E+03  0.00000000000E+00 0. -1.
         23    2    1    2    0    0  0.69698939309E+01 -0.74271926240E+02 -0.58859858700E+01  0.11802018736E+03  0.91264567851E+02 0.  0.
         23    2    1    2    0    0 -0.29357898192E+02  0.25541918169E+02 -0.77844784485E+02  0.12585600113E+03  0.90915602504E+02 0.  0.
        -11    1    3    3    0    0 -0.23176304213E+02 -0.25840180039E+01  0.25140544695E+02  0.34290891117E+02  0.00000000000E+00 0. -1.
         11    1    3    3    0    0  0.30146198144E+02 -0.71687908236E+02 -0.31026530565E+02  0.83729296239E+02  0.00000000000E+00 0.  1.
        -11    1    4    4    0    0 -0.14372075328E+02 -0.31252463607E+02 -0.93948530366E+01  0.35658607577E+02  0.00000000000E+00 0.  1.
         11    1    4    4    0    0 -0.14985822864E+02  0.56794381776E+02 -0.68449931448E+02  0.90197393552E+02  0.00000000000E+00 0. -1.
         21    1    1    2  502  501  0.22388004262E+02  0.48730008071E+02 -0.31767194759E+03  0.32216657602E+03  0.00000000000E+00 0. -1.
<scales pt_clust_5="13000.00000" pt_clust_6="13000.00000" pt_clust_7="13000.00000" pt_clust_8="13000.00000" pt_clust_9="53.62683"></scales>
<clustering>
<clus scale="   53.627">  2  9  1 -1</clus>
<clus scale="   90.916">  7  8 -1 -1</clus>
<clus scale="   91.265">  5  6 -1 -1</clus>
<clus scale="  107.806">  2  7  1 -1</clus>
<clus scale="   53.627">  2  5  1 -1</clus>
</clustering>
</event>
<event>
 9    1  0.1296032E-005  0.1025181E+03  0.7546771E-02  0.1278030E+00
         -1   -1    0    0    0  501 -0.00000000000E+00  0.00000000000E+00  0.12572425471E+03  0.12572425471E+03  0.00000000000E+00 0.  1.
          1   -1    0    0  502    0  0.00000000000E+00 -0.00000000000E+00 -0.14196828594E+03  0.14196828594E+03  0.00000000000E+00 0. -1.
         23    2    1    2    0    0 -0.14867746927E+02  0.35600184143E+02  0.21127806514E+02  0.10361440770E+03  0.93814381974E+02 0.  0.
         23    2    1    2    0    0  0.38932865337E+02 -0.27133464738E+02  0.19668771663E+02  0.10159256356E+03  0.87648134488E+02 0.  0.
        -11    1    3    3    0    0 -0.23331869166E+02 -0.93909953930E+00  0.50721487448E+02  0.55838403592E+02  0.00000000000E+00 0.  1.
         11    1    3    3    0    0  0.84641222386E+01  0.36539283682E+02 -0.29593680935E+02  0.47776004108E+02  0.00000000000E+00 0. -1.
        -13    1    4    4    0    0  0.45690870502E+02 -0.53873103198E+02  0.21807785439E+02  0.73929333834E+02  0.00000000000E+00 0. -1.
         13    1    4    4    0    0 -0.67580051647E+01  0.26739638460E+02 -0.21390137758E+01  0.27663229723E+02  0.00000000000E+00 0.  1.
         21    1    1    2  502  501 -0.24065118410E+02 -0.84667194042E+01 -0.57040609400E+02  0.62485569392E+02  0.00000000000E+00 0.  1.
<scales pt_clust_5="13000.00000" pt_clust_6="13000.00000" pt_clust_7="13000.00000" pt_clust_8="13000.00000" pt_clust_9="25.51108"></scales>
<clustering>
<clus scale="   25.511">  2  9  1 -1</clus>
<clus scale="   87.648">  7  8 -1 -1</clus>
<clus scale="   93.814">  5  6 -1 -1</clus>
<clus scale="   96.907">  2  7  1 -1</clus>
<clus scale="   25.511">  2  5  1 -1</clus>
</clustering>
</event>
<event>
 9    1  0.1296032E-005  0.9334305E+02  0.7546771E-02  0.1295317E+00
          1   -1    0    0  502    0  0.00000000000E+00  0.00000000000E+00  0.84191508641E+03  0.84191508641E+03  0.00000000000E+00 0. -1.
         -1   -1    0    0    0  501 -0.00000000000E+00 -0.00000000000E+00 -0.24071683650E+02  0.24071683650E+02  0.00000000000E+00 0.  1.
         23    2    1    2    0    0 -0.42956787517E+01 -0.28707545261E+02  0.14128172040E+03  0.17106382179E+03  0.91976793781E+02 0.  0.
         23    2    1    2    0    0  0.27000936515E+01 -0.25513134864E+02  0.31556513419E+03  0.32987372442E+03  0.92612685900E+02 0.  0.
        -13    1    4    4    0    0  0.23546069448E+02 -0.54692182446E+02  0.17720228107E+03  0.18693929663E+03  0.00000000000E+00 0. -1.
         13    1    4    4    0    0 -0.20845975796E+02  0.29179047582E+02  0.13836285312E+03  0.14293442779E+03  0.00000000000E+00 0.  1.
        -13    1    3    3    0    0  0.22395106692E+02  0.24792190813E+02  0.30792031045E+02  0.45435038296E+02  0.00000000000E+00 0.  1.
         13    1    3    3    0    0 -0.26690785444E+02 -0.53499736074E+02  0.11048968935E+03  0.12562878349E+03  0.00000000000E+00 0. -1.
         21    1    1    2  502  501  0.15955851002E+01  0.54220680125E+02  0.36099654818E+03  0.36504922386E+03  0.00000000000E+00 0.  1.
<scales pt_clust_5="13000.00000" pt_clust_6="13000.00000" pt_clust_7="13000.00000" pt_clust_8="13000.00000" pt_clust_9="54.24415"></scales>
<clustering>
<clus scale="   54.244">  1  9  2 -1</clus>
<clus scale="   91.977">  7  8 -1 -1</clus>
<clus scale="   92.613">  5  6 -1 -1</clus>
<clus scale="   92.712">  2  7  1 -1</clus>
<clus scale="   54.244">  1  5  2 -1</clus>
</clustering>
</event>
<event>
 9    1  0.1296032E-005  0.1061115E+03  0.7546771E-02  0.1270915E+00
         -2   -1    0    0    0  501 -0.00000000000E+00  0.00000000000E+00  0.85080246290E+02  0.85080246290E+02  0.00000000000E+00 0.  1.
          2   -1    0    0  502    0  0.00000000000E+00 -0.00000000000E+00 -0.36488058403E+03  0.36488058403E+03  0.00000000000E+00 0. -1.
         23    2    1    2    0    0  0.19238249168E+02  0.41595543949E+02  0.23027837923E+02  0.10903603137E+03  0.96219931976E+02 0.  0.
         23    2    1    2    0    0 -0.54155631900E+02 -0.14801065529E+02 -0.16279407117E+03  0.19413679498E+03  0.89639731972E+02 0.  0.
        -11    1    4    4    0    0  0.24009399525E+02  0.50036186088E+01 -0.29646108761E+02  0.38475696608E+02  0.00000000000E+00 0. -1.
         11    1    4    4    0    0 -0.78165031425E+02 -0.19804684138E+02 -0.13314796241E+03  0.15566109837E+03  0.00000000000E+00 0.  1.
        -13    1    3    3    0    0  0.56149511132E+02  0.29240248040E+02 -0.95958826571E+00  0.63314141512E+02  0.00000000000E+00 0. -1.
         13    1    3    3    0    0 -0.36911261964E+02  0.12355295909E+02  0.23987426188E+02  0.45721889855E+02  0.00000000000E+00 0.  1.
         21    1    1    2  502  501  0.34917382732E+02 -0.26794478420E+02 -0.14003410449E+03  0.14678800397E+03  0.00000000000E+00 0. -1.
<scales pt_clust_5="13000.00000" pt_clust_6="13000.00000" pt_clust_7="13000.00000" pt_clust_8="13000.00000" pt_clust_9="44.01327"></scales>
<clustering>
<clus scale="   44.013">  2  9  1 -1</clus>
<clus scale="   89.640">  5  6 -1 -1</clus>
<clus scale="   96.220">  7  8 -1 -1</clus>
<clus scale="  100.183">  2  5  1 -1</clus>
<clus scale="   44.013">  2  5  1 -1</clus>
</clustering>
</event>
<event>
 9    1  0.1296032E-005  0.2015763E+03  0.7546771E-02  0.1151392E+00
          1   -1    0    0  502    0  0.00000000000E+00  0.00000000000E+00  0.80770134502E+02  0.80770134502E+02  0.00000000000E+00 0. -1.
         -1   -1    0    0    0  501 -0.00000000000E+00 -0.00000000000E+00 -0.59660486870E+03  0.59660486870E+03  0.00000000000E+00 0.  1.
         23    2    1    2    0    0 -0.16822991119E+03 -0.44624460620E+02 -0.33661781953E+03  0.39620865972E+03  0.11565941425E+03 0.  0.
         23    2    1    2    0    0  0.15410428479E+03  0.14636247474E+02 -0.16998646343E+03  0.24675664312E+03  0.89616364834E+02 0.  0.
        -13    1    3    3    0    0 -0.73796504820E+02 -0.45156691674E+02 -0.26180818494E+03  0.27573279933E+03  0.00000000000E+00 0.  1.
         13    1    3    3    0    0 -0.94433406365E+02  0.53223105341E+00 -0.74809634595E+02  0.12047586039E+03  0.00000000000E+00 0. -1.
        -13    1    4    4    0    0  0.30071764581E+02 -0.30203294820E+02 -0.20153689473E+02  0.47145744690E+02  0.00000000000E+00 0.  1.
         13    1    4    4    0    0  0.12403252021E+03  0.44839542294E+02 -0.14983277395E+03  0.19961089843E+03  0.00000000000E+00 0. -1.
         21    1    1    2  502  501  0.14125626396E+02  0.29988213146E+02 -0.92304512353E+01  0.34409700359E+02  0.00000000000E+00 0.  1.
<scales pt_clust_5="13000.00000" pt_clust_6="13000.00000" pt_clust_7="13000.00000" pt_clust_8="13000.00000" pt_clust_9="33.14855"></scales>
<clustering>
<clus scale="   33.149">  1  9  2 -1</clus>
<clus scale="   89.616">  7  8 -1 -1</clus>
<clus scale="  115.659">  5  6 -1 -1</clus>
<clus scale="  187.848">  1  7  2 -1</clus>
<clus scale="   33.149">  1  5  2 -1</clus>
</clustering>
</event>
<event>
 9    1  0.1296032E-005  0.1899271E+03  0.7546771E-02  0.1158540E+00
          2   -1    0    0  502    0  0.00000000000E+00  0.00000000000E+00  0.63257870841E+03  0.63257870841E+03  0.00000000000E+00 0. -1.
         -2   -1    0    0    0  501 -0.00000000000E+00 -0.00000000000E+00 -0.14974062807E+03  0.14974062807E+03  0.00000000000E+00 0.  1.
         23    2    1    2    0    0  0.89753328890E+01  0.16599923265E+03 -0.59719115484E+02  0.19865162797E+03  0.90883412694E+02 0.  0.
         23    2    1    2    0    0 -0.29028624350E+02 -0.16848970532E+03  0.46986408983E+03  0.50821822467E+03  0.91005819300E+02 0.  0.
        -13    1    4    4    0    0 -0.60011473374E+02 -0.10218288198E+03  0.25397309024E+03  0.28025889615E+03  0.00000000000E+00 0.  1.
         13    1    4    4    0    0  0.30982849025E+02 -0.66306823340E+02  0.21589099959E+03  0.22795932852E+03  0.00000000000E+00 0. -1.
        -13    1    3    3    0    0  0.30838269765E+02  0.15622775099E+03 -0.32731966802E+02  0.16257149415E+03  0.00000000000E+00 0. -1.
         13    1    3    3    0    0 -0.21862936876E+02  0.97714816620E+01 -0.26987148682E+02  0.36080133823E+02  0.00000000000E+00 0.  1.
         21    1    1    2  502  501  0.20053291461E+02  0.24904726770E+01  0.72693105990E+02  0.75449483835E+02  0.00000000000E+00 0. -1.
<scales pt_clust_5="13000.00000" pt_clust_6="13000.00000" pt_clust_7="13000.00000" pt_clust_8="13000.00000" pt_clust_9="20.20735"></scales>
<clustering>
<clus scale="   20.207">  1  9  2 -1</clus>
<clus scale="   90.883">  7  8 -1 -1</clus>
<clus scale="   91.006">  5  6 -1 -1</clus>
<clus scale="  189.868">  2  7  1 -1</clus>
<clus scale="   20.207">  1  5  2 -1</clus>
</clustering>
</event>
<event>
 9    1  0.1296032E-005  0.1117469E+03  0.7546771E-02  0.1260191E+00
         -2   -1    0    0    0  501 -0.00000000000E+00  0.00000000000E+00  0.28737341459E+02  0.28737341459E+02  0.00000000000E+00 0.  1.
          2   -1    0    0  502    0  0.00000000000E+00 -0.00000000000E+00 -0.59716493567E+03  0.59716493567E+03  0.00000000000E+00 0. -1.
         23    2    1    2    0    0 -0.40590338977E+02  0.52513060625E+01 -0.20923833833E+03  0.23414360184E+03  0.96785289302E+02 0.  0.
         23    2    1    2    0    0  0.69331298549E+02 -0.31235521996E+02 -0.26762206044E+03  0.29233144805E+03  0.89741971731E+02 0.  0.
        -13    1    4    4    0    0  0.27985241075E+02 -0.18297860739E+02 -0.16109010741E+02  0.37114493836E+02  0.00000000000E+00 0.  1.
         13    1    4    4    0    0  0.41346057473E+02 -0.12937661257E+02 -0.25151304970E+03  0.25521695421E+03  0.00000000000E+00 0. -1.
        -13    1    3    3    0    0  0.11732718687E+02  0.37715947572E+02 -0.52166296442E+02  0.65432957090E+02  0.00000000000E+00 0.  1.
         13    1    3    3    0    0 -0.52323057663E+02 -0.32464641510E+02 -0.15707204188E+03  0.16871064475E+03  0.00000000000E+00 0. -1.
         21    1    1    2  502  501 -0.28740959572E+02  0.25984215933E+02 -0.91567195443E+02  0.99427227237E+02  0.00000000000E+00 0.  1.
<scales pt_clust_5="13000.00000" pt_clust_6="13000.00000" pt_clust_7="13000.00000" pt_clust_8="13000.00000" pt_clust_9="38.74561"></scales>
<clustering>
<clus scale="   38.746">  2  9  1 -1</clus>
<clus scale="   89.742">  5  6 -1 -1</clus>
<clus scale="   96.785">  7  8 -1 -1</clus>
<clus scale="  105.705">  2  5  1 -1</clus>
<clus scale="   38.746">  2  5  1 -1</clus>
</clustering>
</event>
<event>
 9    1  0.1296032E-005  0.9796134E+02  0.7546771E-02  0.1284801E+00
         -1   -1    0    0    0  501 -0.00000000000E+00  0.00000000000E+00  0.35274677258E+03  0.35274677258E+03  0.00000000000E+00 0.  1.
          1   -1    0    0  502    0  0.00000000000E+00 -0.00000000000E+00 -0.54519580338E+02  0.54519580338E+02  0.00000000000E+00 0. -1.
         23    2    1    2    0    0 -0.22824343599E+02 -0.16643377262E+02  0.15732537310E+03  0.18466621614E+03  0.92479109511E+02 0.  0.
         23    2    1    2    0    0 -0.19547004358E+02  0.51861203706E+02  0.12501619097E+03  0.16525922983E+03  0.92789521014E+02 0.  0.
        -11    1    3    3    0    0 -0.56858805072E+02 -0.10070840126E+02  0.12301683156E+03  0.13589513009E+03  0.00000000000E+00 0.  1.
         11    1    3    3    0    0  0.34034461473E+02 -0.65725371356E+01  0.34308541541E+02  0.48771086054E+02  0.00000000000E+00 0. -1.
        -13    1    4    4    0    0 -0.82490743572E+01 -0.25613524472E+02  0.16917480390E+02  0.31785232521E+02  0.00000000000E+00 0. -1.
         13    1    4    4    0    0 -0.11297930001E+02  0.77474728178E+02  0.10809871058E+03  0.13347399731E+03  0.00000000000E+00 0.  1.
         21    1    1    2  502  501  0.42371347957E+02 -0.35217826444E+02  0.15885628174E+02  0.57340906948E+02  0.00000000000E+00 0. -1.
<scales pt_clust_5="13000.00000" pt_clust_6="13000.00000" pt_clust_7="13000.00000" pt_clust_8="13000.00000" pt_clust_9="55.09652"></scales>
<clustering>
<clus scale="   55.097">  2  9  1 -1</clus>
<clus scale="   92.479">  5  6 -1 -1</clus>
<clus scale="   92.790">  7  8 -1 -1</clus>
<clus scale="   97.667">  1  5  2 -1</clus>
<clus scale="   55.097">  2  5  1 -1</clus>
</clustering>
</event>
<event>
 9    1  0.1296032E-005  0.9835155E+02  0.7546771E-02  0.1284873E+00
          2   -1    0    0  502    0  0.00000000000E+00  0.00000000000E+00  0.36919781468E+03  0.36919781468E+03  0.00000000000E+00 0. -1.
         -2   -1    0    0    0  501 -0.00000000000E+00 -0.00000000000E+00 -0.87706272576E+02  0.87706272576E+02  0.00000000000E+00 0.  1.
         23    2    1    2    0    0  0.81415740603E+01  0.17880916568E+02 -0.45661511890E+02  0.10875906512E+03  0.96734420830E+02 0.  0.
         23    2    1    2    0    0  0.12260515411E+02 -0.71202788613E+01  0.25505523677E+03  0.27244738791E+03  0.94727961896E+02 0.  0.
        -13    1    3    3    0    0  0.44616982527E+02  0.34274474350E+02 -0.38394071701E+02  0.68114018114E+02  0.00000000000E+00 0.  1.
         13    1    3    3    0    0 -0.36475408467E+02 -0.16393557783E+02 -0.72674401887E+01  0.40645047011E+02  0.00000000000E+00 0. -1.
        -13    1    4    4    0    0 -0.34064337570E+02 -0.25243582299E+02  0.15521187607E+03  0.16089855194E+03  0.00000000000E+00 0. -1.
         13    1    4    4    0    0  0.46324852981E+02  0.18123303438E+02  0.99843360698E+02  0.11154883597E+03  0.00000000000E+00 0.  1.
         21    1    1    2  502  501 -0.20402089471E+02 -0.10760637706E+02  0.72097817226E+02  0.75697634225E+02  0.00000000000E+00 0.  1.
<scales pt_clust_5="13000.00000" pt_clust_6="13000.00000" pt_clust_7="13000.00000" pt_clust_8="13000.00000" pt_clust_9="23.06592"></scales>
<clustering>
<clus scale="   23.066">  1  9  2 -1</clus>
<clus scale="   94.728">  7  8 -1 -1</clus>
<clus scale="   96.379">  1  7  2 -1</clus>
<clus scale="   96.734">  5  6 -1 -1</clus>
<clus scale="   23.066">  1  5  2 -1</clus>
</clustering>
</event>
<event>
 9    1  0.1296032E-005  0.9462602E+02  0.7546771E-02  0.1292280E+00
          2   -1    0    0  502    0  0.00000000000E+00  0.00000000000E+00  0.29037986868E+03  0.29037986868E+03  0.00000000000E+00 0.  1.
         -2   -1    0    0    0  501 -0.00000000000E+00 -0.00000000000E+00 -0.15085315563E+03  0.15085315563E+03  0.00000000000E+00 0. -1.
         23    2    1    2    0    0  0.13735354081E+02 -0.23240330670E+02 -0.11323247212E+03  0.14746528427E+03  0.90529798413E+02 0.  0.
         23    2    1    2    0    0  0.22519101888E+02  0.24250469505E+02  0.23332197994E+03  0.25261909601E+03  0.91005857649E+02 0.  0.
        -11    1    3    3    0    0  0.40672226003E+01  0.32465288506E+02 -0.19757391178E+02  0.38221613828E+02  0.00000000000E+00 0.  1.
         11    1    3    3    0    0  0.96681314803E+01 -0.55705619176E+02 -0.93475080945E+02  0.10924367044E+03  0.00000000000E+00 0. -1.
        -13    1    4    4    0    0  0.87137654043E+01 -0.32624841154E+02  0.51277579151E+02  0.61397883444E+02  0.00000000000E+00 0. -1.
         13    1    4    4    0    0  0.13805336484E+02  0.56875310659E+02  0.18204440078E+03  0.19122121256E+03  0.00000000000E+00 0.  1.
         21    1    1    2  502  501 -0.36254455969E+02 -0.10101388354E+01  0.19437205243E+02  0.41148644032E+02  0.00000000000E+00 0.  1.
<scales pt_clust_5="13000.00000" pt_clust_6="13000.00000" pt_clust_7="13000.00000" pt_clust_8="13000.00000" pt_clust_9="36.26853"></scales>
<clustering>
<clus scale="   36.269">  1  9  2 -1</clus>
<clus scale="   90.530">  5  6 -1 -1</clus>
<clus scale="   91.006">  7  8 -1 -1</clus>
<clus scale="   94.168">  2  5  1 -1</clus>
<clus scale="   36.269">  1  5  2 -1</clus>
</clustering>
</event>
<event>
 9    1  0.1296032E-005  0.2133476E+03  0.7546771E-02  0.1139000E+00
         -1   -1    0    0    0  501 -0.00000000000E+00  0.00000000000E+00  0.38654597803E+03  0.38654597803E+03  0.00000000000E+00 0.  1.
          1   -1    0    0  502    0  0.00000000000E+00 -0.00000000000E+00 -0.38530105731E+03  0.38530105731E+03  0.00000000000E+00 0. -1.
         23    2    1    2    0    0 -0.47165176651E+02 -0.19891264640E+03  0.15988018155E+03  0.27640861177E+03  0.95127563933E+02 0.  0.
         23    2    1    2    0    0 -0.14968993988E+03  0.17070602707E+03 -0.90418841406E+01  0.24658961680E+03  0.95796960624E+02 0.  0.
        -11    1    3    3    0    0 -0.58803150795E+02 -0.81840211787E+02  0.39944964508E+02  0.10840309497E+03  0.00000000000E+00 0. -1.
         11    1    3    3    0    0  0.11637974143E+02 -0.11707243462E+03  0.11993521704E+03  0.16800551680E+03  0.00000000000E+00 0.  1.
        -13    1    4    4    0    0 -0.84482556487E+02  0.93786005653E+02  0.42695657012E+02  0.13325177798E+03  0.00000000000E+00 0.  1.
         13    1    4    4    0    0 -0.65207383398E+02  0.76920021422E+02 -0.51737541153E+02  0.11333783883E+03  0.00000000000E+00 0. -1.
         21    1    1    2  502  501  0.19685511654E+03  0.28206619328E+02 -0.14959337669E+03  0.24884880677E+03  0.00000000000E+00 0. -1.
<scales pt_clust_5="13000.00000" pt_clust_6="13000.00000" pt_clust_7="13000.00000" pt_clust_8="13000.00000" pt_clust_9="198.86566"></scales>
<clustering>
<clus scale="   95.128">  5  6 -1 -1</clus>
<clus scale="   95.797">  7  8 -1 -1</clus>
<clus scale="  198.866">  2  9  1 -1</clus>
<clus scale="  213.048">  1  5  2 -1</clus>
<clus scale="  198.866">  2  5  1 -1</clus>
</clustering>
</event>
<event>
 9    1  0.1296032E-005  0.1122132E+03  0.7546771E-02  0.1256628E+00
          2   -1    0    0  502    0  0.00000000000E+00  0.00000000000E+00  0.43882253431E+03  0.43882253431E+03  0.00000000000E+00 0. -1.
         -2   -1    0    0    0  501 -0.00000000000E+00 -0.00000000000E+00 -0.39576086581E+02  0.39576086581E+02  0.00000000000E+00 0.  1.
         23    2    1    2    0    0 -0.63751308080E+02 -0.40809724286E+02  0.16989432135E+03  0.20808420296E+03  0.93302155477E+02 0.  0.
         23    2    1    2    0    0  0.30573022606E+02  0.44378532892E+02  0.19155196096E+03  0.21989232428E+03  0.93575192435E+02 0.  0.
        -11    1    4    4    0    0 -0.22353748991E+02 -0.28277494180E+01  0.10788000417E+03  0.11020790153E+03  0.00000000000E+00 0.  1.
         11    1    4    4    0    0  0.52926771598E+02  0.47206282310E+02  0.83671956785E+02  0.10968442275E+03  0.00000000000E+00 0. -1.
        -13    1    3    3    0    0 -0.37613621391E+02  0.91146272296E+01  0.12131690246E+02  0.40559078539E+02  0.00000000000E+00 0.  1.
         13    1    3    3    0    0 -0.26137686689E+02 -0.49924351516E+02  0.15776263111E+03  0.16752512443E+03  0.00000000000E+00 0. -1.
         21    1    1    2  502  501  0.33178285473E+02 -0.35688086053E+01  0.37800165423E+02  0.50422093648E+02  0.00000000000E+00 0. -1.
<scales pt_clust_5="13000.00000" pt_clust_6="13000.00000" pt_clust_7="13000.00000" pt_clust_8="13000.00000" pt_clust_9="33.36967"></scales>
<clustering>
<clus scale="   33.370">  2  9  1 -1</clus>
<clus scale="   93.302">  7  8 -1 -1</clus>
<clus scale="   93.575">  5  6 -1 -1</clus>
<clus scale="  111.986">  2  7  1 -1</clus>
<clus scale="  112.213">  1  5  2 -1</clus>
</clustering>
</event>
<event>
 9    1  0.1296032E-005  0.1184599E+03  0.7546771E-02  0.1245771E+00
         -1   -1    0    0    0  501 -0.00000000000E+00  0.00000000000E+00  0.27509075497E+03  0.27509075497E+03  0.00000000000E+00 0.  1.
          1   -1    0    0  502    0  0.00000000000E+00 -0.00000000000E+00 -0.13005401577E+03  0.13005401577E+03  0.00000000000E+00 0. -1.
         23    2    1    2    0    0  0.20997080384E+02 -0.77474932130E+02  0.20108944226E+03  0.23476517856E+03  0.90744050934E+02 0.  0.
         23    2    1    2    0    0 -0.24547320752E+02  0.56406684503E+02  0.50798436196E+00  0.10991814473E+03  0.91090369854E+02 0.  0.
        -11    1    3    3    0    0  0.47712610504E+02 -0.80950941283E+02  0.14983771147E+03  0.17686403782E+03  0.00000000000E+00 0.  1.
         11    1    3    3    0    0 -0.26715530120E+02  0.34760091535E+01  0.51251730793E+02  0.57901140736E+02  0.00000000000E+00 0. -1.
        -11    1    4    4    0    0 -0.15278595044E+02 -0.22903491327E+02  0.10456802621E+02  0.29450808182E+02  0.00000000000E+00 0.  1.
         11    1    4    4    0    0 -0.92687257079E+01  0.79310175830E+02 -0.99488182595E+01  0.80467336548E+02  0.00000000000E+00 0. -1.
         21    1    1    2  502  501  0.35502403678E+01  0.21068247627E+02 -0.56560687426E+02  0.60461447443E+02  0.00000000000E+00 0. -1.
<scales pt_clust_5="13000.00000" pt_clust_6="13000.00000" pt_clust_7="13000.00000" pt_clust_8="13000.00000" pt_clust_9="21.36528"></scales>
<clustering>
<clus scale="   21.365">  2  9  1 -1</clus>
<clus scale="   90.744">  5  6 -1 -1</clus>
<clus scale="   91.090">  7  8 -1 -1</clus>
<clus scale="  118.194">  1  5  2 -1</clus>
<clus scale="   21.365">  2  5  1 -1</clus>
</clustering>
</event>
<event>
 9    1  0.1296032E-005  0.1536589E+03  0.7546771E-02  0.1196215E+00
         -1   -1    0    0    0  501 -0.00000000000E+00  0.00000000000E+00  0.56904210644E+03  0.56904210644E+03  0.00000000000E+00 0.  1.
          1   -1    0    0  502    0  0.00000000000E+00 -0.00000000000E+00 -0.31724491757E+03  0.31724491757E+03  0.00000000000E+00 0. -1.
         23    2    1    2    0    0  0.12386842007E+03  0.78435743235E+01  0.51961656029E+03  0.54163025866E+03  0.89202355469E+02 0.  0.
         23    2    1    2    0    0 -0.14367599584E+03  0.11272641509E+02 -0.15765645483E+03  0.23110660923E+03  0.88231756476E+02 0.  0.
        -11    1    4    4    0    0 -0.33452470136E+02 -0.10641046361E+02  0.27931023773E+01  0.35215068462E+02  0.00000000000E+00 0.  1.
         11    1    4    4    0    0 -0.11022352570E+03  0.21913687870E+02 -0.16044955721E+03  0.19589154077E+03  0.00000000000E+00 0. -1.
        -13    1    3    3    0    0 -0.26798663391E+01  0.22464468733E+02  0.12281166555E+03  0.12487809750E+03  0.00000000000E+00 0. -1.
         13    1    3    3    0    0  0.12654828641E+03 -0.14620894410E+02  0.39680489474E+03  0.41675216117E+03  0.00000000000E+00 0.  1.
         21    1    1    2  502  501  0.19807575770E+02 -0.19116215833E+02 -0.11016291658E+03  0.11355015612E+03  0.00000000000E+00 0. -1.
<scales pt_clust_5="13000.00000" pt_clust_6="13000.00000" pt_clust_7="13000.00000" pt_clust_8="13000.00000" pt_clust_9="27.52762"></scales>
<clustering>
<clus scale="   27.528">  2  9  1 -1</clus>
<clus scale="   88.232">  5  6 -1 -1</clus>
<clus scale="   89.202">  7  8 -1 -1</clus>
<clus scale="  153.097">  2  5  1 -1</clus>
<clus scale="   27.528">  2  5  1 -1</clus>
</clustering>
</event>
<event>
 9    1  0.1296032E-005  0.1794495E+03  0.7546771E-02  0.1168647E+00
          1   -1    0    0  502    0  0.00000000000E+00  0.00000000000E+00  0.10813535833E+04  0.10813535833E+04  0.00000000000E+00 0. -1.
         -1   -1    0    0    0  501 -0.00000000000E+00 -0.00000000000E+00 -0.41844563530E+02  0.41844563530E+02  0.00000000000E+00 0.  1.
         23    2    1    2    0    0 -0.39785227085E+02 -0.15629740859E+03  0.35489145468E+03  0.40072027588E+03  0.92828070461E+02 0.  0.
         23    2    1    2    0    0 -0.61853331122E+01  0.14784403094E+03  0.43055592704E+03  0.46415236326E+03  0.90348736452E+02 0.  0.
        -13    1    4    4    0    0 -0.25072426555E+02  0.12343217401E+03  0.40483209645E+03  0.42397305866E+03  0.00000000000E+00 0.  1.
         13    1    4    4    0    0  0.18887093442E+02  0.24411856936E+02  0.25723830588E+02  0.40179304597E+02  0.00000000000E+00 0. -1.
        -13    1    3    3    0    0 -0.58697548145E+02 -0.13392715066E+03  0.23083374343E+03  0.27325098527E+03  0.00000000000E+00 0. -1.
         13    1    3    3    0    0  0.18912321061E+02 -0.22370257928E+02  0.12405771125E+03  0.12746929061E+03  0.00000000000E+00 0.  1.
         21    1    1    2  502  501  0.45970560197E+02  0.84533776487E+01  0.25406163804E+03  0.25832550769E+03  0.00000000000E+00 0. -1.
<scales pt_clust_5="13000.00000" pt_clust_6="13000.00000" pt_clust_7="13000.00000" pt_clust_8="13000.00000" pt_clust_9="46.74133"></scales>
<clustering>
<clus scale="   46.741">  1  9  2 -1</clus>
<clus scale="   90.349">  5  6 -1 -1</clus>
<clus scale="   92.828">  7  8 -1 -1</clus>
<clus scale="  178.180">  1  5  2 -1</clus>
<clus scale="   46.741">  1  5  2 -1</clus>
</clustering>
</event>
<event>
 9    1  0.1296032E-005  0.9331784E+02  0.7546771E-02  0.1299937E+00
         -1   -1    0    0    0  501 -0.00000000000E+00  0.00000000000E+00  0.21637283772E+02  0.21637283772E+02  0.00000000000E+00 0.  1.
          1   -1    0    0  502    0  0.00000000000E+00 -0.00000000000E+00 -0.57713560474E+03  0.57713560474E+03  0.00000000000E+00 0. -1.
         23    2    1    2    0    0 -0.23817067044E+02  0.19197166387E+02 -0.19278228683E+03  0.21497578756E+03  0.90076607634E+02 0.  0.
         23    2    1    2    0    0  0.23480834220E+02  0.62172747015E+01 -0.17779026093E+03  0.19713283424E+03  0.81620912606E+02 0.  0.
        -13    1    3    3    0    0 -0.28322086503E+02 -0.15380403165E+02 -0.18338328814E+02  0.37080880371E+02  0.00000000000E+00 0.  1.
         13    1    3    3    0    0  0.45050194593E+01  0.34577569552E+02 -0.17444395802E+03  0.17789490719E+03  0.00000000000E+00 0. -1.
        -13    1    4    4    0    0 -0.16537753980E+02  0.31174841530E+02 -0.52487238072E+02  0.63247752620E+02  0.00000000000E+00 0.  1.
         13    1    4    4    0    0  0.40018588200E+02 -0.24957566829E+02 -0.12530302286E+03  0.13388508162E+03  0.00000000000E+00 0. -1.
         21    1    1    2  502  501  0.33623282367E+00 -0.25414441089E+02 -0.18492577320E+03  0.18666426670E+03  0.00000000000E+00 0.  1.
<scales pt_clust_5="13000.00000" pt_clust_6="13000.00000" pt_clust_7="13000.00000" pt_clust_8="13000.00000" pt_clust_9="25.41667"></scales>
<clustering>
<clus scale="   25.417">  2  9  1 -1</clus>
<clus scale="   81.621">  7  8 -1 -1</clus>
<clus scale="   85.184">  2  7  1 -1</clus>
<clus scale="   90.077">  5  6 -1 -1</clus>
<clus scale="   25.417">  2  5  1 -1</clus>
</clustering>
</event>
<event>
 9    1  0.1296032E-005  0.1098942E+03  0.7546771E-02  0.1260783E+00
          1   -1    0    0  502    0  0.00000000000E+00  0.00000000000E+00  0.39227045859E+02  0.39227045859E+02  0.00000000000E+00 0. -1.
         -1   -1    0    0    0  501 -0.00000000000E+00 -0.00000000000E+00 -0.54549742964E+03  0.54549742964E+03  0.00000000000E+00 0.  1.
         23    2    1    2    0    0  0.68768528164E+02 -0.34239282057E+01 -0.32459843799E+03  0.34450314977E+03  0.92614472437E+02 0.  0.
         23    2    1    2    0    0 -0.39857123142E+02  0.30838442462E+02 -0.16748125534E+03  0.19792711067E+03  0.92658353362E+02 0.  0.
        -13    1    4    4    0    0 -0.14936118944E+02  0.56914012035E+02 -0.14216258032E+03  0.15385867430E+03  0.00000000000E+00 0.  1.
         13    1    4    4    0    0 -0.24921004199E+02 -0.26075569573E+02 -0.25318675023E+02  0.44068436366E+02  0.00000000000E+00 0. -1.
        -13    1    3    3    0    0  0.35835700351E+02 -0.37330679730E+02 -0.79288087870E+02  0.94680398958E+02  0.00000000000E+00 0. -1.
         13    1    3    3    0    0  0.32932827813E+02  0.33906751524E+02 -0.24531035012E+03  0.24982275081E+03  0.00000000000E+00 0.  1.
         21    1    1    2  502  501 -0.28911405021E+02 -0.27414514257E+02 -0.14190690450E+02  0.42294215062E+02  0.00000000000E+00 0. -1.
<scales pt_clust_5="13000.00000" pt_clust_6="13000.00000" pt_clust_7="13000.00000" pt_clust_8="13000.00000" pt_clust_9="39.84250"></scales>
<clustering>
<clus scale="   39.843">  1  9  2 -1</clus>
<clus scale="   92.614">  7  8 -1 -1</clus>
<clus scale="   92.658">  5  6 -1 -1</clus>
<clus scale="  109.857">  2  7  1 -1</clus>
<clus scale="   39.843">  1  5  2 -1</clus>
</clustering>
</event>
<event>
 9    1  0.1296032E-005  0.1012729E+03  0.7546771E-02  0.1280431E+00
         -2   -1    0    0    0  501 -0.00000000000E+00  0.00000000000E+00  0.18050699341E+03  0.18050699341E+03  0.00000000000E+00 0.  1.
          2   -1    0    0  502    0  0.00000000000E+00 -0.00000000000E+00 -0.12490966181E+03  0.12490966181E+03  0.00000000000E+00 0. -1.
         23    2    1    2    0    0  0.45266929755E+02  0.38011723204E+01  0.69415254827E+02  0.12450134901E+03  0.92836223865E+02 0.  0.
         23    2    1    2    0    0 -0.34356138487E+02  0.18054788868E+02  0.53482444897E+02  0.10931874236E+03  0.87085566351E+02 0.  0.
        -11    1    4    4    0    0 -0.49214819167E+02  0.46669348989E+01  0.68381023053E+02  0.84379162242E+02  0.00000000000E+00 0.  1.
         11    1    4    4    0    0  0.14858680680E+02  0.13387853970E+02 -0.14898578156E+02  0.24939580119E+02  0.00000000000E+00 0. -1.
        -13    1    3    3    0    0  0.44675085924E+02 -0.39697996081E+02  0.42679866602E+02  0.73439534368E+02  0.00000000000E+00 0. -1.
         13    1    3    3    0    0  0.59184383138E+00  0.43499168401E+02  0.26735388225E+02  0.51061814639E+02  0.00000000000E+00 0.  1.
         21    1    1    2  502  501 -0.10910791268E+02 -0.21855961189E+02 -0.67300368126E+02  0.71596563852E+02  0.00000000000E+00 0. -1.
<scales pt_clust_5="13000.00000" pt_clust_6="13000.00000" pt_clust_7="13000.00000" pt_clust_8="13000.00000" pt_clust_9="24.42803"></scales>
<clustering>
<clus scale="   24.428">  2  9  1 -1</clus>
<clus scale="   87.086">  5  6 -1 -1</clus>
<clus scale="   92.836">  7  8 -1 -1</clus>
<clus scale="   96.029">  2  5  1 -1</clus>
<clus scale="   24.428">  2  5  1 -1</clus>
</clustering>
</event>
<event>
 9    1  0.1296032E-005  0.1177096E+03  0.7546771E-02  0.1247614E+00
         -3   -1    0    0    0  501 -0.00000000000E+00  0.00000000000E+00  0.82603205800E+02  0.82603205800E+02  0.00000000000E+00 0.  1.
          3   -1    0    0  502    0  0.00000000000E+00 -0.00000000000E+00 -0.33105072078E+03  0.33105072078E+03  0.00000000000E+00 0. -1.
         23    2    1    2    0    0  0.60856013541E+02 -0.47078468703E+02  0.11005517690E+02  0.12006442562E+03  0.91512339503E+02 0.  0.
         23    2    1    2    0    0 -0.35731321251E+02  0.53214487566E+02 -0.22549737975E+03  0.25090592970E+03  0.89421520218E+02 0.  0.
        -11    1    3    3    0    0  0.26489503250E+02 -0.38874289730E+02  0.49175064245E+02  0.68052120672E+02  0.00000000000E+00 0.  1.
         11    1    3    3    0    0  0.34366510291E+02 -0.82041789726E+01 -0.38169546555E+02  0.52012304952E+02  0.00000000000E+00 0. -1.
        -13    1    4    4    0    0 -0.30104625589E+02 -0.20165753835E+02 -0.67574626853E+02  0.76676439040E+02  0.00000000000E+00 0.  1.
         13    1    4    4    0    0 -0.56266956621E+01  0.73380241401E+02 -0.15792275290E+03  0.17422949066E+03  0.00000000000E+00 0. -1.
         21    1    1    2  502  501 -0.25124692290E+02 -0.61360188629E+01 -0.33955652917E+02  0.42683571256E+02  0.00000000000E+00 0. -1.
<scales pt_clust_5="13000.00000" pt_clust_6="13000.00000" pt_clust_7="13000.00000" pt_clust_8="13000.00000" pt_clust_9="25.86312"></scales>
<clustering>
<clus scale="   25.863">  2  9  1 -1</clus>
<clus scale="   89.422">  7  8 -1 -1</clus>
<clus scale="   91.512">  5  6 -1 -1</clus>
<clus scale="  116.092">  2  7  1 -1</clus>
<clus scale="   25.863">  2  5  1 -1</clus>
</clustering>
</event>
<event>
 9    1  0.1296032E-005  0.1021630E+03  0.7546771E-02  0.1282488E+00
          1   -1    0    0  502    0  0.00000000000E+00  0.00000000000E+00  0.31226227868E+03  0.31226227868E+03  0.00000000000E+00 0. -1.
         -1   -1    0    0    0  501 -0.00000000000E+00 -0.00000000000E+00 -0.44434742252E+02  0.44434742252E+02  0.00000000000E+00 0.  1.
         23    2    1    2    0    0  0.18446631619E+02  0.23015870399E+02  0.62506385975E+02  0.11205298143E+03  0.88197584162E+02 0.  0.
         23    2    1    2    0    0  0.83653739940E+01 -0.14773828339E+02  0.17972264064E+03  0.20666906607E+03  0.10061625030E+03 0.  0.
        -13    1    4    4    0    0 -0.18095059318E+02 -0.52122168689E+02  0.83032525291E+02  0.99692286045E+02  0.00000000000E+00 0.  1.
         13    1    4    4    0    0  0.26460433312E+02  0.37348340350E+02  0.96690115351E+02  0.10697678003E+03  0.00000000000E+00 0. -1.
        -13    1    3    3    0    0 -0.35625627186E+02  0.10738408605E+02  0.20441533401E+02  0.42454151971E+02  0.00000000000E+00 0.  1.
         13    1    3    3    0    0  0.54072258805E+02  0.12277461794E+02  0.42064852574E+02  0.69598829462E+02  0.00000000000E+00 0. -1.
         21    1    1    2  502  501 -0.26812005613E+02 -0.82420420599E+01  0.25598509807E+02  0.37974973425E+02  0.00000000000E+00 0.  1.
<scales pt_clust_5="13000.00000" pt_clust_6="13000.00000" pt_clust_7="13000.00000" pt_clust_8="13000.00000" pt_clust_9="28.05022"></scales>
<clustering>
<clus scale="   28.050">  2  9  1 -1</clus>
<clus scale="   88.198">  7  8 -1 -1</clus>
<clus scale="   89.958">  2  7  1 -1</clus>
<clus scale="  100.616">  5  6 -1 -1</clus>
<clus scale="  102.163">  1  5  2 -1</clus>
</clustering>
</event>
<event>
 9    1  0.1296032E-005  0.1037878E+03  0.7546771E-02  0.1274036E+00
         -1   -1    0    0    0  501 -0.00000000000E+00  0.00000000000E+00  0.15518447061E+03  0.15518447061E+03  0.00000000000E+00 0.  1.
          1   -1    0    0  502    0  0.00000000000E+00 -0.00000000000E+00 -0.17762791869E+03  0.17762791869E+03  0.00000000000E+00 0. -1.
         23    2    1    2    0    0  0.39382432395E+02 -0.46784962188E+01  0.93064222100E+02  0.13607039981E+03  0.91001867893E+02 0.  0.
         23    2    1    2    0    0 -0.54052086832E+02  0.24461371657E+02 -0.41718273890E+02  0.11895101362E+03  0.94281188312E+02 0.  0.
        -11    1    3    3    0    0 -0.29699325318E+02 -0.20691215951E+01  0.22791688627E+02  0.37493896290E+02  0.00000000000E+00 0.  1.
         11    1    3    3    0    0  0.69081757714E+02 -0.26093746237E+01  0.70272533473E+02  0.98576503516E+02  0.00000000000E+00 0. -1.
        -13    1    4    4    0    0  0.23206004558E+02  0.30570611685E+01 -0.29812983860E+02  0.37903539112E+02  0.00000000000E+00 0. -1.
         13    1    4    4    0    0 -0.77258091390E+02  0.21404310488E+02 -0.11905290029E+02  0.81047474504E+02  0.00000000000E+00 0.  1.
         21    1    1    2  502  501  0.14669654437E+02 -0.19782875438E+02 -0.73789396297E+02  0.77790975876E+02  0.00000000000E+00 0. -1.
<scales pt_clust_5="13000.00000" pt_clust_6="13000.00000" pt_clust_7="13000.00000" pt_clust_8="13000.00000" pt_clust_9="24.62846"></scales>
<clustering>
<clus scale="   24.628">  2  9  1 -1</clus>
<clus scale="   91.002">  5  6 -1 -1</clus>
<clus scale="   94.281">  7  8 -1 -1</clus>
<clus scale="  100.818">  1  5  2 -1</clus>
<clus scale="   24.628">  2  5  1 -1</clus>
</clustering>
</event>
<event>
 9    1  0.1296032E-005  0.1005720E+03  0.7546771E-02  0.1279608E+00
         -1   -1    0    0    0  501 -0.00000000000E+00  0.00000000000E+00  0.35172273745E+02  0.35172273745E+02  0.00000000000E+00 0.  1.
          1   -1    0    0  502    0  0.00000000000E+00 -0.00000000000E+00 -0.43787481462E+03  0.43787481462E+03  0.00000000000E+00 0. -1.
         23    2    1    2    0    0  0.13446395958E+02  0.32897845768E+02 -0.10137385800E+03  0.14106350680E+03  0.91428551576E+02 0.  0.
         23    2    1    2    0    0  0.24907194539E+01 -0.48113036863E+02 -0.17474506610E+03  0.20349659497E+03  0.92487610202E+02 0.  0.
        -11    1    3    3    0    0 -0.37802462749E+02  0.19935857956E+02 -0.61304624729E+02  0.74730995146E+02  0.00000000000E+00 0. -1.
         11    1    3    3    0    0  0.51248858707E+02  0.12961987812E+02 -0.40069233270E+02  0.66332511649E+02  0.00000000000E+00 0.  1.
        -11    1    4    4    0    0  0.28957776343E+02 -0.47318412384E+02 -0.46028630588E+02  0.72084809739E+02  0.00000000000E+00 0.  1.
         11    1    4    4    0    0 -0.26467056889E+02 -0.79462447982E+00 -0.12871643551E+03  0.13141178523E+03  0.00000000000E+00 0. -1.
         21    1    1    2  502  501 -0.15937115411E+02  0.15215191095E+02 -0.12658361678E+03  0.12848698660E+03  0.00000000000E+00 0. -1.
<scales pt_clust_5="13000.00000" pt_clust_6="13000.00000" pt_clust_7="13000.00000" pt_clust_8="13000.00000" pt_clust_9="22.03392"></scales>
<clustering>
<clus scale="   22.034">  2  9  1 -1</clus>
<clus scale="   91.429">  5  6 -1 -1</clus>
<clus scale="   92.488">  7  8 -1 -1</clus>
<clus scale="   99.599">  1  5  2 -1</clus>
<clus scale="   22.034">  2  5  1 -1</clus>
</clustering>
</event>
<event>
 9    1  0.1296032E-005  0.9609281E+02  0.7546771E-02  0.1289552E+00
         -1   -1    0    0    0  501 -0.00000000000E+00  0.00000000000E+00  0.58850191281E+02  0.58850191281E+02  0.00000000000E+00 0.  1.
          1   -1    0    0  502    0  0.00000000000E+00 -0.00000000000E+00 -0.21164498739E+03  0.21164498739E+03  0.00000000000E+00 0. -1.
         23    2    1    2    0    0 -0.25271962218E+02 -0.16081770602E+02 -0.36047763278E+02  0.10026530429E+03  0.88636305128E+02 0.  0.
         23    2    1    2    0    0  0.40541819319E+02  0.22476430881E+01 -0.76613213450E+02  0.12511585131E+03  0.90198119491E+02 0.  0.
        -11    1    4    4    0    0 -0.11256700741E+02 -0.33761366721E+02 -0.31888748130E+02  0.47785305814E+02  0.00000000000E+00 0. -1.
         11    1    4    4    0    0  0.51798520061E+02  0.36009009810E+02 -0.44724465320E+02  0.77330545492E+02  0.00000000000E+00 0.  1.
        -13    1    3    3    0    0 -0.24055535083E+01 -0.26195993925E+02  0.23755911781E+02  0.35445170756E+02  0.00000000000E+00 0.  1.
         13    1    3    3    0    0 -0.22866408710E+02  0.10114223323E+02 -0.59803675059E+02  0.64820133533E+02  0.00000000000E+00 0. -1.
         21    1    1    2  502  501 -0.15269857101E+02  0.13834127514E+02 -0.40133819379E+02  0.45114023074E+02  0.00000000000E+00 0. -1.
<scales pt_clust_5="13000.00000" pt_clust_6="13000.00000" pt_clust_7="13000.00000" pt_clust_8="13000.00000" pt_clust_9="20.60465"></scales>
<clustering>
<clus scale="   20.605">  2  9  1 -1</clus>
<clus scale="   88.636">  7  8 -1 -1</clus>
<clus scale="   90.198">  5  6 -1 -1</clus>
<clus scale="   94.628">  1  7  2 -1</clus>
<clus scale="   20.605">  2  5  1 -1</clus>
</clustering>
</event>
<event>
 9    1  0.1296032E-005  0.9177061E+02  0.7546771E-02  0.1300383E+00
          2   -1    0    0  502    0  0.00000000000E+00  0.00000000000E+00  0.28065396288E+03  0.28065396288E+03  0.00000000000E+00 0. -1.
         -2   -1    0    0    0  501 -0.00000000000E+00 -0.00000000000E+00 -0.66801867324E+02  0.66801867324E+02  0.00000000000E+00 0.  1.
         23    2    1    2    0    0  0.40485055305E+01 -0.85125620810E+01 -0.14359115673E+02  0.93132194251E+02  0.91534514216E+02 0.  0.
         23    2    1    2    0    0 -0.67105777232E+01 -0.11961152818E+02  0.16435946934E+03  0.18721697032E+03  0.88589264494E+02 0.  0.
        -11    1    4    4    0    0 -0.17542749596E+02 -0.44251489623E+02  0.55315091860E+02  0.72977405988E+02  0.00000000000E+00 0.  1.
         11    1    4    4    0    0  0.10832171872E+02  0.32290336806E+02  0.10904437748E+03  0.11423956433E+03  0.00000000000E+00 0. -1.
        -13    1    3    3    0    0 -0.40064907065E+02 -0.16175919663E+02 -0.20702696645E+02  0.47910946593E+02  0.00000000000E+00 0.  1.
         13    1    3    3    0    0  0.44113412595E+02  0.76633575817E+01  0.63435809719E+01  0.45221247658E+02  0.00000000000E+00 0. -1.
         21    1    1    2  502  501  0.26620721927E+01  0.20473714899E+02  0.63851741891E+02  0.67106665635E+02  0.00000000000E+00 0. -1.
<scales pt_clust_5="13000.00000" pt_clust_6="13000.00000" pt_clust_7="13000.00000" pt_clust_8="13000.00000" pt_clust_9="20.64606"></scales>
<clustering>
<clus scale="   20.646">  1  9  2 -1</clus>
<clus scale="   88.589">  5  6 -1 -1</clus>
<clus scale="   88.833">  1  5  2 -1</clus>
<clus scale="   91.535">  7  8 -1 -1</clus>
<clus scale="   20.646">  1  5  2 -1</clus>
</clustering>
</event>
<event>
 9    1  0.1296032E-005  0.9407791E+02  0.7546771E-02  0.1294788E+00
         -2   -1    0    0    0  501 -0.00000000000E+00  0.00000000000E+00  0.85705439388E+02  0.85705439388E+02  0.00000000000E+00 0.  1.
          2   -1    0    0  502    0  0.00000000000E+00 -0.00000000000E+00 -0.20391993189E+03  0.20391993189E+03  0.00000000000E+00 0. -1.
         23    2    1    2    0    0  0.25544332475E+02  0.15736803233E+02  0.19853524129E+02  0.96353450216E+02  0.89384926305E+02 0.  0.
         23    2    1    2    0    0  0.56143848446E+01  0.12051492871E+02 -0.87671607662E+02  0.12782841029E+03  0.92070798243E+02 0.  0.
        -11    1    3    3    0    0  0.31910617390E+02 -0.16715162777E+02  0.42919398126E+02  0.56033551595E+02  0.00000000000E+00 0. -1.
         11    1    3    3    0    0 -0.63662849147E+01  0.32451966010E+02 -0.23065873997E+02  0.40319898621E+02  0.00000000000E+00 0.  1.
        -11    1    4    4    0    0  0.23170439991E+02 -0.57734643072E+01  0.10814861016E+02  0.26213801675E+02  0.00000000000E+00 0.  1.
         11    1    4    4    0    0 -0.17556055146E+02  0.17824957178E+02 -0.98486468679E+02  0.10161460861E+03  0.00000000000E+00 0. -1.
         21    1    1    2  502  501 -0.31158717320E+02 -0.27788296105E+02 -0.50396408965E+02  0.65443510770E+02  0.00000000000E+00 0.  1.
<scales pt_clust_5="13000.00000" pt_clust_6="13000.00000" pt_clust_7="13000.00000" pt_clust_8="13000.00000" pt_clust_9="41.74991"></scales>
<clustering>
<clus scale="   41.750">  2  9  1 -1</clus>
<clus scale="   89.385">  5  6 -1 -1</clus>
<clus scale="   91.451">  1  5  2 -1</clus>
<clus scale="   92.071">  7  8 -1 -1</clus>
<clus scale="   41.750">  2  5  1 -1</clus>
</clustering>
</event>
<event>
 9    1  0.1296032E-005  0.2117158E+03  0.7546771E-02  0.1140439E+00
         -2   -1    0    0    0  501 -0.00000000000E+00  0.00000000000E+00  0.25434990912E+03  0.25434990912E+03  0.00000000000E+00 0.  1.
          2   -1    0    0  502    0  0.00000000000E+00 -0.00000000000E+00 -0.22630750345E+03  0.22630750345E+03  0.00000000000E+00 0. -1.
         23    2    1    2    0    0  0.80000989310E+02 -0.17175023159E+03  0.82923966632E+02  0.22621108789E+03  0.91633900395E+02 0.  0.
         23    2    1    2    0    0 -0.58992165168E+02  0.18496918964E+03 -0.24116185149E+02  0.21491633743E+03  0.88959344881E+02 0.  0.
        -11    1    3    3    0    0  0.34981491527E+02 -0.14845353218E+03  0.86595826201E+02  0.17538812126E+03  0.00000000000E+00 0.  1.
         11    1    3    3    0    0  0.45019497783E+02 -0.23296699414E+02 -0.36718595695E+01  0.50822966628E+02  0.00000000000E+00 0. -1.
        -13    1    4    4    0    0 -0.35331682902E+02  0.18025203887E+03 -0.37288085231E+02  0.18742872414E+03  0.00000000000E+00 0. -1.
         13    1    4    4    0    0 -0.23660482266E+02  0.47171507673E+01  0.13171900083E+02  0.27487613287E+02  0.00000000000E+00 0.  1.
         21    1    1    2  502  501 -0.21008824142E+02 -0.13218958046E+02 -0.30765375813E+02  0.39529987257E+02  0.00000000000E+00 0. -1.
<scales pt_clust_5="13000.00000" pt_clust_6="13000.00000" pt_clust_7="13000.00000" pt_clust_8="13000.00000" pt_clust_9="24.82159"></scales>
<clustering>
<clus scale="   24.822">  2  9  1 -1</clus>
<clus scale="   88.959">  7  8 -1 -1</clus>
<clus scale="   91.634">  5  6 -1 -1</clus>
<clus scale="  210.572">  2  7  1 -1</clus>
<clus scale="   24.822">  2  5  1 -1</clus>
</clustering>
</event>
<event>
 9    1  0.1296032E-005  0.9574572E+02  0.7546771E-02  0.1289617E+00
         -1   -1    0    0    0  501 -0.00000000000E+00  0.00000000000E+00  0.38574100053E+03  0.38574100053E+03  0.00000000000E+00 0.  1.
          1   -1    0    0  502    0  0.00000000000E+00 -0.00000000000E+00 -0.60396575297E+02  0.60396575297E+02  0.00000000000E+00 0. -1.
         23    2    1    2    0    0 -0.23206895435E+02  0.18716416342E+02  0.29838242033E+03  0.31306585777E+03  0.89940526459E+02 0.  0.
         23    2    1    2    0    0  0.47354120314E+02 -0.17040927798E+02  0.33151556342E+02  0.10808759753E+03  0.89727906037E+02 0.  0.
        -11    1    4    4    0    0  0.31577004834E+02  0.25976513200E+02  0.44958593003E+02  0.60771387652E+02  0.00000000000E+00 0.  1.
         11    1    4    4    0    0  0.15777115480E+02 -0.43017440998E+02 -0.11807036661E+02  0.47316209883E+02  0.00000000000E+00 0. -1.
        -13    1    3    3    0    0  0.11997208925E+00  0.48462494007E+02  0.22882027559E+03  0.23389601587E+03  0.00000000000E+00 0.  1.
         13    1    3    3    0    0 -0.23326867524E+02 -0.29746077665E+02  0.69562144746E+02  0.79169841901E+02  0.00000000000E+00 0. -1.
         21    1    1    2  502  501 -0.24147224879E+02 -0.16754885439E+01 -0.61895514434E+01  0.24984120523E+02  0.00000000000E+00 0. -1.
<scales pt_clust_5="13000.00000" pt_clust_6="13000.00000" pt_clust_7="13000.00000" pt_clust_8="13000.00000" pt_clust_9="24.20528"></scales>
<clustering>
<clus scale="   24.205">  2  9  1 -1</clus>
<clus scale="   89.728">  5  6 -1 -1</clus>
<clus scale="   89.941">  7  8 -1 -1</clus>
<clus scale="   95.546">  2  5  1 -1</clus>
<clus scale="   24.205">  2  5  1 -1</clus>
</clustering>
</event>
<event>
 9    1  0.1296032E-005  0.9737700E+02  0.7546771E-02  0.1287526E+00
         -1   -1    0    0    0  501 -0.00000000000E+00  0.00000000000E+00  0.29082116636E+02  0.29082116636E+02  0.00000000000E+00 0.  1.
          1   -1    0    0  502    0  0.00000000000E+00 -0.00000000000E+00 -0.61181457826E+03  0.61181457826E+03  0.00000000000E+00 0. -1.
         23    2    1    2    0    0 -0.14937173747E+02 -0.10178381295E+02 -0.15211397612E+03  0.17669633505E+03  0.88069373144E+02 0.  0.
         23    2    1    2    0    0  0.66232872618E+02 -0.17770083239E+02 -0.26258348483E+03  0.28630115567E+03  0.91190437871E+02 0.  0.
        -11    1    3    3    0    0 -0.35572511733E+01 -0.48212172445E+02 -0.10102292076E+03  0.11199418791E+03  0.00000000000E+00 0.  1.
         11    1    3    3    0    0 -0.11379922574E+02  0.38033791149E+02 -0.51091055360E+02  0.64702147142E+02  0.00000000000E+00 0. -1.
        -13    1    4    4    0    0 -0.50653570289E-01  0.31491981228E+02 -0.70069448097E+02  0.76821058337E+02  0.00000000000E+00 0. -1.
         13    1    4    4    0    0  0.66283526188E+02 -0.49262064466E+02 -0.19251403673E+03  0.20948009733E+03  0.00000000000E+00 0.  1.
         21    1    1    2  502  501 -0.51295698871E+02  0.27948464534E+02 -0.16803500068E+03  0.17789920417E+03  0.00000000000E+00 0. -1.
<scales pt_clust_5="13000.00000" pt_clust_6="13000.00000" pt_clust_7="13000.00000" pt_clust_8="13000.00000" pt_clust_9="58.41546"></scales>
<clustering>
<clus scale="   58.415">  2  9  1 -1</clus>
<clus scale="   88.069">  5  6 -1 -1</clus>
<clus scale="   91.190">  7  8 -1 -1</clus>
<clus scale="   94.461">  1  5  2 -1</clus>
<clus scale="   58.415">  2  5  1 -1</clus>
</clustering>
</event>
<event>
 9    1  0.1296032E-005  0.1135883E+03  0.7546771E-02  0.1255809E+00
         -3   -1    0    0    0  501 -0.00000000000E+00  0.00000000000E+00  0.15989323877E+03  0.15989323877E+03  0.00000000000E+00 0.  1.
          3   -1    0    0  502    0  0.00000000000E+00 -0.00000000000E+00 -0.10064085827E+03  0.10064085827E+03  0.00000000000E+00 0. -1.
         23    2    1    2    0    0 -0.48827568054E+02 -0.42575680729E+02  0.55070873845E+02  0.12609201547E+03  0.93110553786E+02 0.  0.
         23    2    1    2    0    0  0.25663070938E+02  0.43230117202E+02  0.10801278394E+02  0.11034138466E+03  0.97627441381E+02 0.  0.
        -11    1    4    4    0    0  0.20152290207E+02  0.70633225728E+02  0.26736320872E+02  0.78166477669E+02  0.00000000000E+00 0.  1.
         11    1    4    4    0    0  0.55107807314E+01 -0.27403108526E+02 -0.15935042478E+02  0.32174906992E+02  0.00000000000E+00 0. -1.
        -11    1    3    3    0    0 -0.55611172888E+02  0.66716572860E+01  0.61517245108E+01  0.56346759227E+02  0.00000000000E+00 0. -1.
         11    1    3    3    0    0  0.67836048339E+01 -0.49247338015E+02  0.48919149335E+02  0.69745256238E+02  0.00000000000E+00 0.  1.
         21    1    1    2  502  501  0.23164497116E+02 -0.65443647319E+00 -0.66197717396E+01  0.24100696911E+02  0.00000000000E+00 0.  1.
<scales pt_clust_5="13000.00000" pt_clust_6="13000.00000" pt_clust_7="13000.00000" pt_clust_8="13000.00000" pt_clust_9="23.17374"></scales>
<clustering>
<clus scale="   23.174">  2  9  1 -1</clus>
<clus scale="   93.111">  7  8 -1 -1</clus>
<clus scale="   97.627">  5  6 -1 -1</clus>
<clus scale="  109.730">  1  7  2 -1</clus>
<clus scale="   23.174">  2  5  1 -1</clus>
</clustering>
</event>
<event>
 9    1  0.1296032E-005  0.1837331E+03  0.7546771E-02  0.1164609E+00
          1   -1    0    0  502    0  0.00000000000E+00  0.00000000000E+00  0.24466463901E+03  0.24466463901E+03  0.00000000000E+00 0. -1.
         -1   -1    0    0    0  501 -0.00000000000E+00 -0.00000000000E+00 -0.16292678626E+03  0.16292678626E+03  0.00000000000E+00 0.  1.
         23    2    1    2    0    0 -0.92571418605E+02 -0.13152496717E+03  0.50969075801E+01  0.18289257319E+03  0.86921978413E+02 0.  0.
         23    2    1    2    0    0  0.73092926889E+02  0.14233753121E+03  0.50748998095E+02  0.19054162584E+03  0.90155984918E+02 0.  0.
        -11    1    3    3    0    0 -0.71868746621E+02 -0.39958902060E+02 -0.22112529101E+02  0.85151597389E+02  0.00000000000E+00 0. -1.
         11    1    3    3    0    0 -0.20702671984E+02 -0.91566065108E+02  0.27209436681E+02  0.97740975804E+02  0.00000000000E+00 0.  1.
        -11    1    4    4    0    0  0.23084625166E+02  0.43539051229E+02  0.62043332661E+02  0.79233351745E+02  0.00000000000E+00 0.  1.
         11    1    4    4    0    0  0.50008301723E+02  0.98798479986E+02 -0.11294334567E+02  0.11130827410E+03  0.00000000000E+00 0. -1.
         21    1    1    2  502  501  0.19478491716E+02 -0.10812564046E+02  0.25891947072E+02  0.34157226234E+02  0.00000000000E+00 0.  1.
<scales pt_clust_5="13000.00000" pt_clust_6="13000.00000" pt_clust_7="13000.00000" pt_clust_8="13000.00000" pt_clust_9="22.27831"></scales>
<clustering>
<clus scale="   22.278">  1  9  2 -1</clus>
<clus scale="   86.922">  5  6 -1 -1</clus>
<clus scale="   90.156">  7  8 -1 -1</clus>
<clus scale="  182.168">  2  5  1 -1</clus>
<clus scale="   22.278">  1  5  2 -1</clus>
</clustering>
</event>
<event>
 9    1  0.1296032E-005  0.2873987E+03  0.7546771E-02  0.1091875E+00
          1   -1    0    0  502    0  0.00000000000E+00  0.00000000000E+00  0.13707922907E+04  0.13707922907E+04  0.00000000000E+00 0. -1.
         -1   -1    0    0    0  501 -0.00000000000E+00 -0.00000000000E+00 -0.38757126003E+03  0.38757126003E+03  0.00000000000E+00 0.  1.
         23    2    1    2    0    0  0.20737038418E+03  0.17241356350E+03 -0.28538156818E+03  0.40316286779E+03  0.91480847125E+02 0.  0.
         23    2    1    2    0    0 -0.30334839734E+03 -0.10177303469E+03  0.10940525734E+04  0.11438489034E+04  0.95190754531E+02 0.  0.
        -11    1    3    3    0    0  0.14807834102E+03  0.16435144263E+03 -0.24924914571E+03  0.33326225171E+03  0.00000000000E+00 0.  1.
         11    1    3    3    0    0  0.59292043159E+02  0.80621208730E+01 -0.36132422462E+02  0.69900616077E+02  0.00000000000E+00 0. -1.
        -13    1    4    4    0    0 -0.23470360085E+03 -0.54958282815E+02  0.91884461341E+03  0.94993769096E+03  0.00000000000E+00 0. -1.
         13    1    4    4    0    0 -0.68644796489E+02 -0.46814751873E+02  0.17520795996E+03  0.19391121244E+03  0.00000000000E+00 0.  1.
         21    1    1    2  502  501  0.95978013158E+02 -0.70640528816E+02  0.17455002544E+03  0.21135177951E+03  0.00000000000E+00 0.  1.
<scales pt_clust_5="13000.00000" pt_clust_6="13000.00000" pt_clust_7="13000.00000" pt_clust_8="13000.00000" pt_clust_9="119.17157"></scales>
<clustering>
<clus scale="   91.481">  5  6 -1 -1</clus>
<clus scale="   95.191">  7  8 -1 -1</clus>
<clus scale="  119.172">  1  9  2 -1</clus>
<clus scale="  286.191">  2  5  1 -1</clus>
<clus scale="  119.172">  1  5  2 -1</clus>
</clustering>
</event>
<event>
 9    1  0.1296032E-005  0.1671717E+03  0.7546771E-02  0.1181997E+00
          2   -1    0    0  502    0  0.00000000000E+00  0.00000000000E+00  0.43083058396E+03  0.43083058396E+03  0.00000000000E+00 0. -1.
         -2   -1    0    0    0  501 -0.00000000000E+00 -0.00000000000E+00 -0.66396809042E+03  0.66396809042E+03  0.00000000000E+00 0.  1.
         23    2    1    2    0    0  0.11372316941E+03 -0.78689536285E+02 -0.58628279559E+03  0.60911895948E+03  0.90406791843E+02 0.  0.
         23    2    1    2    0    0 -0.31218894058E+02  0.27201677020E+02  0.37174757605E+03  0.38666456362E+03  0.97972822144E+02 0.  0.
        -13    1    3    3    0    0  0.88536331741E+02 -0.35575487262E+02 -0.50335719563E+03  0.51232095772E+03  0.00000000000E+00 0.  1.
         13    1    3    3    0    0  0.25186837674E+02 -0.43114049023E+02 -0.82925599965E+02  0.96798001760E+02  0.00000000000E+00 0. -1.
        -13    1    4    4    0    0 -0.66390498597E+02  0.19563050247E+02  0.21625369044E+03  0.22705961743E+03  0.00000000000E+00 0. -1.
         13    1    4    4    0    0  0.35171604539E+02  0.76386267737E+01  0.15549388561E+03  0.15960494619E+03  0.00000000000E+00 0.  1.
         21    1    1    2  502  501 -0.82504275357E+02  0.51487859265E+02 -0.18602286919E+02  0.99015151277E+02  0.00000000000E+00 0. -1.
<scales pt_clust_5="13000.00000" pt_clust_6="13000.00000" pt_clust_7="13000.00000" pt_clust_8="13000.00000" pt_clust_9="97.25202"></scales>
<clustering>
<clus scale="   90.407">  5  6 -1 -1</clus>
<clus scale="   97.252">  1  9  2 -1</clus>
<clus scale="   97.973">  7  8 -1 -1</clus>
<clus scale="  162.853">  2  5  1 -1</clus>
<clus scale="   97.252">  1  5  2 -1</clus>
</clustering>
</event>
<event>
 9    1  0.1296032E-005  0.1191378E+03  0.7546771E-02  0.1245206E+00
         -1   -1    0    0    0  501 -0.00000000000E+00  0.00000000000E+00  0.51675751606E+02  0.51675751606E+02  0.00000000000E+00 0.  1.
          1   -1    0    0  502    0  0.00000000000E+00 -0.00000000000E+00 -0.39211065738E+03  0.39211065738E+03  0.00000000000E+00 0. -1.
         23    2    1    2    0    0  0.68918588749E+02 -0.43635245858E+02 -0.14223596116E+03  0.18684066529E+03  0.89579902898E+02 0.  0.
         23    2    1    2    0    0 -0.33540763728E+02  0.69066207535E+02 -0.15255139542E+03  0.19384247070E+03  0.91694336509E+02 0.  0.
        -11    1    3    3    0    0  0.32059978299E+02 -0.36254972734E+02 -0.10070651233E+02  0.49433624920E+02  0.00000000000E+00 0.  1.
         11    1    3    3    0    0  0.36858610450E+02 -0.73802731247E+01 -0.13216530993E+03  0.13740704037E+03  0.00000000000E+00 0. -1.
        -13    1    4    4    0    0  0.16433441606E+02  0.27149062720E+02 -0.11342509795E+03  0.11778107851E+03  0.00000000000E+00 0.  1.
         13    1    4    4    0    0 -0.49974205334E+02  0.41917144815E+02 -0.39126297466E+02  0.76061392188E+02  0.00000000000E+00 0. -1.
         21    1    1    2  502  501 -0.35377825021E+02 -0.25430961676E+02 -0.45647549194E+02  0.63103272993E+02  0.00000000000E+00 0.  1.
<scales pt_clust_5="13000.00000" pt_clust_6="13000.00000" pt_clust_7="13000.00000" pt_clust_8="13000.00000" pt_clust_9="43.56976"></scales>
<clustering>
<clus scale="   43.570">  1  9  2 -1</clus>
<clus scale="   89.580">  5  6 -1 -1</clus>
<clus scale="   91.694">  7  8 -1 -1</clus>
<clus scale="  117.518">  1  5  2 -1</clus>
<clus scale="  119.138">  2  5  1 -1</clus>
</clustering>
</event>
<event>
 9    1  0.1296032E-005  0.9631159E+02  0.7546771E-02  0.1288834E+00
         -1   -1    0    0    0  501 -0.00000000000E+00  0.00000000000E+00  0.20493839418E+03  0.20493839418E+03  0.00000000000E+00 0.  1.
          1   -1    0    0  502    0  0.00000000000E+00 -0.00000000000E+00 -0.27835742599E+03  0.27835742599E+03  0.00000000000E+00 0. -1.
         23    2    1    2    0    0 -0.26100709286E+02 -0.19006264549E+01  0.15719377119E+03  0.18385747568E+03  0.91699674245E+02 0.  0.
         23    2    1    2    0    0  0.70231368030E+02 -0.47839994705E+02 -0.14217834815E+03  0.18879342939E+03  0.90593411175E+02 0.  0.
        -11    1    4    4    0    0 -0.18231763871E+02 -0.26789126102E+02 -0.47679686417E+02  0.57648998152E+02  0.00000000000E+00 0.  1.
         11    1    4    4    0    0  0.88463131900E+02 -0.21050868603E+02 -0.94498661735E+02  0.13114443124E+03  0.00000000000E+00 0. -1.
        -13    1    3    3    0    0 -0.48270251754E+01 -0.34911157419E+02  0.13331758393E+03  0.13789730697E+03  0.00000000000E+00 0.  1.
         13    1    3    3    0    0 -0.21273684111E+02  0.33010530964E+02  0.23876187265E+02  0.45960168717E+02  0.00000000000E+00 0. -1.
         21    1    1    2  502  501 -0.44130658744E+02  0.49740621160E+02 -0.88434454848E+02  0.11064491511E+03  0.00000000000E+00 0. -1.
<scales pt_clust_5="13000.00000" pt_clust_6="13000.00000" pt_clust_7="13000.00000" pt_clust_8="13000.00000" pt_clust_9="66.49545"></scales>
<clustering>
<clus scale="   66.495">  2  9  1 -1</clus>
<clus scale="   90.593">  5  6 -1 -1</clus>
<clus scale="   91.700">  7  8 -1 -1</clus>
<clus scale="   95.259">  2  5  1 -1</clus>
<clus scale="   66.495">  2  5  1 -1</clus>
</clustering>
</event>
<event>
 9    1  0.1296032E-005  0.9677784E+02  0.7546771E-02  0.1288803E+00
         -1   -1    0    0    0  501 -0.00000000000E+00  0.00000000000E+00  0.10029524990E+03  0.10029524990E+03  0.00000000000E+00 0.  1.
          1   -1    0    0  502    0  0.00000000000E+00 -0.00000000000E+00 -0.17702383427E+03  0.17702383427E+03  0.00000000000E+00 0. -1.
         23    2    1    2    0    0 -0.26711247972E+02  0.91594003958E+01  0.40107924412E+02  0.10371502766E+03  0.91382580278E+02 0.  0.
         23    2    1    2    0    0 -0.40952470289E+01 -0.35632196881E+01 -0.10181196041E+03  0.13887518629E+03  0.94293024673E+02 0.  0.
        -11    1    4    4    0    0 -0.39985715844E+02 -0.24255648189E+01 -0.11486034075E+02  0.41673370575E+02  0.00000000000E+00 0.  1.
         11    1    4    4    0    0  0.35890468816E+02 -0.11376548691E+01 -0.90325926331E+02  0.97201815713E+02  0.00000000000E+00 0. -1.
        -13    1    3    3    0    0 -0.41155992527E+02 -0.30653695347E+02  0.11453770919E+02  0.52579973636E+02  0.00000000000E+00 0.  1.
         13    1    3    3    0    0  0.14444744554E+02  0.39813095742E+02  0.28654153493E+02  0.51135054026E+02  0.00000000000E+00 0. -1.
         21    1    1    2  502  501  0.30806495001E+02 -0.55961807077E+01 -0.15024548376E+02  0.34728870219E+02  0.00000000000E+00 0. -1.
<scales pt_clust_5="13000.00000" pt_clust_6="13000.00000" pt_clust_7="13000.00000" pt_clust_8="13000.00000" pt_clust_9="31.31066"></scales>
<clustering>
<clus scale="   31.311">  2  9  1 -1</clus>
<clus scale="   91.383">  7  8 -1 -1</clus>
<clus scale="   93.944">  1  7  2 -1</clus>
<clus scale="   94.293">  5  6 -1 -1</clus>
<clus scale="   31.311">  2  5  1 -1</clus>
</clustering>
</event>
<event>
 9    1  0.1296032E-005  0.1026394E+03  0.7546771E-02  0.1275265E+00
         -2   -1    0    0    0  501 -0.00000000000E+00  0.00000000000E+00  0.88704738798E+02  0.88704738798E+02  0.00000000000E+00 0.  1.
          2   -1    0    0  502    0  0.00000000000E+00 -0.00000000000E+00 -0.17865012806E+03  0.17865012806E+03  0.00000000000E+00 0. -1.
         23    2    1    2    0    0 -0.87460237618E+01 -0.47144714815E+02 -0.95123272255E+01  0.10378004864E+03  0.91546147161E+02 0.  0.
         23    2    1    2    0    0 -0.26726840160E+02  0.39893614316E+02 -0.47041533321E+02  0.11432142520E+03  0.92469767790E+02 0.  0.
        -11    1    3    3    0    0 -0.12232916464E+02  0.17637818331E+02 -0.28963778797E+02  0.36050483532E+02  0.00000000000E+00 0.  1.
         11    1    3    3    0    0  0.34868927024E+01 -0.64782533146E+02  0.19451451572E+02  0.67729565108E+02  0.00000000000E+00 0. -1.
        -13    1    4    4    0    0 -0.47469182547E+02  0.55974878966E+02 -0.48606234122E+02  0.88028838243E+02  0.00000000000E+00 0.  1.
         13    1    4    4    0    0  0.20742342387E+02 -0.16081264650E+02  0.15647008006E+01  0.26292586960E+02  0.00000000000E+00 0. -1.
         21    1    1    2  502  501  0.35472863922E+02  0.72511004987E+01 -0.33391528711E+02  0.49253393009E+02  0.00000000000E+00 0. -1.
<scales pt_clust_5="13000.00000" pt_clust_6="13000.00000" pt_clust_7="13000.00000" pt_clust_8="13000.00000" pt_clust_9="36.20639"></scales>
<clustering>
<clus scale="   36.206">  2  9  1 -1</clus>
<clus scale="   91.546">  5  6 -1 -1</clus>
<clus scale="   92.470">  7  8 -1 -1</clus>
<clus scale="  101.808">  1  5  2 -1</clus>
<clus scale="   36.206">  2  5  1 -1</clus>
</clustering>
</event>
<event>
 9    1  0.1296032E-005  0.1167778E+03  0.7546771E-02  0.1249813E+00
         -1   -1    0    0    0  501 -0.00000000000E+00  0.00000000000E+00  0.69735874573E+03  0.69735874573E+03  0.00000000000E+00 0.  1.
          1   -1    0    0  502    0  0.00000000000E+00 -0.00000000000E+00 -0.10177915111E+03  0.10177915111E+03  0.00000000000E+00 0. -1.
         23    2    1    2    0    0 -0.48560585738E+02 -0.44145462568E+02  0.58167304233E+03  0.59294347693E+03  0.94506541108E+02 0.  0.
         23    2    1    2    0    0  0.69842846242E+02  0.89524591321E+02 -0.18456607582E+02  0.14653225387E+03  0.90765519000E+02 0.  0.
        -11    1    4    4    0    0 -0.13506630382E+02  0.18415307521E+02 -0.28488960552E+02  0.36512648338E+02  0.00000000000E+00 0.  1.
         11    1    4    4    0    0  0.83349476623E+02  0.71109283800E+02  0.10032352970E+02  0.11001960553E+03  0.00000000000E+00 0. -1.
        -13    1    3    3    0    0  0.10562136930E+02 -0.53830311549E+02  0.25704273531E+03  0.26283117957E+03  0.00000000000E+00 0. -1.
         13    1    3    3    0    0 -0.59122722668E+02  0.96848489808E+01  0.32463030702E+03  0.33011229736E+03  0.00000000000E+00 0.  1.
         21    1    1    2  502  501 -0.21282260504E+02 -0.45379128753E+02  0.32363159874E+02  0.59662166031E+02  0.00000000000E+00 0.  1.
<scales pt_clust_5="13000.00000" pt_clust_6="13000.00000" pt_clust_7="13000.00000" pt_clust_8="13000.00000" pt_clust_9="50.12185"></scales>
<clustering>
<clus scale="   50.122">  2  9  1 -1</clus>
<clus scale="   90.766">  5  6 -1 -1</clus>
<clus scale="   94.507">  7  8 -1 -1</clus>
<clus scale="  113.772">  2  5  1 -1</clus>
<clus scale="   50.122">  2  5  1 -1</clus>
</clustering>
</event>
<event>
 9    1  0.1296032E-005  0.9819306E+02  0.7546771E-02  0.1284430E+00
         -2   -1    0    0    0  501 -0.00000000000E+00  0.00000000000E+00  0.33246130887E+02  0.33246130887E+02  0.00000000000E+00 0.  1.
          2   -1    0    0  502    0  0.00000000000E+00 -0.00000000000E+00 -0.60583924731E+03  0.60583924731E+03  0.00000000000E+00 0. -1.
         23    2    1    2    0    0 -0.37086151099E+02 -0.21517414881E+02 -0.77718524857E+02  0.12691155050E+03  0.90708273046E+02 0.  0.
         23    2    1    2    0    0 -0.39583339918E+00  0.20805463170E+02 -0.37864900357E+03  0.39005178488E+03  0.91281449360E+02 0.  0.
        -13    1    3    3    0    0  0.10904084388E+00  0.33648073254E+02 -0.22869808253E+02  0.40684553004E+02  0.00000000000E+00 0. -1.
         13    1    3    3    0    0 -0.37195191943E+02 -0.55165488135E+02 -0.54848716604E+02  0.86226997500E+02  0.00000000000E+00 0.  1.
        -13    1    4    4    0    0 -0.29112134102E+02  0.46567117846E+02 -0.21233346460E+03  0.21932057132E+03  0.00000000000E+00 0. -1.
         13    1    4    4    0    0  0.28716300703E+02 -0.25761654677E+02 -0.16631553897E+03  0.17073121356E+03  0.00000000000E+00 0.  1.
         21    1    1    2  502  501  0.37481984498E+02  0.71195171077E+00 -0.11622558799E+03  0.12212204281E+03  0.00000000000E+00 0.  1.
<scales pt_clust_5="13000.00000" pt_clust_6="13000.00000" pt_clust_7="13000.00000" pt_clust_8="13000.00000" pt_clust_9="37.48875"></scales>
<clustering>
<clus scale="   37.489">  2  9  1 -1</clus>
<clus scale="   90.708">  5  6 -1 -1</clus>
<clus scale="   91.281">  7  8 -1 -1</clus>
<clus scale="   97.660">  1  5  2 -1</clus>
<clus scale="   37.489">  2  5  1 -1</clus>
</clustering>
</event>
<event>
 9    1  0.1296032E-005  0.1507544E+03  0.7546771E-02  0.1199626E+00
         -2   -1    0    0    0  501 -0.00000000000E+00  0.00000000000E+00  0.24713456694E+03  0.24713456694E+03  0.00000000000E+00 0.  1.
          2   -1    0    0  502    0  0.00000000000E+00 -0.00000000000E+00 -0.16697539207E+03  0.16697539207E+03  0.00000000000E+00 0. -1.
         23    2    1    2    0    0 -0.11379180902E+03 -0.15487474828E+02  0.14920728914E+03  0.20881006064E+03  0.90279502734E+02 0.  0.
         23    2    1    2    0    0  0.11676069657E+03  0.35586382873E+02 -0.89513743844E+02  0.17646203452E+03  0.90701093604E+02 0.  0.
        -11    1    4    4    0    0  0.31191320960E+02 -0.30714087518E+02 -0.27808793494E+02  0.51861186555E+02  0.00000000000E+00 0.  1.
         11    1    4    4    0    0  0.85569375609E+02  0.66300470391E+02 -0.61704950350E+02  0.12460084797E+03  0.00000000000E+00 0. -1.
        -11    1    3    3    0    0 -0.18532642233E+02 -0.23796183924E+02  0.93278915049E+02  0.98034040976E+02  0.00000000000E+00 0. -1.
         11    1    3    3    0    0 -0.95259166782E+02  0.83087090953E+01  0.55928374096E+02  0.11077601966E+03  0.00000000000E+00 0.  1.
         21    1    1    2  502  501 -0.29688875546E+01 -0.20098908045E+02  0.20465629567E+02  0.28837863850E+02  0.00000000000E+00 0.  1.
<scales pt_clust_5="13000.00000" pt_clust_6="13000.00000" pt_clust_7="13000.00000" pt_clust_8="13000.00000" pt_clust_9="20.31700"></scales>
<clustering>
<clus scale="   20.317">  1  9  2 -1</clus>
<clus scale="   90.280">  7  8 -1 -1</clus>
<clus scale="   90.701">  5  6 -1 -1</clus>
<clus scale="  150.501">  1  7  2 -1</clus>
<clus scale="  150.754">  2  5  1 -1</clus>
</clustering>
</event>
<event>
 9    1  0.1296032E-005  0.1039992E+03  0.7546771E-02  0.1272428E+00
         -1   -1    0    0    0  501 -0.00000000000E+00  0.00000000000E+00  0.14286504538E+03  0.14286504538E+03  0.00000000000E+00 0.  1.
          1   -1    0    0  502    0  0.00000000000E+00 -0.00000000000E+00 -0.12073689466E+03  0.12073689466E+03  0.00000000000E+00 0. -1.
         23    2    1    2    0    0  0.29597039588E+02  0.38636857169E+02  0.41667099098E+01  0.10306260946E+03  0.90751024861E+02 0.  0.
         23    2    1    2    0    0 -0.58504148454E+02 -0.54914428747E+01 -0.87474190609E+01  0.10908447048E+03  0.91487775292E+02 0.  0.
        -13    1    3    3    0    0  0.52833469741E+01  0.59485368391E+02 -0.19956682360E+02  0.62965800072E+02  0.00000000000E+00 0. -1.
         13    1    3    3    0    0  0.24313692614E+02 -0.20848511221E+02  0.24123392270E+02  0.40096809390E+02  0.00000000000E+00 0.  1.
        -13    1    4    4    0    0 -0.87034870197E+01  0.37444210505E+02  0.11769928212E+02  0.40203865446E+02  0.00000000000E+00 0. -1.
         13    1    4    4    0    0 -0.49800661434E+02 -0.42935653380E+02 -0.20517347273E+02  0.68880605032E+02  0.00000000000E+00 0.  1.
         21    1    1    2  502  501  0.28907108866E+02 -0.33145414295E+02  0.26708859877E+02  0.51454860098E+02  0.00000000000E+00 0.  1.
<scales pt_clust_5="13000.00000" pt_clust_6="13000.00000" pt_clust_7="13000.00000" pt_clust_8="13000.00000" pt_clust_9="43.97999"></scales>
<clustering>
<clus scale="   43.980">  1  9  2 -1</clus>
<clus scale="   90.751">  5  6 -1 -1</clus>
<clus scale="   91.488">  7  8 -1 -1</clus>
<clus scale="  103.352">  1  5  2 -1</clus>
<clus scale="  103.999">  2  5  1 -1</clus>
</clustering>
</event>
<event>
 9    1  0.1296032E-005  0.9851554E+02  0.7546771E-02  0.1285879E+00
          2   -1    0    0  502    0  0.00000000000E+00  0.00000000000E+00  0.51052965698E+03  0.51052965698E+03  0.00000000000E+00 0. -1.
         -2   -1    0    0    0  501 -0.00000000000E+00 -0.00000000000E+00 -0.30324123606E+02  0.30324123606E+02  0.00000000000E+00 0.  1.
         23    2    1    2    0    0 -0.21059156060E+02  0.28355737162E+02  0.13811599028E+03  0.16891162076E+03  0.90595656470E+02 0.  0.
         23    2    1    2    0    0 -0.61123639944E+00 -0.47053458005E+02  0.15942030596E+03  0.18704418562E+03  0.85768828252E+02 0.  0.
        -13    1    3    3    0    0  0.13062425833E+02  0.53225450742E+02  0.83468226466E+02  0.99852493232E+02  0.00000000000E+00 0.  1.
         13    1    3    3    0    0 -0.34121581892E+02 -0.24869713580E+02  0.54647763815E+02  0.69059127524E+02  0.00000000000E+00 0. -1.
        -13    1    4    4    0    0 -0.34183134482E+02 -0.16664425325E+02  0.12356513066E+03  0.12928469078E+03  0.00000000000E+00 0.  1.
         13    1    4    4    0    0  0.33571898082E+02 -0.30389032679E+02  0.35855175301E+02  0.57759494837E+02  0.00000000000E+00 0. -1.
         21    1    1    2  502  501  0.21670392459E+02  0.18697720843E+02  0.18266923713E+03  0.18489797421E+03  0.00000000000E+00 0. -1.
<scales pt_clust_5="13000.00000" pt_clust_6="13000.00000" pt_clust_7="13000.00000" pt_clust_8="13000.00000" pt_clust_9="28.62186"></scales>
<clustering>
<clus scale="   28.622">  1  9  2 -1</clus>
<clus scale="   85.769">  7  8 -1 -1</clus>
<clus scale="   90.596">  5  6 -1 -1</clus>
<clus scale="   94.096">  1  7  2 -1</clus>
<clus scale="   28.622">  1  5  2 -1</clus>
</clustering>
</event>
<event>
 9    1  0.1296032E-005  0.1011364E+03  0.7546771E-02  0.1278956E+00
         -1   -1    0    0    0  501 -0.00000000000E+00  0.00000000000E+00  0.22577319603E+03  0.22577319603E+03  0.00000000000E+00 0.  1.
          1   -1    0    0  502    0  0.00000000000E+00 -0.00000000000E+00 -0.56531898485E+02  0.56531898485E+02  0.00000000000E+00 0. -1.
         23    2    1    2    0    0  0.53229346324E+01 -0.47872121014E+02  0.10639685485E+03  0.14938113309E+03  0.93136236758E+02 0.  0.
         23    2    1    2    0    0  0.35520727804E+01  0.28608022613E+02  0.55863259263E+02  0.11059442569E+03  0.90991137373E+02 0.  0.
        -11    1    3    3    0    0  0.44449371215E+02 -0.11837797736E+02  0.25587153701E+02  0.52636322925E+02  0.00000000000E+00 0.  1.
         11    1    3    3    0    0 -0.39126436582E+02 -0.36034323278E+02  0.80809701151E+02  0.96744810165E+02  0.00000000000E+00 0. -1.
        -11    1    4    4    0    0 -0.40685662416E+01 -0.33060536925E+02  0.19259127320E+02  0.38476828328E+02  0.00000000000E+00 0. -1.
         11    1    4    4    0    0  0.76206390220E+01  0.61668559538E+02  0.36604131944E+02  0.72117597367E+02  0.00000000000E+00 0.  1.
         21    1    1    2  502  501 -0.88750074128E+01  0.19264098401E+02  0.69811834287E+01  0.22329535729E+02  0.00000000000E+00 0. -1.
<scales pt_clust_5="13000.00000" pt_clust_6="13000.00000" pt_clust_7="13000.00000" pt_clust_8="13000.00000" pt_clust_9="21.21017"></scales>
<clustering>
<clus scale="   21.210">  2  9  1 -1</clus>
<clus scale="   90.991">  7  8 -1 -1</clus>
<clus scale="   93.136">  5  6 -1 -1</clus>
<clus scale="   99.165">  2  7  1 -1</clus>
<clus scale="   21.210">  2  5  1 -1</clus>
</clustering>
</event>
<event>
 9    1  0.1296032E-005  0.1051925E+03  0.7546771E-02  0.1270054E+00
         -2   -1    0    0    0  501 -0.00000000000E+00  0.00000000000E+00  0.52317274819E+02  0.52317274819E+02  0.00000000000E+00 0.  1.
          2   -1    0    0  502    0  0.00000000000E+00 -0.00000000000E+00 -0.35913846206E+03  0.35913846206E+03  0.00000000000E+00 0. -1.
         23    2    1    2    0    0  0.44005877897E+02 -0.35200820558E+01 -0.53654473406E+02  0.11335334285E+03  0.89561540578E+02 0.  0.
         23    2    1    2    0    0 -0.73313461343E+02  0.25653538813E+01 -0.14432172689E+03  0.18537672200E+03  0.90301293187E+02 0.  0.
        -11    1    3    3    0    0  0.58431670745E+02  0.11378138578E+02 -0.41417440735E+01  0.59673077912E+02  0.00000000000E+00 0.  1.
         11    1    3    3    0    0 -0.14425792848E+02 -0.14898220634E+02 -0.49512729333E+02  0.53680264934E+02  0.00000000000E+00 0. -1.
        -13    1    4    4    0    0 -0.86129398354E+01  0.37935919920E+02 -0.29103731746E+02  0.48583371171E+02  0.00000000000E+00 0.  1.
         13    1    4    4    0    0 -0.64700521507E+02 -0.35370566038E+02 -0.11521799515E+03  0.13679335083E+03  0.00000000000E+00 0. -1.
         21    1    1    2  502  501  0.29307583446E+02  0.95472817449E+00 -0.10884498694E+03  0.11272567204E+03  0.00000000000E+00 0. -1.
<scales pt_clust_5="13000.00000" pt_clust_6="13000.00000" pt_clust_7="13000.00000" pt_clust_8="13000.00000" pt_clust_9="29.32313"></scales>
<clustering>
<clus scale="   29.323">  2  9  1 -1</clus>
<clus scale="   89.562">  5  6 -1 -1</clus>
<clus scale="   90.301">  7  8 -1 -1</clus>
<clus scale="  104.558">  1  5  2 -1</clus>
<clus scale="   29.323">  2  5  1 -1</clus>
</clustering>
</event>
<event>
 9    1  0.1296032E-005  0.2320767E+03  0.7546771E-02  0.1125335E+00
         -2   -1    0    0    0  501 -0.00000000000E+00  0.00000000000E+00  0.41510254379E+02  0.41510254379E+02  0.00000000000E+00 0.  1.
          2   -1    0    0  502    0  0.00000000000E+00 -0.00000000000E+00 -0.17084980148E+04  0.17084980148E+04  0.00000000000E+00 0. -1.
         23    2    1    2    0    0 -0.19534050323E+03  0.58077280008E+02 -0.46038927441E+03  0.51215654158E+03  0.93889064548E+02 0.  0.
         23    2    1    2    0    0  0.22037712365E+03 -0.69432825148E+02 -0.10681554762E+04  0.10967055348E+04  0.91760094485E+02 0.  0.
        -13    1    3    3    0    0 -0.88353722489E+02  0.34177103522E+02 -0.11077530464E+03  0.14575878293E+03  0.00000000000E+00 0.  1.
         13    1    3    3    0    0 -0.10698678074E+03  0.23900176486E+02 -0.34961396977E+03  0.36639775866E+03  0.00000000000E+00 0. -1.
        -13    1    4    4    0    0  0.53027975845E+02  0.22575517256E+02 -0.24944864206E+03  0.25602000943E+03  0.00000000000E+00 0. -1.
         13    1    4    4    0    0  0.16734914781E+03 -0.92008342404E+02 -0.81870683409E+03  0.84068552535E+03  0.00000000000E+00 0.  1.
         21    1    1    2  502  501 -0.25036620423E+02  0.11355545140E+02 -0.13844300983E+03  0.14114619278E+03  0.00000000000E+00 0. -1.
<scales pt_clust_5="13000.00000" pt_clust_6="13000.00000" pt_clust_7="13000.00000" pt_clust_8="13000.00000" pt_clust_9="27.49147"></scales>
<clustering>
<clus scale="   27.491">  2  9  1 -1</clus>
<clus scale="   91.760">  7  8 -1 -1</clus>
<clus scale="   93.889">  5  6 -1 -1</clus>
<clus scale="  231.224">  2  7  1 -1</clus>
<clus scale="   27.491">  2  5  1 -1</clus>
</clustering>
</event>
<event>
 9    1  0.1296032E-005  0.9293387E+02  0.7546771E-02  0.1296164E+00
         -1   -1    0    0    0  501 -0.00000000000E+00  0.00000000000E+00  0.10675839913E+03  0.10675839913E+03  0.00000000000E+00 0.  1.
          1   -1    0    0  502    0  0.00000000000E+00 -0.00000000000E+00 -0.17932336470E+03  0.17932336470E+03  0.00000000000E+00 0. -1.
         23    2    1    2    0    0 -0.49664194083E+01 -0.15744953108E+02  0.46476680555E+02  0.10285097874E+03  0.90253382880E+02 0.  0.
         23    2    1    2    0    0  0.22219915862E+02  0.43105099956E+02 -0.10911654307E+03  0.14939635816E+03  0.89783503808E+02 0.  0.
        -11    1    3    3    0    0 -0.46229711653E+02  0.31943598767E+01  0.24190795915E+02  0.52274131093E+02  0.00000000000E+00 0. -1.
         11    1    3    3    0    0  0.41263292245E+02 -0.18939312984E+02  0.22285884640E+02  0.50576847642E+02  0.00000000000E+00 0.  1.
        -11    1    4    4    0    0  0.35028803763E+02  0.61869365841E+02 -0.10421062598E+03  0.12615343868E+03  0.00000000000E+00 0.  1.
         11    1    4    4    0    0 -0.12808887901E+02 -0.18764265886E+02 -0.49059170899E+01  0.23242919481E+02  0.00000000000E+00 0. -1.
         21    1    1    2  502  501 -0.17253496453E+02 -0.27360146848E+02 -0.99251030560E+01  0.33834426936E+02  0.00000000000E+00 0. -1.
<scales pt_clust_5="13000.00000" pt_clust_6="13000.00000" pt_clust_7="13000.00000" pt_clust_8="13000.00000" pt_clust_9="32.34595"></scales>
<clustering>
<clus scale="   32.346">  2  9  1 -1</clus>
<clus scale="   89.784">  7  8 -1 -1</clus>
<clus scale="   90.253">  5  6 -1 -1</clus>
<clus scale="   92.478">  2  7  1 -1</clus>
<clus scale="   32.346">  2  5  1 -1</clus>
</clustering>
</event>
<event>
 9    1  0.1296032E-005  0.2201324E+03  0.7546771E-02  0.1133912E+00
          1   -1    0    0  502    0  0.00000000000E+00  0.00000000000E+00  0.37550113771E+03  0.37550113771E+03  0.00000000000E+00 0. -1.
         -1   -1    0    0    0  501 -0.00000000000E+00 -0.00000000000E+00 -0.22458385176E+03  0.22458385176E+03  0.00000000000E+00 0.  1.
         23    2    1    2    0    0 -0.14209026165E+02  0.19041075419E+03 -0.73370963697E+02  0.22466744626E+03  0.92919380969E+02 0.  0.
         23    2    1    2    0    0  0.54545748470E+02 -0.22053739588E+03  0.15502506566E+03  0.28979012726E+03  0.91288362986E+02 0.  0.
        -11    1    3    3    0    0  0.31397102931E+02  0.10336918633E+03 -0.64922345671E+02  0.12603919122E+03  0.00000000000E+00 0.  1.
         11    1    3    3    0    0 -0.45606129096E+02  0.87041567853E+02 -0.84486180263E+01  0.98628255039E+02  0.00000000000E+00 0. -1.
        -11    1    4    4    0    0 -0.95922309885E+01 -0.14166306091E+03  0.10429061775E+03  0.17617311564E+03  0.00000000000E+00 0. -1.
         11    1    4    4    0    0  0.64137979458E+02 -0.78874334973E+02  0.50734447911E+02  0.11361701163E+03  0.00000000000E+00 0.  1.
         21    1    1    2  502  501 -0.40336722305E+02  0.30126641698E+02  0.69263183989E+02  0.85627415952E+02  0.00000000000E+00 0.  1.
<scales pt_clust_5="13000.00000" pt_clust_6="13000.00000" pt_clust_7="13000.00000" pt_clust_8="13000.00000" pt_clust_9="50.34546"></scales>
<clustering>
<clus scale="   50.345">  1  9  2 -1</clus>
<clus scale="   91.288">  7  8 -1 -1</clus>
<clus scale="   92.919">  5  6 -1 -1</clus>
<clus scale="  219.449">  1  7  2 -1</clus>
<clus scale="   50.345">  1  5  2 -1</clus>
</clustering>
</event>
<event>
 9    1  0.1296032E-005  0.1021822E+03  0.7546771E-02  0.1279792E+00
          1   -1    0    0  502    0  0.00000000000E+00  0.00000000000E+00  0.19128925166E+03  0.19128925166E+03  0.00000000000E+00 0. -1.
         -1   -1    0    0    0  501 -0.00000000000E+00 -0.00000000000E+00 -0.13415151744E+03  0.13415151744E+03  0.00000000000E+00 0.  1.
         23    2    1    2    0    0 -0.13973085878E+02  0.26279757924E+02 -0.88147430825E+02  0.12868975449E+03  0.88911250937E+02 0.  0.
         23    2    1    2    0    0  0.14426640568E+02 -0.49183364406E+02  0.11665126718E+03  0.16008112221E+03  0.96908803835E+02 0.  0.
        -11    1    4    4    0    0  0.47102603956E+02  0.31006488808E+01  0.41309423913E+02  0.62727488607E+02  0.00000000000E+00 0.  1.
         11    1    4    4    0    0 -0.32675963388E+02 -0.52284013286E+02  0.75341843265E+02  0.97353633601E+02  0.00000000000E+00 0. -1.
        -11    1    3    3    0    0 -0.33531860367E+01  0.57238035149E+02 -0.72444461655E+02  0.92388508749E+02  0.00000000000E+00 0.  1.
         11    1    3    3    0    0 -0.10619899842E+02 -0.30958277225E+02 -0.15702969170E+02  0.36301245738E+02  0.00000000000E+00 0. -1.
         21    1    1    2  502  501 -0.45355468985E+00  0.22903606482E+02  0.28633897867E+02  0.36669892402E+02  0.00000000000E+00 0. -1.
<scales pt_clust_5="13000.00000" pt_clust_6="13000.00000" pt_clust_7="13000.00000" pt_clust_8="13000.00000" pt_clust_9="22.90810"></scales>
<clustering>
<clus scale="   22.908">  1  9  2 -1</clus>
<clus scale="   88.911">  7  8 -1 -1</clus>
<clus scale="   94.631">  2  7  1 -1</clus>
<clus scale="   96.909">  5  6 -1 -1</clus>
<clus scale="   22.908">  1  5  2 -1</clus>
</clustering>
</event>
<event>
 9    1  0.1296032E-005  0.2402315E+03  0.7546771E-02  0.1156446E+00
         -1   -1    0    0    0  501 -0.00000000000E+00  0.00000000000E+00  0.28430314547E+03  0.28430314547E+03  0.00000000000E+00 0.  1.
          1   -1    0    0  502    0  0.00000000000E+00 -0.00000000000E+00 -0.67469067754E+03  0.67469067754E+03  0.00000000000E+00 0. -1.
         23    2    1    2    0    0  0.35455307906E+02 -0.14486243295E+02  0.28837312576E+02  0.10266862561E+03  0.90787256732E+02 0.  0.
         23    2    1    2    0    0 -0.21233969237E+03  0.14264806133E+03  0.10280067311E+03  0.29044165968E+03  0.91387991183E+02 0.  0.
        -13    1    4    4    0    0 -0.18834914368E+03  0.11197421422E+03  0.49859675505E+02  0.22472118685E+03  0.00000000000E+00 0.  1.
         13    1    4    4    0    0 -0.23990548686E+02  0.30673847103E+02  0.52940997604E+02  0.65720472835E+02  0.00000000000E+00 0. -1.
        -13    1    3    3    0    0  0.41913101254E+02 -0.47439646494E+02  0.27621406259E+02  0.69066418757E+02  0.00000000000E+00 0.  1.
         13    1    3    3    0    0 -0.64577933482E+01  0.32953403199E+02  0.12159063172E+01  0.33602206855E+02  0.00000000000E+00 0. -1.
         21    1    1    2  502  501  0.17688438446E+03 -0.12816181803E+03 -0.52202551775E+03  0.56588353771E+03  0.00000000000E+00 0. -1.
<scales pt_clust_5="13000.00000" pt_clust_6="13000.00000" pt_clust_7="13000.00000" pt_clust_8="13000.00000" pt_clust_9="222.16981"></scales>
<clustering>
<clus scale="   90.787">  7  8 -1 -1</clus>
<clus scale="   91.388">  5  6 -1 -1</clus>
<clus scale="   98.536">  1  7  2 -1</clus>
<clus scale="  222.170">  2  9  1 -1</clus>
<clus scale="  222.170">  2  5  1 -1</clus>
</clustering>
</event>
<event>
 9    1  0.1296032E-005  0.1173446E+03  0.7546771E-02  0.1252397E+00
          2   -1    0    0  502    0  0.00000000000E+00  0.00000000000E+00  0.97114139974E+03  0.97114139974E+03  0.00000000000E+00 0. -1.
         -2   -1    0    0    0  501 -0.00000000000E+00 -0.00000000000E+00 -0.19754987391E+02  0.19754987391E+02  0.00000000000E+00 0.  1.
         23    2    1    2    0    0 -0.39076899378E+02 -0.42363152845E+02  0.29960768262E+03  0.31868809315E+03  0.92063545719E+02 0.  0.
         23    2    1    2    0    0  0.54146133051E+02  0.77066159483E+02  0.42143096296E+03  0.43877420450E+03  0.77767276739E+02 0.  0.
        -11    1    4    4    0    0 -0.78729797035E+00  0.52354943138E+02  0.11334422387E+03  0.12485420695E+03  0.00000000000E+00 0.  1.
         11    1    4    4    0    0  0.54933431022E+02  0.24711216345E+02  0.30808673909E+03  0.31391999755E+03  0.00000000000E+00 0. -1.
        -13    1    3    3    0    0  0.29567258951E+02 -0.21065335912E+02  0.11447563544E+03  0.12009430581E+03  0.00000000000E+00 0. -1.
         13    1    3    3    0    0 -0.68644158329E+02 -0.21297816933E+02  0.18513204718E+03  0.19859378734E+03  0.00000000000E+00 0.  1.
         21    1    1    2  502  501 -0.15069233673E+02 -0.34703006638E+02  0.23034776677E+03  0.23343408948E+03  0.00000000000E+00 0. -1.
<scales pt_clust_5="13000.00000" pt_clust_6="13000.00000" pt_clust_7="13000.00000" pt_clust_8="13000.00000" pt_clust_9="37.83359"></scales>
<clustering>
<clus scale="   37.834">  1  9  2 -1</clus>
<clus scale="   77.767">  5  6 -1 -1</clus>
<clus scale="   92.064">  7  8 -1 -1</clus>
<clus scale="  106.498">  1  5  2 -1</clus>
<clus scale="   37.834">  1  5  2 -1</clus>
</clustering>
</event>
<event>
 9    1  0.2081967E-005  0.1292642E+03  0.7546771E-02  0.1231095E+00
         -1   -1    0    0    0  501 -0.00000000000E+00  0.00000000000E+00  0.28807235266E+03  0.28807235266E+03  0.00000000000E+00 0.  1.
          1   -1    0    0  502    0  0.00000000000E+00 -0.00000000000E+00 -0.24121403487E+03  0.24121403487E+03  0.00000000000E+00 0. -1.
         23    2    1    2    0    0 -0.52641131687E+02  0.70852337138E+02  0.25010517135E+03  0.28236687445E+03  0.96888144906E+02 0.  0.
         23    2    1    2    0    0  0.36344750474E+02 -0.40842108642E+02 -0.17143240225E+03  0.20024676764E+03  0.87867403994E+02 0.  0.
        -13    1    3    3    0    0 -0.19283416018E+01  0.57790284746E+02  0.53047649344E+02  0.78469666835E+02  0.00000000000E+00 0. -1.
         13    1    3    3    0    0 -0.50712790085E+02  0.13062052393E+02  0.19705752201E+03  0.20389720761E+03  0.00000000000E+00 0.  1.
        -13    1    4    4    0    0  0.17751995238E+02  0.20620792850E+02 -0.10245427024E+03  0.10600579194E+03  0.00000000000E+00 0.  1.
         13    1    4    4    0    0  0.18592755236E+02 -0.61462901492E+02 -0.68978132006E+02  0.94240975707E+02  0.00000000000E+00 0. -1.
         21    1    1    2  502  501  0.16296381212E+02 -0.30010228496E+02 -0.31814451311E+02  0.46672745443E+02  0.00000000000E+00 0. -1.
<scales pt_clust_5="13000.00000" pt_clust_6="13000.00000" pt_clust_7="13000.00000" pt_clust_8="13000.00000" pt_clust_9="34.14946"></scales>
<clustering>
<clus scale="   34.149">  2  9  1 -1</clus>
<clus scale="   87.867">  7  8 -1 -1</clus>
<clus scale="   96.888">  5  6 -1 -1</clus>
<clus scale="  122.648">  2  7  1 -1</clus>
<clus scale="   34.149">  2  5  1 -1</clus>
</clustering>
</event>
<event>
 9    1  0.1296032E-005  0.1185467E+03  0.7546771E-02  0.1256817E+00
          2   -1    0    0  502    0  0.00000000000E+00  0.00000000000E+00  0.20484751492E+03  0.20484751492E+03  0.00000000000E+00 0. -1.
         -2   -1    0    0    0  501 -0.00000000000E+00 -0.00000000000E+00 -0.15696591625E+03  0.15696591625E+03  0.00000000000E+00 0.  1.
         23    2    1    2    0    0 -0.17145401638E+02 -0.34976664381E+02 -0.96215539894E+02  0.13359789102E+03  0.84104901879E+02 0.  0.
         23    2    1    2    0    0  0.31930892664E+02  0.60936461253E+02  0.68573764549E+02  0.14699792001E+03  0.11033219424E+03 0.  0.
        -11    1    3    3    0    0  0.33022204835E+02 -0.84847623220E+01 -0.23682489562E+02  0.41512859642E+02  0.00000000000E+00 0.  1.
         11    1    3    3    0    0 -0.50167606473E+02 -0.26491902059E+02 -0.72533050332E+02  0.92085031380E+02  0.00000000000E+00 0. -1.
        -13    1    4    4    0    0 -0.31455341918E+01  0.83985680823E+02  0.62171329255E+02  0.10454072484E+03  0.00000000000E+00 0.  1.
         13    1    4    4    0    0  0.35076426856E+02 -0.23049219570E+02  0.64024352944E+01  0.42457195167E+02  0.00000000000E+00 0. -1.
         21    1    1    2  502  501 -0.14785491027E+02 -0.25959796872E+02  0.75523374018E+02  0.81217620142E+02  0.00000000000E+00 0. -1.
<scales pt_clust_5="13000.00000" pt_clust_6="13000.00000" pt_clust_7="13000.00000" pt_clust_8="13000.00000" pt_clust_9="29.87510"></scales>
<clustering>
<clus scale="   29.875">  1  9  2 -1</clus>
<clus scale="   84.105">  5  6 -1 -1</clus>
<clus scale="   94.624">  2  5  1 -1</clus>
<clus scale="  110.332">  7  8 -1 -1</clus>
<clus scale="   29.875">  1  5  2 -1</clus>
</clustering>
</event>
<event>
 9    1  0.1296032E-005  0.2613235E+03  0.7546771E-02  0.1106494E+00
          1   -1    0    0  502    0  0.00000000000E+00  0.00000000000E+00  0.23746872187E+03  0.23746872187E+03  0.00000000000E+00 0. -1.
         -1   -1    0    0    0  501 -0.00000000000E+00 -0.00000000000E+00 -0.89635194892E+03  0.89635194892E+03  0.00000000000E+00 0.  1.
         23    2    1    2    0    0  0.22698591836E+03  0.84826929020E+02 -0.76576427010E+03  0.80841706898E+03  0.91787935152E+02 0.  0.
         23    2    1    2    0    0 -0.25320274182E+03 -0.83235418502E+02  0.95655990134E+02  0.29684039908E+03  0.89019046944E+02 0.  0.
        -11    1    4    4    0    0 -0.15571177612E+03 -0.91528370573E+02  0.42752888738E+02  0.18561090845E+03  0.00000000000E+00 0. -1.
         11    1    4    4    0    0 -0.97490965700E+02  0.82929520713E+01  0.52903101396E+02  0.11122949062E+03  0.00000000000E+00 0.  1.
        -11    1    3    3    0    0  0.13635797634E+03  0.85930399295E+02 -0.39244188676E+03  0.42425012165E+03  0.00000000000E+00 0.  1.
         11    1    3    3    0    0  0.90627942021E+02 -0.11034702756E+01 -0.37332238334E+03  0.38416694733E+03  0.00000000000E+00 0. -1.
         21    1    1    2  502  501  0.26216823452E+02 -0.15915105178E+01  0.11225052919E+02  0.28563202738E+02  0.00000000000E+00 0. -1.
<scales pt_clust_5="13000.00000" pt_clust_6="13000.00000" pt_clust_7="13000.00000" pt_clust_8="13000.00000" pt_clust_9="26.26509"></scales>
<clustering>
<clus scale="   26.265">  1  9  2 -1</clus>
<clus scale="   89.019">  5  6 -1 -1</clus>
<clus scale="   91.788">  7  8 -1 -1</clus>
<clus scale="  260.364">  1  5  2 -1</clus>
<clus scale="   26.265">  1  5  2 -1</clus>
</clustering>
</event>
<event>
 9    1  0.1296032E-005  0.1059748E+03  0.7546771E-02  0.1270909E+00
          1   -1    0    0  502    0  0.00000000000E+00  0.00000000000E+00  0.18009994611E+03  0.18009994611E+03  0.00000000000E+00 0. -1.
         -1   -1    0    0    0  501 -0.00000000000E+00 -0.00000000000E+00 -0.10108947255E+03  0.10108947255E+03  0.00000000000E+00 0.  1.
         23    2    1    2    0    0 -0.10023233666E+02  0.41237462834E+02 -0.56803403644E+01  0.98497252794E+02  0.88704278291E+02 0.  0.
         23    2    1    2    0    0 -0.31629470389E+02 -0.59550275670E+02  0.58596972573E+02  0.13024032675E+03  0.94774884801E+02 0.  0.
        -11    1    4    4    0    0  0.21608625085E+02 -0.12274859706E+02  0.53343070044E+02  0.58848007448E+02  0.00000000000E+00 0. -1.
         11    1    4    4    0    0 -0.53238095473E+02 -0.47275415964E+02  0.52539025285E+01  0.71392319306E+02  0.00000000000E+00 0.  1.
        -13    1    3    3    0    0 -0.34453102891E+02  0.46636362277E+02 -0.28523369403E+02  0.64618489516E+02  0.00000000000E+00 0.  1.
         13    1    3    3    0    0  0.24429869225E+02 -0.53988994433E+01  0.22843029038E+02  0.33878763277E+02  0.00000000000E+00 0. -1.
         21    1    1    2  502  501  0.41652704055E+02  0.18312812835E+02  0.26093841350E+02  0.52451839104E+02  0.00000000000E+00 0.  1.
<scales pt_clust_5="13000.00000" pt_clust_6="13000.00000" pt_clust_7="13000.00000" pt_clust_8="13000.00000" pt_clust_9="45.50062"></scales>
<clustering>
<clus scale="   45.501">  1  9  2 -1</clus>
<clus scale="   88.704">  7  8 -1 -1</clus>
<clus scale="   94.775">  5  6 -1 -1</clus>
<clus scale="  100.582">  2  7  1 -1</clus>
<clus scale="   45.501">  1  5  2 -1</clus>
</clustering>
</event>
<event>
 9    1  0.1296032E-005  0.2231029E+03  0.7546771E-02  0.1131961E+00
         -2   -1    0    0    0  501 -0.00000000000E+00  0.00000000000E+00  0.64801673077E+03  0.64801673077E+03  0.00000000000E+00 0.  1.
          2   -1    0    0  502    0  0.00000000000E+00 -0.00000000000E+00 -0.92957416961E+02  0.92957416961E+02  0.00000000000E+00 0. -1.
         23    2    1    2    0    0 -0.44601037016E+02  0.20265246867E+03  0.36753484370E+03  0.43232957328E+03  0.93646799427E+02 0.  0.
         23    2    1    2    0    0  0.22823746001E+02 -0.19422776637E+03  0.18780917303E+03  0.28529276363E+03  0.88737404145E+02 0.  0.
        -11    1    3    3    0    0  0.22063819318E+02  0.22715043930E+02  0.27752168248E+02  0.42106628766E+02  0.00000000000E+00 0. -1.
         11    1    3    3    0    0 -0.66664856333E+02  0.17993742474E+03  0.33978267545E+03  0.39022294452E+03  0.00000000000E+00 0.  1.
        -13    1    4    4    0    0  0.36021054096E+02 -0.22794582945E+02  0.42160880399E+02  0.59955393301E+02  0.00000000000E+00 0.  1.
         13    1    4    4    0    0 -0.13197308095E+02 -0.17143318343E+03  0.14564829263E+03  0.22533737033E+03  0.00000000000E+00 0. -1.
         21    1    1    2  502  501  0.21777291015E+02 -0.84247022996E+01 -0.28470291526E+00  0.23351810819E+02  0.00000000000E+00 0.  1.
<scales pt_clust_5="13000.00000" pt_clust_6="13000.00000" pt_clust_7="13000.00000" pt_clust_8="13000.00000" pt_clust_9="23.35008"></scales>
<clustering>
<clus scale="   23.350">  2  9  1 -1</clus>
<clus scale="   88.737">  7  8 -1 -1</clus>
<clus scale="   93.647">  5  6 -1 -1</clus>
<clus scale="  221.087">  2  7  1 -1</clus>
<clus scale="   23.350">  2  5  1 -1</clus>
</clustering>
</event>
<event>
 9    1  0.1296032E-005  0.1965704E+03  0.7546771E-02  0.1153741E+00
          1   -1    0    0  502    0  0.00000000000E+00  0.00000000000E+00  0.11656994266E+04  0.11656994266E+04  0.00000000000E+00 0. -1.
         -1   -1    0    0    0  501 -0.00000000000E+00 -0.00000000000E+00 -0.15394038962E+03  0.15394038962E+03  0.00000000000E+00 0.  1.
         23    2    1    2    0    0  0.16441884784E+03  0.50187276826E+02 -0.77686618647E+02  0.20594744511E+03  0.82624567480E+02 0.  0.
         23    2    1    2    0    0 -0.17735911378E+03 -0.65650580500E+02  0.99283217909E+03  0.10149972441E+04  0.93474144918E+02 0.  0.
        -11    1    4    4    0    0 -0.59384550047E+02 -0.70452004142E+02  0.47791539478E+03  0.48671668786E+03  0.00000000000E+00 0.  1.
         11    1    4    4    0    0 -0.11797456374E+03  0.48014236417E+01  0.51491678431E+03  0.52828055626E+03  0.00000000000E+00 0. -1.
        -13    1    3    3    0    0  0.44017088435E+02  0.54743691548E+02 -0.28506196303E+02  0.75808832376E+02  0.00000000000E+00 0.  1.
         13    1    3    3    0    0  0.12040175941E+03 -0.45564147220E+01 -0.49180422344E+02  0.13013861274E+03  0.00000000000E+00 0. -1.
         21    1    1    2  502  501  0.12940265942E+02  0.15463303675E+02  0.96613476508E+02  0.98695126963E+02  0.00000000000E+00 0.  1.
<scales pt_clust_5="13000.00000" pt_clust_6="13000.00000" pt_clust_7="13000.00000" pt_clust_8="13000.00000" pt_clust_9="20.16344"></scales>
<clustering>
<clus scale="   20.163">  1  9  2 -1</clus>
<clus scale="   82.625">  7  8 -1 -1</clus>
<clus scale="   93.474">  5  6 -1 -1</clus>
<clus scale="  191.649">  2  7  1 -1</clus>
<clus scale="   20.163">  1  5  2 -1</clus>
</clustering>
</event>
<event>
 9    1  0.1296032E-005  0.1617456E+03  0.7546771E-02  0.1187321E+00
          2   -1    0    0  502    0  0.00000000000E+00  0.00000000000E+00  0.33928099502E+03  0.33928099502E+03  0.00000000000E+00 0. -1.
         -2   -1    0    0    0  501 -0.00000000000E+00 -0.00000000000E+00 -0.25726341116E+03  0.25726341116E+03  0.00000000000E+00 0.  1.
         23    2    1    2    0    0  0.14417622991E+03  0.71467702943E+02 -0.17332499942E+03  0.25250236335E+03  0.88439076438E+02 0.  0.
         23    2    1    2    0    0 -0.11754442754E+03 -0.55666524006E+02  0.26700058064E+03  0.31095369056E+03  0.92127266707E+02 0.  0.
        -11    1    3    3    0    0  0.19023518022E+02 -0.18593247406E+02 -0.43249874160E+02  0.50775532513E+02  0.00000000000E+00 0. -1.
         11    1    3    3    0    0  0.12515271188E+03  0.90060950349E+02 -0.13007512526E+03  0.20172683084E+03  0.00000000000E+00 0.  1.
        -11    1    4    4    0    0 -0.44187644555E+02 -0.71505520802E+02  0.13186088327E+03  0.15637416658E+03  0.00000000000E+00 0.  1.
         11    1    4    4    0    0 -0.73356782984E+02  0.15838996796E+02  0.13513969736E+03  0.15457952398E+03  0.00000000000E+00 0. -1.
         21    1    1    2  502  501 -0.26631802367E+02 -0.15801178937E+02 -0.11657997358E+02  0.33088352264E+02  0.00000000000E+00 0.  1.
<scales pt_clust_5="13000.00000" pt_clust_6="13000.00000" pt_clust_7="13000.00000" pt_clust_8="13000.00000" pt_clust_9="30.96660"></scales>
<clustering>
<clus scale="   30.967">  2  9  1 -1</clus>
<clus scale="   88.439">  5  6 -1 -1</clus>
<clus scale="   92.127">  7  8 -1 -1</clus>
<clus scale="  159.674">  2  5  1 -1</clus>
<clus scale="  161.746">  1  5  2 -1</clus>
</clustering>
</event>
<event>
 9    1  0.1296032E-005  0.1445241E+03  0.7546771E-02  0.1208083E+00
          1   -1    0    0  502    0  0.00000000000E+00  0.00000000000E+00  0.74369724024E+03  0.74369724024E+03  0.00000000000E+00 0. -1.
         -1   -1    0    0    0  501 -0.00000000000E+00 -0.00000000000E+00 -0.34242639952E+02  0.34242639952E+02  0.00000000000E+00 0.  1.
         23    2    1    2    0    0  0.70837466309E+02 -0.74384539215E+02  0.28274629829E+03  0.31523768169E+03  0.94224839911E+02 0.  0.
         23    2    1    2    0    0 -0.62286250362E+02  0.10168391810E+03  0.34591107781E+03  0.37699005922E+03  0.90817590924E+02 0.  0.
        -11    1    4    4    0    0 -0.36263814556E+02 -0.77816141747E+01  0.76053142265E+02  0.84614999934E+02  0.00000000000E+00 0.  1.
         11    1    4    4    0    0 -0.26022435806E+02  0.10946553227E+03  0.26985793554E+03  0.29237505929E+03  0.00000000000E+00 0. -1.
        -11    1    3    3    0    0  0.24134585120E+02 -0.87525021130E+02  0.17909738890E+03  0.20079587205E+03  0.00000000000E+00 0.  1.
         11    1    3    3    0    0  0.46702881189E+02  0.13140481915E+02  0.10364890939E+03  0.11444180964E+03  0.00000000000E+00 0. -1.
         21    1    1    2  502  501 -0.85512159465E+01 -0.27299378884E+02  0.80797224194E+02  0.85712139275E+02  0.00000000000E+00 0.  1.
<scales pt_clust_5="13000.00000" pt_clust_6="13000.00000" pt_clust_7="13000.00000" pt_clust_8="13000.00000" pt_clust_9="28.60733"></scales>
<clustering>
<clus scale="   28.607">  1  9  2 -1</clus>
<clus scale="   90.818">  5  6 -1 -1</clus>
<clus scale="   94.225">  7  8 -1 -1</clus>
<clus scale="  142.326">  1  5  2 -1</clus>
<clus scale="   28.607">  1  5  2 -1</clus>
</clustering>
</event>
<event>
 9    1  0.1296032E-005  0.1230568E+03  0.7546771E-02  0.1238378E+00
          1   -1    0    0  502    0  0.00000000000E+00  0.00000000000E+00  0.63918471772E+03  0.63918471772E+03  0.00000000000E+00 0. -1.
         -1   -1    0    0    0  501 -0.00000000000E+00 -0.00000000000E+00 -0.34413728377E+02  0.34413728377E+02  0.00000000000E+00 0.  1.
         23    2    1    2    0    0 -0.64555548417E+02  0.33336084357E+02  0.22317380134E+03  0.25178513491E+03  0.91161917528E+02 0.  0.
         23    2    1    2    0    0  0.97273260927E+02 -0.60242499638E+01  0.24500718428E+03  0.27872867145E+03  0.90348066177E+02 0.  0.
        -11    1    4    4    0    0  0.55546476510E+02 -0.40743572240E+02  0.18699794859E+03  0.19928292076E+03  0.00000000000E+00 0.  1.
         11    1    4    4    0    0  0.41726784417E+02  0.34719322276E+02  0.58009235692E+02  0.79445750690E+02  0.00000000000E+00 0. -1.
        -13    1    3    3    0    0  0.13852164780E+02 -0.15687373896E+02  0.21934861413E+02  0.30316898160E+02  0.00000000000E+00 0.  1.
         13    1    3    3    0    0 -0.78407713197E+02  0.49023458253E+02  0.20123893993E+03  0.22146823675E+03  0.00000000000E+00 0. -1.
         21    1    1    2  502  501 -0.32717712510E+02 -0.27311834393E+02  0.13659000373E+03  0.14308463973E+03  0.00000000000E+00 0. -1.
<scales pt_clust_5="13000.00000" pt_clust_6="13000.00000" pt_clust_7="13000.00000" pt_clust_8="13000.00000" pt_clust_9="42.61907"></scales>
<clustering>
<clus scale="   42.619">  1  9  2 -1</clus>
<clus scale="   90.348">  5  6 -1 -1</clus>
<clus scale="   91.162">  7  8 -1 -1</clus>
<clus scale="  122.455">  1  5  2 -1</clus>
<clus scale="   42.619">  1  5  2 -1</clus>
</clustering>
</event>
<event>
 9    1  0.1296032E-005  0.1342314E+03  0.7546771E-02  0.1221376E+00
         -1   -1    0    0    0  501 -0.00000000000E+00  0.00000000000E+00  0.56340366048E+03  0.56340366048E+03  0.00000000000E+00 0.  1.
          1   -1    0    0  502    0  0.00000000000E+00 -0.00000000000E+00 -0.12372578888E+03  0.12372578888E+03  0.00000000000E+00 0. -1.
         23    2    1    2    0    0  0.54613393188E+02  0.72761077373E+02  0.34840261500E+03  0.37166877195E+03  0.92067892415E+02 0.  0.
         23    2    1    2    0    0 -0.79121947674E+02 -0.81405683399E+02  0.17493937993E+03  0.22785312073E+03  0.91793736620E+02 0.  0.
        -11    1    3    3    0    0  0.26151191678E+02  0.91214556990E+02  0.27194179063E+03  0.28802138414E+03  0.00000000000E+00 0.  1.
         11    1    3    3    0    0  0.28462201509E+02 -0.18453479617E+02  0.76460824370E+02  0.83647387813E+02  0.00000000000E+00 0. -1.
        -13    1    4    4    0    0 -0.39838672661E+02 -0.92808474598E+02  0.14686462669E+03  0.17824071188E+03  0.00000000000E+00 0. -1.
         13    1    4    4    0    0 -0.39283275012E+02  0.11402791199E+02  0.28074753234E+02  0.49612408851E+02  0.00000000000E+00 0.  1.
         21    1    1    2  502  501  0.24508554486E+02  0.86446060260E+01 -0.83664123319E+02  0.87607556678E+02  0.00000000000E+00 0. -1.
<scales pt_clust_5="13000.00000" pt_clust_6="13000.00000" pt_clust_7="13000.00000" pt_clust_8="13000.00000" pt_clust_9="25.98843"></scales>
<clustering>
<clus scale="   25.988">  2  9  1 -1</clus>
<clus scale="   91.794">  7  8 -1 -1</clus>
<clus scale="   92.068">  5  6 -1 -1</clus>
<clus scale="  134.044">  2  7  1 -1</clus>
<clus scale="   25.988">  2  5  1 -1</clus>
</clustering>
</event>
<event>
 9    1  0.1296032E-005  0.9460605E+02  0.7546771E-02  0.1294192E+00
          2   -1    0    0  502    0  0.00000000000E+00  0.00000000000E+00  0.30512938454E+03  0.30512938454E+03  0.00000000000E+00 0.  1.
         -2   -1    0    0    0  501 -0.00000000000E+00 -0.00000000000E+00 -0.14260731950E+03  0.14260731950E+03  0.00000000000E+00 0. -1.
         23    2    1    2    0    0 -0.76583698997E+01 -0.35362074143E+02 -0.45386451802E+02  0.10760087666E+03  0.90602934466E+02 0.  0.
         23    2    1    2    0    0 -0.21612279714E+02  0.17139252636E+02 -0.32953931062E+02  0.96818008543E+02  0.86757827257E+02 0.  0.
        -11    1    4    4    0    0  0.21603317442E+02 -0.13674269938E+02 -0.35421235549E+02  0.43684698817E+02  0.00000000000E+00 0.  1.
         11    1    4    4    0    0 -0.43215597157E+02  0.30813522574E+02  0.24673044874E+01  0.53133309726E+02  0.00000000000E+00 0. -1.
        -13    1    3    3    0    0  0.12100689283E+02 -0.56904059836E+02 -0.59042210696E+01  0.58475281388E+02  0.00000000000E+00 0.  1.
         13    1    3    3    0    0 -0.19759059182E+02  0.21541985693E+02 -0.39482230733E+02  0.49125595274E+02  0.00000000000E+00 0. -1.
         21    1    1    2  502  501  0.29270649614E+02  0.18222821507E+02  0.24086244791E+03  0.24331781884E+03  0.00000000000E+00 0.  1.
<scales pt_clust_5="13000.00000" pt_clust_6="13000.00000" pt_clust_7="13000.00000" pt_clust_8="13000.00000" pt_clust_9="34.47959"></scales>
<clustering>
<clus scale="   34.480">  1  9  2 -1</clus>
<clus scale="   86.758">  5  6 -1 -1</clus>
<clus scale="   90.603">  7  8 -1 -1</clus>
<clus scale="   90.930">  1  5  2 -1</clus>
<clus scale="   34.480">  1  5  2 -1</clus>
</clustering>
</event>
<event>
 9    1  0.1296032E-005  0.9713114E+02  0.7546771E-02  0.1287101E+00
         -2   -1    0    0    0  501 -0.00000000000E+00  0.00000000000E+00  0.14759307682E+03  0.14759307682E+03  0.00000000000E+00 0.  1.
          2   -1    0    0  502    0  0.00000000000E+00 -0.00000000000E+00 -0.13864443322E+03  0.13864443322E+03  0.00000000000E+00 0. -1.
         23    2    1    2    0    0 -0.60961847957E+01 -0.47254225542E+02  0.45040349379E+02  0.11136707470E+03  0.90021480513E+02 0.  0.
         23    2    1    2    0    0 -0.43075343165E+02 -0.79073351713E+00 -0.32435980078E+02  0.10602625198E+03  0.91287254627E+02 0.  0.
        -13    1    3    3    0    0 -0.22323748646E+02 -0.19297763174E+02 -0.22089094653E+02  0.36860297336E+02  0.00000000000E+00 0.  1.
         13    1    3    3    0    0  0.16227563850E+02 -0.27956462368E+02  0.67129444032E+02  0.74506777360E+02  0.00000000000E+00 0. -1.
        -13    1    4    4    0    0 -0.46383911409E+02  0.26451882865E+02  0.11123734199E+02  0.54542706270E+02  0.00000000000E+00 0.  1.
         13    1    4    4    0    0  0.33085682437E+01 -0.27242616382E+02 -0.43559714277E+02  0.51483545712E+02  0.00000000000E+00 0. -1.
         21    1    1    2  502  501  0.49171527961E+02  0.48044959059E+02 -0.36557257020E+01  0.68844183366E+02  0.00000000000E+00 0.  1.
<scales pt_clust_5="13000.00000" pt_clust_6="13000.00000" pt_clust_7="13000.00000" pt_clust_8="13000.00000" pt_clust_9="68.74705"></scales>
<clustering>
<clus scale="   68.747">  2  9  1 -1</clus>
<clus scale="   90.021">  5  6 -1 -1</clus>
<clus scale="   91.287">  7  8 -1 -1</clus>
<clus scale="   95.942">  1  5  2 -1</clus>
<clus scale="   68.747">  2  5  1 -1</clus>
</clustering>
</event>
<event>
 9    1  0.1296032E-005  0.2041408E+03  0.7546771E-02  0.1147340E+00
         -2   -1    0    0    0  501 -0.00000000000E+00  0.00000000000E+00  0.68084618701E+03  0.68084618701E+03  0.00000000000E+00 0.  1.
          2   -1    0    0  502    0  0.00000000000E+00 -0.00000000000E+00 -0.17984217831E+03  0.17984217831E+03  0.00000000000E+00 0. -1.
         23    2    1    2    0    0 -0.14489257368E+03  0.10785526445E+03  0.59512793301E+03  0.62987593063E+03  0.99698622644E+02 0.  0.
         23    2    1    2    0    0  0.13721649067E+03 -0.80546369903E+02 -0.78926049435E+02  0.19863055512E+03  0.88930833419E+02 0.  0.
        -11    1    4    4    0    0  0.43047316397E+02 -0.41574450854E+02  0.13159651887E+02  0.61275466955E+02  0.00000000000E+00 0. -1.
         11    1    4    4    0    0  0.94169174274E+02 -0.38971919049E+02 -0.92085701322E+02  0.13735508817E+03  0.00000000000E+00 0.  1.
        -11    1    3    3    0    0 -0.96788428793E+02  0.15343466304E+02  0.35074639268E+03  0.36417915081E+03  0.00000000000E+00 0.  1.
         11    1    3    3    0    0 -0.48104144891E+02  0.92511798143E+02  0.24438154033E+03  0.26569677982E+03  0.00000000000E+00 0. -1.
         21    1    1    2  502  501  0.76760830135E+01 -0.27308894544E+02 -0.15197874872E+02  0.32181879564E+02  0.00000000000E+00 0. -1.
<scales pt_clust_5="13000.00000" pt_clust_6="13000.00000" pt_clust_7="13000.00000" pt_clust_8="13000.00000" pt_clust_9="28.36720"></scales>
<clustering>
<clus scale="   28.367">  2  9  1 -1</clus>
<clus scale="   88.931">  5  6 -1 -1</clus>
<clus scale="   99.699">  7  8 -1 -1</clus>
<clus scale="  199.104">  2  5  1 -1</clus>
<clus scale="   28.367">  2  5  1 -1</clus>
</clustering>
</event>
<event>
 9    1  0.1296032E-005  0.9242142E+02  0.7546771E-02  0.1297480E+00
          1   -1    0    0  502    0  0.00000000000E+00  0.00000000000E+00  0.85122601386E+02  0.85122601386E+02  0.00000000000E+00 0. -1.
         -1   -1    0    0    0  501 -0.00000000000E+00 -0.00000000000E+00 -0.16809023713E+03  0.16809023713E+03  0.00000000000E+00 0.  1.
         23    2    1    2    0    0  0.60845976171E+01 -0.17091079894E+02 -0.68120585040E+02  0.11507170709E+03  0.90950295911E+02 0.  0.
         23    2    1    2    0    0 -0.21751078384E+02  0.11129642066E+01 -0.42865430250E+02  0.10228351867E+03  0.90278042629E+02 0.  0.
        -11    1    4    4    0    0 -0.86901948793E+01 -0.39451146593E+02 -0.43896886383E+02  0.59656090122E+02  0.00000000000E+00 0.  1.
         11    1    4    4    0    0 -0.13060883505E+02  0.40564110799E+02  0.10314561332E+01  0.42627428548E+02  0.00000000000E+00 0. -1.
        -11    1    3    3    0    0  0.38033594495E+02 -0.37884927334E+02 -0.47771296195E+02  0.71860411699E+02  0.00000000000E+00 0. -1.
         11    1    3    3    0    0 -0.31948996878E+02  0.20793847440E+02 -0.20349288844E+02  0.43211295391E+02  0.00000000000E+00 0.  1.
         21    1    1    2  502  501  0.15666480767E+02  0.15978115687E+02  0.28018379543E+02  0.35857612758E+02  0.00000000000E+00 0. -1.
<scales pt_clust_5="13000.00000" pt_clust_6="13000.00000" pt_clust_7="13000.00000" pt_clust_8="13000.00000" pt_clust_9="22.37719"></scales>
<clustering>
<clus scale="   22.377">  1  9  2 -1</clus>
<clus scale="   90.278">  5  6 -1 -1</clus>
<clus scale="   90.950">  7  8 -1 -1</clus>
<clus scale="   91.760">  1  5  2 -1</clus>
<clus scale="   22.377">  1  5  2 -1</clus>
</clustering>
</event>
<event>
 9    1  0.1296032E-005  0.1108715E+03  0.7546771E-02  0.1265851E+00
          1   -1    0    0  502    0  0.00000000000E+00  0.00000000000E+00  0.22748506130E+03  0.22748506130E+03  0.00000000000E+00 0. -1.
         -1   -1    0    0    0  501 -0.00000000000E+00 -0.00000000000E+00 -0.99210027454E+02  0.99210027454E+02  0.00000000000E+00 0.  1.
         23    2    1    2    0    0 -0.95594019409E+01  0.26431942120E+02 -0.32360981005E+02  0.10193697407E+03  0.92487209173E+02 0.  0.
         23    2    1    2    0    0  0.36930416970E+02 -0.16084560516E+02  0.81661148411E+02  0.14053655985E+03  0.10704864647E+03 0.  0.
        -13    1    4    4    0    0  0.65667666896E+02 -0.35272902850E+02  0.74218729076E+02  0.10518954272E+03  0.00000000000E+00 0.  1.
         13    1    4    4    0    0 -0.28737249927E+02  0.19188342333E+02  0.74424193349E+01  0.35347017136E+02  0.00000000000E+00 0. -1.
        -13    1    3    3    0    0  0.27105273952E+02 -0.52750847126E+01  0.17264050555E+02  0.32566391208E+02  0.00000000000E+00 0.  1.
         13    1    3    3    0    0 -0.36664675893E+02  0.31707026833E+02 -0.49625031560E+02  0.69370582859E+02  0.00000000000E+00 0. -1.
         21    1    1    2  502  501 -0.27371015029E+02 -0.10347381604E+02  0.78974866443E+02  0.84221554839E+02  0.00000000000E+00 0. -1.
<scales pt_clust_5="13000.00000" pt_clust_6="13000.00000" pt_clust_7="13000.00000" pt_clust_8="13000.00000" pt_clust_9="29.26159"></scales>
<clustering>
<clus scale="   29.262">  1  9  2 -1</clus>
<clus scale="   92.487">  7  8 -1 -1</clus>
<clus scale="   96.886">  2  7  1 -1</clus>
<clus scale="  107.049">  5  6 -1 -1</clus>
<clus scale="   29.262">  1  5  2 -1</clus>
</clustering>
</event>
<event>
 9    1  0.2058645E-005  0.1562509E+03  0.7546771E-02  0.1215147E+00
          2   -1    0    0  502    0  0.00000000000E+00  0.00000000000E+00  0.12480156029E+03  0.12480156029E+03  0.00000000000E+00 0. -1.
         -2   -1    0    0    0  501 -0.00000000000E+00 -0.00000000000E+00 -0.10105520158E+04  0.10105520158E+04  0.00000000000E+00 0.  1.
         23    2    1    2    0    0  0.10476482547E+03  0.35988728326E+01 -0.64685375789E+02  0.15257878278E+03  0.90041471406E+02 0.  0.
         23    2    1    2    0    0  0.25227405952E+02  0.43627189278E+01  0.45096870339E+02  0.10687645965E+03  0.93452632838E+02 0.  0.
        -11    1    3    3    0    0  0.10289358502E+03 -0.25377816389E+02 -0.36431416779E+02  0.11206414026E+03  0.00000000000E+00 0. -1.
         11    1    3    3    0    0  0.18712404475E+01  0.28976689221E+02 -0.28253959010E+02  0.40514642523E+02  0.00000000000E+00 0.  1.
        -13    1    4    4    0    0  0.79520739684E+01  0.41832989865E+02  0.49599300418E+02  0.65370674797E+02  0.00000000000E+00 0.  1.
         13    1    4    4    0    0  0.17275331984E+02 -0.37470270938E+02 -0.45024300785E+01  0.41505784849E+02  0.00000000000E+00 0. -1.
         21    1    1    2  502  501 -0.12999223142E+03 -0.79615917604E+01 -0.86616195008E+03  0.87589833367E+03  0.00000000000E+00 0.  1.
<scales pt_clust_5="13000.00000" pt_clust_6="13000.00000" pt_clust_7="13000.00000" pt_clust_8="13000.00000" pt_clust_9="127.69836"></scales>
<clustering>
<clus scale="   90.041">  5  6 -1 -1</clus>
<clus scale="   93.453">  7  8 -1 -1</clus>
<clus scale="   96.896">  1  7  2 -1</clus>
<clus scale="  127.698">  2  9  1 -1</clus>
<clus scale="   96.896">  1  5  2 -1</clus>
</clustering>
</event>
<event>
 9    1  0.1296032E-005  0.1962582E+03  0.7546771E-02  0.1153473E+00
          1   -1    0    0  502    0  0.00000000000E+00  0.00000000000E+00  0.40796026851E+03  0.40796026851E+03  0.00000000000E+00 0. -1.
         -1   -1    0    0    0  501 -0.00000000000E+00 -0.00000000000E+00 -0.28424740532E+03  0.28424740532E+03  0.00000000000E+00 0.  1.
         23    2    1    2    0    0 -0.10687837495E+03  0.13281535487E+03 -0.19277107079E+03  0.27193668045E+03  0.87897479600E+02 0.  0.
         23    2    1    2    0    0  0.13962476619E+03 -0.12458367658E+03  0.16857711956E+03  0.26855905444E+03  0.93217770170E+02 0.  0.
        -11    1    3    3    0    0 -0.12004002676E+03  0.99576623965E+02 -0.16000316970E+03  0.22344155025E+03  0.00000000000E+00 0. -1.
         11    1    3    3    0    0  0.13161651819E+02  0.33238730905E+02 -0.32767901090E+02  0.48495130195E+02  0.00000000000E+00 0.  1.
        -13    1    4    4    0    0  0.56782144789E+02 -0.87810454707E+02  0.13749123479E+03  0.17273889998E+03  0.00000000000E+00 0. -1.
         13    1    4    4    0    0  0.82842621399E+02 -0.36773221878E+02  0.31085884771E+02  0.95820154453E+02  0.00000000000E+00 0.  1.
         21    1    1    2  502  501 -0.32746391242E+02 -0.82316782846E+01  0.14790681442E+03  0.15171193895E+03  0.00000000000E+00 0. -1.
<scales pt_clust_5="13000.00000" pt_clust_6="13000.00000" pt_clust_7="13000.00000" pt_clust_8="13000.00000" pt_clust_9="33.76517"></scales>
<clustering>
<clus scale="   33.765">  1  9  2 -1</clus>
<clus scale="   87.897">  5  6 -1 -1</clus>
<clus scale="   93.218">  7  8 -1 -1</clus>
<clus scale="  193.788">  2  5  1 -1</clus>
<clus scale="   33.765">  1  5  2 -1</clus>
</clustering>
</event>
<event>
 9    1  0.1296032E-005  0.1465542E+03  0.7546771E-02  0.1205062E+00
          1   -1    0    0  502    0  0.00000000000E+00  0.00000000000E+00  0.36314673084E+02  0.36314673084E+02  0.00000000000E+00 0. -1.
         -1   -1    0    0    0  501 -0.00000000000E+00 -0.00000000000E+00 -0.76032853635E+03  0.76032853635E+03  0.00000000000E+00 0.  1.
         23    2    1    2    0    0 -0.10134880077E+03  0.42966036771E+02 -0.35781081987E+03  0.38546978376E+03  0.91873345658E+02 0.  0.
         23    2    1    2    0    0  0.91954978228E+02 -0.76134585089E+02 -0.31349631786E+03  0.34819410036E+03  0.93311291662E+02 0.  0.
        -11    1    3    3    0    0 -0.40763253329E+02  0.58172830221E+02 -0.25905332125E+03  0.26861560686E+03  0.00000000000E+00 0.  1.
         11    1    3    3    0    0 -0.60585547437E+02 -0.15206793450E+02 -0.98757498627E+02  0.11685417691E+03  0.00000000000E+00 0. -1.
        -13    1    4    4    0    0 -0.12793820986E+02 -0.23772007484E+02 -0.24833095163E+02  0.36680687161E+02  0.00000000000E+00 0. -1.
         13    1    4    4    0    0  0.10474879921E+03 -0.52362577605E+02 -0.28866322269E+03  0.31151341320E+03  0.00000000000E+00 0.  1.
         21    1    1    2  502  501  0.93938225376E+01  0.33168548319E+02 -0.52706725538E+02  0.62979325309E+02  0.00000000000E+00 0. -1.
<scales pt_clust_5="13000.00000" pt_clust_6="13000.00000" pt_clust_7="13000.00000" pt_clust_8="13000.00000" pt_clust_9="34.47313"></scales>
<clustering>
<clus scale="   34.473">  1  9  2 -1</clus>
<clus scale="   91.873">  5  6 -1 -1</clus>
<clus scale="   93.311">  7  8 -1 -1</clus>
<clus scale="  145.643">  2  5  1 -1</clus>
<clus scale="   34.473">  1  5  2 -1</clus>
</clustering>
</event>
<event>
 9    1  0.1296032E-005  0.1816747E+03  0.7546771E-02  0.1168759E+00
          1   -1    0    0  502    0  0.00000000000E+00  0.00000000000E+00  0.70562631968E+03  0.70562631968E+03  0.00000000000E+00 0. -1.
         -1   -1    0    0    0  501 -0.00000000000E+00 -0.00000000000E+00 -0.27060845037E+03  0.27060845037E+03  0.00000000000E+00 0.  1.
         23    2    1    2    0    0  0.55768547177E+02  0.13365817463E+03 -0.22454647388E+03  0.28931708749E+03  0.11094421879E+03 0.  0.
         23    2    1    2    0    0 -0.72940770829E+02 -0.10803321272E+03  0.52513367635E+03  0.54899332603E+03  0.92934185777E+02 0.  0.
        -11    1    3    3    0    0  0.41255732542E+02 -0.60759349725E+01 -0.57934721129E+02  0.71381961067E+02  0.00000000000E+00 0. -1.
         11    1    3    3    0    0  0.14512814634E+02  0.13973410960E+03 -0.16661175275E+03  0.21793512643E+03  0.00000000000E+00 0.  1.
        -13    1    4    4    0    0 -0.23170611465E+02 -0.92576900955E+02  0.43057778264E+03  0.44102674152E+03  0.00000000000E+00 0.  1.
         13    1    4    4    0    0 -0.49770159363E+02 -0.15456311766E+02  0.94555893708E+02  0.10796658451E+03  0.00000000000E+00 0. -1.
         21    1    1    2  502  501  0.17172223652E+02 -0.25624961909E+02  0.13443066683E+03  0.13792435653E+03  0.00000000000E+00 0.  1.
<scales pt_clust_5="13000.00000" pt_clust_6="13000.00000" pt_clust_7="13000.00000" pt_clust_8="13000.00000" pt_clust_9="30.84678"></scales>
<clustering>
<clus scale="   30.847">  1  9  2 -1</clus>
<clus scale="   92.934">  7  8 -1 -1</clus>
<clus scale="  110.944">  5  6 -1 -1</clus>
<clus scale="  171.271">  1  7  2 -1</clus>
<clus scale="   30.847">  1  5  2 -1</clus>
</clustering>
</event>
<event>
 9    1  0.1296032E-005  0.1011937E+03  0.7546771E-02  0.1278881E+00
          1   -1    0    0  502    0  0.00000000000E+00  0.00000000000E+00  0.81127201796E+02  0.81127201796E+02  0.00000000000E+00 0. -1.
         -1   -1    0    0    0  501 -0.00000000000E+00 -0.00000000000E+00 -0.21978024802E+03  0.21978024802E+03  0.00000000000E+00 0.  1.
         23    2    1    2    0    0  0.78015125868E+01 -0.40099806999E+02 -0.10524211148E+03  0.14612350223E+03  0.92775631245E+02 0.  0.
         23    2    1    2    0    0  0.15555854995E+02  0.40709890492E+02 -0.61844347557E+02  0.11798180381E+03  0.90530121488E+02 0.  0.
        -11    1    3    3    0    0  0.27533260501E+02 -0.36234275582E+02 -0.11507090449E+03  0.12374294413E+03  0.00000000000E+00 0.  1.
         11    1    3    3    0    0 -0.19731747914E+02 -0.38655314164E+01  0.98287930059E+01  0.22380558099E+02  0.00000000000E+00 0. -1.
        -13    1    4    4    0    0 -0.21422677054E+02  0.24267934795E+02  0.11384692028E+02  0.34314355071E+02  0.00000000000E+00 0. -1.
         13    1    4    4    0    0  0.36978532050E+02  0.16441955697E+02 -0.73229039584E+02  0.83667448737E+02  0.00000000000E+00 0.  1.
         21    1    1    2  502  501 -0.23357367582E+02 -0.61008349346E+00  0.28433412820E+02  0.36802143780E+02  0.00000000000E+00 0. -1.
<scales pt_clust_5="13000.00000" pt_clust_6="13000.00000" pt_clust_7="13000.00000" pt_clust_8="13000.00000" pt_clust_9="23.36533"></scales>
<clustering>
<clus scale="   23.365">  1  9  2 -1</clus>
<clus scale="   90.530">  7  8 -1 -1</clus>
<clus scale="   92.776">  5  6 -1 -1</clus>
<clus scale="   99.139">  1  7  2 -1</clus>
<clus scale="   23.365">  1  5  2 -1</clus>
</clustering>
</event>
<event>
 9    1  0.1296032E-005  0.1303795E+03  0.7546771E-02  0.1229593E+00
         -1   -1    0    0    0  501 -0.00000000000E+00  0.00000000000E+00  0.51400960041E+03  0.51400960041E+03  0.00000000000E+00 0.  1.
          1   -1    0    0  502    0  0.00000000000E+00 -0.00000000000E+00 -0.63832619583E+02  0.63832619583E+02  0.00000000000E+00 0. -1.
         23    2    1    2    0    0  0.13132903454E+02  0.78527660440E+02  0.36758159389E+03  0.38901988016E+03  0.99404086333E+02 0.  0.
         23    2    1    2    0    0  0.35181328242E+01 -0.10514932664E+03  0.66547790691E+02  0.15355910877E+03  0.89905691080E+02 0.  0.
        -11    1    4    4    0    0  0.43576984942E+02 -0.29093743696E+02  0.26837290209E+02  0.58869683919E+02  0.00000000000E+00 0.  1.
         11    1    4    4    0    0 -0.40058852118E+02 -0.76055582942E+02  0.39710500481E+02  0.94689424848E+02  0.00000000000E+00 0. -1.
        -11    1    3    3    0    0 -0.60506406574E+01 -0.22301605253E+02  0.46372708432E+02  0.51811195089E+02  0.00000000000E+00 0. -1.
         11    1    3    3    0    0  0.19183544112E+02  0.10082926569E+03  0.32120888546E+03  0.33720868507E+03  0.00000000000E+00 0.  1.
         21    1    1    2  502  501 -0.16651036278E+02  0.26621666198E+02  0.16047596242E+02  0.35263231069E+02  0.00000000000E+00 0.  1.
<scales pt_clust_5="13000.00000" pt_clust_6="13000.00000" pt_clust_7="13000.00000" pt_clust_8="13000.00000" pt_clust_9="31.40016"></scales>
<clustering>
<clus scale="   31.400">  2  9  1 -1</clus>
<clus scale="   89.906">  5  6 -1 -1</clus>
<clus scale="   99.404">  7  8 -1 -1</clus>
<clus scale="  123.291">  2  5  1 -1</clus>
<clus scale="   31.400">  2  5  1 -1</clus>
</clustering>
</event>
<event>
 9    1  0.1296032E-005  0.1016664E+03  0.7546771E-02  0.1277149E+00
         -1   -1    0    0    0  501 -0.00000000000E+00  0.00000000000E+00  0.15591268950E+03  0.15591268950E+03  0.00000000000E+00 0.  1.
          1   -1    0    0  502    0  0.00000000000E+00 -0.00000000000E+00 -0.14053046643E+03  0.14053046643E+03  0.00000000000E+00 0. -1.
         23    2    1    2    0    0 -0.40131720549E+01  0.43162080340E+02  0.70837868675E+02  0.12313649497E+03  0.90914916404E+02 0.  0.
         23    2    1    2    0    0  0.46888956727E+02 -0.34835608922E+02 -0.81886587642E+01  0.10894960166E+03  0.91601679336E+02 0.  0.
        -11    1    3    3    0    0 -0.25637285547E+02  0.62322082093E+02  0.65065711744E+02  0.93674218285E+02  0.00000000000E+00 0. -1.
         11    1    3    3    0    0  0.21624113492E+02 -0.19160001754E+02  0.57721569315E+01  0.29462276680E+02  0.00000000000E+00 0.  1.
        -13    1    4    4    0    0 -0.15431897849E+02 -0.41077719280E+02 -0.13969449686E+02  0.46050711362E+02  0.00000000000E+00 0. -1.
         13    1    4    4    0    0  0.62320854576E+02  0.62421103578E+01  0.57807909221E+01  0.62898890296E+02  0.00000000000E+00 0.  1.
         21    1    1    2  502  501 -0.42875784672E+02 -0.83264714177E+01 -0.47266986845E+02  0.64357059309E+02  0.00000000000E+00 0. -1.
<scales pt_clust_5="13000.00000" pt_clust_6="13000.00000" pt_clust_7="13000.00000" pt_clust_8="13000.00000" pt_clust_9="43.67680"></scales>
<clustering>
<clus scale="   43.677">  2  9  1 -1</clus>
<clus scale="   90.915">  5  6 -1 -1</clus>
<clus scale="   91.602">  7  8 -1 -1</clus>
<clus scale="  101.048">  1  5  2 -1</clus>
<clus scale="   43.677">  2  5  1 -1</clus>
</clustering>
</event>
<event>
 9    1  0.1296032E-005  0.1168588E+03  0.7546771E-02  0.1248812E+00
          1   -1    0    0  502    0  0.00000000000E+00  0.00000000000E+00  0.91894676056E+02  0.91894676056E+02  0.00000000000E+00 0. -1.
         -1   -1    0    0    0  501 -0.00000000000E+00 -0.00000000000E+00 -0.66609887564E+03  0.66609887564E+03  0.00000000000E+00 0.  1.
         23    2    1    2    0    0  0.22865247360E+02  0.68150288520E+02 -0.48612870041E+03  0.49959930642E+03  0.90061491514E+02 0.  0.
         23    2    1    2    0    0  0.16661469743E+02 -0.83028014150E+02 -0.14264446729E+03  0.18939076444E+03  0.91379220283E+02 0.  0.
        -11    1    3    3    0    0 -0.34945338715E+02  0.23486596719E+02 -0.18638522457E+03  0.19108178579E+03  0.00000000000E+00 0. -1.
         11    1    3    3    0    0  0.57810586076E+02  0.44663691801E+02 -0.29974347584E+03  0.30851752063E+03  0.00000000000E+00 0.  1.
        -11    1    4    4    0    0  0.43649673074E+02 -0.66254773407E+02 -0.13518968380E+03  0.15675215968E+03  0.00000000000E+00 0.  1.
         11    1    4    4    0    0 -0.26988203331E+02 -0.16773240743E+02 -0.74547834969E+01  0.32638604766E+02  0.00000000000E+00 0. -1.
         21    1    1    2  502  501 -0.39526717103E+02  0.14877725629E+02  0.54568968120E+02  0.69003480829E+02  0.00000000000E+00 0. -1.
<scales pt_clust_5="13000.00000" pt_clust_6="13000.00000" pt_clust_7="13000.00000" pt_clust_8="13000.00000" pt_clust_9="42.23397"></scales>
<clustering>
<clus scale="   42.234">  1  9  2 -1</clus>
<clus scale="   90.061">  5  6 -1 -1</clus>
<clus scale="   91.379">  7  8 -1 -1</clus>
<clus scale="  115.831">  2  5  1 -1</clus>
<clus scale="   42.234">  1  5  2 -1</clus>
</clustering>
</event>
<event>
 9    1  0.1296032E-005  0.1747675E+03  0.7546771E-02  0.1173035E+00
          1   -1    0    0  502    0  0.00000000000E+00  0.00000000000E+00  0.15158285414E+03  0.15158285414E+03  0.00000000000E+00 0. -1.
         -1   -1    0    0    0  501 -0.00000000000E+00 -0.00000000000E+00 -0.37124270072E+03  0.37124270072E+03  0.00000000000E+00 0.  1.
         23    2    1    2    0    0 -0.36683160303E+02 -0.14301426434E+03 -0.18165092425E+03  0.25145223328E+03  0.91828281514E+02 0.  0.
         23    2    1    2    0    0  0.10475001934E+03  0.12262790621E+03 -0.63470817335E+02  0.19589478824E+03  0.91301990521E+02 0.  0.
        -11    1    3    3    0    0 -0.47769044749E+02 -0.72132302563E+02 -0.45968251692E+02  0.97969540536E+02  0.00000000000E+00 0.  1.
         11    1    3    3    0    0  0.11085884446E+02 -0.70881961778E+02 -0.13568267255E+03  0.15348269274E+03  0.00000000000E+00 0. -1.
        -11    1    4    4    0    0  0.10624210750E+03  0.68433190420E+02 -0.64044851147E+02  0.14167649740E+03  0.00000000000E+00 0. -1.
         11    1    4    4    0    0 -0.14920881606E+01  0.54194715791E+02  0.57403381234E+00  0.54218290839E+02  0.00000000000E+00 0.  1.
         21    1    1    2  502  501 -0.68066859038E+02  0.20386358131E+02  0.25461895002E+02  0.75478533333E+02  0.00000000000E+00 0. -1.
<scales pt_clust_5="13000.00000" pt_clust_6="13000.00000" pt_clust_7="13000.00000" pt_clust_8="13000.00000" pt_clust_9="71.05421"></scales>
<clustering>
<clus scale="   71.054">  1  9  2 -1</clus>
<clus scale="   91.302">  7  8 -1 -1</clus>
<clus scale="   91.828">  5  6 -1 -1</clus>
<clus scale="  174.492">  1  7  2 -1</clus>
<clus scale="   71.054">  1  5  2 -1</clus>
</clustering>
</event>
<event>
 9    1  0.1296032E-005  0.1899892E+03  0.7546771E-02  0.1158932E+00
         -2   -1    0    0    0  501 -0.00000000000E+00  0.00000000000E+00  0.44072377933E+02  0.44072377933E+02  0.00000000000E+00 0.  1.
          2   -1    0    0  502    0  0.00000000000E+00 -0.00000000000E+00 -0.11059223766E+04  0.11059223766E+04  0.00000000000E+00 0. -1.
         23    2    1    2    0    0  0.17159719570E+03  0.29087097965E+02 -0.28735575784E+03  0.34742002570E+03  0.88519409496E+02 0.  0.
         23    2    1    2    0    0 -0.15706555278E+03 -0.42843817619E+02 -0.73205814370E+03  0.75565737254E+03  0.92756446355E+02 0.  0.
        -11    1    4    4    0    0 -0.43899909801E+02  0.26440522797E+02 -0.27471286828E+03  0.27945207698E+03  0.00000000000E+00 0.  1.
         11    1    4    4    0    0 -0.11316564298E+03 -0.69284340415E+02 -0.45734527542E+03  0.47620529557E+03  0.00000000000E+00 0. -1.
        -11    1    3    3    0    0  0.12305855086E+03 -0.17338248676E+02 -0.15217084006E+03  0.19646879236E+03  0.00000000000E+00 0.  1.
         11    1    3    3    0    0  0.48538644842E+02  0.46425346641E+02 -0.13518491778E+03  0.15095123334E+03  0.00000000000E+00 0. -1.
         21    1    1    2  502  501 -0.14531642919E+02  0.13756719654E+02 -0.42436097143E+02  0.46917356301E+02  0.00000000000E+00 0.  1.
<scales pt_clust_5="13000.00000" pt_clust_6="13000.00000" pt_clust_7="13000.00000" pt_clust_8="13000.00000" pt_clust_9="20.01040"></scales>
<clustering>
<clus scale="   20.010">  1  9  2 -1</clus>
<clus scale="   88.519">  7  8 -1 -1</clus>
<clus scale="   92.756">  5  6 -1 -1</clus>
<clus scale="  187.957">  1  7  2 -1</clus>
<clus scale="  189.989">  2  5  1 -1</clus>
</clustering>
</event>
<event>
 9    1  0.1296032E-005  0.1090605E+03  0.7546771E-02  0.1263735E+00
          2   -1    0    0  502    0  0.00000000000E+00  0.00000000000E+00  0.10739369752E+03  0.10739369752E+03  0.00000000000E+00 0.  1.
         -2   -1    0    0    0  501 -0.00000000000E+00 -0.00000000000E+00 -0.21077601275E+03  0.21077601275E+03  0.00000000000E+00 0. -1.
         23    2    1    2    0    0  0.39011170226E+02  0.16891407866E+01 -0.10794831617E+03  0.15142370229E+03  0.98750058497E+02 0.  0.
         23    2    1    2    0    0 -0.62515592102E+02  0.37594214224E+02 -0.38649426435E+01  0.12019796142E+03  0.95452019095E+02 0.  0.
        -13    1    3    3    0    0  0.25582820021E+01 -0.43696743477E+02 -0.67825944981E+02  0.80723658304E+02  0.00000000000E+00 0.  1.
         13    1    3    3    0    0  0.36452888224E+02  0.45385884264E+02 -0.40122371190E+02  0.70700043990E+02  0.00000000000E+00 0. -1.
        -13    1    4    4    0    0 -0.22687291680E+02  0.43193671484E+02  0.38225550460E+02  0.61980635428E+02  0.00000000000E+00 0.  1.
         13    1    4    4    0    0 -0.39828300422E+02 -0.55994572606E+01 -0.42090493104E+02  0.58217325994E+02  0.00000000000E+00 0. -1.
         21    1    1    2  502  501  0.23504421877E+02 -0.39283355010E+02  0.84309435905E+01  0.46548046559E+02  0.00000000000E+00 0.  1.
<scales pt_clust_5="13000.00000" pt_clust_6="13000.00000" pt_clust_7="13000.00000" pt_clust_8="13000.00000" pt_clust_9="45.77816"></scales>
<clustering>
<clus scale="   45.778">  1  9  2 -1</clus>
<clus scale="   95.452">  7  8 -1 -1</clus>
<clus scale="   98.750">  5  6 -1 -1</clus>
<clus scale="  106.083">  1  7  2 -1</clus>
<clus scale="   45.778">  1  5  2 -1</clus>
</clustering>
</event>
<event>
 9    1  0.1296032E-005  0.9801598E+02  0.7546771E-02  0.1284746E+00
          2   -1    0    0  502    0  0.00000000000E+00  0.00000000000E+00  0.59679563776E+02  0.59679563776E+02  0.00000000000E+00 0. -1.
         -2   -1    0    0    0  501 -0.00000000000E+00 -0.00000000000E+00 -0.34725534375E+03  0.34725534375E+03  0.00000000000E+00 0.  1.
         23    2    1    2    0    0  0.30267657325E+02  0.29564691675E+02 -0.25334038772E+03  0.27221735345E+03  0.90170579447E+02 0.  0.
         23    2    1    2    0    0  0.32302014755E+00 -0.28470151516E+02 -0.40861255034E+02  0.10339839662E+03  0.90614195303E+02 0.  0.
        -11    1    3    3    0    0 -0.22533478039E+02  0.21644531105E+02 -0.17269925163E+03  0.17550291984E+03  0.00000000000E+00 0.  1.
         11    1    3    3    0    0  0.52801135364E+02  0.79201605697E+01 -0.80641136087E+02  0.96714433611E+02  0.00000000000E+00 0. -1.
        -13    1    4    4    0    0  0.50552611096E+01 -0.57702765284E+02 -0.68903002807E+01  0.58332161149E+02  0.00000000000E+00 0. -1.
         13    1    4    4    0    0 -0.47322409621E+01  0.29232613769E+02 -0.33970954753E+02  0.45066235466E+02  0.00000000000E+00 0.  1.
         21    1    1    2  502  501 -0.30590677473E+02 -0.10945401592E+01  0.66258627760E+01  0.31319157459E+02  0.00000000000E+00 0.  1.
<scales pt_clust_5="13000.00000" pt_clust_6="13000.00000" pt_clust_7="13000.00000" pt_clust_8="13000.00000" pt_clust_9="30.61025"></scales>
<clustering>
<clus scale="   30.610">  1  9  2 -1</clus>
<clus scale="   90.171">  5  6 -1 -1</clus>
<clus scale="   90.614">  7  8 -1 -1</clus>
<clus scale="   97.606">  2  5  1 -1</clus>
<clus scale="   30.610">  1  5  2 -1</clus>
</clustering>
</event>
<event>
 9    1  0.1296032E-005  0.1285634E+03  0.7546771E-02  0.1232986E+00
          2   -1    0    0  502    0  0.00000000000E+00  0.00000000000E+00  0.25926759815E+03  0.25926759815E+03  0.00000000000E+00 0. -1.
         -2   -1    0    0    0  501 -0.00000000000E+00 -0.00000000000E+00 -0.11997209587E+03  0.11997209587E+03  0.00000000000E+00 0.  1.
         23    2    1    2    0    0  0.85918619910E+02 -0.37234808364E+02 -0.33275724020E+02  0.13342204471E+03  0.89026557856E+02 0.  0.
         23    2    1    2    0    0 -0.92257531940E+02  0.13073733617E+02  0.67647535694E+02  0.13796163331E+03  0.75992423762E+02 0.  0.
        -11    1    4    4    0    0 -0.73915673655E+02 -0.23762139286E+02  0.54132280690E+02  0.94649193806E+02  0.00000000000E+00 0. -1.
         11    1    4    4    0    0 -0.18341858285E+02  0.36835872903E+02  0.13515255004E+02  0.43312439503E+02  0.00000000000E+00 0.  1.
        -13    1    3    3    0    0  0.77152923180E+00 -0.34529225447E+02 -0.33665636685E+02  0.48231087078E+02  0.00000000000E+00 0. -1.
         13    1    3    3    0    0  0.85147090678E+02 -0.27055829168E+01  0.38991266500E+00  0.85190957629E+02  0.00000000000E+00 0.  1.
         21    1    1    2  502  501  0.63389120300E+01  0.24161074746E+02  0.10492369060E+03  0.10785601600E+03  0.00000000000E+00 0. -1.
<scales pt_clust_5="13000.00000" pt_clust_6="13000.00000" pt_clust_7="13000.00000" pt_clust_8="13000.00000" pt_clust_9="24.97878"></scales>
<clustering>
<clus scale="   24.979">  1  9  2 -1</clus>
<clus scale="   75.992">  5  6 -1 -1</clus>
<clus scale="   89.027">  7  8 -1 -1</clus>
<clus scale="  119.907">  1  5  2 -1</clus>
<clus scale="   24.979">  1  5  2 -1</clus>
</clustering>
</event>
<event>
 9    1  0.1296032E-005  0.1035544E+03  0.7546771E-02  0.1272999E+00
         -1   -1    0    0    0  501 -0.00000000000E+00  0.00000000000E+00  0.10421041955E+03  0.10421041955E+03  0.00000000000E+00 0.  1.
          1   -1    0    0  502    0  0.00000000000E+00 -0.00000000000E+00 -0.29027398653E+03  0.29027398653E+03  0.00000000000E+00 0. -1.
         23    2    1    2    0    0  0.30122551101E+02 -0.42493422293E+02  0.56918753621E+02  0.11866073183E+03  0.90153012939E+02 0.  0.
         23    2    1    2    0    0 -0.34838611854E+01  0.49254545779E+02 -0.19839290491E+03  0.22344477980E+03  0.90164723330E+02 0.  0.
        -11    1    4    4    0    0  0.25346177571E+02 -0.16468063021E+02 -0.46654938055E+02  0.55590548316E+02  0.00000000000E+00 0.  1.
         11    1    4    4    0    0 -0.28830038757E+02  0.65722608800E+02 -0.15173796686E+03  0.16785423149E+03  0.00000000000E+00 0. -1.
        -13    1    3    3    0    0  0.18109203466E+02  0.24706640207E+02  0.13921589727E+01  0.30664302162E+02  0.00000000000E+00 0. -1.
         13    1    3    3    0    0  0.12013347635E+02 -0.67200062500E+02  0.55526594648E+02  0.87996429670E+02  0.00000000000E+00 0.  1.
         21    1    1    2  502  501 -0.26638689916E+02 -0.67611234858E+01 -0.44589415695E+02  0.52378894445E+02  0.00000000000E+00 0.  1.
<scales pt_clust_5="13000.00000" pt_clust_6="13000.00000" pt_clust_7="13000.00000" pt_clust_8="13000.00000" pt_clust_9="27.48331"></scales>
<clustering>
<clus scale="   27.483">  2  9  1 -1</clus>
<clus scale="   90.153">  7  8 -1 -1</clus>
<clus scale="   90.165">  5  6 -1 -1</clus>
<clus scale="  103.544">  1  7  2 -1</clus>
<clus scale="   27.483">  2  5  1 -1</clus>
</clustering>
</event>
<event>
 9    1  0.1296032E-005  0.9146481E+02  0.7546771E-02  0.1305949E+00
         -1   -1    0    0    0  501 -0.00000000000E+00  0.00000000000E+00  0.75384489704E+02  0.75384489704E+02  0.00000000000E+00 0.  1.
          1   -1    0    0  502    0  0.00000000000E+00 -0.00000000000E+00 -0.21490815083E+03  0.21490815083E+03  0.00000000000E+00 0. -1.
         23    2    1    2    0    0  0.32847492001E+01 -0.23336630212E+02 -0.59794594810E+01  0.90964013532E+02  0.87654491815E+02 0.  0.
         23    2    1    2    0    0 -0.54148660242E+02  0.63614665369E+01 -0.90711319730E+02  0.13069955589E+03  0.76689534627E+02 0.  0.
        -11    1    4    4    0    0 -0.27905218025E+02 -0.26613918774E+02 -0.10299795220E+02  0.39913502065E+02  0.00000000000E+00 0. -1.
         11    1    4    4    0    0 -0.26243442216E+02  0.32975385311E+02 -0.80411524510E+02  0.90786053829E+02  0.00000000000E+00 0.  1.
        -13    1    3    3    0    0  0.33191132977E+02 -0.27043352569E+02  0.23473354416E+02  0.48826146623E+02  0.00000000000E+00 0.  1.
         13    1    3    3    0    0 -0.29906383777E+02  0.37067223573E+01 -0.29452813897E+02  0.42137866910E+02  0.00000000000E+00 0. -1.
         21    1    1    2  502  501  0.50863911041E+02  0.16975163675E+02 -0.42832881919E+02  0.68629071112E+02  0.00000000000E+00 0.  1.
<scales pt_clust_5="13000.00000" pt_clust_6="13000.00000" pt_clust_7="13000.00000" pt_clust_8="13000.00000" pt_clust_9="53.62176"></scales>
<clustering>
<clus scale="   53.622">  2  9  1 -1</clus>
<clus scale="   76.690">  5  6 -1 -1</clus>
<clus scale="   81.017">  2  5  1 -1</clus>
<clus scale="   87.654">  7  8 -1 -1</clus>
<clus scale="   53.622">  2  5  1 -1</clus>
</clustering>
</event>
<event>
 9    1  0.1296032E-005  0.9666869E+02  0.7546771E-02  0.1289548E+00
         -1   -1    0    0    0  501 -0.00000000000E+00  0.00000000000E+00  0.34804780679E+02  0.34804780679E+02  0.00000000000E+00 0.  1.
          1   -1    0    0  502    0  0.00000000000E+00 -0.00000000000E+00 -0.39313207351E+03  0.39313207351E+03  0.00000000000E+00 0. -1.
         23    2    1    2    0    0  0.35863930329E+01  0.40925960425E+01 -0.89135662419E+02  0.12807240874E+03  0.91802854037E+02 0.  0.
         23    2    1    2    0    0 -0.16491291573E+02 -0.30424078361E+02 -0.22418931961E+03  0.24615139912E+03  0.95561880589E+02 0.  0.
        -13    1    3    3    0    0 -0.34205232651E+02  0.20542915443E+02 -0.74173041664E+02  0.84223805574E+02  0.00000000000E+00 0. -1.
         13    1    3    3    0    0  0.37791625684E+02 -0.16450319401E+02 -0.14962620755E+02  0.43848603171E+02  0.00000000000E+00 0.  1.
        -13    1    4    4    0    0 -0.12838412808E+02  0.30989157735E+02 -0.12508163840E+03  0.12950123167E+03  0.00000000000E+00 0. -1.
         13    1    4    4    0    0 -0.36528787643E+01 -0.61413236096E+02 -0.99107681211E+02  0.11665016745E+03  0.00000000000E+00 0.  1.
         21    1    1    2  502  501  0.12904898540E+02  0.26331482319E+02 -0.45002310803E+02  0.53713046321E+02  0.00000000000E+00 0. -1.
<scales pt_clust_5="13000.00000" pt_clust_6="13000.00000" pt_clust_7="13000.00000" pt_clust_8="13000.00000" pt_clust_9="29.32377"></scales>
<clustering>
<clus scale="   29.324">  2  9  1 -1</clus>
<clus scale="   91.803">  5  6 -1 -1</clus>
<clus scale="   92.954">  1  5  2 -1</clus>
<clus scale="   95.562">  7  8 -1 -1</clus>
<clus scale="   29.324">  2  5  1 -1</clus>
</clustering>
</event>
<event>
 9    1  0.1296032E-005  0.1211149E+03  0.7546771E-02  0.1242786E+00
         -2   -1    0    0    0  501 -0.00000000000E+00  0.00000000000E+00  0.56356018196E+03  0.56356018196E+03  0.00000000000E+00 0.  1.
          2   -1    0    0  502    0  0.00000000000E+00 -0.00000000000E+00 -0.39400442009E+02  0.39400442009E+02  0.00000000000E+00 0. -1.
         23    2    1    2    0    0  0.30080953840E+01 -0.83692959020E+02  0.38700828812E+03  0.40725783822E+03  0.95236398988E+02 0.  0.
         23    2    1    2    0    0 -0.16532827456E+02  0.55039833634E+02  0.11364500461E+03  0.15625062443E+03  0.90533711350E+02 0.  0.
        -13    1    3    3    0    0  0.44492739231E+02 -0.66006535739E+02  0.28096081419E+03  0.29201959817E+03  0.00000000000E+00 0.  1.
         13    1    3    3    0    0 -0.41484643847E+02 -0.17686423281E+02  0.10604747393E+03  0.11523824005E+03  0.00000000000E+00 0. -1.
        -13    1    4    4    0    0  0.17378994671E+02  0.38685811506E+02  0.11063046009E+03  0.11848088524E+03  0.00000000000E+00 0.  1.
         13    1    4    4    0    0 -0.33911822127E+02  0.16354022128E+02  0.30145445230E+01  0.37769739189E+02  0.00000000000E+00 0. -1.
         21    1    1    2  502  501  0.13524732072E+02  0.28653125386E+02  0.23506447224E+02  0.39452161323E+02  0.00000000000E+00 0. -1.
<scales pt_clust_5="13000.00000" pt_clust_6="13000.00000" pt_clust_7="13000.00000" pt_clust_8="13000.00000" pt_clust_9="31.68470"></scales>
<clustering>
<clus scale="   31.685">  2  9  1 -1</clus>
<clus scale="   90.534">  7  8 -1 -1</clus>
<clus scale="   95.236">  5  6 -1 -1</clus>
<clus scale="  117.453">  2  7  1 -1</clus>
<clus scale="   31.685">  2  5  1 -1</clus>
</clustering>
</event>
<event>
 9    1  0.1296032E-005  0.1042916E+03  0.7546771E-02  0.1271761E+00
         -2   -1    0    0    0  501 -0.00000000000E+00  0.00000000000E+00  0.60902549523E+02  0.60902549523E+02  0.00000000000E+00 0.  1.
          2   -1    0    0  502    0  0.00000000000E+00 -0.00000000000E+00 -0.25304103906E+03  0.25304103906E+03  0.00000000000E+00 0. -1.
         23    2    1    2    0    0  0.34283581112E+02  0.39426756794E+02 -0.39624877261E+02  0.11261767213E+03  0.91557501564E+02 0.  0.
         23    2    1    2    0    0 -0.47720597878E+02 -0.15838468963E+02 -0.12624119687E+03  0.16354760847E+03  0.91010262553E+02 0.  0.
        -11    1    4    4    0    0 -0.31964088690E+02  0.26828153155E+02 -0.16716560829E+02  0.44954378802E+02  0.00000000000E+00 0.  1.
         11    1    4    4    0    0 -0.15756509188E+02 -0.42666622118E+02 -0.10952463604E+03  0.11859322967E+03  0.00000000000E+00 0. -1.
        -13    1    3    3    0    0  0.43944401391E+02 -0.52244507773E+01  0.97866343293E+01  0.45323101295E+02  0.00000000000E+00 0.  1.
         13    1    3    3    0    0 -0.96608202791E+01  0.44651207571E+02 -0.49411511591E+02  0.67294570834E+02  0.00000000000E+00 0. -1.
         21    1    1    2  502  501  0.13437016767E+02 -0.23588287831E+02 -0.26272415407E+02  0.37778307978E+02  0.00000000000E+00 0. -1.
<scales pt_clust_5="13000.00000" pt_clust_6="13000.00000" pt_clust_7="13000.00000" pt_clust_8="13000.00000" pt_clust_9="27.14702"></scales>
<clustering>
<clus scale="   27.147">  2  9  1 -1</clus>
<clus scale="   91.010">  5  6 -1 -1</clus>
<clus scale="   91.558">  7  8 -1 -1</clus>
<clus scale="  103.811">  2  5  1 -1</clus>
<clus scale="   27.147">  2  5  1 -1</clus>
</clustering>
</event>
<event>
 9    1  0.1296032E-005  0.1009249E+03  0.7546771E-02  0.1280774E+00
         -4   -1    0    0    0  501 -0.00000000000E+00  0.00000000000E+00  0.20019269845E+03  0.20019269845E+03  0.00000000000E+00 0.  1.
          4   -1    0    0  502    0  0.00000000000E+00 -0.00000000000E+00 -0.67685253044E+02  0.67685253044E+02  0.00000000000E+00 0. -1.
         23    2    1    2    0    0  0.76062027119E+01 -0.35959529790E+02  0.63391066277E+02  0.11776794763E+03  0.92195011264E+02 0.  0.
         23    2    1    2    0    0  0.19967493771E+02  0.45066201747E+02  0.67946811715E+02  0.12104786183E+03  0.87213257498E+02 0.  0.
        -11    1    3    3    0    0  0.46819391579E+02 -0.36999536922E+02  0.43038684152E+02  0.73575468016E+02  0.00000000000E+00 0. -1.
         11    1    3    3    0    0 -0.39213188867E+02  0.10400071317E+01  0.20352382126E+02  0.44192479611E+02  0.00000000000E+00 0.  1.
        -13    1    4    4    0    0 -0.10136128812E+02 -0.22632403508E+02  0.25902436149E+02  0.35859489599E+02  0.00000000000E+00 0.  1.
         13    1    4    4    0    0  0.30103622583E+02  0.67698605256E+02  0.42044375566E+02  0.85188372229E+02  0.00000000000E+00 0. -1.
         21    1    1    2  502  501 -0.27573696483E+02 -0.91066719573E+01  0.11695674117E+01  0.29062142038E+02  0.00000000000E+00 0.  1.
<scales pt_clust_5="13000.00000" pt_clust_6="13000.00000" pt_clust_7="13000.00000" pt_clust_8="13000.00000" pt_clust_9="29.03860"></scales>
<clustering>
<clus scale="   29.039">  2  9  1 -1</clus>
<clus scale="   87.213">  7  8 -1 -1</clus>
<clus scale="   92.195">  5  6 -1 -1</clus>
<clus scale="   96.395">  2  7  1 -1</clus>
<clus scale="   29.039">  2  5  1 -1</clus>
</clustering>
</event>
<event>
 9    1  0.1296032E-005  0.1083836E+03  0.7546771E-02  0.1266320E+00
          1   -1    0    0  502    0  0.00000000000E+00  0.00000000000E+00  0.14031439472E+03  0.14031439472E+03  0.00000000000E+00 0. -1.
         -1   -1    0    0    0  501 -0.00000000000E+00 -0.00000000000E+00 -0.15769510557E+03  0.15769510557E+03  0.00000000000E+00 0.  1.
         23    2    1    2    0    0 -0.51849849822E+02  0.79459783519E+00 -0.93886591210E+02  0.14414133733E+03  0.96296390413E+02 0.  0.
         23    2    1    2    0    0  0.42557768999E+02 -0.19354266598E+02  0.34595169461E+02  0.10709945805E+03  0.89931734255E+02 0.  0.
        -11    1    4    4    0    0 -0.28139816708E+02 -0.81000324363E+01  0.14881757530E+02  0.32847016866E+02  0.00000000000E+00 0.  1.
         11    1    4    4    0    0  0.70697585707E+02 -0.11254234162E+02  0.19713411931E+02  0.74252441180E+02  0.00000000000E+00 0. -1.
        -11    1    3    3    0    0 -0.39869220681E+02  0.34389170702E+02 -0.10834631140E+02  0.53754618883E+02  0.00000000000E+00 0.  1.
         11    1    3    3    0    0 -0.11980629141E+02 -0.33594572866E+02 -0.83051960070E+02  0.90386718450E+02  0.00000000000E+00 0. -1.
         21    1    1    2  502  501  0.92920808228E+01  0.18559668763E+02  0.41910710905E+02  0.46768704912E+02  0.00000000000E+00 0.  1.
<scales pt_clust_5="13000.00000" pt_clust_6="13000.00000" pt_clust_7="13000.00000" pt_clust_8="13000.00000" pt_clust_9="20.75582"></scales>
<clustering>
<clus scale="   20.756">  1  9  2 -1</clus>
<clus scale="   89.932">  5  6 -1 -1</clus>
<clus scale="   96.296">  7  8 -1 -1</clus>
<clus scale="  102.770">  1  5  2 -1</clus>
<clus scale="   20.756">  1  5  2 -1</clus>
</clustering>
</event>
<event>
 9    1  0.1296032E-005  0.2401047E+03  0.7546771E-02  0.1120054E+00
         -2   -1    0    0    0  501 -0.00000000000E+00  0.00000000000E+00  0.99068206065E+02  0.99068206065E+02  0.00000000000E+00 0.  1.
          2   -1    0    0  502    0  0.00000000000E+00 -0.00000000000E+00 -0.82381971556E+03  0.82381971556E+03  0.00000000000E+00 0. -1.
         23    2    1    2    0    0 -0.95174303269E+01  0.21448299032E+03 -0.15611974741E+03  0.28046593688E+03  0.90521995110E+02 0.  0.
         23    2    1    2    0    0 -0.15843709721E+02 -0.23931415609E+03 -0.43328290916E+03  0.50249669681E+03  0.85126743697E+02 0.  0.
        -11    1    3    3    0    0  0.31851201224E+02  0.14475073305E+03 -0.76345193850E+02  0.16672091160E+03  0.00000000000E+00 0.  1.
         11    1    3    3    0    0 -0.41368631551E+02  0.69732257267E+02 -0.79774553565E+02  0.11374502528E+03  0.00000000000E+00 0. -1.
        -11    1    4    4    0    0 -0.41573732659E+02 -0.20748459820E+03 -0.33772956408E+03  0.39854672523E+03  0.00000000000E+00 0. -1.
         11    1    4    4    0    0  0.25730022938E+02 -0.31829557891E+02 -0.95553345079E+02  0.10394997158E+03  0.00000000000E+00 0.  1.
         21    1    1    2  502  501  0.25361140048E+02  0.24831165764E+02 -0.13534885292E+03  0.13992528794E+03  0.00000000000E+00 0.  1.
<scales pt_clust_5="13000.00000" pt_clust_6="13000.00000" pt_clust_7="13000.00000" pt_clust_8="13000.00000" pt_clust_9="35.49330"></scales>
<clustering>
<clus scale="   35.493">  2  9  1 -1</clus>
<clus scale="   85.127">  7  8 -1 -1</clus>
<clus scale="   90.522">  5  6 -1 -1</clus>
<clus scale="  238.123">  2  7  1 -1</clus>
<clus scale="   35.493">  2  5  1 -1</clus>
</clustering>
</event>
<event>
 9    1  0.1296032E-005  0.9791925E+02  0.7546771E-02  0.1285709E+00
          3   -1    0    0  502    0  0.00000000000E+00  0.00000000000E+00  0.54972219424E+03  0.54972219424E+03  0.00000000000E+00 0. -1.
         -3   -1    0    0    0  501 -0.00000000000E+00 -0.00000000000E+00 -0.42179174941E+02  0.42179174941E+02  0.00000000000E+00 0.  1.
         23    2    1    2    0    0  0.35545747467E+02  0.42251298399E+01  0.37238520075E+02  0.10487757640E+03  0.91275663615E+02 0.  0.
         23    2    1    2    0    0 -0.54457696229E+01 -0.93397156558E+00  0.30455004835E+03  0.31852637923E+03  0.93154675714E+02 0.  0.
        -11    1    3    3    0    0  0.28152179656E+02 -0.25866553347E+02 -0.17446283161E+02  0.42023762297E+02  0.00000000000E+00 0. -1.
         11    1    3    3    0    0  0.73935678118E+01  0.30091683187E+02  0.54684803236E+02  0.62853814101E+02  0.00000000000E+00 0.  1.
        -11    1    4    4    0    0  0.25615506544E+02  0.29189369030E+02  0.70298895477E+02  0.80312565301E+02  0.00000000000E+00 0.  1.
         11    1    4    4    0    0 -0.31061276167E+02 -0.30123340596E+02  0.23425115287E+03  0.23821381393E+03  0.00000000000E+00 0. -1.
         21    1    1    2  502  501 -0.30099977845E+02 -0.32911582744E+01  0.16575445088E+03  0.16849741355E+03  0.00000000000E+00 0. -1.
<scales pt_clust_5="13000.00000" pt_clust_6="13000.00000" pt_clust_7="13000.00000" pt_clust_8="13000.00000" pt_clust_9="30.27937"></scales>
<clustering>
<clus scale="   30.279">  1  9  2 -1</clus>
<clus scale="   91.276">  5  6 -1 -1</clus>
<clus scale="   93.155">  7  8 -1 -1</clus>
<clus scale="   96.133">  2  5  1 -1</clus>
<clus scale="   30.279">  1  5  2 -1</clus>
</clustering>
</event>
<event>
 9    1  0.1296032E-005  0.1249393E+03  0.7546771E-02  0.1236376E+00
          2   -1    0    0  502    0  0.00000000000E+00  0.00000000000E+00  0.51373530309E+03  0.51373530309E+03  0.00000000000E+00 0. -1.
         -2   -1    0    0    0  501 -0.00000000000E+00 -0.00000000000E+00 -0.74290040221E+02  0.74290040221E+02  0.00000000000E+00 0.  1.
         23    2    1    2    0    0 -0.36576141967E+02  0.86948956136E+02  0.14470110029E+02  0.13166535895E+03  0.90710790588E+02 0.  0.
         23    2    1    2    0    0  0.31540755301E+02 -0.30617164642E+02  0.21713655220E+03  0.24096381502E+03  0.94778941914E+02 0.  0.
        -11    1    4    4    0    0 -0.22739381818E+02 -0.35515500460E+02  0.51342202798E+02  0.66441342901E+02  0.00000000000E+00 0.  1.
         11    1    4    4    0    0  0.54280137119E+02  0.48983358182E+01  0.16579434940E+03  0.17452247212E+03  0.00000000000E+00 0. -1.
        -11    1    3    3    0    0  0.14198629949E+02  0.78035191321E+02  0.86765997649E+01  0.79789570499E+02  0.00000000000E+00 0. -1.
         11    1    3    3    0    0 -0.50774771916E+02  0.89137648148E+01  0.57935102644E+01  0.51875788452E+02  0.00000000000E+00 0.  1.
         21    1    1    2  502  501  0.50353866661E+01 -0.56331791494E+02  0.20783860064E+03  0.21539616934E+03  0.00000000000E+00 0.  1.
<scales pt_clust_5="13000.00000" pt_clust_6="13000.00000" pt_clust_7="13000.00000" pt_clust_8="13000.00000" pt_clust_9="56.55640"></scales>
<clustering>
<clus scale="   56.556">  1  9  2 -1</clus>
<clus scale="   90.711">  7  8 -1 -1</clus>
<clus scale="   94.779">  5  6 -1 -1</clus>
<clus scale="  121.882">  2  7  1 -1</clus>
<clus scale="   56.556">  1  5  2 -1</clus>
</clustering>
</event>
<event>
 9    1  0.1296032E-005  0.1959913E+03  0.7546771E-02  0.1153269E+00
          1   -1    0    0  502    0  0.00000000000E+00  0.00000000000E+00  0.48871662741E+03  0.48871662741E+03  0.00000000000E+00 0. -1.
         -1   -1    0    0    0  501 -0.00000000000E+00 -0.00000000000E+00 -0.99636776610E+02  0.99636776610E+02  0.00000000000E+00 0.  1.
         23    2    1    2    0    0  0.12598707771E+03  0.10943793683E+03  0.10886471183E+03  0.21823989167E+03  0.89037739559E+02 0.  0.
         23    2    1    2    0    0 -0.15495002058E+03 -0.10322795185E+03  0.21422200939E+03  0.29777742783E+03  0.90082230719E+02 0.  0.
        -11    1    4    4    0    0  0.38355739458E+00 -0.29609169883E+02  0.10959466837E+02  0.31574672932E+02  0.00000000000E+00 0.  1.
         11    1    4    4    0    0 -0.15533357798E+03 -0.73618781971E+02  0.20326254256E+03  0.26620275489E+03  0.00000000000E+00 0. -1.
        -11    1    3    3    0    0 -0.72675888083E+01  0.18935656651E+02 -0.51066707933E+01  0.20915425563E+02  0.00000000000E+00 0. -1.
         11    1    3    3    0    0  0.13325466652E+03  0.90502280179E+02  0.11397138262E+03  0.19732446610E+03  0.00000000000E+00 0.  1.
         21    1    1    2  502  501  0.28962942875E+02 -0.62099849757E+01  0.65993129580E+02  0.72336084530E+02  0.00000000000E+00 0. -1.
<scales pt_clust_5="13000.00000" pt_clust_6="13000.00000" pt_clust_7="13000.00000" pt_clust_8="13000.00000" pt_clust_9="29.62121"></scales>
<clustering>
<clus scale="   29.621">  1  9  2 -1</clus>
<clus scale="   89.038">  7  8 -1 -1</clus>
<clus scale="   90.082">  5  6 -1 -1</clus>
<clus scale="  195.513">  2  7  1 -1</clus>
<clus scale="   29.621">  1  5  2 -1</clus>
</clustering>
</event>
<event>
 9    1  0.1296032E-005  0.1307959E+03  0.7546771E-02  0.1226314E+00
          2   -1    0    0  502    0  0.00000000000E+00  0.00000000000E+00  0.90150293436E+03  0.90150293436E+03  0.00000000000E+00 0. -1.
         -2   -1    0    0    0  501 -0.00000000000E+00 -0.00000000000E+00 -0.24783437421E+02  0.24783437421E+02  0.00000000000E+00 0.  1.
         23    2    1    2    0    0 -0.62960498038E+02  0.72001761104E+02  0.27035760768E+03  0.30077555477E+03  0.90688590231E+02 0.  0.
         23    2    1    2    0    0  0.43574411045E+02 -0.82259845702E+02  0.48240808690E+03  0.49963153442E+03  0.90822334068E+02 0.  0.
        -13    1    4    4    0    0 -0.15627160931E+02 -0.67029499101E+02  0.26514520259E+03  0.27393272963E+03  0.00000000000E+00 0. -1.
         13    1    4    4    0    0  0.59201571976E+02 -0.15230346600E+02  0.21726288432E+03  0.22569880479E+03  0.00000000000E+00 0.  1.
        -13    1    3    3    0    0 -0.46256923800E+02  0.92945267284E+02  0.19705438647E+03  0.22273068252E+03  0.00000000000E+00 0.  1.
         13    1    3    3    0    0 -0.16703574238E+02 -0.20943506180E+02  0.73303221216E+02  0.78044872247E+02  0.00000000000E+00 0. -1.
         21    1    1    2  502  501  0.19386086993E+02  0.10258084598E+02  0.12395380235E+03  0.12587928259E+03  0.00000000000E+00 0. -1.
<scales pt_clust_5="13000.00000" pt_clust_6="13000.00000" pt_clust_7="13000.00000" pt_clust_8="13000.00000" pt_clust_9="21.93282"></scales>
<clustering>
<clus scale="   21.933">  1  9  2 -1</clus>
<clus scale="   90.689">  7  8 -1 -1</clus>
<clus scale="   90.822">  5  6 -1 -1</clus>
<clus scale="  130.703">  2  7  1 -1</clus>
<clus scale="   21.933">  1  5  2 -1</clus>
</clustering>
</event>
<event>
 9    1  0.1296032E-005  0.1172215E+03  0.7546771E-02  0.1248085E+00
         -1   -1    0    0    0  501 -0.00000000000E+00  0.00000000000E+00  0.93757631846E+02  0.93757631846E+02  0.00000000000E+00 0.  1.
          1   -1    0    0  502    0  0.00000000000E+00 -0.00000000000E+00 -0.19253788605E+03  0.19253788605E+03  0.00000000000E+00 0. -1.
         23    2    1    2    0    0  0.85301726175E+02  0.76344688442E+01 -0.20772566386E+02  0.12565518514E+03  0.89571515754E+02 0.  0.
         23    2    1    2    0    0 -0.61598534867E+02 -0.84330734717E+01 -0.42201167751E+02  0.11769168986E+03  0.90580897969E+02 0.  0.
        -13    1    3    3    0    0  0.24040281071E+02  0.44814926811E+02  0.65108608364E+00  0.50859971413E+02  0.00000000000E+00 0.  1.
         13    1    3    3    0    0  0.61261445104E+02 -0.37180457967E+02 -0.21423652470E+02  0.74795213724E+02  0.00000000000E+00 0. -1.
        -13    1    4    4    0    0 -0.25447762546E+02 -0.15246157636E+02 -0.67035769690E+02  0.73306400534E+02  0.00000000000E+00 0. -1.
         13    1    4    4    0    0 -0.36150772321E+02  0.68130841641E+01  0.24834601939E+02  0.44385289328E+02  0.00000000000E+00 0.  1.
         21    1    1    2  502  501 -0.23703191308E+02  0.79860462746E+00 -0.35806520063E+02  0.42948642895E+02  0.00000000000E+00 0.  1.
<scales pt_clust_5="13000.00000" pt_clust_6="13000.00000" pt_clust_7="13000.00000" pt_clust_8="13000.00000" pt_clust_9="23.71664"></scales>
<clustering>
<clus scale="   23.717">  2  9  1 -1</clus>
<clus scale="   89.572">  5  6 -1 -1</clus>
<clus scale="   90.581">  7  8 -1 -1</clus>
<clus scale="  116.443">  1  5  2 -1</clus>
<clus scale="   23.717">  2  5  1 -1</clus>
</clustering>
</event>
<event>
 9    1  0.1296032E-005  0.1677207E+03  0.7546771E-02  0.1208068E+00
         -1   -1    0    0    0  501 -0.00000000000E+00  0.00000000000E+00  0.25633380532E+03  0.25633380532E+03  0.00000000000E+00 0.  1.
          1   -1    0    0  502    0  0.00000000000E+00 -0.00000000000E+00 -0.44219030706E+03  0.44219030706E+03  0.00000000000E+00 0. -1.
         23    2    1    2    0    0 -0.11837161421E+02 -0.86321683281E+01  0.18678217814E+03  0.20781066502E+03  0.89905826863E+02 0.  0.
         23    2    1    2    0    0 -0.94179368744E+02 -0.90774914430E+02 -0.12182074549E+03  0.20083259428E+03  0.91561991621E+02 0.  0.
        -11    1    3    3    0    0 -0.30394684937E+02 -0.42616499884E+02  0.10491892434E+03  0.11725179580E+03  0.00000000000E+00 0.  1.
         11    1    3    3    0    0  0.18557523517E+02  0.33984331556E+02  0.81863253799E+02  0.90558869212E+02  0.00000000000E+00 0. -1.
        -11    1    4    4    0    0 -0.67535007700E+02 -0.58053148205E+02 -0.20945354164E+02  0.91486901481E+02  0.00000000000E+00 0.  1.
         11    1    4    4    0    0 -0.26644361044E+02 -0.32721766225E+02 -0.10087539132E+03  0.10934569280E+03  0.00000000000E+00 0. -1.
         21    1    1    2  502  501  0.10601653016E+03  0.99407082759E+02 -0.25081793440E+03  0.28988085308E+03  0.00000000000E+00 0. -1.
<scales pt_clust_5="13000.00000" pt_clust_6="13000.00000" pt_clust_7="13000.00000" pt_clust_8="13000.00000" pt_clust_9="140.52276"></scales>
<clustering>
<clus scale="   89.906">  5  6 -1 -1</clus>
<clus scale="   91.092">  1  5  2 -1</clus>
<clus scale="   91.562">  7  8 -1 -1</clus>
<clus scale="  140.523">  2  9  1 -1</clus>
<clus scale="  140.523">  2  5  1 -1</clus>
</clustering>
</event>
<event>
 9    1  0.1296032E-005  0.1016535E+03  0.7546771E-02  0.1278745E+00
          1   -1    0    0  502    0  0.00000000000E+00  0.00000000000E+00  0.18186062300E+03  0.18186062300E+03  0.00000000000E+00 0. -1.
         -1   -1    0    0    0  501 -0.00000000000E+00 -0.00000000000E+00 -0.11938469648E+03  0.11938469648E+03  0.00000000000E+00 0.  1.
         23    2    1    2    0    0 -0.57559508901E+02 -0.35529741613E+01 -0.24477380829E+02  0.11191254465E+03  0.92733784500E+02 0.  0.
         23    2    1    2    0    0  0.11031409089E+02  0.37442192023E+02  0.16522590682E+02  0.98372184401E+02  0.88772072923E+02 0.  0.
        -11    1    4    4    0    0  0.33055367982E+02  0.29545697579E+02  0.43877323687E+02  0.62376478995E+02  0.00000000000E+00 0. -1.
         11    1    4    4    0    0 -0.22023958894E+02  0.78964944435E+01 -0.27354733005E+02  0.35995705406E+02  0.00000000000E+00 0.  1.
        -13    1    3    3    0    0 -0.53829201482E+02  0.38703627855E+02 -0.97731094342E+01  0.67015426652E+02  0.00000000000E+00 0. -1.
         13    1    3    3    0    0 -0.37303074187E+01 -0.42256602016E+02 -0.14704271394E+02  0.44897117999E+02  0.00000000000E+00 0.  1.
         21    1    1    2  502  501  0.46528099812E+02 -0.33889217861E+02  0.70430716669E+02  0.90960590422E+02  0.00000000000E+00 0.  1.
<scales pt_clust_5="13000.00000" pt_clust_6="13000.00000" pt_clust_7="13000.00000" pt_clust_8="13000.00000" pt_clust_9="57.56165"></scales>
<clustering>
<clus scale="   57.562">  1  9  2 -1</clus>
<clus scale="   88.772">  5  6 -1 -1</clus>
<clus scale="   92.734">  7  8 -1 -1</clus>
<clus scale="   98.053">  1  5  2 -1</clus>
<clus scale="   57.562">  1  5  2 -1</clus>
</clustering>
</event>
<event>
 9    1  0.1296032E-005  0.1127775E+03  0.7546771E-02  0.1255774E+00
          1   -1    0    0  502    0  0.00000000000E+00  0.00000000000E+00  0.41084123541E+03  0.41084123541E+03  0.00000000000E+00 0. -1.
         -1   -1    0    0    0  501 -0.00000000000E+00 -0.00000000000E+00 -0.40364804511E+02  0.40364804511E+02  0.00000000000E+00 0.  1.
         23    2    1    2    0    0 -0.57790140412E+02  0.22453226092E+01  0.13064593394E+03  0.16981472107E+03  0.91782011501E+02 0.  0.
         23    2    1    2    0    0  0.73921762967E+02 -0.24334261691E+02  0.19254434204E+03  0.22676411937E+03  0.91060742636E+02 0.  0.
        -11    1    3    3    0    0 -0.55060165619E+02 -0.36537174288E+02  0.60387747216E+02  0.89516852920E+02  0.00000000000E+00 0.  1.
         11    1    3    3    0    0 -0.27299747930E+01  0.38782496897E+02  0.70258186726E+02  0.80297868154E+02  0.00000000000E+00 0. -1.
        -13    1    4    4    0    0  0.49595741239E+02  0.25899270182E+02  0.13716774902E+03  0.14814014013E+03  0.00000000000E+00 0. -1.
         13    1    4    4    0    0  0.24326021728E+02 -0.50233531873E+02  0.55376593015E+02  0.78623979240E+02  0.00000000000E+00 0.  1.
         21    1    1    2  502  501 -0.16131622555E+02  0.22088939082E+02  0.47286154921E+02  0.54627199482E+02  0.00000000000E+00 0.  1.
<scales pt_clust_5="13000.00000" pt_clust_6="13000.00000" pt_clust_7="13000.00000" pt_clust_8="13000.00000" pt_clust_9="27.35234"></scales>
<clustering>
<clus scale="   27.352">  1  9  2 -1</clus>
<clus scale="   91.061">  7  8 -1 -1</clus>
<clus scale="   91.782">  5  6 -1 -1</clus>
<clus scale="  112.191">  1  7  2 -1</clus>
<clus scale="   27.352">  1  5  2 -1</clus>
</clustering>
</event>
<event>
 9    1  0.1296032E-005  0.9886694E+02  0.7546771E-02  0.1284770E+00
          2   -1    0    0  502    0  0.00000000000E+00  0.00000000000E+00  0.10997343137E+04  0.10997343137E+04  0.00000000000E+00 0. -1.
         -2   -1    0    0    0  501 -0.00000000000E+00 -0.00000000000E+00 -0.49859394670E+02  0.49859394670E+02  0.00000000000E+00 0.  1.
         23    2    1    2    0    0 -0.48509125496E+02  0.32532768184E+01  0.29325475602E+02  0.10725301886E+03  0.90991798913E+02 0.  0.
         23    2    1    2    0    0 -0.51638139242E+02  0.84183106158E+01  0.37800517570E+03  0.39193401935E+03  0.89370002204E+02 0.  0.
        -13    1    3    3    0    0 -0.13298294276E+02 -0.26329787046E+02 -0.23135693781E+02  0.37488166710E+02  0.00000000000E+00 0.  1.
         13    1    3    3    0    0 -0.35210831220E+02  0.29583063864E+02  0.52461169384E+02  0.69764852153E+02  0.00000000000E+00 0. -1.
        -13    1    4    4    0    0 -0.39830067911E+02 -0.38134403338E+02  0.18500316666E+03  0.19304620872E+03  0.00000000000E+00 0.  1.
         13    1    4    4    0    0 -0.11808071331E+02  0.46552713954E+02  0.19300200904E+03  0.19888781063E+03  0.00000000000E+00 0. -1.
         21    1    1    2  502  501  0.10014726474E+03 -0.11671587434E+02  0.64254426772E+03  0.65040667014E+03  0.00000000000E+00 0. -1.
<scales pt_clust_5="13000.00000" pt_clust_6="13000.00000" pt_clust_7="13000.00000" pt_clust_8="13000.00000" pt_clust_9="100.82510"></scales>
<clustering>
<clus scale="   89.370">  7  8 -1 -1</clus>
<clus scale="   90.992">  5  6 -1 -1</clus>
<clus scale="  100.825">  1  9  2 -1</clus>
<clus scale="  100.825">  1  7  2 -1</clus>
<clus scale="   98.867">  1  5  2 -1</clus>
</clustering>
</event>
<event>
 9    1  0.1296032E-005  0.2173345E+03  0.7546771E-02  0.1136011E+00
         -1   -1    0    0    0  501 -0.00000000000E+00  0.00000000000E+00  0.36836444127E+03  0.36836444127E+03  0.00000000000E+00 0.  1.
          1   -1    0    0  502    0  0.00000000000E+00 -0.00000000000E+00 -0.45523489571E+03  0.45523489571E+03  0.00000000000E+00 0. -1.
         23    2    1    2    0    0 -0.62576942540E+02 -0.18445687802E+03  0.29005403336E+03  0.36116695784E+03  0.91487789252E+02 0.  0.
         23    2    1    2    0    0  0.70059427702E+02  0.20898754810E+03 -0.31067443455E+03  0.39139146901E+03  0.89914176061E+02 0.  0.
        -11    1    3    3    0    0 -0.85600949460E+02 -0.15994895756E+03  0.23953602176E+03  0.30048077692E+03  0.00000000000E+00 0.  1.
         11    1    3    3    0    0  0.23024006920E+02 -0.24507920460E+02  0.50518011593E+02  0.60686180925E+02  0.00000000000E+00 0. -1.
        -11    1    4    4    0    0  0.76273825005E+02  0.11709574113E+03 -0.14213041138E+03  0.19932426548E+03  0.00000000000E+00 0.  1.
         11    1    4    4    0    0 -0.62143973031E+01  0.91891806969E+02 -0.16854402318E+03  0.19206720353E+03  0.00000000000E+00 0. -1.
         21    1    1    2  502  501 -0.74824851615E+01 -0.24530670072E+02 -0.66250053237E+02  0.71040910131E+02  0.00000000000E+00 0. -1.
<scales pt_clust_5="13000.00000" pt_clust_6="13000.00000" pt_clust_7="13000.00000" pt_clust_8="13000.00000" pt_clust_9="25.64647"></scales>
<clustering>
<clus scale="   25.646">  2  9  1 -1</clus>
<clus scale="   89.914">  7  8 -1 -1</clus>
<clus scale="   91.488">  5  6 -1 -1</clus>
<clus scale="  216.677">  2  7  1 -1</clus>
<clus scale="   25.646">  2  5  1 -1</clus>
</clustering>
</event>
<event>
 9    1  0.1296032E-005  0.9678386E+02  0.7546771E-02  0.1288263E+00
         -2   -1    0    0    0  501 -0.00000000000E+00  0.00000000000E+00  0.45114969273E+02  0.45114969273E+02  0.00000000000E+00 0.  1.
          2   -1    0    0  502    0  0.00000000000E+00 -0.00000000000E+00 -0.49136831609E+03  0.49136831609E+03  0.00000000000E+00 0. -1.
         23    2    1    2    0    0  0.10241467776E+02 -0.17427113488E+02 -0.30973332616E+02  0.10006627501E+03  0.92980213566E+02 0.  0.
         23    2    1    2    0    0 -0.30207269127E+02 -0.76547177097E+01 -0.27686512934E+03  0.29433811737E+03  0.94918668769E+02 0.  0.
        -13    1    3    3    0    0 -0.18927469207E+02 -0.47631698166E+02 -0.70431697634E+01  0.51736196237E+02  0.00000000000E+00 0. -1.
         13    1    3    3    0    0  0.29168936983E+02  0.30204584678E+02 -0.23930162852E+02  0.48330078775E+02  0.00000000000E+00 0.  1.
        -13    1    4    4    0    0  0.28484233062E+02  0.23149177418E+01 -0.16655474642E+03  0.16898873907E+03  0.00000000000E+00 0. -1.
         13    1    4    4    0    0 -0.58691502189E+02 -0.99696354515E+01 -0.11031038292E+03  0.12534937830E+03  0.00000000000E+00 0.  1.
         21    1    1    2  502  501  0.19965801350E+02  0.25081831198E+02 -0.13841488486E+03  0.14207889298E+03  0.00000000000E+00 0. -1.
<scales pt_clust_5="13000.00000" pt_clust_6="13000.00000" pt_clust_7="13000.00000" pt_clust_8="13000.00000" pt_clust_9="32.05825"></scales>
<clustering>
<clus scale="   32.058">  2  9  1 -1</clus>
<clus scale="   92.980">  5  6 -1 -1</clus>
<clus scale="   94.884">  1  5  2 -1</clus>
<clus scale="   94.919">  7  8 -1 -1</clus>
<clus scale="   32.058">  2  5  1 -1</clus>
</clustering>
</event>
<event>
 9    1  0.1296032E-005  0.2002006E+03  0.7546771E-02  0.1149876E+00
          1   -1    0    0  502    0  0.00000000000E+00  0.00000000000E+00  0.16776277212E+03  0.16776277212E+03  0.00000000000E+00 0. -1.
         -1   -1    0    0    0  501 -0.00000000000E+00 -0.00000000000E+00 -0.43992480032E+03  0.43992480032E+03  0.00000000000E+00 0.  1.
         23    2    1    2    0    0  0.86868403102E+02  0.12382585355E+03 -0.15459284168E+03  0.23663507119E+03  0.96011711534E+02 0.  0.
         23    2    1    2    0    0 -0.63876650811E+02 -0.20666781206E+03 -0.14763771979E+03  0.27997271503E+03  0.98974813942E+02 0.  0.
        -13    1    4    4    0    0  0.23006452301E+01 -0.11631791387E+03 -0.11436893519E+03  0.16314227960E+03  0.00000000000E+00 0.  1.
         13    1    4    4    0    0 -0.66177296041E+02 -0.90349898192E+02 -0.33268784600E+02  0.11683043543E+03  0.00000000000E+00 0. -1.
        -13    1    3    3    0    0  0.63729647515E+02  0.11991250002E+03 -0.78164244941E+02  0.15668479448E+03  0.00000000000E+00 0. -1.
         13    1    3    3    0    0  0.23138755586E+02  0.39133535289E+01 -0.76428596743E+02  0.79950276710E+02  0.00000000000E+00 0.  1.
         21    1    1    2  502  501 -0.22991752291E+02  0.82841958516E+02  0.30068533274E+02  0.91079786217E+02  0.00000000000E+00 0. -1.
<scales pt_clust_5="13000.00000" pt_clust_6="13000.00000" pt_clust_7="13000.00000" pt_clust_8="13000.00000" pt_clust_9="85.97331"></scales>
<clustering>
<clus scale="   85.973">  1  9  2 -1</clus>
<clus scale="   96.012">  7  8 -1 -1</clus>
<clus scale="   98.975">  5  6 -1 -1</clus>
<clus scale="  198.752">  2  7  1 -1</clus>
<clus scale="   85.973">  1  5  2 -1</clus>
</clustering>
</event>
<event>
 9    1  0.1296032E-005  0.9466938E+02  0.7546771E-02  0.1293026E+00
          2   -1    0    0  502    0  0.00000000000E+00  0.00000000000E+00  0.27129563247E+03  0.27129563247E+03  0.00000000000E+00 0. -1.
         -2   -1    0    0    0  501 -0.00000000000E+00 -0.00000000000E+00 -0.19091784720E+03  0.19091784720E+03  0.00000000000E+00 0.  1.
         23    2    1    2    0    0  0.83253587395E+01 -0.41475807472E+02 -0.69854263629E+02  0.12288358003E+03  0.91821576383E+02 0.  0.
         23    2    1    2    0    0 -0.35047720557E+02 -0.25830409279E+02 -0.60345075336E+02  0.11664865507E+03  0.89832220570E+02 0.  0.
        -11    1    3    3    0    0 -0.25985527302E+02 -0.23874807060E+02 -0.76039384104E+02  0.83828646514E+02  0.00000000000E+00 0.  1.
         11    1    3    3    0    0  0.34310886042E+02 -0.17601000411E+02  0.61851204753E+01  0.39054933513E+02  0.00000000000E+00 0. -1.
        -13    1    4    4    0    0 -0.30405523239E+02 -0.52901640381E+02 -0.13728776534E+02  0.62542455209E+02  0.00000000000E+00 0.  1.
         13    1    4    4    0    0 -0.46421973181E+01  0.27071231103E+02 -0.46616298802E+02  0.54106199861E+02  0.00000000000E+00 0. -1.
         21    1    1    2  502  501  0.26722361818E+02  0.67306216750E+02  0.21057712424E+03  0.22268124458E+03  0.00000000000E+00 0. -1.
<scales pt_clust_5="13000.00000" pt_clust_6="13000.00000" pt_clust_7="13000.00000" pt_clust_8="13000.00000" pt_clust_9="72.41693"></scales>
<clustering>
<clus scale="   72.417">  1  9  2 -1</clus>
<clus scale="   89.832">  7  8 -1 -1</clus>
<clus scale="   91.822">  5  6 -1 -1</clus>
<clus scale="   92.741">  1  7  2 -1</clus>
<clus scale="   72.417">  1  5  2 -1</clus>
</clustering>
</event>
<event>
 9    1  0.1296032E-005  0.1094138E+03  0.7546771E-02  0.1268334E+00
         -1   -1    0    0    0  501 -0.00000000000E+00  0.00000000000E+00  0.87195974457E+02  0.87195974457E+02  0.00000000000E+00 0.  1.
          1   -1    0    0  502    0  0.00000000000E+00 -0.00000000000E+00 -0.24905265260E+03  0.24905265260E+03  0.00000000000E+00 0. -1.
         23    2    1    2    0    0 -0.31454919923E+02 -0.33056592037E+02 -0.21295810061E+02  0.10822649062E+03  0.95798285378E+02 0.  0.
         23    2    1    2    0    0  0.27891571032E+02  0.53557530584E+02 -0.15918830276E+02  0.10165511730E+03  0.80212249062E+02 0.  0.
        -11    1    4    4    0    0  0.28418806586E+02  0.74208425552E+02 -0.15679621721E+02  0.80996108104E+02  0.00000000000E+00 0.  1.
         11    1    4    4    0    0 -0.52723555371E+00 -0.20650894968E+02 -0.23920855562E+00  0.20659009198E+02  0.00000000000E+00 0. -1.
        -11    1    3    3    0    0 -0.20322019808E+02  0.28937118920E+02  0.11540317092E+02  0.37195702158E+02  0.00000000000E+00 0.  1.
         11    1    3    3    0    0 -0.11132900116E+02 -0.61993710956E+02 -0.32836127153E+02  0.71030788462E+02  0.00000000000E+00 0. -1.
         21    1    1    2  502  501  0.35633488910E+01 -0.20500938547E+02 -0.12464203781E+03  0.12636701914E+03  0.00000000000E+00 0. -1.
<scales pt_clust_5="13000.00000" pt_clust_6="13000.00000" pt_clust_7="13000.00000" pt_clust_8="13000.00000" pt_clust_9="20.80831"></scales>
<clustering>
<clus scale="   20.808">  2  9  1 -1</clus>
<clus scale="   80.212">  5  6 -1 -1</clus>
<clus scale="   95.798">  7  8 -1 -1</clus>
<clus scale="   96.063">  2  5  1 -1</clus>
<clus scale="   20.808">  2  5  1 -1</clus>
</clustering>
</event>
<event>
 9    1  0.1296032E-005  0.2303336E+03  0.7546771E-02  0.1159523E+00
          2   -1    0    0  502    0  0.00000000000E+00  0.00000000000E+00  0.10837107692E+04  0.10837107692E+04  0.00000000000E+00 0. -1.
         -2   -1    0    0    0  501 -0.00000000000E+00 -0.00000000000E+00 -0.13972520871E+03  0.13972520871E+03  0.00000000000E+00 0.  1.
         23    2    1    2    0    0 -0.49450948745E+02 -0.43637556610E+01  0.52474976403E+01  0.10417067570E+03  0.91430600727E+02 0.  0.
         23    2    1    2    0    0  0.73707433532E+01 -0.20399329737E+03  0.85790599117E+02  0.24023016006E+03  0.93182131740E+02 0.  0.
        -11    1    4    4    0    0 -0.27682647283E+02 -0.17218563892E+03  0.51701981659E+02  0.18189919769E+03  0.00000000000E+00 0.  1.
         11    1    4    4    0    0  0.35053390636E+02 -0.31807658446E+02  0.34088617459E+02  0.58330962371E+02  0.00000000000E+00 0. -1.
        -13    1    3    3    0    0 -0.56771829426E+01  0.40284586385E+02  0.84924679302E+01  0.41559599588E+02  0.00000000000E+00 0. -1.
         13    1    3    3    0    0 -0.43773765803E+02 -0.44648342046E+02 -0.32449702898E+01  0.62611076114E+02  0.00000000000E+00 0.  1.
         21    1    1    2  502  501  0.42080205392E+02  0.20835705303E+03  0.85294746371E+03  0.87903514212E+03  0.00000000000E+00 0. -1.
<scales pt_clust_5="13000.00000" pt_clust_6="13000.00000" pt_clust_7="13000.00000" pt_clust_8="13000.00000" pt_clust_9="210.64347"></scales>
<clustering>
<clus scale="   91.431">  7  8 -1 -1</clus>
<clus scale="   93.182">  5  6 -1 -1</clus>
<clus scale="  104.038">  2  7  1 -1</clus>
<clus scale="  210.643">  1  9  2 -1</clus>
<clus scale="  210.643">  1  5  2 -1</clus>
</clustering>
</event>
<event>
 9    1  0.1296032E-005  0.1103327E+03  0.7546771E-02  0.1259956E+00
          1   -1    0    0  502    0  0.00000000000E+00  0.00000000000E+00  0.77118307538E+02  0.77118307538E+02  0.00000000000E+00 0. -1.
         -1   -1    0    0    0  501 -0.00000000000E+00 -0.00000000000E+00 -0.33977517689E+03  0.33977517689E+03  0.00000000000E+00 0.  1.
         23    2    1    2    0    0  0.56060577260E+02 -0.41466610081E+02 -0.25325653183E+03  0.27809504525E+03  0.91300138026E+02 0.  0.
         23    2    1    2    0    0 -0.36437425154E+02  0.67899452694E+01 -0.90805436077E+01  0.98953220523E+02  0.91298928094E+02 0.  0.
        -11    1    3    3    0    0  0.74311376953E+02 -0.14964594516E+02 -0.12791423692E+03  0.14868816981E+03  0.00000000000E+00 0.  1.
         11    1    3    3    0    0 -0.18250799693E+02 -0.26502015566E+02 -0.12534229492E+03  0.12940687545E+03  0.00000000000E+00 0. -1.
        -13    1    4    4    0    0 -0.27065924876E+02  0.31458217379E+02  0.30416240446E+02  0.51452224567E+02  0.00000000000E+00 0. -1.
         13    1    4    4    0    0 -0.93715002785E+01 -0.24668272109E+02 -0.39496784053E+02  0.47500995957E+02  0.00000000000E+00 0.  1.
         21    1    1    2  502  501 -0.19623152106E+02  0.34676664812E+02 -0.31979390899E+00  0.39845218649E+02  0.00000000000E+00 0. -1.
<scales pt_clust_5="13000.00000" pt_clust_6="13000.00000" pt_clust_7="13000.00000" pt_clust_8="13000.00000" pt_clust_9="39.84394"></scales>
<clustering>
<clus scale="   39.844">  1  9  2 -1</clus>
<clus scale="   91.299">  7  8 -1 -1</clus>
<clus scale="   91.300">  5  6 -1 -1</clus>
<clus scale="  110.332">  1  7  2 -1</clus>
<clus scale="   39.844">  1  5  2 -1</clus>
</clustering>
</event>
<event>
 9    1  0.1296032E-005  0.1460700E+03  0.7546771E-02  0.1206540E+00
          1   -1    0    0  502    0  0.00000000000E+00  0.00000000000E+00  0.59461195231E+03  0.59461195231E+03  0.00000000000E+00 0. -1.
         -1   -1    0    0    0  501 -0.00000000000E+00 -0.00000000000E+00 -0.23966845230E+03  0.23966845230E+03  0.00000000000E+00 0.  1.
         23    2    1    2    0    0 -0.79756763513E+02  0.71961347072E+02 -0.18381258851E+03  0.23151482624E+03  0.90953121316E+02 0.  0.
         23    2    1    2    0    0  0.15085128094E+03 -0.62487026772E+02  0.45218717685E+03  0.49034507482E+03  0.96458861749E+02 0.  0.
        -13    1    4    4    0    0  0.71329293086E+02 -0.19026226008E+02  0.33036152572E+03  0.33850938392E+03  0.00000000000E+00 0. -1.
         13    1    4    4    0    0  0.79521987850E+02 -0.43460800765E+02  0.12182565114E+03  0.15183569090E+03  0.00000000000E+00 0.  1.
        -13    1    3    3    0    0 -0.61068692831E+02  0.45158260482E+02 -0.18376246935E+03  0.19883988250E+03  0.00000000000E+00 0.  1.
         13    1    3    3    0    0 -0.18688070682E+02  0.26803086590E+02 -0.50119166092E-01  0.32674943741E+02  0.00000000000E+00 0. -1.
         21    1    1    2  502  501 -0.71094517424E+02 -0.94743202993E+01  0.86568911668E+02  0.11242050356E+03  0.00000000000E+00 0. -1.
<scales pt_clust_5="13000.00000" pt_clust_6="13000.00000" pt_clust_7="13000.00000" pt_clust_8="13000.00000" pt_clust_9="71.72303"></scales>
<clustering>
<clus scale="   71.723">  1  9  2 -1</clus>
<clus scale="   90.953">  7  8 -1 -1</clus>
<clus scale="   96.459">  5  6 -1 -1</clus>
<clus scale="  142.494">  2  7  1 -1</clus>
<clus scale="   71.723">  1  5  2 -1</clus>
</clustering>
</event>
<event>
 9    1  0.1296032E-005  0.1201178E+03  0.7546771E-02  0.1243386E+00
         -2   -1    0    0    0  501 -0.00000000000E+00  0.00000000000E+00  0.62465331808E+02  0.62465331808E+02  0.00000000000E+00 0.  1.
          2   -1    0    0  502    0  0.00000000000E+00 -0.00000000000E+00 -0.37826183943E+03  0.37826183943E+03  0.00000000000E+00 0. -1.
         23    2    1    2    0    0 -0.14405851919E+02  0.84123284847E+02 -0.49451316636E+02  0.13426050986E+03  0.91083457165E+02 0.  0.
         23    2    1    2    0    0 -0.14728033465E+02 -0.56697516689E+02 -0.21557097759E+03  0.24182165551E+03  0.92603149661E+02 0.  0.
        -11    1    4    4    0    0 -0.24730185809E+02 -0.20773186935E+02 -0.11364591480E+02  0.34238302018E+02  0.00000000000E+00 0.  1.
         11    1    4    4    0    0  0.10002152344E+02 -0.35924329754E+02 -0.20420638611E+03  0.20758335350E+03  0.00000000000E+00 0. -1.
        -13    1    3    3    0    0 -0.22807136491E+02  0.38619353664E+02 -0.70394600490E+02  0.83468675145E+02  0.00000000000E+00 0. -1.
         13    1    3    3    0    0  0.84012845722E+01  0.45503931183E+02  0.20943283854E+02  0.50791834719E+02  0.00000000000E+00 0.  1.
         21    1    1    2  502  501  0.29133885384E+02 -0.27425768158E+02 -0.50774213393E+02  0.64645005857E+02  0.00000000000E+00 0. -1.
<scales pt_clust_5="13000.00000" pt_clust_6="13000.00000" pt_clust_7="13000.00000" pt_clust_8="13000.00000" pt_clust_9="40.01195"></scales>
<clustering>
<clus scale="   40.012">  2  9  1 -1</clus>
<clus scale="   91.083">  7  8 -1 -1</clus>
<clus scale="   92.603">  5  6 -1 -1</clus>
<clus scale="  118.950">  1  7  2 -1</clus>
<clus scale="   40.012">  2  5  1 -1</clus>
</clustering>
</event>
<event>
 9    1  0.1296032E-005  0.9727658E+02  0.7546771E-02  0.1287117E+00
          1   -1    0    0  502    0  0.00000000000E+00  0.00000000000E+00  0.30782468607E+03  0.30782468607E+03  0.00000000000E+00 0. -1.
         -1   -1    0    0    0  501 -0.00000000000E+00 -0.00000000000E+00 -0.39889947115E+02  0.39889947115E+02  0.00000000000E+00 0.  1.
         23    2    1    2    0    0 -0.28549638715E+02 -0.11393948293E+02  0.11059390685E+03  0.14855168020E+03  0.94295734416E+02 0.  0.
         23    2    1    2    0    0  0.50458595456E+01  0.23464493956E+02  0.12747960499E+03  0.15929042369E+03  0.92446450524E+02 0.  0.
        -13    1    3    3    0    0 -0.23063077205E+02  0.40587754447E+02  0.57197224957E+02  0.73829491966E+02  0.00000000000E+00 0. -1.
         13    1    3    3    0    0 -0.54865615098E+01 -0.51981702741E+02  0.53396681890E+02  0.74722188230E+02  0.00000000000E+00 0.  1.
        -13    1    4    4    0    0  0.34149578325E+02  0.45130803734E+02  0.95069537433E+02  0.11063995704E+03  0.00000000000E+00 0. -1.
         13    1    4    4    0    0 -0.29103718779E+02 -0.21666309778E+02  0.32410067560E+02  0.48650466652E+02  0.00000000000E+00 0.  1.
         21    1    1    2  502  501  0.23503779170E+02 -0.12070545662E+02  0.29861227111E+02  0.39872529295E+02  0.00000000000E+00 0. -1.
<scales pt_clust_5="13000.00000" pt_clust_6="13000.00000" pt_clust_7="13000.00000" pt_clust_8="13000.00000" pt_clust_9="26.42207"></scales>
<clustering>
<clus scale="   26.422">  2  9  1 -1</clus>
<clus scale="   92.446">  7  8 -1 -1</clus>
<clus scale="   94.296">  5  6 -1 -1</clus>
<clus scale="   95.485">  1  7  2 -1</clus>
<clus scale="   95.485">  1  5  2 -1</clus>
</clustering>
</event>
<event>
 9    1  0.1296032E-005  0.2747162E+03  0.7546771E-02  0.1099103E+00
          1   -1    0    0  502    0  0.00000000000E+00  0.00000000000E+00  0.91488480770E+03  0.91488480770E+03  0.00000000000E+00 0. -1.
         -1   -1    0    0    0  501 -0.00000000000E+00 -0.00000000000E+00 -0.10624300594E+03  0.10624300594E+03  0.00000000000E+00 0.  1.
         23    2    1    2    0    0  0.22180896925E+03  0.14528138684E+03  0.22996670880E+03  0.36510512209E+03  0.10055427796E+03 0.  0.
         23    2    1    2    0    0 -0.20096678709E+03 -0.13415204203E+03  0.40144845024E+03  0.47722799990E+03  0.90560950717E+02 0.  0.
        -11    1    4    4    0    0 -0.27000776788E+02 -0.63319833751E+02  0.13045897242E+03  0.14750588727E+03  0.00000000000E+00 0. -1.
         11    1    4    4    0    0 -0.17396601031E+03 -0.70832208282E+02  0.27098947781E+03  0.32972211263E+03  0.00000000000E+00 0.  1.
        -11    1    3    3    0    0  0.17725052239E+03  0.12888467464E+03  0.22990644790E+03  0.31762553712E+03  0.00000000000E+00 0. -1.
         11    1    3    3    0    0  0.44558446861E+02  0.16396712205E+02  0.60260904785E-01  0.47479584972E+02  0.00000000000E+00 0.  1.
         21    1    1    2  502  501 -0.20842182154E+02 -0.11129344809E+02  0.17722664271E+03  0.17879469165E+03  0.00000000000E+00 0.  1.
<scales pt_clust_5="13000.00000" pt_clust_6="13000.00000" pt_clust_7="13000.00000" pt_clust_8="13000.00000" pt_clust_9="23.62750"></scales>
<clustering>
<clus scale="   23.628">  1  9  2 -1</clus>
<clus scale="   90.561">  5  6 -1 -1</clus>
<clus scale="  100.554">  7  8 -1 -1</clus>
<clus scale="  271.218">  1  5  2 -1</clus>
<clus scale="   23.628">  1  5  2 -1</clus>
</clustering>
</event>
<event>
 9    1  0.1296032E-005  0.1994429E+03  0.7546771E-02  0.1150452E+00
          1   -1    0    0  502    0  0.00000000000E+00  0.00000000000E+00  0.14490823939E+03  0.14490823939E+03  0.00000000000E+00 0. -1.
         -1   -1    0    0    0  501 -0.00000000000E+00 -0.00000000000E+00 -0.38257155021E+03  0.38257155021E+03  0.00000000000E+00 0.  1.
         23    2    1    2    0    0  0.71510767631E+02  0.18019472052E+03 -0.21457944057E+03  0.30366805644E+03  0.92660806139E+02 0.  0.
         23    2    1    2    0    0 -0.39504168660E+02 -0.14176145954E+03 -0.18576184912E+02  0.17359363728E+03  0.90181957752E+02 0.  0.
        -13    1    4    4    0    0  0.23591149963E+02 -0.75451144341E+02 -0.21803442147E+02  0.82004924415E+02  0.00000000000E+00 0.  1.
         13    1    4    4    0    0 -0.63095318623E+02 -0.66310315203E+02  0.32272572358E+01  0.91588712862E+02  0.00000000000E+00 0. -1.
        -13    1    3    3    0    0  0.51276902264E+02  0.16923948980E+03 -0.21767364342E+03  0.28045167258E+03  0.00000000000E+00 0.  1.
         13    1    3    3    0    0  0.20233865367E+02  0.10955230722E+02  0.30942028564E+01  0.23216383853E+02  0.00000000000E+00 0. -1.
         21    1    1    2  502  501 -0.32006598971E+02 -0.38433260976E+02 -0.45076853471E+01  0.50218095884E+02  0.00000000000E+00 0. -1.
<scales pt_clust_5="13000.00000" pt_clust_6="13000.00000" pt_clust_7="13000.00000" pt_clust_8="13000.00000" pt_clust_9="50.01538"></scales>
<clustering>
<clus scale="   50.015">  1  9  2 -1</clus>
<clus scale="   90.182">  5  6 -1 -1</clus>
<clus scale="   92.661">  7  8 -1 -1</clus>
<clus scale="  198.303">  1  5  2 -1</clus>
<clus scale="   50.015">  1  5  2 -1</clus>
</clustering>
</event>
<event>
 9    1  0.1296032E-005  0.1034224E+03  0.7546771E-02  0.1274033E+00
          2   -1    0    0  502    0  0.00000000000E+00  0.00000000000E+00  0.27407139189E+03  0.27407139189E+03  0.00000000000E+00 0. -1.
         -2   -1    0    0    0  501 -0.00000000000E+00 -0.00000000000E+00 -0.95553831169E+02  0.95553831169E+02  0.00000000000E+00 0.  1.
         23    2    1    2    0    0  0.34491920103E+02  0.53608006519E+02 -0.55669291729E+01  0.11166431710E+03  0.91511846760E+02 0.  0.
         23    2    1    2    0    0  0.25637946007E+02 -0.36139453955E+02  0.54386421751E+02  0.11393889373E+03  0.89782093013E+02 0.  0.
        -13    1    4    4    0    0  0.25629941523E+02 -0.64466842029E+02  0.49424788985E+02  0.85180264087E+02  0.00000000000E+00 0.  1.
         13    1    4    4    0    0  0.80044844872E-02  0.28327388075E+02  0.49616327666E+01  0.28758629643E+02  0.00000000000E+00 0. -1.
        -13    1    3    3    0    0  0.95989970354E+01  0.32700797320E+02 -0.47590392948E+02  0.58534847658E+02  0.00000000000E+00 0.  1.
         13    1    3    3    0    0  0.24892923068E+02  0.20907209199E+02  0.42023463775E+02  0.53129469440E+02  0.00000000000E+00 0. -1.
         21    1    1    2  502  501 -0.60129866111E+02 -0.17468552564E+02  0.12969806814E+03  0.14402201223E+03  0.00000000000E+00 0. -1.
<scales pt_clust_5="13000.00000" pt_clust_6="13000.00000" pt_clust_7="13000.00000" pt_clust_8="13000.00000" pt_clust_9="62.61590"></scales>
<clustering>
<clus scale="   62.616">  1  9  2 -1</clus>
<clus scale="   89.782">  5  6 -1 -1</clus>
<clus scale="   91.512">  7  8 -1 -1</clus>
<clus scale="  101.895">  1  5  2 -1</clus>
<clus scale="   62.616">  1  5  2 -1</clus>
</clustering>
</event>
<event>
 9    1  0.1296032E-005  0.1005360E+03  0.7546771E-02  0.1279173E+00
          2   -1    0    0  502    0  0.00000000000E+00  0.00000000000E+00  0.33026369839E+03  0.33026369839E+03  0.00000000000E+00 0. -1.
         -2   -1    0    0    0  501 -0.00000000000E+00 -0.00000000000E+00 -0.83377146993E+02  0.83377146993E+02  0.00000000000E+00 0.  1.
         23    2    1    2    0    0 -0.29016213661E+02 -0.37925018125E+02 -0.33821249186E+02  0.10731619512E+03  0.89959108397E+02 0.  0.
         23    2    1    2    0    0  0.10318196113E+02  0.29494673036E+02  0.18094242150E+03  0.20447271144E+03  0.89958484404E+02 0.  0.
        -13    1    3    3    0    0  0.90363833594E+00  0.24760776238E+02 -0.28334347279E+02  0.37639710916E+02  0.00000000000E+00 0. -1.
         13    1    3    3    0    0 -0.29919851997E+02 -0.62685794364E+02 -0.54869019074E+01  0.69676484204E+02  0.00000000000E+00 0.  1.
        -13    1    4    4    0    0  0.24185035243E+02  0.48938612188E+02  0.16934046400E+03  0.17792160195E+03  0.00000000000E+00 0. -1.
         13    1    4    4    0    0 -0.13866839130E+02 -0.19443939152E+02  0.11601957498E+02  0.26551109487E+02  0.00000000000E+00 0.  1.
         21    1    1    2  502  501  0.18698017549E+02  0.84303450896E+01  0.99765379078E+02  0.10185193882E+03  0.00000000000E+00 0. -1.
<scales pt_clust_5="13000.00000" pt_clust_6="13000.00000" pt_clust_7="13000.00000" pt_clust_8="13000.00000" pt_clust_9="20.51065"></scales>
<clustering>
<clus scale="   20.511">  1  9  2 -1</clus>
<clus scale="   89.958">  7  8 -1 -1</clus>
<clus scale="   89.959">  5  6 -1 -1</clus>
<clus scale="  100.535">  1  7  2 -1</clus>
<clus scale="   20.511">  1  5  2 -1</clus>
</clustering>
</event>
<event>
 9    1  0.1296032E-005  0.2911371E+03  0.7546771E-02  0.1089790E+00
         -2   -1    0    0    0  501 -0.00000000000E+00  0.00000000000E+00  0.84161159926E+02  0.84161159926E+02  0.00000000000E+00 0.  1.
          2   -1    0    0  502    0  0.00000000000E+00 -0.00000000000E+00 -0.13024895896E+04  0.13024895896E+04  0.00000000000E+00 0. -1.
         23    2    1    2    0    0 -0.10188483205E+03  0.23445721093E+03 -0.32171603673E+03  0.42102289356E+03  0.91697141974E+02 0.  0.
         23    2    1    2    0    0  0.15209129902E+03 -0.24534489647E+03 -0.81293475124E+03  0.86743835174E+03  0.90887308396E+02 0.  0.
        -11    1    3    3    0    0 -0.75863392120E+02  0.18496865721E+03 -0.18130612706E+03  0.26988992223E+03  0.00000000000E+00 0.  1.
         11    1    3    3    0    0 -0.26021439929E+02  0.49488553723E+02 -0.14040990968E+03  0.15113297133E+03  0.00000000000E+00 0. -1.
        -13    1    4    4    0    0  0.57658593664E+02 -0.36184140687E+02 -0.12642406994E+03  0.14358569191E+03  0.00000000000E+00 0.  1.
         13    1    4    4    0    0  0.94432705352E+02 -0.20916075578E+03 -0.68651068130E+03  0.72385265983E+03  0.00000000000E+00 0. -1.
         21    1    1    2  502  501 -0.50206466967E+02  0.10887685537E+02 -0.83677641705E+02  0.98189504240E+02  0.00000000000E+00 0. -1.
<scales pt_clust_5="13000.00000" pt_clust_6="13000.00000" pt_clust_7="13000.00000" pt_clust_8="13000.00000" pt_clust_9="51.37345"></scales>
<clustering>
<clus scale="   51.373">  1  9  2 -1</clus>
<clus scale="   90.887">  7  8 -1 -1</clus>
<clus scale="   91.697">  5  6 -1 -1</clus>
<clus scale="  290.883">  2  7  1 -1</clus>
<clus scale="  290.883">  2  5  1 -1</clus>
</clustering>
</event>
<event>
 9    1  0.1296032E-005  0.9307210E+02  0.7546771E-02  0.1296399E+00
         -1   -1    0    0    0  501 -0.00000000000E+00  0.00000000000E+00  0.14065488079E+03  0.14065488079E+03  0.00000000000E+00 0.  1.
          1   -1    0    0  502    0  0.00000000000E+00 -0.00000000000E+00 -0.18476332780E+03  0.18476332780E+03  0.00000000000E+00 0. -1.
         23    2    1    2    0    0  0.16841401542E+02 -0.74561224461E+01  0.50170914814E+02  0.10705559503E+03  0.92760730738E+02 0.  0.
         23    2    1    2    0    0  0.40739333324E+02 -0.53184649282E+02 -0.56787865185E+02  0.12671952029E+03  0.91349192610E+02 0.  0.
        -11    1    4    4    0    0  0.11016037710E+02  0.24455689014E+02 -0.14714156066E+01  0.26862592501E+02  0.00000000000E+00 0.  1.
         11    1    4    4    0    0  0.29723295615E+02 -0.77640338296E+02 -0.55316449578E+02  0.99856927786E+02  0.00000000000E+00 0. -1.
        -13    1    3    3    0    0  0.53305040254E+02 -0.12258681894E+01  0.13574591345E+02  0.55019992725E+02  0.00000000000E+00 0. -1.
         13    1    3    3    0    0 -0.36463638712E+02 -0.62302542567E+01  0.36596323469E+02  0.52035602309E+02  0.00000000000E+00 0.  1.
         21    1    1    2  502  501 -0.57580734867E+02  0.60640771728E+02 -0.37491496636E+02  0.91643093267E+02  0.00000000000E+00 0.  1.
<scales pt_clust_5="13000.00000" pt_clust_6="13000.00000" pt_clust_7="13000.00000" pt_clust_8="13000.00000" pt_clust_9="83.62323"></scales>
<clustering>
<clus scale="   83.623">  2  9  1 -1</clus>
<clus scale="   91.349">  5  6 -1 -1</clus>
<clus scale="   91.665">  2  5  1 -1</clus>
<clus scale="   92.761">  7  8 -1 -1</clus>
<clus scale="   83.623">  2  5  1 -1</clus>
</clustering>
</event>
<event>
 9    1  0.1296032E-005  0.9696561E+02  0.7546771E-02  0.1286869E+00
          4   -1    0    0  502    0  0.00000000000E+00  0.00000000000E+00  0.13704206889E+03  0.13704206889E+03  0.00000000000E+00 0. -1.
         -4   -1    0    0    0  501 -0.00000000000E+00 -0.00000000000E+00 -0.17512052077E+03  0.17512052077E+03  0.00000000000E+00 0.  1.
         23    2    1    2    0    0 -0.28264507420E+02 -0.29929612742E+01 -0.80141544880E+02  0.12482678881E+03  0.91385008574E+02 0.  0.
         23    2    1    2    0    0  0.24145864973E+02  0.46821474822E+02 -0.23875693483E+02  0.10805260352E+03  0.91269069729E+02 0.  0.
        -11    1    4    4    0    0 -0.22860126622E+02  0.12785173627E+02 -0.40006238707E+02  0.47817833382E+02  0.00000000000E+00 0.  1.
         11    1    4    4    0    0  0.47005991594E+02  0.34036301195E+02  0.16130545225E+02  0.60234770142E+02  0.00000000000E+00 0. -1.
        -11    1    3    3    0    0 -0.45623487322E+02 -0.36128023319E+02 -0.51557641527E+02  0.77749129026E+02  0.00000000000E+00 0.  1.
         11    1    3    3    0    0  0.17358979902E+02  0.33135062045E+02 -0.28583903353E+02  0.47077659785E+02  0.00000000000E+00 0. -1.
         21    1    1    2  502  501  0.41186424475E+01 -0.43828513548E+02  0.65938786482E+02  0.79283197326E+02  0.00000000000E+00 0. -1.
<scales pt_clust_5="13000.00000" pt_clust_6="13000.00000" pt_clust_7="13000.00000" pt_clust_8="13000.00000" pt_clust_9="44.02161"></scales>
<clustering>
<clus scale="   44.022">  1  9  2 -1</clus>
<clus scale="   91.269">  5  6 -1 -1</clus>
<clus scale="   91.385">  7  8 -1 -1</clus>
<clus scale="   96.856">  1  5  2 -1</clus>
<clus scale="   44.022">  1  5  2 -1</clus>
</clustering>
</event>
<event>
 9    1  0.1296032E-005  0.9381250E+02  0.7546771E-02  0.1294761E+00
          2   -1    0    0  502    0  0.00000000000E+00  0.00000000000E+00  0.26320695148E+03  0.26320695148E+03  0.00000000000E+00 0. -1.
         -2   -1    0    0    0  501 -0.00000000000E+00 -0.00000000000E+00 -0.55996800608E+02  0.55996800608E+02  0.00000000000E+00 0.  1.
         23    2    1    2    0    0 -0.16514709873E+02  0.21841381121E+00  0.14442913155E+02  0.94949438961E+02  0.92379731932E+02 0.  0.
         23    2    1    2    0    0  0.12394049304E+02 -0.20437288298E+02  0.16037516960E+03  0.18584820937E+03  0.90818867476E+02 0.  0.
        -11    1    3    3    0    0 -0.40662985866E+02  0.31291063729E+02 -0.40488843346E+01  0.51468461733E+02  0.00000000000E+00 0. -1.
         11    1    3    3    0    0  0.24148275993E+02 -0.31072649917E+02  0.18491797490E+02  0.43480977228E+02  0.00000000000E+00 0.  1.
        -13    1    4    4    0    0  0.47316892774E+02 -0.21557381024E+02  0.12822624695E+03  0.13836755193E+03  0.00000000000E+00 0. -1.
         13    1    4    4    0    0 -0.34922843469E+02  0.11200927258E+01  0.32148922647E+02  0.47480657441E+02  0.00000000000E+00 0.  1.
         21    1    1    2  502  501  0.41206605691E+01  0.20218874487E+02  0.32392068119E+02  0.38406103761E+02  0.00000000000E+00 0. -1.
<scales pt_clust_5="13000.00000" pt_clust_6="13000.00000" pt_clust_7="13000.00000" pt_clust_8="13000.00000" pt_clust_9="20.63450"></scales>
<clustering>
<clus scale="   20.635">  1  9  2 -1</clus>
<clus scale="   90.819">  7  8 -1 -1</clus>
<clus scale="   92.276">  1  7  2 -1</clus>
<clus scale="   92.380">  5  6 -1 -1</clus>
<clus scale="   20.635">  1  5  2 -1</clus>
</clustering>
</event>
<event>
 9    1  0.1296032E-005  0.1976609E+03  0.7546771E-02  0.1169159E+00
          2   -1    0    0  502    0  0.00000000000E+00  0.00000000000E+00  0.19574342579E+04  0.19574342579E+04  0.00000000000E+00 0. -1.
         -2   -1    0    0    0  501 -0.00000000000E+00 -0.00000000000E+00 -0.43778328764E+02  0.43778328764E+02  0.00000000000E+00 0.  1.
         23    2    1    2    0    0 -0.11784356431E+02  0.94050568800E+02  0.21884342166E+03  0.25545304488E+03  0.91539250515E+02 0.  0.
         23    2    1    2    0    0 -0.15828866889E+03 -0.16331389200E+02  0.43691883628E+03  0.47404353857E+03  0.92180203882E+02 0.  0.
        -11    1    4    4    0    0 -0.87745990002E+02  0.34443916393E+02  0.18647903699E+03  0.20895016960E+03  0.00000000000E+00 0.  1.
         11    1    4    4    0    0 -0.70542678883E+02 -0.50775305593E+02  0.25043979929E+03  0.26509336897E+03  0.00000000000E+00 0. -1.
        -13    1    3    3    0    0 -0.40954601125E+02  0.70355622077E+02  0.19403862942E+03  0.21042381666E+03  0.00000000000E+00 0.  1.
         13    1    3    3    0    0  0.29170244694E+02  0.23694946723E+02  0.24804792244E+02  0.45029228219E+02  0.00000000000E+00 0. -1.
         21    1    1    2  502  501  0.17007302532E+03 -0.77719179600E+02  0.12578936712E+04  0.12717160032E+04  0.00000000000E+00 0. -1.
<scales pt_clust_5="13000.00000" pt_clust_6="13000.00000" pt_clust_7="13000.00000" pt_clust_8="13000.00000" pt_clust_9="174.85036"></scales>
<clustering>
<clus scale="   91.539">  7  8 -1 -1</clus>
<clus scale="   92.180">  5  6 -1 -1</clus>
<clus scale="  131.772">  2  7  1 -1</clus>
<clus scale="  174.850">  1  9  2 -1</clus>
<clus scale="  174.850">  1  5  2 -1</clus>
</clustering>
</event>
<event>
 9    1  0.1296032E-005  0.9557101E+02  0.7546771E-02  0.1291567E+00
         -2   -1    0    0    0  501 -0.00000000000E+00  0.00000000000E+00  0.16997674455E+03  0.16997674455E+03  0.00000000000E+00 0.  1.
          2   -1    0    0  502    0  0.00000000000E+00 -0.00000000000E+00 -0.10982520639E+03  0.10982520639E+03  0.00000000000E+00 0. -1.
         23    2    1    2    0    0 -0.54551037696E+01 -0.28537042176E+00  0.99144914128E+02  0.13741720445E+03  0.94994391882E+02 0.  0.
         23    2    1    2    0    0  0.14193726610E+02  0.34997536546E+02 -0.38254408003E+02  0.10658189632E+03  0.92032665139E+02 0.  0.
        -13    1    4    4    0    0 -0.19680675618E+02  0.43125112434E+02 -0.50869025916E+02  0.69532453666E+02  0.00000000000E+00 0. -1.
         13    1    4    4    0    0  0.33874402228E+02 -0.81275758873E+01  0.12614617913E+02  0.37049442657E+02  0.00000000000E+00 0.  1.
        -13    1    3    3    0    0  0.10336160003E+02 -0.44118357983E+02  0.66725605666E+02  0.80657127188E+02  0.00000000000E+00 0.  1.
         13    1    3    3    0    0 -0.15791263773E+02  0.43832987561E+02  0.32419308462E+02  0.56760077266E+02  0.00000000000E+00 0. -1.
         21    1    1    2  502  501 -0.87386228402E+01 -0.34712166125E+02 -0.73896796177E+00  0.35802850164E+02  0.00000000000E+00 0.  1.
<scales pt_clust_5="13000.00000" pt_clust_6="13000.00000" pt_clust_7="13000.00000" pt_clust_8="13000.00000" pt_clust_9="35.79522"></scales>
<clustering>
<clus scale="   35.795">  2  9  1 -1</clus>
<clus scale="   92.033">  5  6 -1 -1</clus>
<clus scale="   92.628">  2  5  1 -1</clus>
<clus scale="   94.994">  7  8 -1 -1</clus>
<clus scale="   35.795">  2  5  1 -1</clus>
</clustering>
</event>
<event>
 9    1  0.1296032E-005  0.1078768E+03  0.7546771E-02  0.1265480E+00
         -2   -1    0    0    0  501 -0.00000000000E+00  0.00000000000E+00  0.80774509365E+02  0.80774509365E+02  0.00000000000E+00 0.  1.
          2   -1    0    0  502    0  0.00000000000E+00 -0.00000000000E+00 -0.37872386126E+03  0.37872386126E+03  0.00000000000E+00 0. -1.
         23    2    1    2    0    0  0.30378920741E+02 -0.69014305193E+02 -0.18687925770E+02  0.11957092052E+03  0.90896167787E+02 0.  0.
         23    2    1    2    0    0 -0.56223089477E+02 -0.59009291494E+01 -0.10532598306E+03  0.14878940641E+03  0.88593837235E+02 0.  0.
        -11    1    4    4    0    0  0.56391488853E+01 -0.29953495001E+02 -0.63227819640E+02  0.70190946990E+02  0.00000000000E+00 0. -1.
         11    1    4    4    0    0 -0.61862238362E+02  0.24052565852E+02 -0.42098163420E+02  0.78598459416E+02  0.00000000000E+00 0.  1.
        -11    1    3    3    0    0 -0.11941578367E+02  0.17835473482E+02 -0.43543395443E+01  0.21901271221E+02  0.00000000000E+00 0. -1.
         11    1    3    3    0    0  0.42320499108E+02 -0.86849778675E+02 -0.14333586226E+02  0.97669649302E+02  0.00000000000E+00 0.  1.
         21    1    1    2  502  501  0.25844168735E+02  0.74915234342E+02 -0.17393544306E+03  0.19113804369E+03  0.00000000000E+00 0. -1.
<scales pt_clust_5="13000.00000" pt_clust_6="13000.00000" pt_clust_7="13000.00000" pt_clust_8="13000.00000" pt_clust_9="79.24780"></scales>
<clustering>
<clus scale="   79.248">  2  9  1 -1</clus>
<clus scale="   88.594">  5  6 -1 -1</clus>
<clus scale="   90.896">  7  8 -1 -1</clus>
<clus scale="  105.944">  2  5  1 -1</clus>
<clus scale="   79.248">  2  5  1 -1</clus>
</clustering>
</event>
<event>
 9    1  0.1296032E-005  0.1238405E+03  0.7546771E-02  0.1237920E+00
         -1   -1    0    0    0  501 -0.00000000000E+00  0.00000000000E+00  0.65756009153E+03  0.65756009153E+03  0.00000000000E+00 0.  1.
          1   -1    0    0  502    0  0.00000000000E+00 -0.00000000000E+00 -0.79826495049E+02  0.79826495049E+02  0.00000000000E+00 0. -1.
         23    2    1    2    0    0 -0.58096761827E+02 -0.25561193035E+02  0.27892875085E+03  0.30109945614E+03  0.93973539436E+02 0.  0.
         23    2    1    2    0    0  0.67439530714E+02  0.66284233003E+02  0.34695781608E+03  0.37253478241E+03  0.97266377130E+02 0.  0.
        -11    1    4    4    0    0  0.37355298756E+02  0.13454799384E+02  0.29907225771E+02  0.49708069012E+02  0.00000000000E+00 0. -1.
         11    1    4    4    0    0  0.30084231958E+02  0.52829433618E+02  0.31705059031E+03  0.32282671340E+03  0.00000000000E+00 0.  1.
        -11    1    3    3    0    0 -0.16511967884E+02 -0.56639398923E+02  0.17928717790E+03  0.18874469199E+03  0.00000000000E+00 0.  1.
         11    1    3    3    0    0 -0.41584793943E+02  0.31078205887E+02  0.99641572947E+02  0.11235476415E+03  0.00000000000E+00 0. -1.
         21    1    1    2  502  501 -0.93427688873E+01 -0.40723039967E+02 -0.48152970453E+02  0.63752348020E+02  0.00000000000E+00 0. -1.
<scales pt_clust_5="13000.00000" pt_clust_6="13000.00000" pt_clust_7="13000.00000" pt_clust_8="13000.00000" pt_clust_9="41.78102"></scales>
<clustering>
<clus scale="   41.781">  2  9  1 -1</clus>
<clus scale="   93.974">  7  8 -1 -1</clus>
<clus scale="   97.266">  5  6 -1 -1</clus>
<clus scale="  121.271">  1  7  2 -1</clus>
<clus scale="   41.781">  2  5  1 -1</clus>
</clustering>
</event>
<event>
 9    1  0.1296032E-005  0.9612163E+02  0.7546771E-02  0.1289999E+00
          1   -1    0    0  502    0  0.00000000000E+00  0.00000000000E+00  0.33673159281E+02  0.33673159281E+02  0.00000000000E+00 0. -1.
         -1   -1    0    0    0  501 -0.00000000000E+00 -0.00000000000E+00 -0.36009590945E+03  0.36009590945E+03  0.00000000000E+00 0.  1.
         23    2    1    2    0    0 -0.31358390807E+02  0.14513610523E+02 -0.16694486524E+03  0.19198721171E+03  0.88286510103E+02 0.  0.
         23    2    1    2    0    0  0.31698131547E+02  0.11961286972E+02 -0.11995604100E+03  0.15421073375E+03  0.90794574194E+02 0.  0.
        -11    1    3    3    0    0  0.28160941060E+02  0.14947226322E+02 -0.84399218110E+02  0.90220209453E+02  0.00000000000E+00 0.  1.
         11    1    3    3    0    0 -0.59519331867E+02 -0.43361579842E+00 -0.82545647127E+02  0.10176700226E+03  0.00000000000E+00 0. -1.
        -11    1    4    4    0    0 -0.13238446914E+02 -0.30413077402E+02 -0.27841179552E+02  0.43305231007E+02  0.00000000000E+00 0. -1.
         11    1    4    4    0    0  0.44936578461E+02  0.42374364374E+02 -0.92114861448E+02  0.11090550275E+03  0.00000000000E+00 0.  1.
         21    1    1    2  502  501 -0.33974073968E+00 -0.26474897496E+02 -0.39521843931E+02  0.47571123267E+02  0.00000000000E+00 0. -1.
<scales pt_clust_5="13000.00000" pt_clust_6="13000.00000" pt_clust_7="13000.00000" pt_clust_8="13000.00000" pt_clust_9="26.47708"></scales>
<clustering>
<clus scale="   26.477">  2  9  1 -1</clus>
<clus scale="   88.287">  5  6 -1 -1</clus>
<clus scale="   90.795">  7  8 -1 -1</clus>
<clus scale="   93.756">  2  5  1 -1</clus>
<clus scale="   96.122">  1  5  2 -1</clus>
</clustering>
</event>
<event>
 9    1  0.1296032E-005  0.1110176E+03  0.7546771E-02  0.1260664E+00
          2   -1    0    0  502    0  0.00000000000E+00  0.00000000000E+00  0.92226334316E+02  0.92226334316E+02  0.00000000000E+00 0. -1.
         -2   -1    0    0    0  501 -0.00000000000E+00 -0.00000000000E+00 -0.16479682636E+03  0.16479682636E+03  0.00000000000E+00 0.  1.
         23    2    1    2    0    0 -0.43966310033E+02 -0.24760818552E+01 -0.43913274954E+02  0.11578641664E+03  0.97667554300E+02 0.  0.
         23    2    1    2    0    0  0.61258041987E+02  0.15863506522E+02 -0.36282498212E+02  0.11807703666E+03  0.92852400951E+02 0.  0.
        -11    1    4    4    0    0 -0.11691487898E+02  0.33691869163E+02 -0.25545484413E+01  0.35754141784E+02  0.00000000000E+00 0. -1.
         11    1    4    4    0    0  0.72949529885E+02 -0.17828362641E+02 -0.33727949770E+02  0.82322894875E+02  0.00000000000E+00 0.  1.
        -11    1    3    3    0    0 -0.31114304040E+01 -0.39306398910E+02 -0.46194306003E+02  0.60733745987E+02  0.00000000000E+00 0.  1.
         11    1    3    3    0    0 -0.40854879629E+02  0.36830317055E+02  0.22810310493E+01  0.55052670658E+02  0.00000000000E+00 0. -1.
         21    1    1    2  502  501 -0.17291731954E+02 -0.13387424667E+02  0.76252811251E+01  0.23159707369E+02  0.00000000000E+00 0.  1.
<scales pt_clust_5="13000.00000" pt_clust_6="13000.00000" pt_clust_7="13000.00000" pt_clust_8="13000.00000" pt_clust_9="21.86840"></scales>
<clustering>
<clus scale="   21.868">  1  9  2 -1</clus>
<clus scale="   92.852">  5  6 -1 -1</clus>
<clus scale="   97.668">  7  8 -1 -1</clus>
<clus scale="  106.806">  1  5  2 -1</clus>
<clus scale="   21.868">  1  5  2 -1</clus>
</clustering>
</event>
<event>
 9    1  0.1296032E-005  0.1002688E+03  0.7546771E-02  0.1280056E+00
          2   -1    0    0  502    0  0.00000000000E+00  0.00000000000E+00  0.26351070393E+03  0.26351070393E+03  0.00000000000E+00 0. -1.
         -2   -1    0    0    0  501 -0.00000000000E+00 -0.00000000000E+00 -0.66560561539E+02  0.66560561539E+02  0.00000000000E+00 0.  1.
         23    2    1    2    0    0  0.45796771677E+02 -0.29692287080E+02  0.28550623761E+02  0.11047932965E+03  0.91714600557E+02 0.  0.
         23    2    1    2    0    0 -0.32681301062E+01  0.18187835584E+02  0.93754327481E+02  0.13291470513E+03  0.92384884478E+02 0.  0.
        -13    1    4    4    0    0 -0.42852936600E+02 -0.10733956400E+02  0.34783183686E+02  0.56226878471E+02  0.00000000000E+00 0.  1.
         13    1    4    4    0    0  0.39584806494E+02  0.28921791984E+02  0.58971143795E+02  0.76687826656E+02  0.00000000000E+00 0. -1.
        -13    1    3    3    0    0  0.58602372335E+02  0.82993334691E+01  0.36597491387E+02  0.69588025947E+02  0.00000000000E+00 0. -1.
         13    1    3    3    0    0 -0.12805600658E+02 -0.37991620549E+02 -0.80468676259E+01  0.40891303706E+02  0.00000000000E+00 0.  1.
         21    1    1    2  502  501 -0.42528641571E+02  0.11504451496E+02  0.74645191145E+02  0.86677230685E+02  0.00000000000E+00 0. -1.
<scales pt_clust_5="13000.00000" pt_clust_6="13000.00000" pt_clust_7="13000.00000" pt_clust_8="13000.00000" pt_clust_9="44.05721"></scales>
<clustering>
<clus scale="   44.057">  1  9  2 -1</clus>
<clus scale="   91.715">  7  8 -1 -1</clus>
<clus scale="   92.385">  5  6 -1 -1</clus>
<clus scale="   99.652">  2  7  1 -1</clus>
<clus scale="   44.057">  1  5  2 -1</clus>
</clustering>
</event>
<event>
 9    1  0.1296032E-005  0.1543819E+03  0.7546771E-02  0.1195730E+00
         -3   -1    0    0    0  501 -0.00000000000E+00  0.00000000000E+00  0.31139323917E+03  0.31139323917E+03  0.00000000000E+00 0.  1.
          3   -1    0    0  502    0  0.00000000000E+00 -0.00000000000E+00 -0.19497546860E+03  0.19497546860E+03  0.00000000000E+00 0. -1.
         23    2    1    2    0    0 -0.13412197622E+03  0.22630012070E+02  0.23621931067E+03  0.28674636614E+03  0.89011762196E+02 0.  0.
         23    2    1    2    0    0  0.67326300707E+02 -0.96116541680E+01 -0.88588826132E+02  0.14475329981E+03  0.92088669384E+02 0.  0.
        -11    1    3    3    0    0 -0.12262559845E+03  0.50307847318E+02  0.19508267859E+03  0.23584988527E+03  0.00000000000E+00 0.  1.
         11    1    3    3    0    0 -0.11496377771E+02 -0.27677835248E+02  0.41136632076E+02  0.50896480864E+02  0.00000000000E+00 0. -1.
        -11    1    4    4    0    0 -0.15013704756E+02 -0.21197338807E+02 -0.42573575486E+01  0.26322302261E+02  0.00000000000E+00 0.  1.
         11    1    4    4    0    0  0.82340005462E+02  0.11585684639E+02 -0.84331468584E+02  0.11843099755E+03  0.00000000000E+00 0. -1.
         21    1    1    2  502  501  0.66795675513E+02 -0.13018357902E+02 -0.31212713965E+02  0.74869041818E+02  0.00000000000E+00 0. -1.
<scales pt_clust_5="13000.00000" pt_clust_6="13000.00000" pt_clust_7="13000.00000" pt_clust_8="13000.00000" pt_clust_9="68.05248"></scales>
<clustering>
<clus scale="   68.052">  2  9  1 -1</clus>
<clus scale="   89.012">  5  6 -1 -1</clus>
<clus scale="   92.089">  7  8 -1 -1</clus>
<clus scale="  152.567">  1  5  2 -1</clus>
<clus scale="   68.052">  2  5  1 -1</clus>
</clustering>
</event>
<event>
 9    1  0.1296032E-005  0.9833896E+02  0.7546771E-02  0.1286905E+00
         -3   -1    0    0    0  501 -0.00000000000E+00  0.00000000000E+00  0.42218819531E+02  0.42218819531E+02  0.00000000000E+00 0.  1.
          3   -1    0    0  502    0  0.00000000000E+00 -0.00000000000E+00 -0.31804403451E+03  0.31804403451E+03  0.00000000000E+00 0. -1.
         23    2    1    2    0    0 -0.51920065172E+00 -0.23315027840E+02 -0.10495674083E+03  0.14010282640E+03  0.89827748645E+02 0.  0.
         23    2    1    2    0    0 -0.31090602241E+02  0.10786241791E+02 -0.14789881199E+03  0.17912643776E+03  0.95547127415E+02 0.  0.
        -13    1    4    4    0    0 -0.45918547185E+02 -0.28356872833E+02 -0.54120763026E+02  0.76430898221E+02  0.00000000000E+00 0.  1.
         13    1    4    4    0    0  0.14827944944E+02  0.39143114623E+02 -0.93778048967E+02  0.10269553954E+03  0.00000000000E+00 0. -1.
        -13    1    3    3    0    0 -0.23475973394E+02 -0.39934048775E+02 -0.10147572647E+03  0.11154896970E+03  0.00000000000E+00 0.  1.
         13    1    3    3    0    0  0.22956772743E+02  0.16619020935E+02 -0.34810143646E+01  0.28553856703E+02  0.00000000000E+00 0. -1.
         21    1    1    2  502  501  0.31609802893E+02  0.12528786049E+02 -0.22969662152E+02  0.41033589877E+02  0.00000000000E+00 0. -1.
<scales pt_clust_5="13000.00000" pt_clust_6="13000.00000" pt_clust_7="13000.00000" pt_clust_8="13000.00000" pt_clust_9="34.00221"></scales>
<clustering>
<clus scale="   34.002">  1  9  2 -1</clus>
<clus scale="   89.828">  7  8 -1 -1</clus>
<clus scale="   92.792">  1  7  2 -1</clus>
<clus scale="   95.547">  5  6 -1 -1</clus>
<clus scale="   98.339">  2  5  1 -1</clus>
</clustering>
</event>
<event>
 9    1  0.1296032E-005  0.1155626E+03  0.7546771E-02  0.1251212E+00
          1   -1    0    0  502    0  0.00000000000E+00  0.00000000000E+00  0.32266857222E+03  0.32266857222E+03  0.00000000000E+00 0. -1.
         -1   -1    0    0    0  501 -0.00000000000E+00 -0.00000000000E+00 -0.88730820530E+02  0.88730820530E+02  0.00000000000E+00 0.  1.
         23    2    1    2    0    0 -0.77429291739E+02 -0.25919282478E+02  0.10453400700E+01  0.12283029927E+03  0.91755573449E+02 0.  0.
         23    2    1    2    0    0  0.45706986220E+02  0.75938220542E+00  0.82437676748E+02  0.13276167230E+03  0.93487891377E+02 0.  0.
        -11    1    3    3    0    0 -0.39811336104E+02 -0.15968255735E+02  0.46320719506E+02  0.63131107461E+02  0.00000000000E+00 0. -1.
         11    1    3    3    0    0 -0.37617955635E+02 -0.99510267427E+01 -0.45275379436E+02  0.59699191807E+02  0.00000000000E+00 0.  1.
        -13    1    4    4    0    0  0.72164976278E+02 -0.14335171268E+02  0.59737159186E+02  0.94772406976E+02  0.00000000000E+00 0. -1.
         13    1    4    4    0    0 -0.26457990057E+02  0.15094553473E+02  0.22700517562E+02  0.37989265326E+02  0.00000000000E+00 0.  1.
         21    1    1    2  502  501  0.31722305519E+02  0.25159900272E+02  0.15045473487E+03  0.15580742118E+03  0.00000000000E+00 0.  1.
<scales pt_clust_5="13000.00000" pt_clust_6="13000.00000" pt_clust_7="13000.00000" pt_clust_8="13000.00000" pt_clust_9="40.48858"></scales>
<clustering>
<clus scale="   40.489">  1  9  2 -1</clus>
<clus scale="   91.756">  5  6 -1 -1</clus>
<clus scale="   93.488">  7  8 -1 -1</clus>
<clus scale="  114.166">  2  5  1 -1</clus>
<clus scale="   40.489">  1  5  2 -1</clus>
</clustering>
</event>
<event>
 9    1  0.1296032E-005  0.1492119E+03  0.7546771E-02  0.1203042E+00
          1   -1    0    0  502    0  0.00000000000E+00  0.00000000000E+00  0.16985077506E+03  0.16985077506E+03  0.00000000000E+00 0. -1.
         -1   -1    0    0    0  501 -0.00000000000E+00 -0.00000000000E+00 -0.23844491069E+03  0.23844491069E+03  0.00000000000E+00 0.  1.
         23    2    1    2    0    0  0.60075565736E-01 -0.11270543489E+03 -0.14615834940E+03  0.20673012921E+03  0.93126605016E+02 0.  0.
         23    2    1    2    0    0  0.18745716700E+02  0.12999220546E+03  0.50311243766E+02  0.16421298455E+03  0.84766194159E+02 0.  0.
        -13    1    4    4    0    0 -0.18001701414E+01  0.87356225082E+02  0.70976316553E+02  0.11256992576E+03  0.00000000000E+00 0. -1.
         13    1    4    4    0    0  0.20545886842E+02  0.42635980373E+02 -0.20665072787E+02  0.51643058796E+02  0.00000000000E+00 0.  1.
        -13    1    3    3    0    0  0.35000180501E+02 -0.87360390969E+02 -0.13032592190E+03  0.16075352707E+03  0.00000000000E+00 0.  1.
         13    1    3    3    0    0 -0.34940104935E+02 -0.25345043918E+02 -0.15832427500E+02  0.45976602143E+02  0.00000000000E+00 0. -1.
         21    1    1    2  502  501 -0.18805792266E+02 -0.17286770568E+02  0.27252970008E+02  0.37352571982E+02  0.00000000000E+00 0.  1.
<scales pt_clust_5="13000.00000" pt_clust_6="13000.00000" pt_clust_7="13000.00000" pt_clust_8="13000.00000" pt_clust_9="25.54389"></scales>
<clustering>
<clus scale="   25.544">  1  9  2 -1</clus>
<clus scale="   84.766">  5  6 -1 -1</clus>
<clus scale="   93.127">  7  8 -1 -1</clus>
<clus scale="  144.142">  1  5  2 -1</clus>
<clus scale="   25.544">  1  5  2 -1</clus>
</clustering>
</event>
<event>
 9    1  0.1296032E-005  0.2230674E+03  0.7546771E-02  0.1131847E+00
          1   -1    0    0  502    0  0.00000000000E+00  0.00000000000E+00  0.81297312635E+03  0.81297312635E+03  0.00000000000E+00 0. -1.
         -1   -1    0    0    0  501 -0.00000000000E+00 -0.00000000000E+00 -0.90611431129E+02  0.90611431129E+02  0.00000000000E+00 0.  1.
         23    2    1    2    0    0 -0.18288308795E+03 -0.43279741885E+02  0.22321065240E+03  0.30588732471E+03  0.91786165365E+02 0.  0.
         23    2    1    2    0    0  0.20932552187E+03  0.70943547027E+02  0.24869472981E+03  0.34433414716E+03  0.88694843689E+02 0.  0.
        -11    1    3    3    0    0 -0.75094364486E+02 -0.64808227019E+02  0.10289331601E+03  0.14292062254E+03  0.00000000000E+00 0.  1.
         11    1    3    3    0    0 -0.10778872347E+03  0.21528485134E+02  0.12031733639E+03  0.16296670217E+03  0.00000000000E+00 0. -1.
        -13    1    4    4    0    0  0.17724061368E+03  0.91590450832E+02  0.20028481329E+03  0.28269604217E+03  0.00000000000E+00 0.  1.
         13    1    4    4    0    0  0.32084908180E+02 -0.20646903804E+02  0.48409916524E+02  0.61638104996E+02  0.00000000000E+00 0. -1.
         21    1    1    2  502  501 -0.26442433911E+02 -0.27663805143E+02  0.25045631300E+03  0.25336308561E+03  0.00000000000E+00 0. -1.
<scales pt_clust_5="13000.00000" pt_clust_6="13000.00000" pt_clust_7="13000.00000" pt_clust_8="13000.00000" pt_clust_9="38.26864"></scales>
<clustering>
<clus scale="   38.269">  1  9  2 -1</clus>
<clus scale="   88.695">  7  8 -1 -1</clus>
<clus scale="   91.786">  5  6 -1 -1</clus>
<clus scale="  221.813">  1  7  2 -1</clus>
<clus scale="   38.269">  1  5  2 -1</clus>
</clustering>
</event>
<event>
 9    1  0.1296032E-005  0.1252904E+03  0.7546771E-02  0.1234841E+00
         -2   -1    0    0    0  501 -0.00000000000E+00  0.00000000000E+00  0.46880596351E+03  0.46880596351E+03  0.00000000000E+00 0.  1.
          2   -1    0    0  502    0  0.00000000000E+00 -0.00000000000E+00 -0.14480202656E+03  0.14480202656E+03  0.00000000000E+00 0. -1.
         23    2    1    2    0    0 -0.48857889300E+02 -0.70900110236E+02  0.41357867604E+03  0.43221455142E+03  0.91368365442E+02 0.  0.
         23    2    1    2    0    0  0.63897878771E+02  0.53621149317E+02 -0.97594917714E+02  0.15712232332E+03  0.90578639632E+02 0.  0.
        -11    1    3    3    0    0 -0.27792670141E+02 -0.83417032971E+02  0.38333956487E+03  0.39329385439E+03  0.00000000000E+00 0.  1.
         11    1    3    3    0    0 -0.21065219159E+02  0.12516922735E+02  0.30239111166E+02  0.38920697027E+02  0.00000000000E+00 0. -1.
        -13    1    4    4    0    0  0.24723280905E+02 -0.21762674681E+02 -0.85014298802E+01  0.34016597978E+02  0.00000000000E+00 0.  1.
         13    1    4    4    0    0  0.39174597866E+02  0.75383823998E+02 -0.89093487834E+02  0.12310572535E+03  0.00000000000E+00 0. -1.
         21    1    1    2  502  501 -0.15039989471E+02  0.17278960919E+02  0.80201786247E+01  0.24271115320E+02  0.00000000000E+00 0.  1.
<scales pt_clust_5="13000.00000" pt_clust_6="13000.00000" pt_clust_7="13000.00000" pt_clust_8="13000.00000" pt_clust_9="22.90772"></scales>
<clustering>
<clus scale="   22.908">  2  9  1 -1</clus>
<clus scale="   90.579">  7  8 -1 -1</clus>
<clus scale="   91.368">  5  6 -1 -1</clus>
<clus scale="  124.716">  2  7  1 -1</clus>
<clus scale="   22.908">  2  5  1 -1</clus>
</clustering>
</event>
<event>
 9    1  0.1296032E-005  0.1044348E+03  0.7546771E-02  0.1271903E+00
         -1   -1    0    0    0  501 -0.00000000000E+00  0.00000000000E+00  0.39196791149E+03  0.39196791149E+03  0.00000000000E+00 0.  1.
          1   -1    0    0  502    0  0.00000000000E+00 -0.00000000000E+00 -0.21978074051E+03  0.21978074051E+03  0.00000000000E+00 0. -1.
         23    2    1    2    0    0 -0.42873602629E+02 -0.25963192317E+00  0.22212659441E+03  0.24362321967E+03  0.90409269475E+02 0.  0.
         23    2    1    2    0    0  0.60996998071E+02 -0.14772451764E+02  0.13880309925E+03  0.17791985704E+03  0.91925600688E+02 0.  0.
        -13    1    4    4    0    0  0.57753273145E+01 -0.40214138998E+02  0.93972459738E+02  0.10237848685E+03  0.00000000000E+00 0.  1.
         13    1    4    4    0    0  0.55221670757E+02  0.25441687234E+02  0.44830639515E+02  0.75541370187E+02  0.00000000000E+00 0. -1.
        -13    1    3    3    0    0  0.19529952430E+02  0.15368896107E+02  0.12275914736E+03  0.12524947213E+03  0.00000000000E+00 0.  1.
         13    1    3    3    0    0 -0.62403555059E+02 -0.15628528030E+02  0.99367447054E+02  0.11837374754E+03  0.00000000000E+00 0. -1.
         21    1    1    2  502  501 -0.18123395442E+02  0.15032083687E+02 -0.18874252269E+03  0.19020557529E+03  0.00000000000E+00 0. -1.
<scales pt_clust_5="13000.00000" pt_clust_6="13000.00000" pt_clust_7="13000.00000" pt_clust_8="13000.00000" pt_clust_9="23.54615"></scales>
<clustering>
<clus scale="   23.546">  2  9  1 -1</clus>
<clus scale="   90.409">  7  8 -1 -1</clus>
<clus scale="   91.926">  5  6 -1 -1</clus>
<clus scale="  103.103">  1  7  2 -1</clus>
<clus scale="   23.546">  2  5  1 -1</clus>
</clustering>
</event>
<event>
 9    1  0.1296032E-005  0.1002225E+03  0.7546771E-02  0.1281395E+00
          3   -1    0    0  502    0  0.00000000000E+00  0.00000000000E+00  0.10686520393E+03  0.10686520393E+03  0.00000000000E+00 0. -1.
         -3   -1    0    0    0  501 -0.00000000000E+00 -0.00000000000E+00 -0.20759367124E+03  0.20759367124E+03  0.00000000000E+00 0.  1.
         23    2    1    2    0    0 -0.28669231971E+02  0.65141023055E+01 -0.14460291116E+03  0.17527995667E+03  0.94597584025E+02 0.  0.
         23    2    1    2    0    0  0.43978251828E+02 -0.20589566907E+02  0.16610856702E+02  0.10488915359E+03  0.91475663878E+02 0.  0.
        -11    1    3    3    0    0 -0.45624599356E+02 -0.20970794771E+02 -0.35492175626E+02  0.61490428770E+02  0.00000000000E+00 0.  1.
         11    1    3    3    0    0  0.16955367385E+02  0.27484897077E+02 -0.10911073554E+03  0.11378952790E+03  0.00000000000E+00 0. -1.
        -11    1    4    4    0    0 -0.27498225380E+02  0.43967364938E+01  0.45264877749E+01  0.28212989604E+02  0.00000000000E+00 0.  1.
         11    1    4    4    0    0  0.71476477208E+02 -0.24986303401E+02  0.12084368927E+02  0.76676163989E+02  0.00000000000E+00 0. -1.
         21    1    1    2  502  501 -0.15309019856E+02  0.14075464602E+02  0.27263587155E+02  0.34289764905E+02  0.00000000000E+00 0. -1.
<scales pt_clust_5="13000.00000" pt_clust_6="13000.00000" pt_clust_7="13000.00000" pt_clust_8="13000.00000" pt_clust_9="20.79627"></scales>
<clustering>
<clus scale="   20.796">  1  9  2 -1</clus>
<clus scale="   91.476">  7  8 -1 -1</clus>
<clus scale="   94.598">  5  6 -1 -1</clus>
<clus scale="   97.281">  1  7  2 -1</clus>
<clus scale="   20.796">  1  5  2 -1</clus>
</clustering>
</event>
<event>
 9    1  0.1296032E-005  0.1553645E+03  0.7546771E-02  0.1194237E+00
         -1   -1    0    0    0  501 -0.00000000000E+00  0.00000000000E+00  0.40704552995E+02  0.40704552995E+02  0.00000000000E+00 0.  1.
          1   -1    0    0  502    0  0.00000000000E+00 -0.00000000000E+00 -0.17861793299E+04  0.17861793299E+04  0.00000000000E+00 0. -1.
         23    2    1    2    0    0 -0.54167993079E+02  0.11118301437E+03 -0.19805301135E+03  0.25090115777E+03  0.91818089220E+02 0.  0.
         23    2    1    2    0    0 -0.40917016847E+02 -0.15496888543E+03 -0.77911658297E+03  0.80057882057E+03  0.90632446517E+02 0.  0.
        -11    1    4    4    0    0  0.65541284340E+01 -0.11558113139E+03 -0.60195169020E+03  0.61298270112E+03  0.00000000000E+00 0. -1.
         11    1    4    4    0    0 -0.47471145281E+02 -0.39387754042E+02 -0.17716489277E+03  0.18759611945E+03  0.00000000000E+00 0.  1.
        -13    1    3    3    0    0 -0.68844137275E+01  0.30233453723E+02 -0.13356033257E+03  0.13711243310E+03  0.00000000000E+00 0. -1.
         13    1    3    3    0    0 -0.47283579351E+02  0.80949560643E+02 -0.64492678786E+02  0.11378872467E+03  0.00000000000E+00 0.  1.
         21    1    1    2  502  501  0.95085009926E+02  0.43785871063E+02 -0.76830518257E+03  0.77540390454E+03  0.00000000000E+00 0. -1.
<scales pt_clust_5="13000.00000" pt_clust_6="13000.00000" pt_clust_7="13000.00000" pt_clust_8="13000.00000" pt_clust_9="104.68219"></scales>
<clustering>
<clus scale="   90.632">  5  6 -1 -1</clus>
<clus scale="   91.818">  7  8 -1 -1</clus>
<clus scale="  104.682">  2  9  1 -1</clus>
<clus scale="  154.667">  2  5  1 -1</clus>
<clus scale="  104.682">  2  5  1 -1</clus>
</clustering>
</event>
<event>
 9    1  0.1296032E-005  0.1455112E+03  0.7546771E-02  0.1206739E+00
         -2   -1    0    0    0  501 -0.00000000000E+00  0.00000000000E+00  0.96495292252E+02  0.96495292252E+02  0.00000000000E+00 0.  1.
          2   -1    0    0  502    0  0.00000000000E+00 -0.00000000000E+00 -0.10041862974E+04  0.10041862974E+04  0.00000000000E+00 0. -1.
         23    2    1    2    0    0 -0.43787382253E+02 -0.96749736288E+02  0.10303777071E+02  0.13998560019E+03  0.90619832947E+02 0.  0.
         23    2    1    2    0    0  0.10644949051E+03  0.13977519083E+03 -0.75547783427E+03  0.78128169817E+03  0.93732256010E+02 0.  0.
        -11    1    3    3    0    0  0.24220905136E+02 -0.52380670580E+02 -0.25842616779E+01  0.57767337696E+02  0.00000000000E+00 0. -1.
         11    1    3    3    0    0 -0.68008287389E+02 -0.44369065707E+02  0.12888038749E+02  0.82218262497E+02  0.00000000000E+00 0.  1.
        -13    1    4    4    0    0  0.63924023919E+02  0.12080087037E+03 -0.67140265680E+03  0.68517199204E+03  0.00000000000E+00 0. -1.
         13    1    4    4    0    0  0.42525466589E+02  0.18974320458E+02 -0.84075177471E+02  0.96109706129E+02  0.00000000000E+00 0.  1.
         21    1    1    2  502  501 -0.62662108255E+02 -0.43025454542E+02 -0.16251694798E+03  0.17941429132E+03  0.00000000000E+00 0.  1.
<scales pt_clust_5="13000.00000" pt_clust_6="13000.00000" pt_clust_7="13000.00000" pt_clust_8="13000.00000" pt_clust_9="76.01138"></scales>
<clustering>
<clus scale="   76.011">  2  9  1 -1</clus>
<clus scale="   90.620">  5  6 -1 -1</clus>
<clus scale="   93.732">  7  8 -1 -1</clus>
<clus scale="  143.526">  1  5  2 -1</clus>
<clus scale="   76.011">  2  5  1 -1</clus>
</clustering>
</event>
<event>
 9    1  0.1296032E-005  0.1297348E+03  0.7546771E-02  0.1227995E+00
         -2   -1    0    0    0  501 -0.00000000000E+00  0.00000000000E+00  0.39263211491E+03  0.39263211491E+03  0.00000000000E+00 0. -1.
          2   -1    0    0  502    0  0.00000000000E+00 -0.00000000000E+00 -0.16504382090E+03  0.16504382090E+03  0.00000000000E+00 0.  1.
         23    2    1    2    0    0  0.35589138440E+02  0.87669427629E+02  0.34514547633E+03  0.36936951838E+03  0.91410754082E+02 0.  0.
         23    2    1    2    0    0 -0.25062719235E+02 -0.66007516612E+02 -0.69168369313E+02  0.13425532018E+03  0.90857556304E+02 0.  0.
        -11    1    4    4    0    0  0.32101602092E+02 -0.87421169552E+01 -0.12825534396E+02  0.35657142318E+02  0.00000000000E+00 0. -1.
         11    1    4    4    0    0 -0.57164321327E+02 -0.57265399657E+02 -0.56342834917E+02  0.98598177859E+02  0.00000000000E+00 0.  1.
        -11    1    3    3    0    0  0.29032209042E+02 -0.27719627088E+01  0.31717031473E+02  0.43087388231E+02  0.00000000000E+00 0.  1.
         11    1    3    3    0    0  0.65569293979E+01  0.90441390338E+02  0.31342844485E+03  0.32628213014E+03  0.00000000000E+00 0. -1.
         21    1    1    2  502  501 -0.10526419205E+02 -0.21661911018E+02 -0.48388813004E+02  0.54051097252E+02  0.00000000000E+00 0.  1.
<scales pt_clust_5="13000.00000" pt_clust_6="13000.00000" pt_clust_7="13000.00000" pt_clust_8="13000.00000" pt_clust_9="24.08410"></scales>
<clustering>
<clus scale="   24.084">  2  9  1 -1</clus>
<clus scale="   90.858">  5  6 -1 -1</clus>
<clus scale="   91.411">  7  8 -1 -1</clus>
<clus scale="  129.346">  2  5  1 -1</clus>
<clus scale="   24.084">  2  5  1 -1</clus>
</clustering>
</event>
<event>
 9    1  0.1296032E-005  0.9643473E+02  0.7546771E-02  0.1289499E+00
          1   -1    0    0  502    0  0.00000000000E+00  0.00000000000E+00  0.73721335487E+03  0.73721335487E+03  0.00000000000E+00 0. -1.
         -1   -1    0    0    0  501 -0.00000000000E+00 -0.00000000000E+00 -0.29294759341E+02  0.29294759341E+02  0.00000000000E+00 0.  1.
         23    2    1    2    0    0  0.15747029005E+02 -0.31708852348E+02  0.93717600778E+02  0.13624494853E+03  0.92337841992E+02 0.  0.
         23    2    1    2    0    0  0.18641429370E+02  0.14292160582E+02  0.30665328950E+03  0.32030913970E+03  0.89498247292E+02 0.  0.
        -11    1    3    3    0    0  0.56024331571E+01 -0.64410157619E+02  0.61108607940E+02  0.88962450653E+02  0.00000000000E+00 0.  1.
         11    1    3    3    0    0  0.10144595848E+02  0.32701305271E+02  0.32608992838E+02  0.47282497874E+02  0.00000000000E+00 0. -1.
        -11    1    4    4    0    0  0.53609642361E+02  0.19125932734E+02  0.20175703196E+03  0.20963228521E+03  0.00000000000E+00 0.  1.
         11    1    4    4    0    0 -0.34968212991E+02 -0.48337721516E+01  0.10489625754E+03  0.11067685449E+03  0.00000000000E+00 0. -1.
         21    1    1    2  502  501 -0.34388458375E+02  0.17416691766E+02  0.30754770525E+03  0.30995402599E+03  0.00000000000E+00 0. -1.
<scales pt_clust_5="13000.00000" pt_clust_6="13000.00000" pt_clust_7="13000.00000" pt_clust_8="13000.00000" pt_clust_9="38.54747"></scales>
<clustering>
<clus scale="   38.547">  1  9  2 -1</clus>
<clus scale="   89.498">  7  8 -1 -1</clus>
<clus scale="   92.338">  5  6 -1 -1</clus>
<clus scale="   93.719">  1  7  2 -1</clus>
<clus scale="   38.547">  1  5  2 -1</clus>
</clustering>
</event>
<event>
 9    1  0.1296032E-005  0.1478299E+03  0.7546771E-02  0.1204598E+00
         -2   -1    0    0    0  501 -0.00000000000E+00  0.00000000000E+00  0.58906422201E+02  0.58906422201E+02  0.00000000000E+00 0.  1.
          2   -1    0    0  502    0  0.00000000000E+00 -0.00000000000E+00 -0.48977060442E+03  0.48977060442E+03  0.00000000000E+00 0. -1.
         23    2    1    2    0    0 -0.44436255484E+02  0.10760339414E+03 -0.15032218516E+03  0.21090446834E+03  0.91273567835E+02 0.  0.
         23    2    1    2    0    0  0.23368479452E+01 -0.10723048824E+03 -0.20581834178E+03  0.25200470979E+03  0.98190353292E+02 0.  0.
        -11    1    3    3    0    0  0.66558976641E+01  0.69708883772E+02 -0.32922962726E+02  0.77379266765E+02  0.00000000000E+00 0.  1.
         11    1    3    3    0    0 -0.51092153148E+02  0.37894510367E+02 -0.11739922243E+03  0.13352520158E+03  0.00000000000E+00 0. -1.
        -13    1    4    4    0    0 -0.47365117562E+02 -0.44826105971E+02 -0.83090988896E+02  0.10562644827E+03  0.00000000000E+00 0. -1.
         13    1    4    4    0    0  0.49701965507E+02 -0.62404382274E+02 -0.12272735288E+03  0.14637826153E+03  0.00000000000E+00 0.  1.
         21    1    1    2  502  501  0.42099407539E+02 -0.37290589477E+00 -0.74723655285E+02  0.85767848481E+02  0.00000000000E+00 0.  1.
<scales pt_clust_5="13000.00000" pt_clust_6="13000.00000" pt_clust_7="13000.00000" pt_clust_8="13000.00000" pt_clust_9="42.10106"></scales>
<clustering>
<clus scale="   42.101">  2  9  1 -1</clus>
<clus scale="   91.274">  5  6 -1 -1</clus>
<clus scale="   98.190">  7  8 -1 -1</clus>
<clus scale="  143.329">  1  5  2 -1</clus>
<clus scale="   42.101">  2  5  1 -1</clus>
</clustering>
</event>
<event>
 9    1  0.1296032E-005  0.1127872E+03  0.7546771E-02  0.1255973E+00
         -4   -1    0    0    0  501 -0.00000000000E+00  0.00000000000E+00  0.87625132928E+02  0.87625132928E+02  0.00000000000E+00 0.  1.
          4   -1    0    0  502    0  0.00000000000E+00 -0.00000000000E+00 -0.42377428575E+03  0.42377428575E+03  0.00000000000E+00 0. -1.
         23    2    1    2    0    0  0.67425303915E+02 -0.22128147780E+02  0.22970751586E+02  0.11601179316E+03  0.88855242906E+02 0.  0.
         23    2    1    2    0    0 -0.55179991529E+02 -0.24940676971E+02 -0.29860051243E+03  0.31774730903E+03  0.90189897097E+02 0.  0.
        -13    1    4    4    0    0 -0.47677077791E+01 -0.27162176201E+02 -0.18665055523E+02  0.33300137404E+02  0.00000000000E+00 0.  1.
         13    1    4    4    0    0 -0.50412283750E+02  0.22214992302E+01 -0.27993545691E+03  0.28444717162E+03  0.00000000000E+00 0. -1.
        -13    1    3    3    0    0  0.71497348607E+02 -0.46505628337E+02  0.49701112176E+01  0.85436212056E+02  0.00000000000E+00 0.  1.
         13    1    3    3    0    0 -0.40720446925E+01  0.24377480557E+02  0.18000640368E+02  0.30575581105E+02  0.00000000000E+00 0. -1.
         21    1    1    2  502  501 -0.12245312386E+02  0.47068824751E+02 -0.60519391975E+02  0.77640316485E+02  0.00000000000E+00 0. -1.
<scales pt_clust_5="13000.00000" pt_clust_6="13000.00000" pt_clust_7="13000.00000" pt_clust_8="13000.00000" pt_clust_9="48.63560"></scales>
<clustering>
<clus scale="   48.636">  2  9  1 -1</clus>
<clus scale="   88.855">  7  8 -1 -1</clus>
<clus scale="   90.190">  5  6 -1 -1</clus>
<clus scale="  111.723">  1  7  2 -1</clus>
<clus scale="   48.636">  2  5  1 -1</clus>
</clustering>
</event>
<event>
 9    1  0.1296032E-005  0.1055668E+03  0.7546771E-02  0.1269881E+00
         -1   -1    0    0    0  501 -0.00000000000E+00  0.00000000000E+00  0.11826793197E+03  0.11826793197E+03  0.00000000000E+00 0.  1.
          1   -1    0    0  502    0  0.00000000000E+00 -0.00000000000E+00 -0.32510894637E+03  0.32510894637E+03  0.00000000000E+00 0. -1.
         23    2    1    2    0    0 -0.40421475766E+02  0.21144731187E+02  0.61956176672E+02  0.12058281325E+03  0.92847464494E+02 0.  0.
         23    2    1    2    0    0  0.62280699053E+02 -0.32148907454E+02 -0.99880477647E+02  0.15211373931E+03  0.90829742626E+02 0.  0.
        -11    1    4    4    0    0  0.53575769291E+01  0.29320062308E+02 -0.36138529503E+02  0.46844028424E+02  0.00000000000E+00 0.  1.
         11    1    4    4    0    0  0.56923122124E+02 -0.61468969762E+02 -0.63741948143E+02  0.10526971088E+03  0.00000000000E+00 0. -1.
        -11    1    3    3    0    0  0.24336618877E+02  0.23043244530E+02  0.39983387090E+02  0.52172151384E+02  0.00000000000E+00 0. -1.
         11    1    3    3    0    0 -0.64758094643E+02 -0.18985133425E+01  0.21972789582E+02  0.68410661864E+02  0.00000000000E+00 0.  1.
         21    1    1    2  502  501 -0.21859223287E+02  0.11004176267E+02 -0.16891671342E+03  0.17068032579E+03  0.00000000000E+00 0. -1.
<scales pt_clust_5="13000.00000" pt_clust_6="13000.00000" pt_clust_7="13000.00000" pt_clust_8="13000.00000" pt_clust_9="24.47279"></scales>
<clustering>
<clus scale="   24.473">  2  9  1 -1</clus>
<clus scale="   90.830">  5  6 -1 -1</clus>
<clus scale="   92.847">  7  8 -1 -1</clus>
<clus scale="  103.797">  2  5  1 -1</clus>
<clus scale="   24.473">  2  5  1 -1</clus>
</clustering>
</event>
<event>
 9    1  0.1296032E-005  0.9721580E+02  0.7546771E-02  0.1287807E+00
         -2   -1    0    0    0  501 -0.00000000000E+00  0.00000000000E+00  0.29015451245E+03  0.29015451245E+03  0.00000000000E+00 0.  1.
          2   -1    0    0  502    0  0.00000000000E+00 -0.00000000000E+00 -0.72915619007E+02  0.72915619007E+02  0.00000000000E+00 0. -1.
         23    2    1    2    0    0  0.17000167961E+02  0.35399780650E+01  0.19926323603E+03  0.22121719312E+03  0.94496942489E+02 0.  0.
         23    2    1    2    0    0 -0.41926974826E+02  0.12020653103E+02  0.35652767491E+02  0.10756067735E+03  0.91628664530E+02 0.  0.
        -11    1    4    4    0    0 -0.19970981937E+01 -0.29642369258E+02 -0.12664324092E+02  0.32296184932E+02  0.00000000000E+00 0. -1.
         11    1    4    4    0    0 -0.39929876633E+02  0.41663022361E+02  0.48317091583E+02  0.75264492420E+02  0.00000000000E+00 0.  1.
        -11    1    3    3    0    0  0.38091323391E+02  0.38012615340E+02  0.91854701343E+02  0.10645747509E+03  0.00000000000E+00 0. -1.
         11    1    3    3    0    0 -0.21091155430E+02 -0.34472637275E+02  0.10740853469E+03  0.11475971803E+03  0.00000000000E+00 0.  1.
         21    1    1    2  502  501  0.24926806866E+02 -0.15560631168E+02 -0.17677110082E+02  0.34292260989E+02  0.00000000000E+00 0.  1.
<scales pt_clust_5="13000.00000" pt_clust_6="13000.00000" pt_clust_7="13000.00000" pt_clust_8="13000.00000" pt_clust_9="29.38501"></scales>
<clustering>
<clus scale="   29.385">  2  9  1 -1</clus>
<clus scale="   91.629">  5  6 -1 -1</clus>
<clus scale="   94.430">  2  5  1 -1</clus>
<clus scale="   94.497">  7  8 -1 -1</clus>
<clus scale="   29.385">  2  5  1 -1</clus>
</clustering>
</event>
<event>
 9    1  0.1296032E-005  0.1094339E+03  0.7546771E-02  0.1262478E+00
         -1   -1    0    0    0  501 -0.00000000000E+00  0.00000000000E+00  0.10385890289E+03  0.10385890289E+03  0.00000000000E+00 0.  1.
          1   -1    0    0  502    0  0.00000000000E+00 -0.00000000000E+00 -0.17373671649E+03  0.17373671649E+03  0.00000000000E+00 0. -1.
         23    2    1    2    0    0  0.72823312891E+02 -0.82540568048E+01 -0.47918122610E+00  0.11591749396E+03  0.89806856288E+02 0.  0.
         23    2    1    2    0    0 -0.35294027577E+02  0.29107657496E+02 -0.43672946384E+02  0.11162684335E+03  0.91979898909E+02 0.  0.
        -11    1    4    4    0    0  0.10403918359E+02  0.27717050967E+02  0.18156951395E+02  0.34729689252E+02  0.00000000000E+00 0.  1.
         11    1    4    4    0    0 -0.45697945936E+02  0.13906065291E+01 -0.61829897780E+02  0.76897154100E+02  0.00000000000E+00 0. -1.
        -13    1    3    3    0    0  0.15148245220E+02 -0.30475962045E+02 -0.31843015730E+02  0.46607201660E+02  0.00000000000E+00 0. -1.
         13    1    3    3    0    0  0.57675067671E+02  0.22221905240E+02  0.31363834504E+02  0.69310292296E+02  0.00000000000E+00 0.  1.
         21    1    1    2  502  501 -0.37529285314E+02 -0.20853600691E+02 -0.25725685981E+02  0.50051282073E+02  0.00000000000E+00 0. -1.
<scales pt_clust_5="13000.00000" pt_clust_6="13000.00000" pt_clust_7="13000.00000" pt_clust_8="13000.00000" pt_clust_9="42.93390"></scales>
<clustering>
<clus scale="   42.934">  2  9  1 -1</clus>
<clus scale="   89.807">  7  8 -1 -1</clus>
<clus scale="   91.980">  5  6 -1 -1</clus>
<clus scale="  107.614">  1  7  2 -1</clus>
<clus scale="   42.934">  2  5  1 -1</clus>
</clustering>
</event>
<event>
 9    1  0.1296032E-005  0.3529218E+03  0.7546771E-02  0.1120908E+00
         -1   -1    0    0    0  501 -0.00000000000E+00  0.00000000000E+00  0.41707803904E+03  0.41707803904E+03  0.00000000000E+00 0.  1.
          1   -1    0    0  502    0  0.00000000000E+00 -0.00000000000E+00 -0.41823100410E+03  0.41823100410E+03  0.00000000000E+00 0. -1.
         23    2    1    2    0    0  0.22265661132E+01 -0.33573837235E+03  0.15582482434E+03  0.38261467202E+03  0.96888591161E+02 0.  0.
         23    2    1    2    0    0 -0.29459240626E+02 -0.10892132741E+02 -0.50357911460E+02  0.89015771265E+02  0.66343069520E+02 0.  0.
        -13    1    3    3    0    0  0.24515255566E+02 -0.23920971294E+02  0.30337967546E+02  0.45755905607E+02  0.00000000000E+00 0. -1.
         13    1    3    3    0    0 -0.22288689453E+02 -0.31181740106E+03  0.12548685679E+03  0.33685876641E+03  0.00000000000E+00 0.  1.
        -13    1    4    4    0    0  0.19464630947E+02  0.78694719622E+01 -0.13776315811E+02  0.25111497848E+02  0.00000000000E+00 0.  1.
         13    1    4    4    0    0 -0.48923871573E+02 -0.18761604703E+02 -0.36581595650E+02  0.63904273417E+02  0.00000000000E+00 0. -1.
         21    1    1    2  502  501  0.27232674513E+02  0.34663050509E+03 -0.10661987794E+03  0.36367859986E+03  0.00000000000E+00 0. -1.
<scales pt_clust_5="13000.00000" pt_clust_6="13000.00000" pt_clust_7="13000.00000" pt_clust_8="13000.00000" pt_clust_9="339.36178"></scales>
<clustering>
<clus scale="   66.343">  7  8 -1 -1</clus>
<clus scale="   73.402">  2  7  1 -1</clus>
<clus scale="   96.889">  5  6 -1 -1</clus>
<clus scale="  339.362">  2  9  1 -1</clus>
<clus scale="   73.402">  2  5  1 -1</clus>
</clustering>
</event>
<event>
 9    1  0.1296032E-005  0.1254784E+03  0.7546771E-02  0.1234797E+00
         -2   -1    0    0    0  501 -0.00000000000E+00  0.00000000000E+00  0.32799680955E+02  0.32799680955E+02  0.00000000000E+00 0.  1.
          2   -1    0    0  502    0  0.00000000000E+00 -0.00000000000E+00 -0.11792342273E+04  0.11792342273E+04  0.00000000000E+00 0. -1.
         23    2    1    2    0    0  0.79476291491E+02 -0.20056226803E+02 -0.12117392140E+03  0.17272010975E+03  0.91817122265E+02 0.  0.
         23    2    1    2    0    0 -0.97735694659E+02 -0.94455121599E+01 -0.80270996086E+03  0.81407491090E+03  0.93451568119E+02 0.  0.
        -11    1    4    4    0    0  0.17668155408E+02 -0.96643392753E+01 -0.11569135229E+03  0.11743105281E+03  0.00000000000E+00 0.  1.
         11    1    4    4    0    0 -0.11540385007E+03  0.21882711541E+00 -0.68701860857E+03  0.69664385809E+03  0.00000000000E+00 0. -1.
        -11    1    3    3    0    0  0.15826101700E+02  0.25920093817E+02 -0.76670957158E+02  0.82466674664E+02  0.00000000000E+00 0. -1.
         11    1    3    3    0    0  0.63650189791E+02 -0.45976320620E+02 -0.44502964245E+02  0.90253435086E+02  0.00000000000E+00 0.  1.
         21    1    1    2  502  501  0.18259403168E+02  0.29501738963E+02 -0.22255066407E+03  0.22523888759E+03  0.00000000000E+00 0.  1.
<scales pt_clust_5="13000.00000" pt_clust_6="13000.00000" pt_clust_7="13000.00000" pt_clust_8="13000.00000" pt_clust_9="34.69522"></scales>
<clustering>
<clus scale="   34.695">  2  9  1 -1</clus>
<clus scale="   91.817">  7  8 -1 -1</clus>
<clus scale="   93.452">  5  6 -1 -1</clus>
<clus scale="  124.266">  1  7  2 -1</clus>
<clus scale="   34.695">  2  5  1 -1</clus>
</clustering>
</event>
<event>
 9    1  0.1296032E-005  0.9908571E+02  0.7546771E-02  0.1283215E+00
         -2   -1    0    0    0  501 -0.00000000000E+00  0.00000000000E+00  0.50332019712E+03  0.50332019712E+03  0.00000000000E+00 0.  1.
          2   -1    0    0  502    0  0.00000000000E+00 -0.00000000000E+00 -0.93371026524E+02  0.93371026524E+02  0.00000000000E+00 0. -1.
         23    2    1    2    0    0 -0.16678978583E+01  0.38192254332E+02  0.34208595031E+03  0.35668687975E+03  0.93494933616E+02 0.  0.
         23    2    1    2    0    0 -0.56253929493E+02 -0.64388464109E+01  0.11601439105E+03  0.15826235808E+03  0.91551470367E+02 0.  0.
        -11    1    4    4    0    0  0.21323363308E+02 -0.19575489267E+02  0.29929574757E+02  0.41637303563E+02  0.00000000000E+00 0. -1.
         11    1    4    4    0    0 -0.77577292801E+02  0.13136642856E+02  0.86084816293E+02  0.11662505451E+03  0.00000000000E+00 0.  1.
        -13    1    3    3    0    0  0.41438498297E+02  0.21000762693E+02  0.10095889615E+03  0.11113451258E+03  0.00000000000E+00 0. -1.
         13    1    3    3    0    0 -0.43106396155E+02  0.17191491639E+02  0.24112705416E+03  0.24555236717E+03  0.00000000000E+00 0.  1.
         21    1    1    2  502  501  0.57921827351E+02 -0.31753407921E+02 -0.48151170770E+02  0.81741985814E+02  0.00000000000E+00 0. -1.
<scales pt_clust_5="13000.00000" pt_clust_6="13000.00000" pt_clust_7="13000.00000" pt_clust_8="13000.00000" pt_clust_9="66.05465"></scales>
<clustering>
<clus scale="   66.055">  2  9  1 -1</clus>
<clus scale="   91.551">  5  6 -1 -1</clus>
<clus scale="   93.495">  7  8 -1 -1</clus>
<clus scale="   97.254">  2  5  1 -1</clus>
<clus scale="   66.055">  2  5  1 -1</clus>
</clustering>
</event>
<event>
 9    1  0.1296032E-005  0.9338739E+02  0.7546771E-02  0.1295250E+00
          2   -1    0    0  502    0  0.00000000000E+00  0.00000000000E+00  0.28697259924E+03  0.28697259924E+03  0.00000000000E+00 0. -1.
         -2   -1    0    0    0  501 -0.00000000000E+00 -0.00000000000E+00 -0.84467681189E+02  0.84467681189E+02  0.00000000000E+00 0.  1.
         23    2    1    2    0    0 -0.30390417479E+01 -0.33680865362E+02 -0.89261911058E+01  0.97117549665E+02  0.90600800763E+02 0.  0.
         23    2    1    2    0    0 -0.63178845919E+01 -0.31703585520E+02  0.17199650315E+03  0.19739570925E+03  0.91308465843E+02 0.  0.
        -11    1    3    3    0    0 -0.41388559657E+02 -0.17707523367E+02  0.17031479238E+02  0.48131492178E+02  0.00000000000E+00 0.  1.
         11    1    3    3    0    0  0.38349517909E+02 -0.15973341995E+02 -0.25957670344E+02  0.48986057486E+02  0.00000000000E+00 0. -1.
        -13    1    4    4    0    0 -0.35539753869E+02  0.93036484539E+01  0.32358255427E+02  0.48955987110E+02  0.00000000000E+00 0.  1.
         13    1    4    4    0    0  0.29221869277E+02 -0.41007233974E+02  0.13963824772E+03  0.14843972214E+03  0.00000000000E+00 0. -1.
         21    1    1    2  502  501  0.93569263399E+01  0.65384450882E+02  0.39434606002E+02  0.76927021509E+02  0.00000000000E+00 0.  1.
<scales pt_clust_5="13000.00000" pt_clust_6="13000.00000" pt_clust_7="13000.00000" pt_clust_8="13000.00000" pt_clust_9="66.05058"></scales>
<clustering>
<clus scale="   66.051">  2  9  1 -1</clus>
<clus scale="   90.601">  5  6 -1 -1</clus>
<clus scale="   91.308">  7  8 -1 -1</clus>
<clus scale="   92.696">  2  5  1 -1</clus>
<clus scale="   93.387">  1  5  2 -1</clus>
</clustering>
</event>
<event>
 9    1  0.1296032E-005  0.1385648E+03  0.7546771E-02  0.1215315E+00
         -1   -1    0    0    0  501 -0.00000000000E+00  0.00000000000E+00  0.71772679498E+03  0.71772679498E+03  0.00000000000E+00 0.  1.
          1   -1    0    0  502    0  0.00000000000E+00 -0.00000000000E+00 -0.49662586837E+02  0.49662586837E+02  0.00000000000E+00 0. -1.
         23    2    1    2    0    0  0.63849191806E+02 -0.78044941601E+02  0.47613926509E+03  0.49516061299E+03  0.91146589038E+02 0.  0.
         23    2    1    2    0    0 -0.49886786073E+02  0.10389452783E+03  0.19322823438E+03  0.24282046303E+03  0.91333796403E+02 0.  0.
        -11    1    4    4    0    0  0.53089937924E+01  0.61524341945E+02  0.14655470118E+03  0.15903367727E+03  0.00000000000E+00 0.  1.
         11    1    4    4    0    0 -0.55195779865E+02  0.42370185881E+02  0.46673533201E+02  0.83786785760E+02  0.00000000000E+00 0. -1.
        -11    1    3    3    0    0  0.27668686282E+02 -0.92803862767E+02  0.34177705358E+03  0.35523185035E+03  0.00000000000E+00 0. -1.
         11    1    3    3    0    0  0.36180505524E+02  0.14758921166E+02  0.13436221151E+03  0.13992876265E+03  0.00000000000E+00 0.  1.
         21    1    1    2  502  501 -0.13962405733E+02 -0.25849586225E+02 -0.13032913271E+01  0.29408305802E+02  0.00000000000E+00 0.  1.
<scales pt_clust_5="13000.00000" pt_clust_6="13000.00000" pt_clust_7="13000.00000" pt_clust_8="13000.00000" pt_clust_9="29.37941"></scales>
<clustering>
<clus scale="   29.379">  2  9  1 -1</clus>
<clus scale="   91.147">  7  8 -1 -1</clus>
<clus scale="   91.334">  5  6 -1 -1</clus>
<clus scale="  138.441">  1  7  2 -1</clus>
<clus scale="   29.379">  2  5  1 -1</clus>
</clustering>
</event>
<event>
 9    1  0.1296032E-005  0.1436114E+03  0.7546771E-02  0.1215335E+00
         -2   -1    0    0    0  501 -0.00000000000E+00  0.00000000000E+00  0.10344263413E+03  0.10344263413E+03  0.00000000000E+00 0.  1.
          2   -1    0    0  502    0  0.00000000000E+00 -0.00000000000E+00 -0.38903187341E+03  0.38903187341E+03  0.00000000000E+00 0. -1.
         23    2    1    2    0    0  0.37341755624E+02 -0.79909681553E+02  0.36932014121E+02  0.11599769134E+03  0.65662217518E+02 0.  0.
         23    2    1    2    0    0 -0.35623593440E+02  0.10325966999E+03 -0.32126953848E+03  0.35303026355E+03  0.97389171731E+02 0.  0.
        -11    1    4    4    0    0 -0.26033091706E+02 -0.62062439281E+01 -0.23440999911E+02  0.35576956085E+02  0.00000000000E+00 0.  1.
         11    1    4    4    0    0 -0.95905017336E+01  0.10946591392E+03 -0.29782853857E+03  0.31745330746E+03  0.00000000000E+00 0. -1.
        -13    1    3    3    0    0  0.24821885369E+02 -0.50003471881E+02  0.55430643523E+02  0.78670384738E+02  0.00000000000E+00 0.  1.
         13    1    3    3    0    0  0.12519870255E+02 -0.29906209673E+02 -0.18498629402E+02  0.37327306599E+02  0.00000000000E+00 0. -1.
         21    1    1    2  502  501 -0.17181621837E+01 -0.23349988437E+02 -0.12517149202E+01  0.23446552658E+02  0.00000000000E+00 0.  1.
<scales pt_clust_5="13000.00000" pt_clust_6="13000.00000" pt_clust_7="13000.00000" pt_clust_8="13000.00000" pt_clust_9="23.41312"></scales>
<clustering>
<clus scale="   23.413">  1  9  2 -1</clus>
<clus scale="   65.662">  7  8 -1 -1</clus>
<clus scale="   97.389">  5  6 -1 -1</clus>
<clus scale="  124.303">  1  7  2 -1</clus>
<clus scale="  143.611">  2  5  1 -1</clus>
</clustering>
</event>
<event>
 9    1  0.1296032E-005  0.1019775E+03  0.7546771E-02  0.1277481E+00
          3   -1    0    0  502    0  0.00000000000E+00  0.00000000000E+00  0.39266216983E+02  0.39266216983E+02  0.00000000000E+00 0. -1.
         -3   -1    0    0    0  501 -0.00000000000E+00 -0.00000000000E+00 -0.38987940784E+03  0.38987940784E+03  0.00000000000E+00 0.  1.
         23    2    1    2    0    0  0.12605996799E+02 -0.50493610982E+02 -0.23679149439E+03  0.25886204380E+03  0.90723921852E+02 0.  0.
         23    2    1    2    0    0  0.51356308209E+01  0.39345001003E+02 -0.11399345573E+03  0.14932919351E+03  0.87922103461E+02 0.  0.
        -11    1    4    4    0    0 -0.27166173861E+02  0.42968019350E+02 -0.10326585698E+03  0.11510034278E+03  0.00000000000E+00 0.  1.
         11    1    4    4    0    0  0.32301804682E+02 -0.36230183475E+01 -0.10727598751E+02  0.34228850735E+02  0.00000000000E+00 0. -1.
        -11    1    3    3    0    0 -0.24590543361E+01 -0.74391393275E+02 -0.14763035963E+03  0.16533254194E+03  0.00000000000E+00 0.  1.
         11    1    3    3    0    0  0.15065051135E+02  0.23897782293E+02 -0.89161134766E+02  0.93529501853E+02  0.00000000000E+00 0. -1.
         21    1    1    2  502  501 -0.17741627620E+02  0.11148609979E+02  0.17175926496E+00  0.20954387519E+02  0.00000000000E+00 0. -1.
<scales pt_clust_5="13000.00000" pt_clust_6="13000.00000" pt_clust_7="13000.00000" pt_clust_8="13000.00000" pt_clust_9="20.95368"></scales>
<clustering>
<clus scale="   20.954">  1  9  2 -1</clus>
<clus scale="   87.922">  5  6 -1 -1</clus>
<clus scale="   90.724">  7  8 -1 -1</clus>
<clus scale="   99.493">  1  5  2 -1</clus>
<clus scale="   20.954">  1  5  2 -1</clus>
</clustering>
</event>
<event>
 9    1  0.1296032E-005  0.1165276E+03  0.7546771E-02  0.1248973E+00
          1   -1    0    0  502    0  0.00000000000E+00  0.00000000000E+00  0.63271315026E+02  0.63271315026E+02  0.00000000000E+00 0. -1.
         -1   -1    0    0    0  501 -0.00000000000E+00 -0.00000000000E+00 -0.36058701499E+03  0.36058701499E+03  0.00000000000E+00 0.  1.
         23    2    1    2    0    0  0.41618474182E+02  0.51821947731E+02 -0.22403371810E+03  0.25079727946E+03  0.91052495170E+02 0.  0.
         23    2    1    2    0    0 -0.56399902727E+02 -0.69373111930E+02 -0.78191111621E+02  0.14959546833E+03  0.90947108375E+02 0.  0.
        -11    1    4    4    0    0 -0.73768339427E+00  0.21092979950E+02 -0.16239659583E+02  0.26630518646E+02  0.00000000000E+00 0.  1.
         11    1    4    4    0    0 -0.55662219333E+02 -0.90466091880E+02 -0.61951452037E+02  0.12296494968E+03  0.00000000000E+00 0. -1.
        -11    1    3    3    0    0  0.51265532545E+02  0.71147360752E+02 -0.15079348533E+03  0.17443846189E+03  0.00000000000E+00 0.  1.
         11    1    3    3    0    0 -0.96470583632E+01 -0.19325413021E+02 -0.73240232775E+02  0.76358817568E+02  0.00000000000E+00 0. -1.
         21    1    1    2  502  501  0.14781428545E+02  0.17551164199E+02  0.49091297552E+01  0.23465582233E+02  0.00000000000E+00 0.  1.
<scales pt_clust_5="13000.00000" pt_clust_6="13000.00000" pt_clust_7="13000.00000" pt_clust_8="13000.00000" pt_clust_9="22.94633"></scales>
<clustering>
<clus scale="   22.946">  1  9  2 -1</clus>
<clus scale="   90.947">  5  6 -1 -1</clus>
<clus scale="   91.052">  7  8 -1 -1</clus>
<clus scale="  116.445">  1  5  2 -1</clus>
<clus scale="   22.946">  1  5  2 -1</clus>
</clustering>
</event>
<event>
 9    1  0.1296032E-005  0.9579624E+02  0.7546771E-02  0.1292642E+00
          3   -1    0    0  502    0  0.00000000000E+00  0.00000000000E+00  0.51204967928E+02  0.51204967928E+02  0.00000000000E+00 0. -1.
         -3   -1    0    0    0  501 -0.00000000000E+00 -0.00000000000E+00 -0.58569011880E+03  0.58569011880E+03  0.00000000000E+00 0.  1.
         23    2    1    2    0    0 -0.47549018604E+02  0.14830464145E+02 -0.16712089860E+03  0.19259973102E+03  0.81758239985E+02 0.  0.
         23    2    1    2    0    0  0.24729955444E+02  0.35748843569E+02 -0.30271647609E+02  0.10266631693E+03  0.87945718887E+02 0.  0.
        -11    1    3    3    0    0 -0.46166296303E+02  0.44895045522E+02 -0.12754865499E+03  0.14288299905E+03  0.00000000000E+00 0. -1.
         11    1    3    3    0    0 -0.13827223014E+01 -0.30064581377E+02 -0.39572243604E+02  0.49716731974E+02  0.00000000000E+00 0.  1.
        -13    1    4    4    0    0  0.39746838997E+02  0.57589827693E+02 -0.13397126042E+02  0.71245227561E+02  0.00000000000E+00 0. -1.
         13    1    4    4    0    0 -0.15016883554E+02 -0.21840984123E+02 -0.16874521567E+02  0.31421089371E+02  0.00000000000E+00 0.  1.
         21    1    1    2  502  501  0.22819063161E+02 -0.50579307714E+02 -0.33709260467E+03  0.34162903878E+03  0.00000000000E+00 0.  1.
<scales pt_clust_5="13000.00000" pt_clust_6="13000.00000" pt_clust_7="13000.00000" pt_clust_8="13000.00000" pt_clust_9="55.48852"></scales>
<clustering>
<clus scale="   55.489">  2  9  1 -1</clus>
<clus scale="   81.758">  5  6 -1 -1</clus>
<clus scale="   87.946">  7  8 -1 -1</clus>
<clus scale="   90.149">  2  5  1 -1</clus>
<clus scale="   95.796">  1  5  2 -1</clus>
</clustering>
</event>
<event>
 9    1  0.1296032E-005  0.9624887E+02  0.7546771E-02  0.1290889E+00
         -1   -1    0    0    0  501 -0.00000000000E+00  0.00000000000E+00  0.22068306424E+02  0.22068306424E+02  0.00000000000E+00 0.  1.
          1   -1    0    0  502    0  0.00000000000E+00 -0.00000000000E+00 -0.55783293394E+03  0.55783293394E+03  0.00000000000E+00 0. -1.
         23    2    1    2    0    0 -0.18283980467E+02 -0.35232842773E+02 -0.21348660895E+03  0.23559611329E+03  0.91396604134E+02 0.  0.
         23    2    1    2    0    0 -0.85523201242E+01  0.26593820763E+02 -0.26916892644E+03  0.28417696896E+03  0.86742522710E+02 0.  0.
        -11    1    3    3    0    0 -0.41413791502E+02 -0.11326483123E+01 -0.41114931468E+02  0.58367993013E+02  0.00000000000E+00 0.  1.
         11    1    3    3    0    0  0.23129811035E+02 -0.34100194461E+02 -0.17237167748E+03  0.17722812028E+03  0.00000000000E+00 0. -1.
        -13    1    4    4    0    0 -0.66416647502E+01 -0.31902061821E+02 -0.98882148041E+02  0.10411307536E+03  0.00000000000E+00 0.  1.
         13    1    4    4    0    0 -0.19106553740E+01  0.58495882584E+02 -0.17028677840E+03  0.18006389360E+03  0.00000000000E+00 0. -1.
         21    1    1    2  502  501  0.26836300591E+02  0.86390220108E+01 -0.53109092135E+02  0.60128158113E+02  0.00000000000E+00 0. -1.
<scales pt_clust_5="13000.00000" pt_clust_6="13000.00000" pt_clust_7="13000.00000" pt_clust_8="13000.00000" pt_clust_9="28.19255"></scales>
<clustering>
<clus scale="   28.193">  1  9  2 -1</clus>
<clus scale="   86.743">  7  8 -1 -1</clus>
<clus scale="   91.397">  5  6 -1 -1</clus>
<clus scale="   91.841">  2  7  1 -1</clus>
<clus scale="   91.841">  2  5  1 -1</clus>
</clustering>
</event>
<event>
 9    1  0.1296032E-005  0.1609392E+03  0.7546771E-02  0.1193105E+00
          1   -1    0    0  502    0  0.00000000000E+00  0.00000000000E+00  0.56375120111E+03  0.56375120111E+03  0.00000000000E+00 0. -1.
         -1   -1    0    0    0  501 -0.00000000000E+00 -0.00000000000E+00 -0.50034490769E+02  0.50034490769E+02  0.00000000000E+00 0.  1.
         23    2    1    2    0    0 -0.91607016913E+02 -0.46411192014E+02  0.16312061502E+03  0.21318678829E+03  0.91073746859E+02 0.  0.
         23    2    1    2    0    0  0.10245235759E+03  0.67569547485E+02  0.30848868598E+03  0.35224260780E+03  0.11767521424E+03 0.  0.
        -11    1    3    3    0    0 -0.10903455790E+03 -0.33640146338E+02  0.12411088621E+03  0.16859331641E+03  0.00000000000E+00 0.  1.
         11    1    3    3    0    0  0.17427540992E+02 -0.12771045676E+02  0.39009728809E+02  0.44593471881E+02  0.00000000000E+00 0. -1.
        -11    1    4    4    0    0  0.20703109795E+02 -0.33164769332E+02  0.54929791348E+02  0.67422567866E+02  0.00000000000E+00 0. -1.
         11    1    4    4    0    0  0.81749247799E+02  0.10073431682E+03  0.25355889463E+03  0.28482003993E+03  0.00000000000E+00 0.  1.
         21    1    1    2  502  501 -0.10845340682E+02 -0.21158355471E+02  0.42107409342E+02  0.48356295787E+02  0.00000000000E+00 0.  1.
<scales pt_clust_5="13000.00000" pt_clust_6="13000.00000" pt_clust_7="13000.00000" pt_clust_8="13000.00000" pt_clust_9="23.77598"></scales>
<clustering>
<clus scale="   23.776">  1  9  2 -1</clus>
<clus scale="   91.074">  5  6 -1 -1</clus>
<clus scale="  117.675">  7  8 -1 -1</clus>
<clus scale="  142.648">  2  5  1 -1</clus>
<clus scale="   23.776">  1  5  2 -1</clus>
</clustering>
</event>
<event>
 9    1  0.1296032E-005  0.9212480E+02  0.7546771E-02  0.1298875E+00
         -1   -1    0    0    0  501 -0.00000000000E+00  0.00000000000E+00  0.14473863648E+03  0.14473863648E+03  0.00000000000E+00 0.  1.
          1   -1    0    0  502    0  0.00000000000E+00 -0.00000000000E+00 -0.93546514168E+02  0.93546514168E+02  0.00000000000E+00 0. -1.
         23    2    1    2    0    0 -0.30292823595E+01  0.28918192794E+02  0.68100985589E+02  0.11630473321E+03  0.89686165615E+02 0.  0.
         23    2    1    2    0    0  0.14842067607E+02  0.56981222088E-01 -0.17188003697E+02  0.90688557088E+02  0.87799183925E+02 0.  0.
        -11    1    3    3    0    0  0.32012130838E+02  0.35053309977E+02  0.65146875009E+02  0.80607855601E+02  0.00000000000E+00 0.  1.
         11    1    3    3    0    0 -0.35041413197E+02 -0.61351171832E+01  0.29541105804E+01  0.35696877609E+02  0.00000000000E+00 0. -1.
        -13    1    4    4    0    0  0.13052626313E+02 -0.30715746426E+02 -0.40180514254E+02  0.52233149033E+02  0.00000000000E+00 0. -1.
         13    1    4    4    0    0  0.17894412939E+01  0.30772727648E+02  0.22992510556E+02  0.38455408056E+02  0.00000000000E+00 0.  1.
         21    1    1    2  502  501 -0.11812785248E+02 -0.28975174016E+02  0.27914041716E+00  0.31291860346E+02  0.00000000000E+00 0. -1.
<scales pt_clust_5="13000.00000" pt_clust_6="13000.00000" pt_clust_7="13000.00000" pt_clust_8="13000.00000" pt_clust_9="31.29062"></scales>
<clustering>
<clus scale="   31.291">  2  9  1 -1</clus>
<clus scale="   87.799">  7  8 -1 -1</clus>
<clus scale="   89.686">  5  6 -1 -1</clus>
<clus scale="   90.289">  2  7  1 -1</clus>
<clus scale="   31.291">  2  5  1 -1</clus>
</clustering>
</event>
<event>
 9    1  0.1296032E-005  0.1303548E+03  0.7546771E-02  0.1229706E+00
          2   -1    0    0  502    0  0.00000000000E+00  0.00000000000E+00  0.98794324077E+03  0.98794324077E+03  0.00000000000E+00 0. -1.
         -2   -1    0    0    0  501 -0.00000000000E+00 -0.00000000000E+00 -0.26612564585E+02  0.26612564585E+02  0.00000000000E+00 0.  1.
         23    2    1    2    0    0 -0.69872198154E+02 -0.35046156127E+02  0.20555205055E+03  0.23828884793E+03  0.91758228136E+02 0.  0.
         23    2    1    2    0    0  0.93782517459E+02  0.12545671260E+02  0.51785070257E+03  0.53608437736E+03  0.10131414044E+03 0.  0.
        -11    1    4    4    0    0  0.24732927679E+02 -0.32176702140E+02  0.71494999786E+02  0.82210661514E+02  0.00000000000E+00 0.  1.
         11    1    4    4    0    0  0.69049589781E+02  0.44722373401E+02  0.44635570278E+03  0.45387371585E+03  0.00000000000E+00 0. -1.
        -11    1    3    3    0    0  0.10643572377E+02 -0.27234370409E+02  0.10629174339E+03  0.11024033417E+03  0.00000000000E+00 0.  1.
         11    1    3    3    0    0 -0.80515770531E+02 -0.78117857181E+01  0.99260307154E+02  0.12804851376E+03  0.00000000000E+00 0. -1.
         21    1    1    2  502  501 -0.23910319306E+02  0.22500484867E+02  0.23792792306E+03  0.24018258006E+03  0.00000000000E+00 0. -1.
<scales pt_clust_5="13000.00000" pt_clust_6="13000.00000" pt_clust_7="13000.00000" pt_clust_8="13000.00000" pt_clust_9="32.83253"></scales>
<clustering>
<clus scale="   32.833">  1  9  2 -1</clus>
<clus scale="   91.758">  7  8 -1 -1</clus>
<clus scale="  101.314">  5  6 -1 -1</clus>
<clus scale="  123.075">  2  7  1 -1</clus>
<clus scale="   32.833">  1  5  2 -1</clus>
</clustering>
</event>
<event>
 9    1  0.1296032E-005  0.1001797E+03  0.7546771E-02  0.1280025E+00
         -1   -1    0    0    0  501 -0.00000000000E+00  0.00000000000E+00  0.48686225826E+03  0.48686225826E+03  0.00000000000E+00 0.  1.
          1   -1    0    0  502    0  0.00000000000E+00 -0.00000000000E+00 -0.28348133398E+03  0.28348133398E+03  0.00000000000E+00 0. -1.
         23    2    1    2    0    0 -0.40322972947E+02  0.18220156347E+01  0.46653037801E+03  0.47722424199E+03  0.91995226214E+02 0.  0.
         23    2    1    2    0    0  0.88995670286E+01 -0.11956935493E+02 -0.21957603523E+03  0.23844952457E+03  0.91773470684E+02 0.  0.
        -11    1    3    3    0    0 -0.48370999868E+02 -0.36127381587E+02  0.24544238264E+03  0.25275858942E+03  0.00000000000E+00 0. -1.
         11    1    3    3    0    0  0.80480269209E+01  0.37949397222E+02  0.22108799537E+03  0.22446565257E+03  0.00000000000E+00 0.  1.
        -13    1    4    4    0    0  0.32492521669E+02  0.30065140877E+02 -0.11770827666E+03  0.12575736580E+03  0.00000000000E+00 0. -1.
         13    1    4    4    0    0 -0.23592954640E+02 -0.42022076370E+02 -0.10186775857E+03  0.11269215877E+03  0.00000000000E+00 0.  1.
         21    1    1    2  502  501  0.31423405919E+02  0.10134919858E+02 -0.43573418494E+02  0.54669825675E+02  0.00000000000E+00 0. -1.
<scales pt_clust_5="13000.00000" pt_clust_6="13000.00000" pt_clust_7="13000.00000" pt_clust_8="13000.00000" pt_clust_9="33.01737"></scales>
<clustering>
<clus scale="   33.017">  2  9  1 -1</clus>
<clus scale="   91.773">  7  8 -1 -1</clus>
<clus scale="   91.995">  5  6 -1 -1</clus>
<clus scale="   99.976">  2  7  1 -1</clus>
<clus scale="   33.017">  2  5  1 -1</clus>
</clustering>
</event>
<event>
 9    1  0.1296032E-005  0.9316022E+02  0.7546771E-02  0.1295919E+00
         -1   -1    0    0    0  501 -0.00000000000E+00  0.00000000000E+00  0.21048300484E+03  0.21048300484E+03  0.00000000000E+00 0.  1.
          1   -1    0    0  502    0  0.00000000000E+00 -0.00000000000E+00 -0.53963214709E+02  0.53963214709E+02  0.00000000000E+00 0. -1.
         23    2    1    2    0    0  0.46689025968E+01 -0.14370032429E+02  0.85554353301E+02  0.12643770177E+03  0.91862117206E+02 0.  0.
         23    2    1    2    0    0 -0.24281952183E+02  0.92472983262E-01  0.55797486003E+02  0.10939755571E+03  0.90911187422E+02 0.  0.
        -11    1    3    3    0    0 -0.42322266357E+02 -0.16484146948E+02  0.49428759494E+02  0.67127517422E+02  0.00000000000E+00 0.  1.
         11    1    3    3    0    0  0.46991168954E+02  0.21141145186E+01  0.36125593807E+02  0.59310184351E+02  0.00000000000E+00 0. -1.
        -11    1    4    4    0    0 -0.14924121777E+01  0.34378353314E+02 -0.62110320899E+01  0.34966775521E+02  0.00000000000E+00 0.  1.
         11    1    4    4    0    0 -0.22789540006E+02 -0.34285880331E+02  0.62008518093E+02  0.74430780191E+02  0.00000000000E+00 0. -1.
         21    1    1    2  502  501  0.19613049587E+02  0.14277559446E+02  0.15167950824E+02  0.28610962061E+02  0.00000000000E+00 0.  1.
<scales pt_clust_5="13000.00000" pt_clust_6="13000.00000" pt_clust_7="13000.00000" pt_clust_8="13000.00000" pt_clust_9="24.25944"></scales>
<clustering>
<clus scale="   24.259">  2  9  1 -1</clus>
<clus scale="   90.911">  7  8 -1 -1</clus>
<clus scale="   91.862">  5  6 -1 -1</clus>
<clus scale="   92.223">  2  7  1 -1</clus>
<clus scale="   24.259">  2  5  1 -1</clus>
</clustering>
</event>
<event>
 9    1  0.1296032E-005  0.1236059E+03  0.7546771E-02  0.1237282E+00
          1   -1    0    0  502    0  0.00000000000E+00  0.00000000000E+00  0.45102870432E+03  0.45102870432E+03  0.00000000000E+00 0. -1.
         -1   -1    0    0    0  501 -0.00000000000E+00 -0.00000000000E+00 -0.64785739141E+02  0.64785739141E+02  0.00000000000E+00 0.  1.
         23    2    1    2    0    0  0.62683436741E+02  0.31787400238E+02  0.56377055749E+02  0.12939403864E+03  0.92869762384E+02 0.  0.
         23    2    1    2    0    0 -0.99654632365E+02 -0.32876109333E+02  0.16039875951E+03  0.21296386993E+03  0.92811440713E+02 0.  0.
        -11    1    3    3    0    0 -0.20448914636E+02 -0.52648502409E+01 -0.20870402820E+01  0.21218682687E+02  0.00000000000E+00 0.  1.
         11    1    3    3    0    0  0.83132351377E+02  0.37052250479E+02  0.58464096031E+02  0.10817535595E+03  0.00000000000E+00 0. -1.
        -11    1    4    4    0    0 -0.67321446596E+02 -0.60617488280E+02  0.13732457756E+03  0.16451351513E+03  0.00000000000E+00 0.  1.
         11    1    4    4    0    0 -0.32333185769E+02  0.27741378948E+02  0.23074181943E+02  0.48450354800E+02  0.00000000000E+00 0. -1.
         21    1    1    2  502  501  0.36971195624E+02  0.10887090947E+01  0.16946714992E+03  0.17345653489E+03  0.00000000000E+00 0. -1.
<scales pt_clust_5="13000.00000" pt_clust_6="13000.00000" pt_clust_7="13000.00000" pt_clust_8="13000.00000" pt_clust_9="36.98722"></scales>
<clustering>
<clus scale="   36.987">  1  9  2 -1</clus>
<clus scale="   92.811">  7  8 -1 -1</clus>
<clus scale="   92.870">  5  6 -1 -1</clus>
<clus scale="  123.562">  1  7  2 -1</clus>
<clus scale="   36.987">  1  5  2 -1</clus>
</clustering>
</event>
<event>
 9    1  0.1296032E-005  0.9137845E+02  0.7546771E-02  0.1300820E+00
          1   -1    0    0  502    0  0.00000000000E+00  0.00000000000E+00  0.17281612135E+03  0.17281612135E+03  0.00000000000E+00 0. -1.
         -1   -1    0    0    0  501 -0.00000000000E+00 -0.00000000000E+00 -0.13093936327E+03  0.13093936327E+03  0.00000000000E+00 0.  1.
         23    2    1    2    0    0  0.46613722971E+01  0.18061399741E+02 -0.61649531476E+02  0.10986300497E+03  0.89001531322E+02 0.  0.
         23    2    1    2    0    0 -0.61794579710E+01  0.28479994796E+02  0.19225618277E+02  0.97585630630E+02  0.91126478605E+02 0.  0.
        -13    1    3    3    0    0 -0.69596593516E+01 -0.28725458359E+02  0.24503513063E+01  0.29657933808E+02  0.00000000000E+00 0. -1.
         13    1    3    3    0    0  0.11621031649E+02  0.46786858101E+02 -0.64099882782E+02  0.80205071163E+02  0.00000000000E+00 0.  1.
        -13    1    4    4    0    0 -0.43776853607E+02 -0.63608485384E+01  0.59429697165E+01  0.44633980272E+02  0.00000000000E+00 0.  1.
         13    1    4    4    0    0  0.37597395636E+02  0.34840843334E+02  0.13282648560E+02  0.52951650358E+02  0.00000000000E+00 0. -1.
         21    1    1    2  502  501  0.15180856740E+01 -0.46541394537E+02  0.84300671285E+02  0.96306849023E+02  0.00000000000E+00 0. -1.
<scales pt_clust_5="13000.00000" pt_clust_6="13000.00000" pt_clust_7="13000.00000" pt_clust_8="13000.00000" pt_clust_9="46.56615"></scales>
<clustering>
<clus scale="   46.566">  1  9  2 -1</clus>
<clus scale="   89.002">  5  6 -1 -1</clus>
<clus scale="   89.260">  2  5  1 -1</clus>
<clus scale="   91.126">  7  8 -1 -1</clus>
<clus scale="   46.566">  1  5  2 -1</clus>
</clustering>
</event>
<event>
 9    1  0.1296032E-005  0.9459133E+02  0.7546771E-02  0.1293413E+00
         -1   -1    0    0    0  501 -0.00000000000E+00  0.00000000000E+00  0.59290331042E+02  0.59290331042E+02  0.00000000000E+00 0.  1.
          1   -1    0    0  502    0  0.00000000000E+00 -0.00000000000E+00 -0.20694421385E+03  0.20694421385E+03  0.00000000000E+00 0. -1.
         23    2    1    2    0    0 -0.16764942224E+01  0.18555151003E+02 -0.49420917643E+02  0.10255774884E+03  0.87912231718E+02 0.  0.
         23    2    1    2    0    0  0.17336452176E+02 -0.34977345874E+02 -0.49982347650E+02  0.11035658545E+03  0.90312643507E+02 0.  0.
        -11    1    3    3    0    0 -0.81380447268E+01  0.53604475080E+02 -0.29237031000E+02  0.61599281670E+02  0.00000000000E+00 0.  1.
         11    1    3    3    0    0  0.64615505045E+01 -0.35049324077E+02 -0.20183886643E+02  0.40958467174E+02  0.00000000000E+00 0. -1.
        -11    1    4    4    0    0  0.37855473321E+02  0.13771198636E+02 -0.39538385576E+02  0.56444368241E+02  0.00000000000E+00 0.  1.
         11    1    4    4    0    0 -0.20519021145E+02 -0.48748544511E+02 -0.10443962074E+02  0.53912217209E+02  0.00000000000E+00 0. -1.
         21    1    1    2  502  501 -0.15659957953E+02  0.16422194872E+02 -0.48250617513E+02  0.53320210595E+02  0.00000000000E+00 0.  1.
<scales pt_clust_5="13000.00000" pt_clust_6="13000.00000" pt_clust_7="13000.00000" pt_clust_8="13000.00000" pt_clust_9="22.69191"></scales>
<clustering>
<clus scale="   22.692">  2  9  1 -1</clus>
<clus scale="   87.912">  5  6 -1 -1</clus>
<clus scale="   90.313">  7  8 -1 -1</clus>
<clus scale="   92.302">  1  5  2 -1</clus>
<clus scale="   22.692">  2  5  1 -1</clus>
</clustering>
</event>
<event>
 9    1  0.1296032E-005  0.1233636E+03  0.7546771E-02  0.1238932E+00
          3   -1    0    0  502    0  0.00000000000E+00  0.00000000000E+00  0.34408457159E+02  0.34408457159E+02  0.00000000000E+00 0. -1.
         -3   -1    0    0    0  501 -0.00000000000E+00 -0.00000000000E+00 -0.58571514127E+03  0.58571514127E+03  0.00000000000E+00 0.  1.
         23    2    1    2    0    0  0.84768048870E+02 -0.15758136535E+02 -0.30784778538E+03  0.33181483829E+03  0.88864430289E+02 0.  0.
         23    2    1    2    0    0 -0.86254050271E+02 -0.87599785979E+01 -0.23099850276E+03  0.26076592736E+03  0.84392311133E+02 0.  0.
        -11    1    3    3    0    0 -0.58305671100E+01 -0.30410977955E+02 -0.98003894455E+02  0.10277930931E+03  0.00000000000E+00 0.  1.
         11    1    3    3    0    0  0.90598615980E+02  0.14652841421E+02 -0.20984389093E+03  0.22903552899E+03  0.00000000000E+00 0. -1.
        -13    1    4    4    0    0 -0.37198723541E+02  0.36804643188E+02 -0.80060365080E+02  0.95645119321E+02  0.00000000000E+00 0. -1.
         13    1    4    4    0    0 -0.49055326730E+02 -0.45564621786E+02 -0.15093813768E+03  0.16512080804E+03  0.00000000000E+00 0.  1.
         21    1    1    2  502  501  0.14860014011E+01  0.24518115133E+02 -0.12460395966E+02  0.27542832778E+02  0.00000000000E+00 0. -1.
<scales pt_clust_5="13000.00000" pt_clust_6="13000.00000" pt_clust_7="13000.00000" pt_clust_8="13000.00000" pt_clust_9="24.56311"></scales>
<clustering>
<clus scale="   24.563">  1  9  2 -1</clus>
<clus scale="   84.392">  7  8 -1 -1</clus>
<clus scale="   88.864">  5  6 -1 -1</clus>
<clus scale="  120.182">  1  7  2 -1</clus>
<clus scale="   24.563">  1  5  2 -1</clus>
</clustering>
</event>
<event>
 9    1  0.1296032E-005  0.1417526E+03  0.7546771E-02  0.1231666E+00
         -1   -1    0    0    0  501 -0.00000000000E+00  0.00000000000E+00  0.12120458451E+03  0.12120458451E+03  0.00000000000E+00 0.  1.
          1   -1    0    0  502    0  0.00000000000E+00 -0.00000000000E+00 -0.90705611832E+03  0.90705611832E+03  0.00000000000E+00 0. -1.
         23    2    1    2    0    0  0.16332305641E+02  0.12783815697E+02 -0.21154067895E+02  0.94319281447E+02  0.89545865973E+02 0.  0.
         23    2    1    2    0    0 -0.11556430546E+03 -0.29725770390E+02  0.74313510685E+01  0.15527786782E+03  0.99082092902E+02 0.  0.
        -11    1    4    4    0    0 -0.38816462090E+02  0.13197402268E+02 -0.38349602747E+02  0.56138945365E+02  0.00000000000E+00 0. -1.
         11    1    4    4    0    0 -0.76747843375E+02 -0.42923172658E+02  0.45780953816E+02  0.99138922457E+02  0.00000000000E+00 0.  1.
        -11    1    3    3    0    0  0.40023845700E+02  0.10016923684E+02 -0.44680786410E+02  0.60816277911E+02  0.00000000000E+00 0.  1.
         11    1    3    3    0    0 -0.23691540060E+02  0.27668920125E+01  0.23526718516E+02  0.33503003536E+02  0.00000000000E+00 0. -1.
         21    1    1    2  502  501  0.99231999823E+02  0.16941954693E+02 -0.77212881698E+03  0.77866355355E+03  0.00000000000E+00 0. -1.
<scales pt_clust_5="13000.00000" pt_clust_6="13000.00000" pt_clust_7="13000.00000" pt_clust_8="13000.00000" pt_clust_9="101.37327"></scales>
<clustering>
<clus scale="   89.546">  7  8 -1 -1</clus>
<clus scale="   91.916">  1  7  2 -1</clus>
<clus scale="   99.082">  5  6 -1 -1</clus>
<clus scale="  101.373">  2  9  1 -1</clus>
<clus scale="  101.373">  2  5  1 -1</clus>
</clustering>
</event>
<event>
 9    1  0.1296032E-005  0.1158014E+03  0.7546771E-02  0.1250680E+00
          1   -1    0    0  502    0  0.00000000000E+00  0.00000000000E+00  0.74753846135E+03  0.74753846135E+03  0.00000000000E+00 0. -1.
         -1   -1    0    0    0  501 -0.00000000000E+00 -0.00000000000E+00 -0.37148001935E+02  0.37148001935E+02  0.00000000000E+00 0.  1.
         23    2    1    2    0    0 -0.52797276354E+02 -0.29867987705E+02  0.10629237550E+03  0.15201525789E+03  0.90171616714E+02 0.  0.
         23    2    1    2    0    0  0.79453894597E+02  0.61294590081E+02  0.35360997211E+03  0.37881593011E+03  0.91605395004E+02 0.  0.
        -11    1    3    3    0    0 -0.39072759096E+02 -0.55369960763E+01  0.11593149619E+03  0.12246407897E+03  0.00000000000E+00 0. -1.
         11    1    3    3    0    0 -0.13724517258E+02 -0.24330991629E+02 -0.96391206916E+01  0.29551178915E+02  0.00000000000E+00 0.  1.
        -13    1    4    4    0    0 -0.13916789332E+02  0.36634312093E+02  0.95222724437E+02  0.10297143826E+03  0.00000000000E+00 0.  1.
         13    1    4    4    0    0  0.93370683929E+02  0.24660277988E+02  0.25838724767E+03  0.27584449185E+03  0.00000000000E+00 0. -1.
         21    1    1    2  502  501 -0.26656618243E+02 -0.31426602376E+02  0.25048811181E+03  0.25385527529E+03  0.00000000000E+00 0.  1.
<scales pt_clust_5="13000.00000" pt_clust_6="13000.00000" pt_clust_7="13000.00000" pt_clust_8="13000.00000" pt_clust_9="41.20930"></scales>
<clustering>
<clus scale="   41.209">  1  9  2 -1</clus>
<clus scale="   90.172">  5  6 -1 -1</clus>
<clus scale="   91.605">  7  8 -1 -1</clus>
<clus scale="  114.671">  2  5  1 -1</clus>
<clus scale="   41.209">  1  5  2 -1</clus>
</clustering>
</event>
<event>
 9    1  0.1296032E-005  0.9551681E+02  0.7546771E-02  0.1290269E+00
          1   -1    0    0  502    0  0.00000000000E+00  0.00000000000E+00  0.19963549749E+03  0.19963549749E+03  0.00000000000E+00 0. -1.
         -1   -1    0    0    0  501 -0.00000000000E+00 -0.00000000000E+00 -0.78763199918E+02  0.78763199918E+02  0.00000000000E+00 0.  1.
         23    2    1    2    0    0 -0.58238378562E+01  0.28857338025E+02 -0.14367597565E+02  0.97132041822E+02  0.91441471136E+02 0.  0.
         23    2    1    2    0    0 -0.15048517769E+02 -0.24630169896E+02  0.12596596281E+03  0.15803887049E+03  0.90971191282E+02 0.  0.
        -11    1    4    4    0    0  0.17599164747E+02 -0.49919738586E+02  0.83024014067E+02  0.98461656557E+02  0.00000000000E+00 0.  1.
         11    1    4    4    0    0 -0.32647682516E+02  0.25289568690E+02  0.42941948740E+02  0.59577213931E+02  0.00000000000E+00 0. -1.
        -13    1    3    3    0    0  0.21001640816E+02 -0.16717173691E+02 -0.31646592580E+02  0.41497465406E+02  0.00000000000E+00 0.  1.
         13    1    3    3    0    0 -0.26825478672E+02  0.45574511717E+02  0.17278995015E+02  0.55634576416E+02  0.00000000000E+00 0. -1.
         21    1    1    2  502  501  0.20872355626E+02 -0.42271681296E+01  0.92739323326E+01  0.23227785100E+02  0.00000000000E+00 0.  1.
<scales pt_clust_5="13000.00000" pt_clust_6="13000.00000" pt_clust_7="13000.00000" pt_clust_8="13000.00000" pt_clust_9="21.29611"></scales>
<clustering>
<clus scale="   21.296">  2  9  1 -1</clus>
<clus scale="   90.971">  5  6 -1 -1</clus>
<clus scale="   91.441">  7  8 -1 -1</clus>
<clus scale="   95.067">  1  5  2 -1</clus>
<clus scale="   95.067">  1  5  2 -1</clus>
</clustering>
</event>
<event>
 9    1  0.1296032E-005  0.1447628E+03  0.7546771E-02  0.1207295E+00
          2   -1    0    0  502    0  0.00000000000E+00  0.00000000000E+00  0.76442036601E+02  0.76442036601E+02  0.00000000000E+00 0. -1.
         -2   -1    0    0    0  501 -0.00000000000E+00 -0.00000000000E+00 -0.42403129599E+03  0.42403129599E+03  0.00000000000E+00 0.  1.
         23    2    1    2    0    0  0.50478188321E+02 -0.11325678649E+03 -0.20805819164E+03  0.25885535551E+03  0.91338583205E+02 0.  0.
         23    2    1    2    0    0 -0.21059974744E+02  0.97501384555E+02 -0.15380112440E+03  0.20532337008E+03  0.92481662549E+02 0.  0.
        -13    1    4    4    0    0  0.37579626915E+01  0.44480043930E+02 -0.13748482999E+03  0.14454990512E+03  0.00000000000E+00 0.  1.
         13    1    4    4    0    0 -0.24817937435E+02  0.53021340624E+02 -0.16316294407E+02  0.60773464961E+02  0.00000000000E+00 0. -1.
        -13    1    3    3    0    0  0.45998437527E+02 -0.59880368706E+01 -0.56042224072E+02  0.72749183634E+02  0.00000000000E+00 0.  1.
         13    1    3    3    0    0  0.44797507942E+01 -0.10726874962E+03 -0.15201596757E+03  0.18610617187E+03  0.00000000000E+00 0. -1.
         21    1    1    2  502  501 -0.29418213577E+02  0.15755401936E+02  0.14270056659E+02  0.36294607000E+02  0.00000000000E+00 0.  1.
<scales pt_clust_5="13000.00000" pt_clust_6="13000.00000" pt_clust_7="13000.00000" pt_clust_8="13000.00000" pt_clust_9="33.37160"></scales>
<clustering>
<clus scale="   33.372">  1  9  2 -1</clus>
<clus scale="   91.339">  7  8 -1 -1</clus>
<clus scale="   92.482">  5  6 -1 -1</clus>
<clus scale="  144.035">  2  7  1 -1</clus>
<clus scale="   33.372">  1  5  2 -1</clus>
</clustering>
</event>
<event>
 9    1  0.1296032E-005  0.9341667E+02  0.7546771E-02  0.1295442E+00
         -1   -1    0    0    0  501 -0.00000000000E+00  0.00000000000E+00  0.19461439412E+03  0.19461439412E+03  0.00000000000E+00 0.  1.
          1   -1    0    0  502    0  0.00000000000E+00 -0.00000000000E+00 -0.23963015768E+03  0.23963015768E+03  0.00000000000E+00 0. -1.
         23    2    1    2    0    0 -0.20030400026E+02  0.11301676986E+02  0.92342695145E+02  0.13204726993E+03  0.91544324356E+02 0.  0.
         23    2    1    2    0    0  0.16586042889E+02  0.18196839328E+02  0.54282846361E+02  0.10826838802E+03  0.90383597272E+02 0.  0.
        -11    1    3    3    0    0 -0.53174849589E+02  0.65280501868E+00  0.77982080607E+02  0.94388535739E+02  0.00000000000E+00 0. -1.
         11    1    3    3    0    0  0.33144449563E+02  0.10648871967E+02  0.14360614538E+02  0.37658734192E+02  0.00000000000E+00 0.  1.
        -13    1    4    4    0    0 -0.23445436921E+02  0.37242265603E+02  0.45066462120E+02  0.62989371069E+02  0.00000000000E+00 0.  1.
         13    1    4    4    0    0  0.40031479811E+02 -0.19045426275E+02  0.92163842411E+01  0.45279016954E+02  0.00000000000E+00 0. -1.
         21    1    1    2  502  501  0.34443571363E+01 -0.29498516313E+02 -0.19164130506E+03  0.19392889384E+03  0.00000000000E+00 0. -1.
<scales pt_clust_5="13000.00000" pt_clust_6="13000.00000" pt_clust_7="13000.00000" pt_clust_8="13000.00000" pt_clust_9="29.69892"></scales>
<clustering>
<clus scale="   29.699">  2  9  1 -1</clus>
<clus scale="   90.384">  7  8 -1 -1</clus>
<clus scale="   91.544">  5  6 -1 -1</clus>
<clus scale="   92.279">  2  7  1 -1</clus>
<clus scale="   29.699">  2  5  1 -1</clus>
</clustering>
</event>
<event>
 9    1  0.1296032E-005  0.1827544E+03  0.7546771E-02  0.1165651E+00
         -2   -1    0    0    0  501 -0.00000000000E+00  0.00000000000E+00  0.75552518649E+02  0.75552518649E+02  0.00000000000E+00 0.  1.
          2   -1    0    0  502    0  0.00000000000E+00 -0.00000000000E+00 -0.61903282223E+03  0.61903282223E+03  0.00000000000E+00 0. -1.
         23    2    1    2    0    0  0.12021204640E+03  0.10222733877E+03 -0.10262554698E+03  0.20831369287E+03  0.89225707361E+02 0.  0.
         23    2    1    2    0    0 -0.10385977906E+03 -0.11719176422E+03 -0.37871293161E+03  0.42029485596E+03  0.93292647450E+02 0.  0.
        -11    1    4    4    0    0 -0.44941667478E+01 -0.61898594535E+02 -0.19094951876E+03  0.20078185240E+03  0.00000000000E+00 0.  1.
         11    1    4    4    0    0 -0.99365612312E+02 -0.55293169680E+02 -0.18776341285E+03  0.21951300356E+03  0.00000000000E+00 0. -1.
        -11    1    3    3    0    0  0.49045876699E+02  0.40525478206E+01 -0.64651235926E+02  0.81250867514E+02  0.00000000000E+00 0. -1.
         11    1    3    3    0    0  0.71166169697E+02  0.98174790954E+02 -0.37974311052E+02  0.12706282536E+03  0.00000000000E+00 0.  1.
         21    1    1    2  502  501 -0.16352267336E+02  0.14964425441E+02 -0.62141824995E+02  0.65976792053E+02  0.00000000000E+00 0.  1.
<scales pt_clust_5="13000.00000" pt_clust_6="13000.00000" pt_clust_7="13000.00000" pt_clust_8="13000.00000" pt_clust_9="22.16598"></scales>
<clustering>
<clus scale="   22.166">  2  9  1 -1</clus>
<clus scale="   89.226">  7  8 -1 -1</clus>
<clus scale="   93.293">  5  6 -1 -1</clus>
<clus scale="  180.712">  1  7  2 -1</clus>
<clus scale="   22.166">  2  5  1 -1</clus>
</clustering>
</event>
<event>
 9    1  0.1296032E-005  0.1357856E+03  0.7546771E-02  0.1219607E+00
          1   -1    0    0  502    0  0.00000000000E+00  0.00000000000E+00  0.57003624631E+03  0.57003624631E+03  0.00000000000E+00 0. -1.
         -1   -1    0    0    0  501 -0.00000000000E+00 -0.00000000000E+00 -0.55922248542E+02  0.55922248542E+02  0.00000000000E+00 0.  1.
         23    2    1    2    0    0  0.81232893678E+02  0.69806334358E+02  0.74415725354E+02  0.15865511584E+03  0.90343999630E+02 0.  0.
         23    2    1    2    0    0 -0.46203975976E+02 -0.64966282075E+02  0.31968473474E+03  0.34218863005E+03  0.92408353049E+02 0.  0.
        -11    1    3    3    0    0 -0.34090021900E+00  0.46359250746E+02  0.54353766389E+02  0.71439682694E+02  0.00000000000E+00 0. -1.
         11    1    3    3    0    0  0.81573793897E+02  0.23447083612E+02  0.20061958965E+02  0.87215433142E+02  0.00000000000E+00 0.  1.
        -13    1    4    4    0    0 -0.50265338384E+02 -0.91987074117E+01  0.23650156497E+03  0.24195910955E+03  0.00000000000E+00 0. -1.
         13    1    4    4    0    0  0.40613624089E+01 -0.55767574664E+02  0.83183169767E+02  0.10022952051E+03  0.00000000000E+00 0.  1.
         21    1    1    2  502  501 -0.35028917703E+02 -0.48400522825E+01  0.12001353768E+03  0.12511474896E+03  0.00000000000E+00 0. -1.
<scales pt_clust_5="13000.00000" pt_clust_6="13000.00000" pt_clust_7="13000.00000" pt_clust_8="13000.00000" pt_clust_9="35.36172"></scales>
<clustering>
<clus scale="   35.362">  1  9  2 -1</clus>
<clus scale="   90.344">  5  6 -1 -1</clus>
<clus scale="   92.408">  7  8 -1 -1</clus>
<clus scale="  134.389">  2  5  1 -1</clus>
<clus scale="   35.362">  1  5  2 -1</clus>
</clustering>
</event>
<event>
 9    1  0.1296032E-005  0.1044642E+03  0.7546771E-02  0.1272130E+00
          1   -1    0    0  502    0  0.00000000000E+00  0.00000000000E+00  0.74979253096E+02  0.74979253096E+02  0.00000000000E+00 0. -1.
         -1   -1    0    0    0  501 -0.00000000000E+00 -0.00000000000E+00 -0.21416165007E+03  0.21416165007E+03  0.00000000000E+00 0.  1.
         23    2    1    2    0    0  0.13020375707E+02 -0.58755549415E+02 -0.10431209466E+03  0.15007559378E+03  0.89554039474E+02 0.  0.
         23    2    1    2    0    0 -0.25243692576E+02  0.25684179114E+02 -0.18797328722E+02  0.10031656116E+03  0.91723234811E+02 0.  0.
        -11    1    3    3    0    0  0.48116401469E+02 -0.19339622131E+02 -0.33412746817E+02  0.61689713278E+02  0.00000000000E+00 0.  1.
         11    1    3    3    0    0 -0.35096025762E+02 -0.39415927284E+02 -0.70899347842E+02  0.88385880503E+02  0.00000000000E+00 0. -1.
        -13    1    4    4    0    0 -0.19334320384E+02 -0.33395225473E+02 -0.21287602620E+01  0.38646974647E+02  0.00000000000E+00 0.  1.
         13    1    4    4    0    0 -0.59093721917E+01  0.59079404587E+02 -0.16668568460E+02  0.61669586512E+02  0.00000000000E+00 0. -1.
         21    1    1    2  502  501  0.12223316869E+02  0.33071370301E+02 -0.16072973594E+02  0.38748748225E+02  0.00000000000E+00 0. -1.
<scales pt_clust_5="13000.00000" pt_clust_6="13000.00000" pt_clust_7="13000.00000" pt_clust_8="13000.00000" pt_clust_9="35.25798"></scales>
<clustering>
<clus scale="   35.258">  1  9  2 -1</clus>
<clus scale="   89.554">  5  6 -1 -1</clus>
<clus scale="   91.723">  7  8 -1 -1</clus>
<clus scale="  102.565">  2  5  1 -1</clus>
<clus scale="   35.258">  1  5  2 -1</clus>
</clustering>
</event>
<event>
 9    1  0.1296032E-005  0.1207680E+03  0.7546771E-02  0.1241897E+00
          1   -1    0    0  502    0  0.00000000000E+00  0.00000000000E+00  0.20427461512E+02  0.20427461512E+02  0.00000000000E+00 0. -1.
         -1   -1    0    0    0  501 -0.00000000000E+00 -0.00000000000E+00 -0.95173937779E+03  0.95173937779E+03  0.00000000000E+00 0.  1.
         23    2    1    2    0    0 -0.61547589529E+02  0.51494665011E+02 -0.47127250840E+03  0.48620336202E+03  0.88634788653E+02 0.  0.
         23    2    1    2    0    0  0.42387854359E+02 -0.76762435626E+02 -0.37925741507E+03  0.39918049482E+03  0.88428947970E+02 0.  0.
        -13    1    4    4    0    0  0.43237745019E+02 -0.38426405798E+02 -0.33776609020E+03  0.34268356095E+03  0.00000000000E+00 0. -1.
         13    1    4    4    0    0 -0.84989066046E+00 -0.38336029828E+02 -0.41491324867E+02  0.56496933866E+02  0.00000000000E+00 0.  1.
        -13    1    3    3    0    0  0.20752316113E+02 -0.19214248302E+01 -0.65415926050E+02  0.68655617967E+02  0.00000000000E+00 0. -1.
         13    1    3    3    0    0 -0.82299905642E+02  0.53416089841E+02 -0.40585658235E+03  0.41754774405E+03  0.00000000000E+00 0.  1.
         21    1    1    2  502  501  0.19159735170E+02  0.25267770615E+02 -0.80781992803E+02  0.86782982461E+02  0.00000000000E+00 0. -1.
<scales pt_clust_5="13000.00000" pt_clust_6="13000.00000" pt_clust_7="13000.00000" pt_clust_8="13000.00000" pt_clust_9="31.71050"></scales>
<clustering>
<clus scale="   31.710">  1  9  2 -1</clus>
<clus scale="   88.429">  5  6 -1 -1</clus>
<clus scale="   88.635">  7  8 -1 -1</clus>
<clus scale="  120.617">  1  5  2 -1</clus>
<clus scale="   31.710">  1  5  2 -1</clus>
</clustering>
</event>
<event>
 9    1  0.1296032E-005  0.1263903E+03  0.7546771E-02  0.1246279E+00
          2   -1    0    0  502    0  0.00000000000E+00  0.00000000000E+00  0.17284554278E+03  0.17284554278E+03  0.00000000000E+00 0.  1.
         -2   -1    0    0    0  501 -0.00000000000E+00 -0.00000000000E+00 -0.32630714609E+03  0.32630714609E+03  0.00000000000E+00 0. -1.
         23    2    1    2    0    0 -0.33749630469E+02  0.72445481042E+02 -0.24617053273E+03  0.27609238976E+03  0.96123312577E+02 0.  0.
         23    2    1    2    0    0  0.10742357117E+02  0.23164085331E+02  0.14490265564E+02  0.97407272145E+02  0.92877531109E+02 0.  0.
        -11    1    3    3    0    0  0.33109384506E+02  0.35802620880E+02 -0.96586445453E+02  0.10819889301E+03  0.00000000000E+00 0.  1.
         11    1    3    3    0    0 -0.66859014976E+02  0.36642860162E+02 -0.14958408727E+03  0.16789349675E+03  0.00000000000E+00 0. -1.
        -13    1    4    4    0    0  0.47575107788E+02  0.19332560429E+02 -0.10913290583E+02  0.52499892239E+02  0.00000000000E+00 0.  1.
         13    1    4    4    0    0 -0.36832750671E+02  0.38315249018E+01  0.25403556147E+02  0.44907379905E+02  0.00000000000E+00 0. -1.
         21    1    1    2  502  501  0.23007273352E+02 -0.95609566373E+02  0.78218663856E+02  0.12565302696E+03  0.00000000000E+00 0.  1.
<scales pt_clust_5="13000.00000" pt_clust_6="13000.00000" pt_clust_7="13000.00000" pt_clust_8="13000.00000" pt_clust_9="82.06590"></scales>
<clustering>
<clus scale="   92.878">  7  8 -1 -1</clus>
<clus scale="   96.123">  5  6 -1 -1</clus>
<clus scale="   96.323">  1  7  2 -1</clus>
<clus scale="   82.066">  1  9  2 -1</clus>
<clus scale="   96.323">  1  5  2 -1</clus>
</clustering>
</event>
<event>
 9    1  0.1296032E-005  0.1038119E+03  0.7546771E-02  0.1273040E+00
          2   -1    0    0  502    0  0.00000000000E+00  0.00000000000E+00  0.17076057392E+03  0.17076057392E+03  0.00000000000E+00 0. -1.
         -2   -1    0    0    0  501 -0.00000000000E+00 -0.00000000000E+00 -0.88714202894E+02  0.88714202894E+02  0.00000000000E+00 0.  1.
         23    2    1    2    0    0  0.13051210195E+02 -0.63076038970E+02 -0.17167754431E+01  0.11028676379E+03  0.89505877844E+02 0.  0.
         23    2    1    2    0    0 -0.21029122600E+02  0.43072063676E+02  0.77301489626E+02  0.12670337109E+03  0.88208827683E+02 0.  0.
        -11    1    4    4    0    0 -0.53423588354E+02  0.22835106359E+02  0.28446957240E+02  0.64689653355E+02  0.00000000000E+00 0.  1.
         11    1    4    4    0    0  0.32394465754E+02  0.20236957318E+02  0.48854532386E+02  0.62013717737E+02  0.00000000000E+00 0. -1.
        -13    1    3    3    0    0  0.38080871668E+02 -0.71237469522E+02  0.10144342244E+02  0.81411531926E+02  0.00000000000E+00 0. -1.
         13    1    3    3    0    0 -0.25029661473E+02  0.81614305524E+01 -0.11861117687E+02  0.28875231859E+02  0.00000000000E+00 0.  1.
         21    1    1    2  502  501  0.79779124052E+01  0.20003975294E+02  0.64616568452E+01  0.22484641938E+02  0.00000000000E+00 0. -1.
<scales pt_clust_5="13000.00000" pt_clust_6="13000.00000" pt_clust_7="13000.00000" pt_clust_8="13000.00000" pt_clust_9="21.53616"></scales>
<clustering>
<clus scale="   21.536">  2  9  1 -1</clus>
<clus scale="   88.209">  5  6 -1 -1</clus>
<clus scale="   89.506">  7  8 -1 -1</clus>
<clus scale="  102.696">  1  5  2 -1</clus>
<clus scale="  102.696">  1  5  2 -1</clus>
</clustering>
</event>
<event>
 9    1  0.1296032E-005  0.3178559E+03  0.7546771E-02  0.1076759E+00
         -1   -1    0    0    0  501 -0.00000000000E+00  0.00000000000E+00  0.47879261918E+03  0.47879261918E+03  0.00000000000E+00 0.  1.
          1   -1    0    0  502    0  0.00000000000E+00 -0.00000000000E+00 -0.23036626035E+03  0.23036626035E+03  0.00000000000E+00 0. -1.
         23    2    1    2    0    0 -0.19815365571E+03  0.21820265265E+03  0.13938665762E+03  0.33887921648E+03  0.92375397921E+02 0.  0.
         23    2    1    2    0    0  0.22404491084E+03 -0.21904709881E+03  0.10494130114E+03  0.34405244314E+03  0.95820944346E+02 0.  0.
        -11    1    3    3    0    0 -0.80118250848E+02  0.15591533090E+03  0.74286676443E+02  0.19038654056E+03  0.00000000000E+00 0. -1.
         11    1    3    3    0    0 -0.11803540486E+03  0.62287321753E+02  0.65099981178E+02  0.14849267592E+03  0.00000000000E+00 0.  1.
        -11    1    4    4    0    0  0.98016981122E+02 -0.46843027706E+02  0.59029939734E+01  0.10879541889E+03  0.00000000000E+00 0.  1.
         11    1    4    4    0    0  0.12602792971E+03 -0.17220407110E+03  0.99038307168E+02  0.23525702425E+03  0.00000000000E+00 0. -1.
         21    1    1    2  502  501 -0.25891255125E+02  0.84444615500E+00  0.40984000718E+01  0.26227219914E+02  0.00000000000E+00 0.  1.
<scales pt_clust_5="13000.00000" pt_clust_6="13000.00000" pt_clust_7="13000.00000" pt_clust_8="13000.00000" pt_clust_9="25.90502"></scales>
<clustering>
<clus scale="   25.905">  2  9  1 -1</clus>
<clus scale="   92.375">  5  6 -1 -1</clus>
<clus scale="   95.821">  7  8 -1 -1</clus>
<clus scale="  316.834">  1  5  2 -1</clus>
<clus scale="   25.905">  2  5  1 -1</clus>
</clustering>
</event>
<event>
 9    1  0.1296032E-005  0.9403807E+02  0.7546771E-02  0.1293511E+00
         -1   -1    0    0    0  501 -0.00000000000E+00  0.00000000000E+00  0.92402451119E+02  0.92402451119E+02  0.00000000000E+00 0.  1.
          1   -1    0    0  502    0  0.00000000000E+00 -0.00000000000E+00 -0.55145954876E+03  0.55145954876E+03  0.00000000000E+00 0. -1.
         23    2    1    2    0    0 -0.11684775790E+02  0.21492910902E+02  0.58600370486E+02  0.11082080897E+03  0.90822734354E+02 0.  0.
         23    2    1    2    0    0 -0.13558199139E+02 -0.32611934840E+02 -0.35508475227E+03  0.36814507689E+03  0.90544206259E+02 0.  0.
        -11    1    3    3    0    0  0.34225968924E+02  0.11988812803E+02  0.63822464805E+00  0.36270592935E+02  0.00000000000E+00 0. -1.
         11    1    3    3    0    0 -0.45910744714E+02  0.95040980994E+01  0.57962145838E+02  0.74550216036E+02  0.00000000000E+00 0.  1.
        -13    1    4    4    0    0 -0.36466547612E+02  0.18688140348E+02 -0.14528322118E+03  0.15095121742E+03  0.00000000000E+00 0.  1.
         13    1    4    4    0    0  0.22908348473E+02 -0.51300075188E+02 -0.20980153109E+03  0.21719385947E+03  0.00000000000E+00 0. -1.
         21    1    1    2  502  501  0.25242974929E+02  0.11119023938E+02 -0.16257271585E+03  0.16489611401E+03  0.00000000000E+00 0. -1.
<scales pt_clust_5="13000.00000" pt_clust_6="13000.00000" pt_clust_7="13000.00000" pt_clust_8="13000.00000" pt_clust_9="27.58334"></scales>
<clustering>
<clus scale="   27.583">  2  9  1 -1</clus>
<clus scale="   90.544">  7  8 -1 -1</clus>
<clus scale="   90.823">  5  6 -1 -1</clus>
<clus scale="   93.769">  2  7  1 -1</clus>
<clus scale="   27.583">  2  5  1 -1</clus>
</clustering>
</event>
<event>
 9    1  0.1296032E-005  0.1234505E+03  0.7546771E-02  0.1238551E+00
          1   -1    0    0  502    0  0.00000000000E+00  0.00000000000E+00  0.22014381957E+03  0.22014381957E+03  0.00000000000E+00 0. -1.
         -1   -1    0    0    0  501 -0.00000000000E+00 -0.00000000000E+00 -0.26941994458E+03  0.26941994458E+03  0.00000000000E+00 0.  1.
         23    2    1    2    0    0 -0.61584528613E+02 -0.53590087035E+02 -0.22931196879E+03  0.26011309033E+03  0.91707628566E+02 0.  0.
         23    2    1    2    0    0  0.45968008618E+02  0.23977611086E+02  0.12937035726E+03  0.16872369503E+03  0.95094754194E+02 0.  0.
        -11    1    4    4    0    0  0.26956734111E+02  0.49424710315E+02  0.28761190064E+02  0.63219249897E+02  0.00000000000E+00 0.  1.
         11    1    4    4    0    0  0.19011274506E+02 -0.25447099229E+02  0.10060916720E+03  0.10550444513E+03  0.00000000000E+00 0. -1.
        -11    1    3    3    0    0 -0.48260289483E+02  0.16782240871E+02 -0.99571367234E+02  0.11191584482E+03  0.00000000000E+00 0.  1.
         11    1    3    3    0    0 -0.13324239130E+02 -0.70372327906E+02 -0.12974060156E+03  0.14819724551E+03  0.00000000000E+00 0. -1.
         21    1    1    2  502  501  0.15616519995E+02  0.29612475948E+02  0.50665486521E+02  0.60726978790E+02  0.00000000000E+00 0.  1.
<scales pt_clust_5="13000.00000" pt_clust_6="13000.00000" pt_clust_7="13000.00000" pt_clust_8="13000.00000" pt_clust_9="33.47797"></scales>
<clustering>
<clus scale="   33.478">  1  9  2 -1</clus>
<clus scale="   91.708">  7  8 -1 -1</clus>
<clus scale="   95.095">  5  6 -1 -1</clus>
<clus scale="  120.861">  2  7  1 -1</clus>
<clus scale="   33.478">  1  5  2 -1</clus>
</clustering>
</event>
<event>
 9    1  0.1296032E-005  0.1069439E+03  0.7546771E-02  0.1267737E+00
         -2   -1    0    0    0  501 -0.00000000000E+00  0.00000000000E+00  0.44143127379E+02  0.44143127379E+02  0.00000000000E+00 0.  1.
          2   -1    0    0  502    0  0.00000000000E+00 -0.00000000000E+00 -0.32915363454E+03  0.32915363454E+03  0.00000000000E+00 0. -1.
         23    2    1    2    0    0  0.50998406746E+02 -0.72900673466E+00 -0.90710601522E+02  0.13907054287E+03  0.92254179979E+02 0.  0.
         23    2    1    2    0    0 -0.57312757808E+02 -0.21258529195E+02 -0.15832203536E+03  0.19159137514E+03  0.88908440969E+02 0.  0.
        -13    1    3    3    0    0 -0.10605323423E+02 -0.33439622865E+02 -0.23620125342E+02  0.42291743679E+02  0.00000000000E+00 0.  1.
         13    1    3    3    0    0  0.61603730169E+02  0.32710616130E+02 -0.67090476180E+02  0.96778799188E+02  0.00000000000E+00 0. -1.
        -13    1    4    4    0    0 -0.31952323279E+02 -0.54452435607E+02 -0.72457321637E+02  0.96104537694E+02  0.00000000000E+00 0.  1.
         13    1    4    4    0    0 -0.25360434529E+02  0.33193906412E+02 -0.85864713725E+02  0.95486837446E+02  0.00000000000E+00 0. -1.
         21    1    1    2  502  501  0.63143510627E+01  0.21987535930E+02 -0.35977870273E+02  0.42634843907E+02  0.00000000000E+00 0. -1.
<scales pt_clust_5="13000.00000" pt_clust_6="13000.00000" pt_clust_7="13000.00000" pt_clust_8="13000.00000" pt_clust_9="22.87625"></scales>
<clustering>
<clus scale="   22.876">  2  9  1 -1</clus>
<clus scale="   88.908">  7  8 -1 -1</clus>
<clus scale="   92.254">  5  6 -1 -1</clus>
<clus scale="  104.072">  2  7  1 -1</clus>
<clus scale="   22.876">  2  5  1 -1</clus>
</clustering>
</event>
<event>
 9    1  0.1296032E-005  0.1125790E+03  0.7546771E-02  0.1256346E+00
          1   -1    0    0  502    0  0.00000000000E+00  0.00000000000E+00  0.35303082911E+03  0.35303082911E+03  0.00000000000E+00 0. -1.
         -1   -1    0    0    0  501 -0.00000000000E+00 -0.00000000000E+00 -0.54830310097E+02  0.54830310097E+02  0.00000000000E+00 0.  1.
         23    2    1    2    0    0 -0.14225101647E+02 -0.67536296374E+02  0.67532723758E+02  0.13096573993E+03  0.88475145730E+02 0.  0.
         23    2    1    2    0    0 -0.19873215657E+02  0.68423922758E+02  0.14610749066E+03  0.18571465440E+03  0.89809554757E+02 0.  0.
        -11    1    4    4    0    0 -0.39175589063E+02  0.53178424408E+02  0.14694118604E+03  0.16110364290E+03  0.00000000000E+00 0. -1.
         11    1    4    4    0    0  0.19302373405E+02  0.15245498350E+02 -0.83369538082E+00  0.24611011499E+02  0.00000000000E+00 0.  1.
        -11    1    3    3    0    0  0.73725723923E+01 -0.56707463333E+02 -0.21380915288E+01  0.57224668254E+02  0.00000000000E+00 0.  1.
         11    1    3    3    0    0 -0.21597674040E+02 -0.10828833041E+02  0.69670815287E+02  0.73741071674E+02  0.00000000000E+00 0. -1.
         21    1    1    2  502  501  0.34098317305E+02 -0.88762638375E+00  0.84560304600E+02  0.91180744884E+02  0.00000000000E+00 0.  1.
<scales pt_clust_5="13000.00000" pt_clust_6="13000.00000" pt_clust_7="13000.00000" pt_clust_8="13000.00000" pt_clust_9="34.10987"></scales>
<clustering>
<clus scale="   34.110">  1  9  2 -1</clus>
<clus scale="   88.475">  7  8 -1 -1</clus>
<clus scale="   89.810">  5  6 -1 -1</clus>
<clus scale="  111.517">  2  7  1 -1</clus>
<clus scale="   34.110">  1  5  2 -1</clus>
</clustering>
</event>
<event>
 9    1  0.1296032E-005  0.9464955E+02  0.7546771E-02  0.1292499E+00
          3   -1    0    0  502    0  0.00000000000E+00  0.00000000000E+00  0.14108415857E+03  0.14108415857E+03  0.00000000000E+00 0. -1.
         -3   -1    0    0    0  501 -0.00000000000E+00 -0.00000000000E+00 -0.10113338934E+03  0.10113338934E+03  0.00000000000E+00 0.  1.
         23    2    1    2    0    0  0.61982512397E+01 -0.93366058184E+01 -0.36644458621E+01  0.91730496661E+02  0.90969584629E+02 0.  0.
         23    2    1    2    0    0  0.19122275577E+02  0.39780603004E+02  0.18632766314E+02  0.10366730339E+03  0.91932431783E+02 0.  0.
        -11    1    3    3    0    0 -0.40765049380E+02 -0.16654041630E+02 -0.38107434510E+01  0.44200318090E+02  0.00000000000E+00 0.  1.
         11    1    3    3    0    0  0.46963300620E+02  0.73174358114E+01  0.14629758891E+00  0.47530178571E+02  0.00000000000E+00 0. -1.
        -11    1    4    4    0    0 -0.25317892640E+02  0.16383348376E+02  0.39147456652E+02  0.49415920046E+02  0.00000000000E+00 0. -1.
         11    1    4    4    0    0  0.44440168217E+02  0.23397254628E+02 -0.20514690338E+02  0.54251383346E+02  0.00000000000E+00 0.  1.
         21    1    1    2  502  501 -0.25320526817E+02 -0.30443997185E+02  0.24982448781E+02  0.46819747863E+02  0.00000000000E+00 0.  1.
<scales pt_clust_5="13000.00000" pt_clust_6="13000.00000" pt_clust_7="13000.00000" pt_clust_8="13000.00000" pt_clust_9="39.59755"></scales>
<clustering>
<clus scale="   39.598">  1  9  2 -1</clus>
<clus scale="   90.970">  5  6 -1 -1</clus>
<clus scale="   91.932">  7  8 -1 -1</clus>
<clus scale="   93.715">  2  5  1 -1</clus>
<clus scale="   39.598">  1  5  2 -1</clus>
</clustering>
</event>
<event>
 9    1  0.1296032E-005  0.9198123E+02  0.7546771E-02  0.1299222E+00
         -1   -1    0    0    0  501 -0.00000000000E+00  0.00000000000E+00  0.26870554249E+02  0.26870554249E+02  0.00000000000E+00 0.  1.
          1   -1    0    0  502    0  0.00000000000E+00 -0.00000000000E+00 -0.61414793903E+03  0.61414793903E+03  0.00000000000E+00 0. -1.
         23    2    1    2    0    0  0.21765864920E+02  0.29640308765E+02 -0.20027084058E+03  0.22216430595E+03  0.88860950212E+02 0.  0.
         23    2    1    2    0    0 -0.72850057246E+01  0.32296766821E+02 -0.23544443582E+03  0.25448579221E+03  0.90734688101E+02 0.  0.
        -11    1    4    4    0    0 -0.25994975550E+02 -0.22590843070E+02 -0.54437703101E+02  0.64416988935E+02  0.00000000000E+00 0. -1.
         11    1    4    4    0    0  0.18709969826E+02  0.54887609891E+02 -0.18100673272E+03  0.19006880328E+03  0.00000000000E+00 0.  1.
        -11    1    3    3    0    0  0.11916648472E+02  0.54768491988E+02 -0.72852414709E+02  0.91918815019E+02  0.00000000000E+00 0.  1.
         11    1    3    3    0    0  0.98492164480E+01 -0.25128183223E+02 -0.12741842587E+03  0.13024549093E+03  0.00000000000E+00 0. -1.
         21    1    1    2  502  501 -0.14480859195E+02 -0.61937075586E+02 -0.15156210838E+03  0.16436839511E+03  0.00000000000E+00 0.  1.
<scales pt_clust_5="13000.00000" pt_clust_6="13000.00000" pt_clust_7="13000.00000" pt_clust_8="13000.00000" pt_clust_9="63.60736"></scales>
<clustering>
<clus scale="   63.607">  2  9  1 -1</clus>
<clus scale="   88.861">  7  8 -1 -1</clus>
<clus scale="   90.133">  1  7  2 -1</clus>
<clus scale="   90.735">  5  6 -1 -1</clus>
<clus scale="   63.607">  2  5  1 -1</clus>
</clustering>
</event>
<event>
 9    1  0.1296032E-005  0.9506679E+02  0.7546771E-02  0.1291779E+00
         -1   -1    0    0    0  501 -0.00000000000E+00  0.00000000000E+00  0.12358291277E+03  0.12358291277E+03  0.00000000000E+00 0.  1.
          1   -1    0    0  502    0  0.00000000000E+00 -0.00000000000E+00 -0.12936540725E+03  0.12936540725E+03  0.00000000000E+00 0. -1.
         23    2    1    2    0    0 -0.28369817775E+01  0.38090465225E+02  0.18490199778E+02  0.10174289532E+03  0.92470520994E+02 0.  0.
         23    2    1    2    0    0  0.25757312461E+02  0.20638910889E+00 -0.41490721718E+02  0.10336766681E+03  0.91103857285E+02 0.  0.
        -11    1    3    3    0    0 -0.21478762694E+02  0.51202053736E+02  0.41527986001E+02  0.69336578909E+02  0.00000000000E+00 0.  1.
         11    1    3    3    0    0  0.18641780916E+02 -0.13111588511E+02 -0.23037786223E+02  0.32406316407E+02  0.00000000000E+00 0. -1.
        -13    1    4    4    0    0 -0.28698867123E+02  0.12335318659E+02 -0.35452839149E+02  0.47251337169E+02  0.00000000000E+00 0.  1.
         13    1    4    4    0    0  0.54456179584E+02 -0.12128929550E+02 -0.60378825693E+01  0.56116329645E+02  0.00000000000E+00 0. -1.
         21    1    1    2  502  501 -0.22920330684E+02 -0.38296854334E+02  0.17218027455E+02  0.47837757890E+02  0.00000000000E+00 0.  1.
<scales pt_clust_5="13000.00000" pt_clust_6="13000.00000" pt_clust_7="13000.00000" pt_clust_8="13000.00000" pt_clust_9="44.63172"></scales>
<clustering>
<clus scale="   44.632">  1  9  2 -1</clus>
<clus scale="   91.104">  7  8 -1 -1</clus>
<clus scale="   92.471">  5  6 -1 -1</clus>
<clus scale="   93.738">  2  7  1 -1</clus>
<clus scale="   93.738">  2  5  1 -1</clus>
</clustering>
</event>
<event>
 9    1  0.1296032E-005  0.9689498E+02  0.7546771E-02  0.1288229E+00
          1   -1    0    0  502    0  0.00000000000E+00  0.00000000000E+00  0.23638415753E+03  0.23638415753E+03  0.00000000000E+00 0. -1.
         -1   -1    0    0    0  501 -0.00000000000E+00 -0.00000000000E+00 -0.51717904961E+02  0.51717904961E+02  0.00000000000E+00 0.  1.
         23    2    1    2    0    0  0.13903122635E+02 -0.33433851286E+02  0.51759274132E+02  0.11021873955E+03  0.90321807214E+02 0.  0.
         23    2    1    2    0    0 -0.14850000481E+02  0.11331824650E+02  0.95339014122E+02  0.13428575303E+03  0.92704924841E+02 0.  0.
        -11    1    3    3    0    0  0.15257915396E+02 -0.62846630217E+02  0.21888957698E+02  0.68276125995E+02  0.00000000000E+00 0. -1.
         11    1    3    3    0    0 -0.13547927611E+01  0.29412778931E+02  0.29870316435E+02  0.41942613554E+02  0.00000000000E+00 0.  1.
        -13    1    4    4    0    0 -0.45590965151E+02  0.19169653837E+01  0.15459444343E+02  0.48178888313E+02  0.00000000000E+00 0.  1.
         13    1    4    4    0    0  0.30740964670E+02  0.94148592662E+01  0.79879569779E+02  0.86106864720E+02  0.00000000000E+00 0. -1.
         21    1    1    2  502  501  0.94687784619E+00  0.22102026636E+02  0.37567964313E+02  0.43597569906E+02  0.00000000000E+00 0.  1.
<scales pt_clust_5="13000.00000" pt_clust_6="13000.00000" pt_clust_7="13000.00000" pt_clust_8="13000.00000" pt_clust_9="22.12230"></scales>
<clustering>
<clus scale="   22.122">  1  9  2 -1</clus>
<clus scale="   90.322">  5  6 -1 -1</clus>
<clus scale="   92.705">  7  8 -1 -1</clus>
<clus scale="   94.617">  2  5  1 -1</clus>
<clus scale="   22.122">  1  5  2 -1</clus>
</clustering>
</event>
<event>
 9    1  0.1296032E-005  0.1176099E+03  0.7546771E-02  0.1247149E+00
          2   -1    0    0  502    0  0.00000000000E+00  0.00000000000E+00  0.12344302815E+03  0.12344302815E+03  0.00000000000E+00 0. -1.
         -2   -1    0    0    0  501 -0.00000000000E+00 -0.00000000000E+00 -0.36297074505E+03  0.36297074505E+03  0.00000000000E+00 0.  1.
         23    2    1    2    0    0  0.45340848584E+02 -0.63434662852E+02 -0.30399346518E+03  0.32663701768E+03  0.90553660568E+02 0.  0.
         23    2    1    2    0    0 -0.29559166764E+02  0.38640097000E+02  0.76503369706E+02  0.12801614617E+03  0.90380123188E+02 0.  0.
        -11    1    3    3    0    0 -0.76513452216E+01 -0.44174833791E+02 -0.22596091026E+03  0.23036556164E+03  0.00000000000E+00 0.  1.
         11    1    3    3    0    0  0.52992193805E+02 -0.19259829061E+02 -0.78032554918E+02  0.96271456034E+02  0.00000000000E+00 0. -1.
        -13    1    4    4    0    0 -0.57456554126E+02  0.18630353293E+02  0.71049083253E+02  0.93254050352E+02  0.00000000000E+00 0. -1.
         13    1    4    4    0    0  0.27897387363E+02  0.20009743707E+02  0.54542864532E+01  0.34762095817E+02  0.00000000000E+00 0.  1.
         21    1    1    2  502  501 -0.15781681820E+02  0.24794565852E+02 -0.12037621423E+02  0.31760609351E+02  0.00000000000E+00 0.  1.
<scales pt_clust_5="13000.00000" pt_clust_6="13000.00000" pt_clust_7="13000.00000" pt_clust_8="13000.00000" pt_clust_9="29.39102"></scales>
<clustering>
<clus scale="   29.391">  1  9  2 -1</clus>
<clus scale="   90.380">  7  8 -1 -1</clus>
<clus scale="   90.554">  5  6 -1 -1</clus>
<clus scale="  117.476">  1  7  2 -1</clus>
<clus scale="   29.391">  1  5  2 -1</clus>
</clustering>
</event>
<event>
 9    1  0.1296032E-005  0.1178800E+03  0.7546771E-02  0.1249213E+00
          2   -1    0    0  502    0  0.00000000000E+00  0.00000000000E+00  0.71374119063E+02  0.71374119063E+02  0.00000000000E+00 0. -1.
         -2   -1    0    0    0  501 -0.00000000000E+00 -0.00000000000E+00 -0.32487983599E+03  0.32487983599E+03  0.00000000000E+00 0.  1.
         23    2    1    2    0    0  0.95560184106E+02  0.27721910557E+02 -0.15027005896E+03  0.20418218742E+03  0.95963648999E+02 0.  0.
         23    2    1    2    0    0 -0.36592650121E+02  0.22437856534E+00 -0.51479710255E+02  0.10878405387E+03  0.88570522297E+02 0.  0.
        -11    1    4    4    0    0  0.21562440209E+02  0.51041905363E+01  0.97400846719E+01  0.24204562343E+02  0.00000000000E+00 0.  1.
         11    1    4    4    0    0 -0.58155090330E+02 -0.48798119710E+01 -0.61219794927E+02  0.84579491528E+02  0.00000000000E+00 0. -1.
        -13    1    3    3    0    0  0.75891264187E+02  0.62229051061E+02 -0.11361170247E+03  0.15013180114E+03  0.00000000000E+00 0.  1.
         13    1    3    3    0    0  0.19668919919E+02 -0.34507140504E+02 -0.36658356493E+02  0.54050386283E+02  0.00000000000E+00 0. -1.
         21    1    1    2  502  501 -0.58967533985E+02 -0.27946289122E+02 -0.51755947711E+02  0.83287713761E+02  0.00000000000E+00 0. -1.
<scales pt_clust_5="13000.00000" pt_clust_6="13000.00000" pt_clust_7="13000.00000" pt_clust_8="13000.00000" pt_clust_9="65.25462"></scales>
<clustering>
<clus scale="   65.255">  1  9  2 -1</clus>
<clus scale="   88.571">  5  6 -1 -1</clus>
<clus scale="   95.964">  7  8 -1 -1</clus>
<clus scale="  111.944">  1  5  2 -1</clus>
<clus scale="   65.255">  1  5  2 -1</clus>
</clustering>
</event>
<event>
 9    1  0.1296032E-005  0.1049053E+03  0.7546771E-02  0.1270373E+00
          2   -1    0    0  502    0  0.00000000000E+00  0.00000000000E+00  0.85346646620E+03  0.85346646620E+03  0.00000000000E+00 0. -1.
         -2   -1    0    0    0  501 -0.00000000000E+00 -0.00000000000E+00 -0.47351198332E+02  0.47351198332E+02  0.00000000000E+00 0.  1.
         23    2    1    2    0    0 -0.62607208426E+02  0.19545209066E+02  0.65098569202E+02  0.13079314265E+03  0.92559951962E+02 0.  0.
         23    2    1    2    0    0 -0.56038179785E+01 -0.42153036228E+02  0.20253858368E+03  0.22677270339E+03  0.92712997403E+02 0.  0.
        -13    1    3    3    0    0 -0.79020421545E+02  0.33825230924E+02  0.66958758210E+02  0.10895801287E+03  0.00000000000E+00 0. -1.
         13    1    3    3    0    0  0.16413213119E+02 -0.14280021857E+02 -0.18601890082E+01  0.21835129775E+02  0.00000000000E+00 0.  1.
        -13    1    4    4    0    0  0.24701071516E+02 -0.61215158324E+02  0.13777006922E+03  0.15276789753E+03  0.00000000000E+00 0. -1.
         13    1    4    4    0    0 -0.30304889494E+02  0.19062122096E+02  0.64768514457E+02  0.74004805864E+02  0.00000000000E+00 0.  1.
         21    1    1    2  502  501  0.68211026404E+02  0.22607827161E+02  0.53847811499E+03  0.54325181850E+03  0.00000000000E+00 0.  1.
<scales pt_clust_5="13000.00000" pt_clust_6="13000.00000" pt_clust_7="13000.00000" pt_clust_8="13000.00000" pt_clust_9="71.85999"></scales>
<clustering>
<clus scale="   71.860">  1  9  2 -1</clus>
<clus scale="   92.560">  5  6 -1 -1</clus>
<clus scale="   92.713">  7  8 -1 -1</clus>
<clus scale="  104.770">  2  5  1 -1</clus>
<clus scale="   71.860">  1  5  2 -1</clus>
</clustering>
</event>
<event>
 9    1  0.1296032E-005  0.1397801E+03  0.7546771E-02  0.1214051E+00
         -1   -1    0    0    0  501 -0.00000000000E+00  0.00000000000E+00  0.96672437430E+02  0.96672437430E+02  0.00000000000E+00 0.  1.
          1   -1    0    0  502    0  0.00000000000E+00 -0.00000000000E+00 -0.34755782439E+03  0.34755782439E+03  0.00000000000E+00 0. -1.
         23    2    1    2    0    0  0.48578300890E+02  0.11729393660E+03 -0.21783996136E+02  0.15649726745E+03  0.88877068763E+02 0.  0.
         23    2    1    2    0    0 -0.23922818939E+02 -0.97611785510E+02 -0.21271137871E+03  0.25218144927E+03  0.90823954920E+02 0.  0.
        -11    1    3    3    0    0 -0.14272002551E+02  0.41265324751E+02  0.21624667141E+02  0.48725181504E+02  0.00000000000E+00 0.  1.
         11    1    3    3    0    0  0.62850303441E+02  0.76028611849E+02 -0.43408663277E+02  0.10777208595E+03  0.00000000000E+00 0. -1.
        -11    1    4    4    0    0 -0.23269511322E+02  0.11054340726E+02 -0.29484019125E+02  0.39153237284E+02  0.00000000000E+00 0.  1.
         11    1    4    4    0    0 -0.65330761750E+00 -0.10866612624E+03 -0.18322735958E+03  0.21302821199E+03  0.00000000000E+00 0. -1.
         21    1    1    2  502  501 -0.24655481951E+02 -0.19682151091E+02 -0.16390012117E+02  0.35551545100E+02  0.00000000000E+00 0. -1.
<scales pt_clust_5="13000.00000" pt_clust_6="13000.00000" pt_clust_7="13000.00000" pt_clust_8="13000.00000" pt_clust_9="31.54806"></scales>
<clustering>
<clus scale="   31.548">  1  9  2 -1</clus>
<clus scale="   88.877">  5  6 -1 -1</clus>
<clus scale="   90.824">  7  8 -1 -1</clus>
<clus scale="  138.523">  1  5  2 -1</clus>
<clus scale="  139.780">  2  5  1 -1</clus>
</clustering>
</event>
<event>
 9    1  0.1296032E-005  0.1145482E+03  0.7546771E-02  0.1252789E+00
          1   -1    0    0  502    0  0.00000000000E+00  0.00000000000E+00  0.25034384852E+03  0.25034384852E+03  0.00000000000E+00 0. -1.
         -1   -1    0    0    0  501 -0.00000000000E+00 -0.00000000000E+00 -0.13310903181E+03  0.13310903181E+03  0.00000000000E+00 0.  1.
         23    2    1    2    0    0 -0.62443719133E+02  0.43553247859E+02 -0.72216635368E+02  0.13873739782E+03  0.90756375374E+02 0.  0.
         23    2    1    2    0    0  0.30567906206E+02 -0.47361978881E+01  0.15816190448E+03  0.18553891108E+03  0.91938408927E+02 0.  0.
        -11    1    3    3    0    0 -0.30729866573E+02  0.59722341336E+02 -0.77715861153E+02  0.10271727133E+03  0.00000000000E+00 0.  1.
         11    1    3    3    0    0 -0.31713852560E+02 -0.16169093477E+02  0.54992257848E+01  0.36020126489E+02  0.00000000000E+00 0. -1.
        -13    1    4    4    0    0  0.60885955199E+02 -0.67496555164E+01  0.13168659256E+03  0.14523779140E+03  0.00000000000E+00 0. -1.
         13    1    4    4    0    0 -0.30318048993E+02  0.20134576283E+01  0.26475311917E+02  0.40301119680E+02  0.00000000000E+00 0.  1.
         21    1    1    2  502  501  0.31875812927E+02 -0.38817049971E+02  0.31289547594E+02  0.59176571435E+02  0.00000000000E+00 0. -1.
<scales pt_clust_5="13000.00000" pt_clust_6="13000.00000" pt_clust_7="13000.00000" pt_clust_8="13000.00000" pt_clust_9="50.22779"></scales>
<clustering>
<clus scale="   50.228">  1  9  2 -1</clus>
<clus scale="   90.756">  5  6 -1 -1</clus>
<clus scale="   91.938">  7  8 -1 -1</clus>
<clus scale="  113.602">  2  5  1 -1</clus>
<clus scale="   50.228">  1  5  2 -1</clus>
</clustering>
</event>
<event>
 9    1  0.1296032E-005  0.1059179E+03  0.7546771E-02  0.1268520E+00
          1   -1    0    0  502    0  0.00000000000E+00  0.00000000000E+00  0.85290987216E+02  0.85290987216E+02  0.00000000000E+00 0. -1.
         -1   -1    0    0    0  501 -0.00000000000E+00 -0.00000000000E+00 -0.29301622876E+03  0.29301622876E+03  0.00000000000E+00 0.  1.
         23    2    1    2    0    0 -0.45326910485E+02 -0.48447618719E+02 -0.16400848622E+03  0.19927572003E+03  0.91707843010E+02 0.  0.
         23    2    1    2    0    0  0.10429609770E+02  0.36674492703E+02 -0.80104196870E+02  0.12725820172E+03  0.91236902484E+02 0.  0.
        -13    1    4    4    0    0 -0.11254460907E+02 -0.16800274315E+02 -0.64335256205E+02  0.67438396321E+02  0.00000000000E+00 0.  1.
         13    1    4    4    0    0  0.21684070677E+02  0.53474767018E+02 -0.15768940665E+02  0.59819805403E+02  0.00000000000E+00 0. -1.
        -13    1    3    3    0    0 -0.24517299140E+02  0.24454318477E+02 -0.32563601175E+02  0.47534195804E+02  0.00000000000E+00 0. -1.
         13    1    3    3    0    0 -0.20809611345E+02 -0.72901937196E+02 -0.13144488504E+03  0.15174152423E+03  0.00000000000E+00 0.  1.
         21    1    1    2  502  501  0.34897300714E+02  0.11773126015E+02  0.36387441537E+02  0.51773294225E+02  0.00000000000E+00 0. -1.
<scales pt_clust_5="13000.00000" pt_clust_6="13000.00000" pt_clust_7="13000.00000" pt_clust_8="13000.00000" pt_clust_9="36.82972"></scales>
<clustering>
<clus scale="   36.830">  1  9  2 -1</clus>
<clus scale="   91.237">  5  6 -1 -1</clus>
<clus scale="   91.708">  7  8 -1 -1</clus>
<clus scale="  105.510">  1  5  2 -1</clus>
<clus scale="   36.830">  1  5  2 -1</clus>
</clustering>
</event>
<event>
 9    1  0.1296032E-005  0.9669728E+02  0.7546771E-02  0.1290750E+00
          2   -1    0    0  502    0  0.00000000000E+00  0.00000000000E+00  0.29071340395E+03  0.29071340395E+03  0.00000000000E+00 0. -1.
         -2   -1    0    0    0  501 -0.00000000000E+00 -0.00000000000E+00 -0.19127890089E+03  0.19127890089E+03  0.00000000000E+00 0.  1.
         23    2    1    2    0    0 -0.12221112380E+02 -0.74408754672E+01 -0.15806436963E+03  0.18539849765E+03  0.95830766294E+02 0.  0.
         23    2    1    2    0    0 -0.15401526642E+02  0.21151560749E+02  0.10357245388E+03  0.13960866305E+03  0.89881755933E+02 0.  0.
        -13    1    3    3    0    0  0.18230873921E+02 -0.22759186355E+02 -0.14654322690E+03  0.14941640699E+03  0.00000000000E+00 0.  1.
         13    1    3    3    0    0 -0.30451986302E+02  0.15318310888E+02 -0.11521142724E+02  0.35982090654E+02  0.00000000000E+00 0. -1.
        -13    1    4    4    0    0  0.12283466201E+02  0.50671817020E+02  0.48064528196E+02  0.70913436335E+02  0.00000000000E+00 0. -1.
         13    1    4    4    0    0 -0.27684992843E+02 -0.29520256271E+02  0.55507925688E+02  0.68695226713E+02  0.00000000000E+00 0.  1.
         21    1    1    2  502  501  0.27622639022E+02 -0.13710685282E+02  0.15392641881E+03  0.15698514415E+03  0.00000000000E+00 0. -1.
<scales pt_clust_5="13000.00000" pt_clust_6="13000.00000" pt_clust_7="13000.00000" pt_clust_8="13000.00000" pt_clust_9="30.83818"></scales>
<clustering>
<clus scale="   30.838">  1  9  2 -1</clus>
<clus scale="   89.882">  7  8 -1 -1</clus>
<clus scale="   90.805">  1  7  2 -1</clus>
<clus scale="   95.831">  5  6 -1 -1</clus>
<clus scale="   30.838">  1  5  2 -1</clus>
</clustering>
</event>
<event>
 9    1  0.1296032E-005  0.1035299E+03  0.7546771E-02  0.1278990E+00
         -2   -1    0    0    0  501 -0.00000000000E+00  0.00000000000E+00  0.30362884133E+02  0.30362884133E+02  0.00000000000E+00 0.  1.
          2   -1    0    0  502    0  0.00000000000E+00 -0.00000000000E+00 -0.42639652148E+03  0.42639652148E+03  0.00000000000E+00 0. -1.
         23    2    1    2    0    0 -0.54092362668E+01 -0.26493457927E+02 -0.19071536247E+03  0.21831502972E+03  0.10275183488E+03 0.  0.
         23    2    1    2    0    0  0.71157229220E+01 -0.25537674680E+01 -0.16306473008E+03  0.18714120399E+03  0.91512670116E+02 0.  0.
        -11    1    3    3    0    0 -0.18659035113E+02  0.34887250321E+02 -0.10383771928E+03  0.11111953821E+03  0.00000000000E+00 0. -1.
         11    1    3    3    0    0  0.13249798846E+02 -0.61380708248E+02 -0.86877643186E+02  0.10719549151E+03  0.00000000000E+00 0.  1.
        -13    1    4    4    0    0  0.42419960708E+02 -0.25109489787E+02 -0.99011160230E+02  0.11060356863E+03  0.00000000000E+00 0.  1.
         13    1    4    4    0    0 -0.35304237786E+02  0.22555722319E+02 -0.64053569853E+02  0.76537635356E+02  0.00000000000E+00 0. -1.
         21    1    1    2  502  501 -0.17064866552E+01  0.29047225395E+02 -0.42253544792E+02  0.51303171903E+02  0.00000000000E+00 0. -1.
<scales pt_clust_5="13000.00000" pt_clust_6="13000.00000" pt_clust_7="13000.00000" pt_clust_8="13000.00000" pt_clust_9="29.09731"></scales>
<clustering>
<clus scale="   29.097">  1  9  2 -1</clus>
<clus scale="   91.513">  7  8 -1 -1</clus>
<clus scale="   92.385">  2  7  1 -1</clus>
<clus scale="  102.752">  5  6 -1 -1</clus>
<clus scale="   92.385">  2  5  1 -1</clus>
</clustering>
</event>
<event>
 9    1  0.1296032E-005  0.9403412E+02  0.7546771E-02  0.1293482E+00
          2   -1    0    0  502    0  0.00000000000E+00  0.00000000000E+00  0.34374694763E+03  0.34374694763E+03  0.00000000000E+00 0. -1.
         -2   -1    0    0    0  501 -0.00000000000E+00 -0.00000000000E+00 -0.10018127757E+03  0.10018127757E+03  0.00000000000E+00 0.  1.
         23    2    1    2    0    0 -0.18630228163E+02 -0.81933476924E+01 -0.31240782429E+02  0.98332470897E+02  0.90989405967E+02 0.  0.
         23    2    1    2    0    0  0.41187260330E+02 -0.73433350240E+02  0.14873706496E+03  0.19372334738E+03  0.91198538833E+02 0.  0.
        -13    1    3    3    0    0 -0.52237927297E+02 -0.22278920565E+02 -0.19629478054E+02  0.60087168002E+02  0.00000000000E+00 0.  1.
         13    1    3    3    0    0  0.33607699135E+02  0.14085572872E+02 -0.11611304374E+02  0.38245302895E+02  0.00000000000E+00 0. -1.
        -13    1    4    4    0    0 -0.24320285726E+02 -0.44317031965E+02  0.78457483051E+02  0.93333018095E+02  0.00000000000E+00 0.  1.
         13    1    4    4    0    0  0.65507546056E+02 -0.29116318275E+02  0.70279581912E+02  0.10039032929E+03  0.00000000000E+00 0. -1.
         21    1    1    2  502  501 -0.22557032167E+02  0.81626697933E+02  0.12606938753E+03  0.15187240693E+03  0.00000000000E+00 0. -1.
<scales pt_clust_5="13000.00000" pt_clust_6="13000.00000" pt_clust_7="13000.00000" pt_clust_8="13000.00000" pt_clust_9="84.68611"></scales>
<clustering>
<clus scale="   84.686">  1  9  2 -1</clus>
<clus scale="   90.989">  5  6 -1 -1</clus>
<clus scale="   91.199">  7  8 -1 -1</clus>
<clus scale="   93.831">  2  5  1 -1</clus>
<clus scale="   84.686">  1  5  2 -1</clus>
</clustering>
</event>
<event>
 9    1  0.1296032E-005  0.1236845E+03  0.7546771E-02  0.1238380E+00
         -1   -1    0    0    0  501 -0.00000000000E+00  0.00000000000E+00  0.22055844540E+03  0.22055844540E+03  0.00000000000E+00 0.  1.
          1   -1    0    0  502    0  0.00000000000E+00 -0.00000000000E+00 -0.13041681684E+03  0.13041681684E+03  0.00000000000E+00 0. -1.
         23    2    1    2    0    0  0.64054792758E+02  0.33573221642E+02  0.44046355370E+02  0.12539712712E+03  0.92488812205E+02 0.  0.
         23    2    1    2    0    0 -0.10559673851E+03  0.32831357086E+02  0.39720459726E+02  0.14699098872E+03  0.88317986005E+02 0.  0.
        -13    1    4    4    0    0 -0.24641508187E+02  0.26860974617E+02  0.53416414180E+02  0.64668610523E+02  0.00000000000E+00 0. -1.
         13    1    4    4    0    0 -0.80955230324E+02  0.59703824684E+01 -0.13695954454E+02  0.82322378197E+02  0.00000000000E+00 0.  1.
        -13    1    3    3    0    0  0.46719323092E+02  0.22749055785E+02  0.73215073019E+02  0.89781187374E+02  0.00000000000E+00 0.  1.
         13    1    3    3    0    0  0.17335469666E+02  0.10824165857E+02 -0.29168717648E+02  0.35615939750E+02  0.00000000000E+00 0. -1.
         21    1    1    2  502  501  0.41541945754E+02 -0.66404578728E+02  0.63748134658E+01  0.78587146403E+02  0.00000000000E+00 0. -1.
<scales pt_clust_5="13000.00000" pt_clust_6="13000.00000" pt_clust_7="13000.00000" pt_clust_8="13000.00000" pt_clust_9="78.32816"></scales>
<clustering>
<clus scale="   78.328">  2  9  1 -1</clus>
<clus scale="   88.318">  5  6 -1 -1</clus>
<clus scale="   92.489">  7  8 -1 -1</clus>
<clus scale="  120.597">  2  5  1 -1</clus>
<clus scale="   78.328">  2  5  1 -1</clus>
</clustering>
</event>
<event>
 9    1  0.1296032E-005  0.1020362E+03  0.7546771E-02  0.1278576E+00
         -2   -1    0    0    0  501 -0.00000000000E+00  0.00000000000E+00  0.73989113185E+03  0.73989113185E+03  0.00000000000E+00 0.  1.
          2   -1    0    0  502    0  0.00000000000E+00 -0.00000000000E+00 -0.19216533974E+02  0.19216533974E+02  0.00000000000E+00 0. -1.
         23    2    1    2    0    0 -0.26320677434E+02 -0.26502324093E+02  0.44563300604E+03  0.45657097212E+03  0.92049580499E+02 0.  0.
         23    2    1    2    0    0  0.46019934329E+02  0.35384621312E+02  0.23075689643E+03  0.25326103872E+03  0.86732362501E+02 0.  0.
        -11    1    4    4    0    0 -0.23977149645E+00 -0.25537847040E+02  0.83538682428E+02  0.87355312280E+02  0.00000000000E+00 0.  1.
         11    1    4    4    0    0  0.46259705826E+02  0.60922468352E+02  0.14721821400E+03  0.16590572644E+03  0.00000000000E+00 0. -1.
        -13    1    3    3    0    0 -0.89066853059E+01 -0.60052806670E+02  0.30240904718E+03  0.30844270206E+03  0.00000000000E+00 0.  1.
         13    1    3    3    0    0 -0.17413992128E+02  0.33550482577E+02  0.14322395886E+03  0.14812827007E+03  0.00000000000E+00 0. -1.
         21    1    1    2  502  501 -0.19699256895E+02 -0.88822972193E+01  0.44284695402E+02  0.49275654972E+02  0.00000000000E+00 0. -1.
<scales pt_clust_5="13000.00000" pt_clust_6="13000.00000" pt_clust_7="13000.00000" pt_clust_8="13000.00000" pt_clust_9="21.60916"></scales>
<clustering>
<clus scale="   21.609">  2  9  1 -1</clus>
<clus scale="   86.732">  5  6 -1 -1</clus>
<clus scale="   92.050">  7  8 -1 -1</clus>
<clus scale="   97.266">  2  5  1 -1</clus>
<clus scale="   21.609">  2  5  1 -1</clus>
</clustering>
</event>
<event>
 9    1  0.1296032E-005  0.9179460E+02  0.7546771E-02  0.1298889E+00
         -1   -1    0    0    0  501 -0.00000000000E+00  0.00000000000E+00  0.93260832100E+02  0.93260832100E+02  0.00000000000E+00 0.  1.
          1   -1    0    0  502    0  0.00000000000E+00 -0.00000000000E+00 -0.22694778399E+03  0.22694778399E+03  0.00000000000E+00 0. -1.
         23    2    1    2    0    0  0.48573288945E+01  0.92408278914E+01  0.20266881766E+02  0.92540873237E+02  0.89688796284E+02 0.  0.
         23    2    1    2    0    0 -0.27644252141E+02 -0.12495564925E+02 -0.27453998458E+02  0.99090740673E+02  0.90249149783E+02 0.  0.
        -11    1    4    4    0    0 -0.58923812242E+02 -0.48178762202E+01 -0.30882918887E+02  0.66700691595E+02  0.00000000000E+00 0.  1.
         11    1    4    4    0    0  0.31279560101E+02 -0.76776887053E+01  0.34289204284E+01  0.32390049078E+02  0.00000000000E+00 0. -1.
        -13    1    3    3    0    0 -0.17690188951E+02 -0.29837620316E+02  0.30600386631E+02  0.46255918899E+02  0.00000000000E+00 0.  1.
         13    1    3    3    0    0  0.22547517845E+02  0.39078448207E+02 -0.10333504865E+02  0.46284954338E+02  0.00000000000E+00 0. -1.
         21    1    1    2  502  501  0.22786923246E+02  0.32547370341E+01 -0.12649983520E+03  0.12857700218E+03  0.00000000000E+00 0. -1.
<scales pt_clust_5="13000.00000" pt_clust_6="13000.00000" pt_clust_7="13000.00000" pt_clust_8="13000.00000" pt_clust_9="23.01819"></scales>
<clustering>
<clus scale="   23.018">  2  9  1 -1</clus>
<clus scale="   89.689">  7  8 -1 -1</clus>
<clus scale="   90.249">  5  6 -1 -1</clus>
<clus scale="   91.244">  1  7  2 -1</clus>
<clus scale="   23.018">  2  5  1 -1</clus>
</clustering>
</event>
<event>
 9    1  0.1296032E-005  0.1136625E+03  0.7546771E-02  0.1254740E+00
          2   -1    0    0  502    0  0.00000000000E+00  0.00000000000E+00  0.52242847041E+02  0.52242847041E+02  0.00000000000E+00 0. -1.
         -2   -1    0    0    0  501 -0.00000000000E+00 -0.00000000000E+00 -0.31962174188E+03  0.31962174188E+03  0.00000000000E+00 0.  1.
         23    2    1    2    0    0 -0.55928297562E+02  0.48329991744E+01 -0.12965205958E+03  0.16945509215E+03  0.93563023428E+02 0.  0.
         23    2    1    2    0    0  0.74367072008E+02  0.13782332717E+02 -0.12788626103E+03  0.17442100118E+03  0.91363974288E+02 0.  0.
        -11    1    3    3    0    0 -0.78805233199E+02  0.27524294933E+01 -0.69661100469E+02  0.10521648904E+03  0.00000000000E+00 0.  1.
         11    1    3    3    0    0  0.22876935637E+02  0.20805696811E+01 -0.59990959108E+02  0.64238603106E+02  0.00000000000E+00 0. -1.
        -13    1    4    4    0    0  0.70521353685E+02  0.46682415424E+02 -0.81745540282E+02  0.11762160767E+03  0.00000000000E+00 0. -1.
         13    1    4    4    0    0  0.38457183237E+01 -0.32900082708E+02 -0.46140720747E+02  0.56799393506E+02  0.00000000000E+00 0.  1.
         21    1    1    2  502  501 -0.18438774447E+02 -0.18615331891E+02 -0.98405742350E+01  0.27988495597E+02  0.00000000000E+00 0. -1.
<scales pt_clust_5="13000.00000" pt_clust_6="13000.00000" pt_clust_7="13000.00000" pt_clust_8="13000.00000" pt_clust_9="26.20151"></scales>
<clustering>
<clus scale="   26.202">  1  9  2 -1</clus>
<clus scale="   91.364">  7  8 -1 -1</clus>
<clus scale="   93.563">  5  6 -1 -1</clus>
<clus scale="  111.859">  1  7  2 -1</clus>
<clus scale="   26.202">  1  5  2 -1</clus>
</clustering>
</event>
<event>
 9    1  0.1296032E-005  0.9096567E+02  0.7546771E-02  0.1301317E+00
         -1   -1    0    0    0  501 -0.00000000000E+00  0.00000000000E+00  0.11085602908E+03  0.11085602908E+03  0.00000000000E+00 0.  1.
          1   -1    0    0  502    0  0.00000000000E+00 -0.00000000000E+00 -0.15529793563E+03  0.15529793563E+03  0.00000000000E+00 0. -1.
         23    2    1    2    0    0 -0.15162543589E+02 -0.43629094972E+01  0.25393468753E+02  0.94347644052E+02  0.89485819969E+02 0.  0.
         23    2    1    2    0    0 -0.21269346955E+02  0.71535165986E+01 -0.61055036373E+00  0.93530229004E+02  0.90796327272E+02 0.  0.
        -11    1    4    4    0    0  0.15806021822E+02  0.19679943281E+02  0.33274090807E+02  0.41764765202E+02  0.00000000000E+00 0.  1.
         11    1    4    4    0    0 -0.37075368777E+02 -0.12526426682E+02 -0.33884641171E+02  0.51765463802E+02  0.00000000000E+00 0. -1.
        -11    1    3    3    0    0  0.19795387369E+02 -0.33526084154E+02 -0.55133001945E+01  0.39322412932E+02  0.00000000000E+00 0. -1.
         11    1    3    3    0    0 -0.34957930958E+02  0.29163174657E+02  0.30906768948E+02  0.55025231119E+02  0.00000000000E+00 0.  1.
         21    1    1    2  502  501  0.36431890544E+02 -0.27906071015E+01 -0.69224824937E+02  0.78276091651E+02  0.00000000000E+00 0. -1.
<scales pt_clust_5="13000.00000" pt_clust_6="13000.00000" pt_clust_7="13000.00000" pt_clust_8="13000.00000" pt_clust_9="36.53861"></scales>
<clustering>
<clus scale="   36.539">  2  9  1 -1</clus>
<clus scale="   89.486">  7  8 -1 -1</clus>
<clus scale="   89.658">  1  7  2 -1</clus>
<clus scale="   90.796">  5  6 -1 -1</clus>
<clus scale="   36.539">  2  5  1 -1</clus>
</clustering>
</event>
<event>
 9    1  0.1296032E-005  0.9731092E+02  0.7546771E-02  0.1303572E+00
         -2   -1    0    0    0  501 -0.00000000000E+00  0.00000000000E+00  0.80894191453E+02  0.80894191453E+02  0.00000000000E+00 0. -1.
          2   -1    0    0  502    0  0.00000000000E+00 -0.00000000000E+00 -0.13040251343E+03  0.13040251343E+03  0.00000000000E+00 0.  1.
         23    2    1    2    0    0 -0.20011936565E+02 -0.11286120462E+01  0.13729946766E+02  0.96765671237E+02  0.93666068143E+02 0.  0.
         23    2    1    2    0    0  0.36560614225E+02 -0.10259819746E+02 -0.49135848376E+02  0.89986515496E+02  0.65125255943E+02 0.  0.
        -11    1    3    3    0    0  0.34648169551E+02  0.12906413257E+02  0.15998738208E+02  0.40286856177E+02  0.00000000000E+00 0. -1.
         11    1    3    3    0    0 -0.54660106116E+02 -0.14035025303E+02 -0.22687914427E+01  0.56478815059E+02  0.00000000000E+00 0.  1.
        -11    1    4    4    0    0  0.10954507350E+01 -0.32629470756E+02 -0.15052297541E+02  0.35950716758E+02  0.00000000000E+00 0.  1.
         11    1    4    4    0    0  0.35465163490E+02  0.22369651010E+02 -0.34083550834E+02  0.54035798737E+02  0.00000000000E+00 0. -1.
         21    1    1    2  502  501 -0.16548677660E+02  0.11388431793E+02 -0.14102420362E+02  0.24544518147E+02  0.00000000000E+00 0.  1.
<scales pt_clust_5="13000.00000" pt_clust_6="13000.00000" pt_clust_7="13000.00000" pt_clust_8="13000.00000" pt_clust_9="20.08868"></scales>
<clustering>
<clus scale="   20.089">  2  9  1 -1</clus>
<clus scale="   65.125">  7  8 -1 -1</clus>
<clus scale="   70.267">  2  7  1 -1</clus>
<clus scale="   93.666">  5  6 -1 -1</clus>
<clus scale="   20.089">  2  5  1 -1</clus>
</clustering>
</event>
<event>
 9    1  0.1296032E-005  0.1026475E+03  0.7546771E-02  0.1274871E+00
          1   -1    0    0  502    0  0.00000000000E+00  0.00000000000E+00  0.18156272305E+03  0.18156272305E+03  0.00000000000E+00 0. -1.
         -1   -1    0    0    0  501 -0.00000000000E+00 -0.00000000000E+00 -0.75602702238E+02  0.75602702238E+02  0.00000000000E+00 0.  1.
         23    2    1    2    0    0 -0.44836121487E+02 -0.23983457543E+02  0.31409910068E+02  0.10897857333E+03  0.91127728869E+02 0.  0.
         23    2    1    2    0    0  0.27684730363E+02  0.35561101357E+02  0.43022703267E+02  0.11047492445E+03  0.91228941196E+02 0.  0.
        -11    1    3    3    0    0 -0.50841349436E+02  0.23390451337E+02  0.22926188049E+02  0.60477815145E+02  0.00000000000E+00 0.  1.
         11    1    3    3    0    0  0.60052279491E+01 -0.47373908880E+02  0.84837220195E+01  0.48500758186E+02  0.00000000000E+00 0. -1.
        -11    1    4    4    0    0  0.24650971206E+01  0.47303661322E+02 -0.11960505831E+02  0.48854547158E+02  0.00000000000E+00 0.  1.
         11    1    4    4    0    0  0.25219633243E+02 -0.11742559965E+02  0.54983209098E+02  0.61620377296E+02  0.00000000000E+00 0. -1.
         21    1    1    2  502  501  0.17151391124E+02 -0.11577643814E+02  0.31527407474E+02  0.37711927500E+02  0.00000000000E+00 0. -1.
<scales pt_clust_5="13000.00000" pt_clust_6="13000.00000" pt_clust_7="13000.00000" pt_clust_8="13000.00000" pt_clust_9="20.69329"></scales>
<clustering>
<clus scale="   20.693">  1  9  2 -1</clus>
<clus scale="   91.128">  5  6 -1 -1</clus>
<clus scale="   91.229">  7  8 -1 -1</clus>
<clus scale="  102.558">  2  5  1 -1</clus>
<clus scale="   20.693">  1  5  2 -1</clus>
</clustering>
</event>
<event>
 9    1  0.1296032E-005  0.9320880E+02  0.7546771E-02  0.1295890E+00
          2   -1    0    0  502    0  0.00000000000E+00  0.00000000000E+00  0.64691625787E+03  0.64691625787E+03  0.00000000000E+00 0. -1.
         -2   -1    0    0    0  501 -0.00000000000E+00 -0.00000000000E+00 -0.58644767287E+02  0.58644767287E+02  0.00000000000E+00 0.  1.
         23    2    1    2    0    0  0.62154981241E+01 -0.17379645137E+02 -0.52675861424E+01  0.92154055449E+02  0.90132890722E+02 0.  0.
         23    2    1    2    0    0 -0.51484824640E+02  0.33658943229E+00  0.36118916949E+03  0.37607543564E+03  0.91237693270E+02 0.  0.
        -11    1    4    4    0    0 -0.30543424978E+01 -0.39924342515E+02  0.10839490371E+03  0.11555404486E+03  0.00000000000E+00 0.  1.
         11    1    4    4    0    0 -0.48430482142E+02  0.40260931947E+02  0.25279426577E+03  0.26052139077E+03  0.00000000000E+00 0. -1.
        -13    1    3    3    0    0  0.41366068808E+02 -0.33323873358E+02 -0.66371494526E+01  0.53532083250E+02  0.00000000000E+00 0.  1.
         13    1    3    3    0    0 -0.35150570683E+02  0.15944228221E+02  0.13695633102E+01  0.38621972200E+02  0.00000000000E+00 0. -1.
         21    1    1    2  502  501  0.45269326516E+02  0.17043055705E+02  0.23234990723E+03  0.23733153407E+03  0.00000000000E+00 0. -1.
<scales pt_clust_5="13000.00000" pt_clust_6="13000.00000" pt_clust_7="13000.00000" pt_clust_8="13000.00000" pt_clust_9="48.37125"></scales>
<clustering>
<clus scale="   48.371">  1  9  2 -1</clus>
<clus scale="   90.133">  7  8 -1 -1</clus>
<clus scale="   91.238">  5  6 -1 -1</clus>
<clus scale="   92.128">  2  7  1 -1</clus>
<clus scale="   48.371">  1  5  2 -1</clus>
</clustering>
</event>
<event>
 9    1  0.1296032E-005  0.1024401E+03  0.7546771E-02  0.1278225E+00
          2   -1    0    0  502    0  0.00000000000E+00  0.00000000000E+00  0.66954484717E+03  0.66954484717E+03  0.00000000000E+00 0. -1.
         -2   -1    0    0    0  501 -0.00000000000E+00 -0.00000000000E+00 -0.23245043159E+02  0.23245043159E+02  0.00000000000E+00 0.  1.
         23    2    1    2    0    0 -0.14533179046E+02  0.25342022287E+02  0.27724069730E+03  0.29506354668E+03  0.96678130700E+02 0.  0.
         23    2    1    2    0    0  0.46891065606E+02 -0.12136137159E+01  0.30853392601E+03  0.32497670157E+03  0.90644515411E+02 0.  0.
        -11    1    3    3    0    0 -0.83428533949E+01  0.62629081763E+02  0.17093328866E+03  0.18223664357E+03  0.00000000000E+00 0.  1.
         11    1    3    3    0    0 -0.61903256506E+01 -0.37287059476E+02  0.10630740863E+03  0.11282690312E+03  0.00000000000E+00 0. -1.
        -11    1    4    4    0    0 -0.12106104631E+02  0.25472320178E+02  0.41307053403E+02  0.50016692468E+02  0.00000000000E+00 0.  1.
         11    1    4    4    0    0  0.58997170236E+02 -0.26685933894E+02  0.26722687261E+03  0.27496000911E+03  0.00000000000E+00 0. -1.
         21    1    1    2  502  501 -0.32357886560E+02 -0.24128408571E+02  0.60525180708E+02  0.72749642078E+02  0.00000000000E+00 0.  1.
<scales pt_clust_5="13000.00000" pt_clust_6="13000.00000" pt_clust_7="13000.00000" pt_clust_8="13000.00000" pt_clust_9="40.36351"></scales>
<clustering>
<clus scale="   40.364">  2  9  1 -1</clus>
<clus scale="   90.645">  7  8 -1 -1</clus>
<clus scale="   96.678">  5  6 -1 -1</clus>
<clus scale="   96.766">  1  7  2 -1</clus>
<clus scale="   96.766">  1  5  2 -1</clus>
</clustering>
</event>
<event>
 9    1  0.1296032E-005  0.1057229E+03  0.7546771E-02  0.1269517E+00
         -2   -1    0    0    0  501 -0.00000000000E+00  0.00000000000E+00  0.22230078140E+03  0.22230078140E+03  0.00000000000E+00 0.  1.
          2   -1    0    0  502    0  0.00000000000E+00 -0.00000000000E+00 -0.16769915061E+03  0.16769915061E+03  0.00000000000E+00 0. -1.
         23    2    1    2    0    0 -0.23840136692E+02  0.48830795650E+02  0.18236775109E+03  0.21154170248E+03  0.92407232033E+02 0.  0.
         23    2    1    2    0    0  0.52910260782E+01 -0.26260271896E+02 -0.10659833897E+03  0.14238090960E+03  0.90507020221E+02 0.  0.
        -13    1    4    4    0    0 -0.21105484763E+02 -0.45451260196E+02 -0.95607140679E+02  0.10794435552E+03  0.00000000000E+00 0. -1.
         13    1    4    4    0    0  0.26396510841E+02  0.19190988300E+02 -0.10991198289E+02  0.34436554072E+02  0.00000000000E+00 0.  1.
        -13    1    3    3    0    0 -0.56907533586E+02  0.40747767034E+02  0.14490360495E+03  0.16092203897E+03  0.00000000000E+00 0.  1.
         13    1    3    3    0    0  0.33067396894E+02  0.80830286160E+01  0.37464146134E+02  0.50619663517E+02  0.00000000000E+00 0. -1.
         21    1    1    2  502  501  0.18549110613E+02 -0.22570523753E+02 -0.21167781330E+02  0.36077319932E+02  0.00000000000E+00 0.  1.
<scales pt_clust_5="13000.00000" pt_clust_6="13000.00000" pt_clust_7="13000.00000" pt_clust_8="13000.00000" pt_clust_9="29.21469"></scales>
<clustering>
<clus scale="   29.215">  2  9  1 -1</clus>
<clus scale="   90.507">  5  6 -1 -1</clus>
<clus scale="   92.407">  7  8 -1 -1</clus>
<clus scale="  104.066">  2  5  1 -1</clus>
<clus scale="   29.215">  2  5  1 -1</clus>
</clustering>
</event>
<event>
 9    1  0.1296032E-005  0.1071763E+03  0.7546771E-02  0.1268041E+00
         -3   -1    0    0    0  501 -0.00000000000E+00  0.00000000000E+00  0.30289211013E+03  0.30289211013E+03  0.00000000000E+00 0.  1.
          3   -1    0    0  502    0  0.00000000000E+00 -0.00000000000E+00 -0.74311427636E+02  0.74311427636E+02  0.00000000000E+00 0. -1.
         23    2    1    2    0    0  0.36605401489E+02 -0.53810302270E+02  0.18215438033E+03  0.21584164739E+03  0.95770007979E+02 0.  0.
         23    2    1    2    0    0  0.17376844655E+01  0.90563432095E+01  0.94457944940E+01  0.91786988006E+02  0.90832765201E+02 0.  0.
        -11    1    3    3    0    0  0.11581480928E+01 -0.71446053137E+02  0.14450423730E+03  0.16120593790E+03  0.00000000000E+00 0. -1.
         11    1    3    3    0    0  0.35447253396E+02  0.17635750867E+02  0.37650143025E+02  0.54635709492E+02  0.00000000000E+00 0.  1.
        -13    1    4    4    0    0  0.35466699160E+02 -0.65784887409E+01  0.32070872926E+02  0.48267008957E+02  0.00000000000E+00 0.  1.
         13    1    4    4    0    0 -0.33729014695E+02  0.15634831950E+02 -0.22625078432E+02  0.43519979049E+02  0.00000000000E+00 0. -1.
         21    1    1    2  502  501 -0.38343085954E+02  0.44753959060E+02  0.36980507677E+02  0.69574902372E+02  0.00000000000E+00 0.  1.
<scales pt_clust_5="13000.00000" pt_clust_6="13000.00000" pt_clust_7="13000.00000" pt_clust_8="13000.00000" pt_clust_9="58.93309"></scales>
<clustering>
<clus scale="   58.933">  2  9  1 -1</clus>
<clus scale="   90.833">  7  8 -1 -1</clus>
<clus scale="   95.770">  5  6 -1 -1</clus>
<clus scale="  102.788">  2  7  1 -1</clus>
<clus scale="   58.933">  2  5  1 -1</clus>
</clustering>
</event>
<event>
 9    1  0.1296032E-005  0.1051413E+03  0.7546771E-02  0.1270287E+00
          2   -1    0    0  502    0  0.00000000000E+00  0.00000000000E+00  0.21232020210E+03  0.21232020210E+03  0.00000000000E+00 0. -1.
         -2   -1    0    0    0  501 -0.00000000000E+00 -0.00000000000E+00 -0.16960231070E+03  0.16960231070E+03  0.00000000000E+00 0.  1.
         23    2    1    2    0    0  0.97173264457E+01  0.11726261133E+02 -0.35558968266E+02  0.10025635155E+03  0.92493049295E+02 0.  0.
         23    2    1    2    0    0  0.62723328171E+02  0.30087513841E+02  0.13748704759E+03  0.17918744847E+03  0.91465726079E+02 0.  0.
        -13    1    4    4    0    0  0.34500954435E+02 -0.17298423038E+02  0.93888006131E+01  0.39720282898E+02  0.00000000000E+00 0.  1.
         13    1    4    4    0    0  0.28222373735E+02  0.47385936879E+02  0.12809824698E+03  0.13946716557E+03  0.00000000000E+00 0. -1.
        -13    1    3    3    0    0 -0.32770158384E+02 -0.22907878449E+01  0.11988266883E+02  0.34969265539E+02  0.00000000000E+00 0.  1.
         13    1    3    3    0    0  0.42487484829E+02  0.14017048978E+02 -0.47547235149E+02  0.65287086008E+02  0.00000000000E+00 0. -1.
         21    1    1    2  502  501 -0.72440654617E+02 -0.41813774974E+02 -0.59210187926E+02  0.10247871278E+03  0.00000000000E+00 0.  1.
<scales pt_clust_5="13000.00000" pt_clust_6="13000.00000" pt_clust_7="13000.00000" pt_clust_8="13000.00000" pt_clust_9="83.64234"></scales>
<clustering>
<clus scale="   83.642">  2  9  1 -1</clus>
<clus scale="   91.466">  5  6 -1 -1</clus>
<clus scale="   92.493">  7  8 -1 -1</clus>
<clus scale="  104.239">  1  5  2 -1</clus>
<clus scale="  104.239">  1  5  2 -1</clus>
</clustering>
</event>
<event>
 9    1  0.1296032E-005  0.9579628E+02  0.7546771E-02  0.1297195E+00
          3   -1    0    0  502    0  0.00000000000E+00  0.00000000000E+00  0.43177784066E+02  0.43177784066E+02  0.00000000000E+00 0. -1.
         -3   -1    0    0    0  501 -0.00000000000E+00 -0.00000000000E+00 -0.37745859292E+03  0.37745859292E+03  0.00000000000E+00 0.  1.
         23    2    1    2    0    0 -0.31584166802E+02 -0.81368824249E+01 -0.23128896089E+03  0.25183796775E+03  0.94148872137E+02 0.  0.
         23    2    1    2    0    0 -0.83451626841E+01  0.10350478734E+02 -0.99080197452E+02  0.12861691634E+03  0.80923738739E+02 0.  0.
        -11    1    3    3    0    0 -0.34176247350E+02  0.29872255145E+02 -0.19127959928E+03  0.19659158835E+03  0.00000000000E+00 0.  1.
         11    1    3    3    0    0  0.25920805483E+01 -0.38009137570E+02 -0.40009361606E+02  0.55246379398E+02  0.00000000000E+00 0. -1.
        -13    1    4    4    0    0 -0.25944902193E+02 -0.27472553653E+02 -0.62990686590E+02  0.73455467810E+02  0.00000000000E+00 0. -1.
         13    1    4    4    0    0  0.17599739509E+02  0.37823032387E+02 -0.36089510862E+02  0.55161448531E+02  0.00000000000E+00 0.  1.
         21    1    1    2  502  501  0.39929329486E+02 -0.22135963091E+01 -0.39116505188E+01  0.40181492899E+02  0.00000000000E+00 0.  1.
<scales pt_clust_5="13000.00000" pt_clust_6="13000.00000" pt_clust_7="13000.00000" pt_clust_8="13000.00000" pt_clust_9="39.99064"></scales>
<clustering>
<clus scale="   39.991">  1  9  2 -1</clus>
<clus scale="   80.924">  7  8 -1 -1</clus>
<clus scale="   82.835">  1  7  2 -1</clus>
<clus scale="   94.149">  5  6 -1 -1</clus>
<clus scale="   39.991">  1  5  2 -1</clus>
</clustering>
</event>
<event>
 9    1  0.1296032E-005  0.1075138E+03  0.7546771E-02  0.1272849E+00
         -3   -1    0    0    0  501 -0.00000000000E+00  0.00000000000E+00  0.37299664302E+03  0.37299664302E+03  0.00000000000E+00 0.  1.
          3   -1    0    0  502    0  0.00000000000E+00 -0.00000000000E+00 -0.18152990924E+03  0.18152990924E+03  0.00000000000E+00 0. -1.
         23    2    1    2    0    0 -0.10054812853E+02  0.10389973663E+02  0.30093845393E+03  0.31914690817E+03  0.10526986807E+03 0.  0.
         23    2    1    2    0    0  0.34675540919E+02 -0.65669652126E+02 -0.78244764317E+01  0.11708262276E+03  0.90178832172E+02 0.  0.
        -11    1    4    4    0    0 -0.16166788183E+02 -0.61071284220E+02 -0.16516097993E+02  0.65298149203E+02  0.00000000000E+00 0.  1.
         11    1    4    4    0    0  0.50842329102E+02 -0.45983679054E+01  0.86916215613E+01  0.51784473554E+02  0.00000000000E+00 0. -1.
        -13    1    3    3    0    0  0.93647290667E+01  0.52206815133E+02  0.10235499804E+03  0.11528137456E+03  0.00000000000E+00 0.  1.
         13    1    3    3    0    0 -0.19419541920E+02 -0.41816841470E+02  0.19858345589E+03  0.20386553361E+03  0.00000000000E+00 0. -1.
         21    1    1    2  502  501 -0.24620728066E+02  0.55279678463E+02 -0.10164724372E+03  0.11829702133E+03  0.00000000000E+00 0. -1.
<scales pt_clust_5="13000.00000" pt_clust_6="13000.00000" pt_clust_7="13000.00000" pt_clust_8="13000.00000" pt_clust_9="60.51465"></scales>
<clustering>
<clus scale="   60.515">  2  9  1 -1</clus>
<clus scale="   90.179">  5  6 -1 -1</clus>
<clus scale="   92.788">  2  5  1 -1</clus>
<clus scale="  105.270">  7  8 -1 -1</clus>
<clus scale="   60.515">  2  5  1 -1</clus>
</clustering>
</event>
<event>
 9    1  0.1296032E-005  0.1183702E+03  0.7546771E-02  0.1247070E+00
          1   -1    0    0  502    0  0.00000000000E+00  0.00000000000E+00  0.58875646152E+03  0.58875646152E+03  0.00000000000E+00 0. -1.
         -1   -1    0    0    0  501 -0.00000000000E+00 -0.00000000000E+00 -0.49867522590E+02  0.49867522590E+02  0.00000000000E+00 0.  1.
         23    2    1    2    0    0  0.61868938140E+02 -0.48091095518E+02  0.50356812793E+02  0.13217035945E+03  0.93769271875E+02 0.  0.
         23    2    1    2    0    0 -0.39189628480E+02  0.25378631143E+02  0.37659161377E+03  0.39000240983E+03  0.90004078889E+02 0.  0.
        -11    1    4    4    0    0 -0.67587829787E+02  0.10258697422E+02  0.27859428567E+03  0.28685907972E+03  0.00000000000E+00 0. -1.
         11    1    4    4    0    0  0.28398201308E+02  0.15119933721E+02  0.97997328097E+02  0.10314333012E+03  0.00000000000E+00 0.  1.
        -13    1    3    3    0    0  0.24572942929E+02  0.26647588874E+02  0.27711972671E+02  0.45627589749E+02  0.00000000000E+00 0. -1.
         13    1    3    3    0    0  0.37295995211E+02 -0.74738684392E+02  0.22644840122E+02  0.86542769702E+02  0.00000000000E+00 0.  1.
         21    1    1    2  502  501 -0.22679309661E+02  0.22712464375E+02  0.11194051237E+03  0.11645121483E+03  0.00000000000E+00 0. -1.
<scales pt_clust_5="13000.00000" pt_clust_6="13000.00000" pt_clust_7="13000.00000" pt_clust_8="13000.00000" pt_clust_9="32.09684"></scales>
<clustering>
<clus scale="   32.097">  1  9  2 -1</clus>
<clus scale="   90.004">  5  6 -1 -1</clus>
<clus scale="   93.769">  7  8 -1 -1</clus>
<clus scale="  115.410">  1  5  2 -1</clus>
<clus scale="   32.097">  1  5  2 -1</clus>
</clustering>
</event>
<event>
 9    1  0.1296032E-005  0.2498860E+03  0.7546771E-02  0.1113430E+00
         -1   -1    0    0    0  501 -0.00000000000E+00  0.00000000000E+00  0.35632400807E+03  0.35632400807E+03  0.00000000000E+00 0.  1.
          1   -1    0    0  502    0  0.00000000000E+00 -0.00000000000E+00 -0.34960984782E+03  0.34960984782E+03  0.00000000000E+00 0. -1.
         23    2    1    2    0    0 -0.17563908774E+03 -0.14487957876E+03  0.21729141065E+03  0.32764978125E+03  0.91102362921E+02 0.  0.
         23    2    1    2    0    0  0.17918373648E+03  0.18319463651E+03 -0.20155893485E+03  0.33876271079E+03  0.92016757921E+02 0.  0.
        -11    1    4    4    0    0  0.82891559111E+02  0.46199347298E+02 -0.11858709305E+03  0.15188248385E+03  0.00000000000E+00 0.  1.
         11    1    4    4    0    0  0.96292177370E+02  0.13699528921E+03 -0.82971841798E+02  0.18688022694E+03  0.00000000000E+00 0. -1.
        -13    1    3    3    0    0 -0.15736740362E+03 -0.13035133956E+03  0.22415565443E+03  0.30331786769E+03  0.00000000000E+00 0.  1.
         13    1    3    3    0    0 -0.18271684123E+02 -0.14528239194E+02 -0.68642437842E+01  0.24331913560E+02  0.00000000000E+00 0. -1.
         21    1    1    2  502  501 -0.35446487391E+01 -0.38315057754E+02 -0.90183155486E+01  0.39521363852E+02  0.00000000000E+00 0.  1.
<scales pt_clust_5="13000.00000" pt_clust_6="13000.00000" pt_clust_7="13000.00000" pt_clust_8="13000.00000" pt_clust_9="38.47867"></scales>
<clustering>
<clus scale="   38.479">  2  9  1 -1</clus>
<clus scale="   91.102">  7  8 -1 -1</clus>
<clus scale="   92.017">  5  6 -1 -1</clus>
<clus scale="  249.551">  1  7  2 -1</clus>
<clus scale="   38.479">  2  5  1 -1</clus>
</clustering>
</event>
<event>
 9    1  0.1296032E-005  0.1015054E+03  0.7546771E-02  0.1278473E+00
         -2   -1    0    0    0  501 -0.00000000000E+00  0.00000000000E+00  0.38202633188E+02  0.38202633188E+02  0.00000000000E+00 0.  1.
          2   -1    0    0  502    0  0.00000000000E+00 -0.00000000000E+00 -0.48103675741E+03  0.48103675741E+03  0.00000000000E+00 0. -1.
         23    2    1    2    0    0 -0.57793119231E+02  0.36505495950E+01 -0.11726799981E+03  0.15910607679E+03  0.90606780923E+02 0.  0.
         23    2    1    2    0    0  0.20709581475E+02  0.26926576486E+01 -0.13239050669E+03  0.16332822157E+03  0.93341976237E+02 0.  0.
        -11    1    4    4    0    0  0.42050272146E+01  0.47545349084E+02 -0.61965202138E+02  0.78217189603E+02  0.00000000000E+00 0.  1.
         11    1    4    4    0    0  0.16504554260E+02 -0.44852691435E+02 -0.70425304555E+02  0.85111031964E+02  0.00000000000E+00 0. -1.
        -13    1    3    3    0    0 -0.64094892390E+02 -0.22693238397E+02 -0.11272067111E+03  0.13163999390E+03  0.00000000000E+00 0. -1.
         13    1    3    3    0    0  0.63017731587E+01  0.26343787992E+02 -0.45473286967E+01  0.27466082884E+02  0.00000000000E+00 0.  1.
         21    1    1    2  502  501  0.37083537756E+02 -0.63432072436E+01 -0.19317561772E+03  0.19680509224E+03  0.00000000000E+00 0. -1.
<scales pt_clust_5="13000.00000" pt_clust_6="13000.00000" pt_clust_7="13000.00000" pt_clust_8="13000.00000" pt_clust_9="37.62214"></scales>
<clustering>
<clus scale="   37.622">  2  9  1 -1</clus>
<clus scale="   90.607">  7  8 -1 -1</clus>
<clus scale="   93.342">  5  6 -1 -1</clus>
<clus scale="   98.996">  1  7  2 -1</clus>
<clus scale="   37.622">  2  5  1 -1</clus>
</clustering>
</event>
<event>
 9    1  0.1296032E-005  0.1047311E+03  0.7546771E-02  0.1271549E+00
         -1   -1    0    0    0  501 -0.00000000000E+00  0.00000000000E+00  0.29105327675E+03  0.29105327675E+03  0.00000000000E+00 0.  1.
          1   -1    0    0  502    0  0.00000000000E+00 -0.00000000000E+00 -0.51609103395E+02  0.51609103395E+02  0.00000000000E+00 0. -1.
         23    2    1    2    0    0 -0.15056134918E+02 -0.46194826038E+02  0.12406631706E+03  0.16102657697E+03  0.90423770721E+02 0.  0.
         23    2    1    2    0    0  0.44634184831E+02  0.33378148258E+02  0.86201419894E+02  0.13815715661E+03  0.92468394024E+02 0.  0.
        -13    1    4    4    0    0 -0.99784653692E+00  0.40140649662E+02 -0.26602141198E+00  0.40153931568E+02  0.00000000000E+00 0. -1.
         13    1    4    4    0    0  0.45632031368E+02 -0.67625014038E+01  0.86467441306E+02  0.98003225039E+02  0.00000000000E+00 0.  1.
        -13    1    3    3    0    0 -0.41915078565E+02 -0.44274013737E+02  0.40411523566E+02  0.73144742397E+02  0.00000000000E+00 0.  1.
         13    1    3    3    0    0  0.26858943647E+02 -0.19208123013E+01  0.83654793494E+02  0.87881834575E+02  0.00000000000E+00 0. -1.
         21    1    1    2  502  501 -0.29578049913E+02  0.12816677780E+02  0.29176436400E+02  0.43478646564E+02  0.00000000000E+00 0. -1.
<scales pt_clust_5="13000.00000" pt_clust_6="13000.00000" pt_clust_7="13000.00000" pt_clust_8="13000.00000" pt_clust_9="32.23551"></scales>
<clustering>
<clus scale="   32.236">  2  9  1 -1</clus>
<clus scale="   90.424">  7  8 -1 -1</clus>
<clus scale="   92.468">  5  6 -1 -1</clus>
<clus scale="  102.930">  1  7  2 -1</clus>
<clus scale="   32.236">  2  5  1 -1</clus>
</clustering>
</event>
<event>
 9    1  0.1296032E-005  0.1002983E+03  0.7546771E-02  0.1281406E+00
          1   -1    0    0  502    0  0.00000000000E+00  0.00000000000E+00  0.41877575196E+03  0.41877575196E+03  0.00000000000E+00 0. -1.
         -1   -1    0    0    0  501 -0.00000000000E+00 -0.00000000000E+00 -0.15892555740E+03  0.15892555740E+03  0.00000000000E+00 0.  1.
         23    2    1    2    0    0  0.25736278539E+02  0.25828500038E+02 -0.13128760621E+03  0.16496034761E+03  0.92983941030E+02 0.  0.
         23    2    1    2    0    0 -0.38343420702E+02 -0.41799571002E+02  0.27237819626E+03  0.29225088413E+03  0.89461027445E+02 0.  0.
        -11    1    4    4    0    0 -0.46886905034E+02 -0.19612650102E+01  0.60898819074E+02  0.76882342503E+02  0.00000000000E+00 0.  1.
         11    1    4    4    0    0  0.85434843324E+01 -0.39838305992E+02  0.21147937718E+03  0.21536854163E+03  0.00000000000E+00 0. -1.
        -13    1    3    3    0    0  0.13282382062E+02  0.60813323286E+02 -0.90004442430E+02  0.10943254369E+03  0.00000000000E+00 0.  1.
         13    1    3    3    0    0  0.12453896478E+02 -0.34984823248E+02 -0.41283163784E+02  0.55527803911E+02  0.00000000000E+00 0. -1.
         21    1    1    2  502  501  0.12607142163E+02  0.15971070964E+02  0.11875960452E+03  0.12049007763E+03  0.00000000000E+00 0. -1.
<scales pt_clust_5="13000.00000" pt_clust_6="13000.00000" pt_clust_7="13000.00000" pt_clust_8="13000.00000" pt_clust_9="20.34736"></scales>
<clustering>
<clus scale="   20.347">  1  9  2 -1</clus>
<clus scale="   89.461">  5  6 -1 -1</clus>
<clus scale="   92.984">  7  8 -1 -1</clus>
<clus scale="   97.041">  1  5  2 -1</clus>
<clus scale="   20.347">  1  5  2 -1</clus>
</clustering>
</event>
<event>
 9    1  0.1296032E-005  0.1058651E+03  0.7546771E-02  0.1268521E+00
          1   -1    0    0  502    0  0.00000000000E+00  0.00000000000E+00  0.25061241192E+03  0.25061241192E+03  0.00000000000E+00 0. -1.
         -1   -1    0    0    0  501 -0.00000000000E+00 -0.00000000000E+00 -0.67861856993E+02  0.67861856993E+02  0.00000000000E+00 0.  1.
         23    2    1    2    0    0 -0.15637023205E+02  0.36764968754E+02  0.39521209122E+02  0.10746677256E+03  0.91602411605E+02 0.  0.
         23    2    1    2    0    0  0.35142554162E+02 -0.66699352475E+02  0.10345267766E+03  0.15754053090E+03  0.91830058400E+02 0.  0.
        -11    1    4    4    0    0  0.15773719535E+01 -0.81420002820E+02  0.79160504063E+02  0.11356975991E+03  0.00000000000E+00 0. -1.
         11    1    4    4    0    0  0.33565182209E+02  0.14720650345E+02  0.24292173600E+02  0.43970770990E+02  0.00000000000E+00 0.  1.
        -13    1    3    3    0    0  0.13765317583E+02  0.54264325136E+02  0.10659800740E+01  0.55993189445E+02  0.00000000000E+00 0.  1.
         13    1    3    3    0    0 -0.29402340788E+02 -0.17499356382E+02  0.38455229048E+02  0.51473583115E+02  0.00000000000E+00 0. -1.
         21    1    1    2  502  501 -0.19505530957E+02  0.29934383721E+02  0.39776668138E+02  0.53466965453E+02  0.00000000000E+00 0.  1.
<scales pt_clust_5="13000.00000" pt_clust_6="13000.00000" pt_clust_7="13000.00000" pt_clust_8="13000.00000" pt_clust_9="35.72860"></scales>
<clustering>
<clus scale="   35.729">  1  9  2 -1</clus>
<clus scale="   91.602">  7  8 -1 -1</clus>
<clus scale="   91.830">  5  6 -1 -1</clus>
<clus scale="  105.668">  2  7  1 -1</clus>
<clus scale="   35.729">  1  5  2 -1</clus>
</clustering>
</event>
<event>
 9    1  0.1296032E-005  0.1625586E+03  0.7546771E-02  0.1186419E+00
          1   -1    0    0  502    0  0.00000000000E+00  0.00000000000E+00  0.51655737551E+03  0.51655737551E+03  0.00000000000E+00 0. -1.
         -1   -1    0    0    0  501 -0.00000000000E+00 -0.00000000000E+00 -0.80565222304E+02  0.80565222304E+02  0.00000000000E+00 0.  1.
         23    2    1    2    0    0  0.10447867340E+03 -0.90116610490E+02  0.48901172381E+02  0.17264527147E+03  0.91532881628E+02 0.  0.
         23    2    1    2    0    0 -0.83500502760E+02  0.91589362783E+02  0.32083872508E+03  0.35496751384E+03  0.87769602013E+02 0.  0.
        -11    1    4    4    0    0  0.32643586881E+01  0.42637117548E+02  0.46856774176E+02  0.63436086864E+02  0.00000000000E+00 0.  1.
         11    1    4    4    0    0 -0.86764861448E+02  0.48952245235E+02  0.27398195091E+03  0.29153142698E+03  0.00000000000E+00 0. -1.
        -13    1    3    3    0    0  0.59917612224E+02 -0.27790443990E+02 -0.20615148281E+02  0.69191136502E+02  0.00000000000E+00 0. -1.
         13    1    3    3    0    0  0.44561061174E+02 -0.62326166499E+02  0.69516320661E+02  0.10345413497E+03  0.00000000000E+00 0.  1.
         21    1    1    2  502  501 -0.20978170638E+02 -0.14727522934E+01  0.66252255749E+02  0.69509812505E+02  0.00000000000E+00 0.  1.
<scales pt_clust_5="13000.00000" pt_clust_6="13000.00000" pt_clust_7="13000.00000" pt_clust_8="13000.00000" pt_clust_9="21.02980"></scales>
<clustering>
<clus scale="   21.030">  1  9  2 -1</clus>
<clus scale="   87.770">  5  6 -1 -1</clus>
<clus scale="   91.533">  7  8 -1 -1</clus>
<clus scale="  160.470">  1  5  2 -1</clus>
<clus scale="   21.030">  1  5  2 -1</clus>
</clustering>
</event>
<event>
 9    1  0.1296032E-005  0.9263888E+02  0.7546771E-02  0.1316511E+00
         -2   -1    0    0    0  501 -0.00000000000E+00  0.00000000000E+00  0.64500461054E+02  0.64500461054E+02  0.00000000000E+00 0.  1.
          2   -1    0    0  502    0  0.00000000000E+00 -0.00000000000E+00 -0.30984841626E+03  0.30984841626E+03  0.00000000000E+00 0. -1.
         23    2    1    2    0    0  0.52933855842E+01  0.39436868547E+01  0.29903272228E+02  0.71145861726E+02  0.64218029819E+02 0.  0.
         23    2    1    2    0    0  0.15138420389E+02 -0.18332311723E+01 -0.15456154608E+03  0.18077788784E+03  0.92514002710E+02 0.  0.
        -11    1    3    3    0    0  0.32583755848E+02 -0.51179383459E+01  0.26260627486E+02  0.42160585789E+02  0.00000000000E+00 0.  1.
         11    1    3    3    0    0 -0.27290370264E+02  0.90616252006E+01  0.36426447421E+01  0.28985275937E+02  0.00000000000E+00 0. -1.
        -13    1    4    4    0    0  0.48797556802E+02 -0.13541471476E+02 -0.53731392003E+02  0.73835191381E+02  0.00000000000E+00 0.  1.
         13    1    4    4    0    0 -0.33659136413E+02  0.11708240303E+02 -0.10083015408E+03  0.10694269646E+03  0.00000000000E+00 0. -1.
         21    1    1    2  502  501 -0.20431805973E+02 -0.21104556824E+01 -0.12068968135E+03  0.12242512775E+03  0.00000000000E+00 0. -1.
<scales pt_clust_5="13000.00000" pt_clust_6="13000.00000" pt_clust_7="13000.00000" pt_clust_8="13000.00000" pt_clust_9="20.54051"></scales>
<clustering>
<clus scale="   20.541">  2  9  1 -1</clus>
<clus scale="   64.218">  5  6 -1 -1</clus>
<clus scale="   64.398">  1  5  2 -1</clus>
<clus scale="   92.514">  7  8 -1 -1</clus>
<clus scale="   20.541">  2  5  1 -1</clus>
</clustering>
</event>
<event>
 9    1  0.1296032E-005  0.1687877E+03  0.7546771E-02  0.1179359E+00
          2   -1    0    0  502    0  0.00000000000E+00  0.00000000000E+00  0.77878513667E+03  0.77878513667E+03  0.00000000000E+00 0.  1.
         -2   -1    0    0    0  501 -0.00000000000E+00 -0.00000000000E+00 -0.75460598793E+02  0.75460598793E+02  0.00000000000E+00 0. -1.
         23    2    1    2    0    0  0.64425102130E+02 -0.12163459767E+03  0.55778707767E+02  0.17427165480E+03  0.91179911671E+02 0.  0.
         23    2    1    2    0    0 -0.65739544227E+02  0.14224161984E+03  0.52493342092E+03  0.55563510846E+03  0.92848862498E+02 0.  0.
        -11    1    3    3    0    0 -0.15309205847E+02 -0.66159732369E+02  0.20602081412E+02  0.70964270794E+02  0.00000000000E+00 0. -1.
         11    1    3    3    0    0  0.79734307977E+02 -0.55474865298E+02  0.35176626355E+02  0.10330738401E+03  0.00000000000E+00 0.  1.
        -13    1    4    4    0    0 -0.44468823828E+02  0.24705027463E+02  0.26128717573E+03  0.26619316835E+03  0.00000000000E+00 0.  1.
         13    1    4    4    0    0 -0.21270720398E+02  0.11753659238E+03  0.26364624519E+03  0.28944194011E+03  0.00000000000E+00 0. -1.
         21    1    1    2  502  501  0.13144420963E+01 -0.20607022172E+02  0.12261240919E+03  0.12433897220E+03  0.00000000000E+00 0.  1.
<scales pt_clust_5="13000.00000" pt_clust_6="13000.00000" pt_clust_7="13000.00000" pt_clust_8="13000.00000" pt_clust_9="20.64890"></scales>
<clustering>
<clus scale="   20.649">  1  9  2 -1</clus>
<clus scale="   91.180">  5  6 -1 -1</clus>
<clus scale="   92.849">  7  8 -1 -1</clus>
<clus scale="  167.875">  2  5  1 -1</clus>
<clus scale="   20.649">  1  5  2 -1</clus>
</clustering>
</event>
<event>
 9    1  0.1296032E-005  0.1094092E+03  0.7546771E-02  0.1261695E+00
         -2   -1    0    0    0  501 -0.00000000000E+00  0.00000000000E+00  0.73073594449E+02  0.73073594449E+02  0.00000000000E+00 0.  1.
          2   -1    0    0  502    0  0.00000000000E+00 -0.00000000000E+00 -0.45186650470E+03  0.45186650470E+03  0.00000000000E+00 0. -1.
         23    2    1    2    0    0 -0.36958419205E+02 -0.48066938868E+02 -0.65276930495E+01  0.10948697473E+03  0.90930916068E+02 0.  0.
         23    2    1    2    0    0  0.11500087519E+02  0.65877231126E+02 -0.13398940922E+03  0.17516019104E+03  0.90861813476E+02 0.  0.
        -13    1    3    3    0    0  0.19649275655E+02 -0.28350267123E+02  0.24190906235E+02  0.42131124175E+02  0.00000000000E+00 0.  1.
         13    1    3    3    0    0 -0.56607694861E+02 -0.19716671745E+02 -0.30718599285E+02  0.67355850556E+02  0.00000000000E+00 0. -1.
        -13    1    4    4    0    0 -0.38661000308E+02  0.31322516641E+02 -0.77430084788E+02  0.92039073354E+02  0.00000000000E+00 0.  1.
         13    1    4    4    0    0  0.50161087827E+02  0.34554714485E+02 -0.56559324431E+02  0.83121117685E+02  0.00000000000E+00 0. -1.
         21    1    1    2  502  501  0.25458331686E+02 -0.17810292257E+02 -0.23827580798E+03  0.24029293338E+03  0.00000000000E+00 0.  1.
<scales pt_clust_5="13000.00000" pt_clust_6="13000.00000" pt_clust_7="13000.00000" pt_clust_8="13000.00000" pt_clust_9="31.06981"></scales>
<clustering>
<clus scale="   31.070">  2  9  1 -1</clus>
<clus scale="   90.862">  7  8 -1 -1</clus>
<clus scale="   90.931">  5  6 -1 -1</clus>
<clus scale="  109.352">  2  7  1 -1</clus>
<clus scale="   31.070">  2  5  1 -1</clus>
</clustering>
</event>
<event>
 9    1  0.1296032E-005  0.1092632E+03  0.7546771E-02  0.1262647E+00
         -3   -1    0    0    0  501 -0.00000000000E+00  0.00000000000E+00  0.36542339963E+03  0.36542339963E+03  0.00000000000E+00 0.  1.
          3   -1    0    0  502    0  0.00000000000E+00 -0.00000000000E+00 -0.11808613914E+03  0.11808613914E+03  0.00000000000E+00 0. -1.
         23    2    1    2    0    0  0.60490658259E+02  0.22789911681E+02  0.25518615549E+03  0.27909295394E+03  0.92706003986E+02 0.  0.
         23    2    1    2    0    0 -0.32978131528E+02  0.57373916465E+02 -0.30810509406E+02  0.11660762056E+03  0.90932536715E+02 0.  0.
        -11    1    3    3    0    0 -0.22146303787E+02  0.19761491891E+02  0.54951880028E+02  0.62455459744E+02  0.00000000000E+00 0. -1.
         11    1    3    3    0    0  0.82636962046E+02  0.30284197900E+01  0.20023427546E+03  0.21663749420E+03  0.00000000000E+00 0.  1.
        -11    1    4    4    0    0 -0.63303492387E+02  0.26505329334E+02 -0.13185899924E+02  0.69883707603E+02  0.00000000000E+00 0. -1.
         11    1    4    4    0    0  0.30325360859E+02  0.30868587131E+02 -0.17624609482E+02  0.46723912958E+02  0.00000000000E+00 0.  1.
         21    1    1    2  502  501 -0.27512526731E+02 -0.80163828146E+02  0.22961614411E+02  0.87808964272E+02  0.00000000000E+00 0. -1.
<scales pt_clust_5="13000.00000" pt_clust_6="13000.00000" pt_clust_7="13000.00000" pt_clust_8="13000.00000" pt_clust_9="84.75363"></scales>
<clustering>
<clus scale="   84.754">  2  9  1 -1</clus>
<clus scale="   90.933">  7  8 -1 -1</clus>
<clus scale="   92.706">  5  6 -1 -1</clus>
<clus scale="  107.763">  2  7  1 -1</clus>
<clus scale="   84.754">  2  5  1 -1</clus>
</clustering>
</event>
<event>
 9    1  0.1296032E-005  0.1178650E+03  0.7546771E-02  0.1247945E+00
         -1   -1    0    0    0  501 -0.00000000000E+00  0.00000000000E+00  0.13422134643E+03  0.13422134643E+03  0.00000000000E+00 0.  1.
          1   -1    0    0  502    0  0.00000000000E+00 -0.00000000000E+00 -0.21738656689E+03  0.21738656689E+03  0.00000000000E+00 0. -1.
         23    2    1    2    0    0 -0.26578529014E+02  0.66996032656E+02  0.61999739601E+02  0.13375700209E+03  0.94085499956E+02 0.  0.
         23    2    1    2    0    0  0.63460483247E+02 -0.43876406329E+02 -0.11014246527E+03  0.16198168168E+03  0.90301332089E+02 0.  0.
        -13    1    3    3    0    0  0.10805067047E+01  0.81621216045E+02  0.25147062325E+02  0.85414080496E+02  0.00000000000E+00 0.  1.
         13    1    3    3    0    0 -0.27659035718E+02 -0.14625183389E+02  0.36852677276E+02  0.48342921596E+02  0.00000000000E+00 0. -1.
        -13    1    4    4    0    0  0.40928061720E+02 -0.71424492171E+01 -0.11137315892E+03  0.11887010282E+03  0.00000000000E+00 0. -1.
         13    1    4    4    0    0  0.22532421527E+02 -0.36733957112E+02  0.12306936452E+01  0.43111578860E+02  0.00000000000E+00 0.  1.
         21    1    1    2  502  501 -0.36881954233E+02 -0.23119626328E+02 -0.35022494781E+02  0.55869229548E+02  0.00000000000E+00 0. -1.
<scales pt_clust_5="13000.00000" pt_clust_6="13000.00000" pt_clust_7="13000.00000" pt_clust_8="13000.00000" pt_clust_9="43.52925"></scales>
<clustering>
<clus scale="   43.529">  2  9  1 -1</clus>
<clus scale="   90.301">  7  8 -1 -1</clus>
<clus scale="   94.085">  5  6 -1 -1</clus>
<clus scale="  114.867">  2  7  1 -1</clus>
<clus scale="   43.529">  2  5  1 -1</clus>
</clustering>
</event>
<event>
 9    1  0.1296032E-005  0.9408669E+02  0.7546771E-02  0.1294946E+00
          1   -1    0    0  502    0  0.00000000000E+00  0.00000000000E+00  0.80704023213E+03  0.80704023213E+03  0.00000000000E+00 0. -1.
         -1   -1    0    0    0  501 -0.00000000000E+00 -0.00000000000E+00 -0.25885249283E+02  0.25885249283E+02  0.00000000000E+00 0.  1.
         23    2    1    2    0    0 -0.11805690210E+02  0.84576287919E+01  0.13733522813E+03  0.16658925676E+03  0.93167106724E+02 0.  0.
         23    2    1    2    0    0 -0.51924675504E+02 -0.16700200841E+02  0.34793482924E+03  0.36355348302E+03  0.90207654793E+02 0.  0.
        -11    1    3    3    0    0 -0.27622252578E+02  0.45741245478E+02  0.70870003373E+02  0.88757015235E+02  0.00000000000E+00 0. -1.
         11    1    3    3    0    0  0.15816562369E+02 -0.37283616686E+02  0.66465224756E+02  0.77832241521E+02  0.00000000000E+00 0.  1.
        -11    1    4    4    0    0 -0.98204379514E+01 -0.47688345855E+02  0.11607596922E+03  0.12587394474E+03  0.00000000000E+00 0.  1.
         11    1    4    4    0    0 -0.42104237552E+02  0.30988145014E+02  0.23185886001E+03  0.23767953828E+03  0.00000000000E+00 0. -1.
         21    1    1    2  502  501  0.63730365714E+02  0.82425720492E+01  0.29588492548E+03  0.30278274164E+03  0.00000000000E+00 0. -1.
<scales pt_clust_5="13000.00000" pt_clust_6="13000.00000" pt_clust_7="13000.00000" pt_clust_8="13000.00000" pt_clust_9="64.26118"></scales>
<clustering>
<clus scale="   64.261">  1  9  2 -1</clus>
<clus scale="   90.208">  7  8 -1 -1</clus>
<clus scale="   91.157">  1  7  2 -1</clus>
<clus scale="   93.167">  5  6 -1 -1</clus>
<clus scale="   64.261">  1  5  2 -1</clus>
</clustering>
</event>
<event>
 9    1  0.1296032E-005  0.1214787E+03  0.7546771E-02  0.1240779E+00
         -3   -1    0    0    0  501 -0.00000000000E+00  0.00000000000E+00  0.82356666807E+02  0.82356666807E+02  0.00000000000E+00 0.  1.
          3   -1    0    0  502    0  0.00000000000E+00 -0.00000000000E+00 -0.37262839596E+03  0.37262839596E+03  0.00000000000E+00 0. -1.
         23    2    1    2    0    0 -0.71773170577E+02 -0.46120348491E+02  0.11734211492E+02  0.12455076565E+03  0.89981814528E+02 0.  0.
         23    2    1    2    0    0  0.56305756668E+02  0.27626498217E+02 -0.24982425356E+03  0.27295219678E+03  0.90317121445E+02 0.  0.
        -11    1    3    3    0    0 -0.13521649392E+02 -0.60409621626E+02  0.17405236056E+02  0.64304740334E+02  0.00000000000E+00 0.  1.
         11    1    3    3    0    0 -0.58251521185E+02  0.14289273135E+02 -0.56710245637E+01  0.60246025318E+02  0.00000000000E+00 0. -1.
        -13    1    4    4    0    0  0.11758324794E+02 -0.24582255672E+02 -0.14582072521E+03  0.14834496755E+03  0.00000000000E+00 0.  1.
         13    1    4    4    0    0  0.44547431873E+02  0.52208753889E+02 -0.10400352834E+03  0.12460722923E+03  0.00000000000E+00 0. -1.
         21    1    1    2  502  501  0.15467413909E+02  0.18493850275E+02 -0.52181687087E+02  0.57482100329E+02  0.00000000000E+00 0.  1.
<scales pt_clust_5="13000.00000" pt_clust_6="13000.00000" pt_clust_7="13000.00000" pt_clust_8="13000.00000" pt_clust_9="24.10940"></scales>
<clustering>
<clus scale="   24.109">  2  9  1 -1</clus>
<clus scale="   89.982">  5  6 -1 -1</clus>
<clus scale="   90.317">  7  8 -1 -1</clus>
<clus scale="  121.230">  1  5  2 -1</clus>
<clus scale="   24.109">  2  5  1 -1</clus>
</clustering>
</event>
<event>
 9    1  0.1296032E-005  0.1105486E+03  0.7546771E-02  0.1260787E+00
         -3   -1    0    0    0  501 -0.00000000000E+00  0.00000000000E+00  0.22607543687E+03  0.22607543687E+03  0.00000000000E+00 0.  1.
          3   -1    0    0  502    0  0.00000000000E+00 -0.00000000000E+00 -0.14724012154E+03  0.14724012154E+03  0.00000000000E+00 0. -1.
         23    2    1    2    0    0  0.47407424219E+02 -0.71699645627E+02  0.12349805667E+03  0.17853465819E+03  0.96096571850E+02 0.  0.
         23    2    1    2    0    0 -0.11257964941E+02  0.58285558430E+01  0.19575305931E+02  0.95925902411E+02  0.93047688382E+02 0.  0.
        -13    1    3    3    0    0  0.34036430531E+02 -0.54965022508E+02  0.12954909069E+02  0.65935286240E+02  0.00000000000E+00 0.  1.
         13    1    3    3    0    0  0.13370993688E+02 -0.16734623119E+02  0.11054314760E+03  0.11259937195E+03  0.00000000000E+00 0. -1.
        -13    1    4    4    0    0  0.49901926661E+01  0.35463882232E+02 -0.22242334030E+02  0.42158159221E+02  0.00000000000E+00 0. -1.
         13    1    4    4    0    0 -0.16248157607E+02 -0.29635326389E+02  0.41817639962E+02  0.53767743190E+02  0.00000000000E+00 0.  1.
         21    1    1    2  502  501 -0.36149459278E+02  0.65871089784E+02 -0.64238047269E+02  0.98854997812E+02  0.00000000000E+00 0. -1.
<scales pt_clust_5="13000.00000" pt_clust_6="13000.00000" pt_clust_7="13000.00000" pt_clust_8="13000.00000" pt_clust_9="75.13843"></scales>
<clustering>
<clus scale="   75.138">  2  9  1 -1</clus>
<clus scale="   93.048">  7  8 -1 -1</clus>
<clus scale="   96.097">  5  6 -1 -1</clus>
<clus scale="  107.909">  2  7  1 -1</clus>
<clus scale="   75.138">  2  5  1 -1</clus>
</clustering>
</event>
<event>
 9    1  0.1296032E-005  0.9397710E+02  0.7546771E-02  0.1294548E+00
          1   -1    0    0  502    0  0.00000000000E+00  0.00000000000E+00  0.10863089033E+04  0.10863089033E+04  0.00000000000E+00 0. -1.
         -1   -1    0    0    0  501 -0.00000000000E+00 -0.00000000000E+00 -0.16819117484E+02  0.16819117484E+02  0.00000000000E+00 0.  1.
         23    2    1    2    0    0  0.29718986041E+02  0.15564348757E+02  0.28273929425E+03  0.29974359759E+03  0.93697645111E+02 0.  0.
         23    2    1    2    0    0  0.24081368061E+02  0.95302221874E+01  0.35647747583E+03  0.36903538882E+03  0.91870506715E+02 0.  0.
        -11    1    4    4    0    0  0.20242351430E+02  0.50108119383E+02  0.18159073848E+03  0.18946179752E+03  0.00000000000E+00 0.  1.
         11    1    4    4    0    0  0.38390166304E+01 -0.40577897195E+02  0.17488673736E+03  0.17957359130E+03  0.00000000000E+00 0. -1.
        -13    1    3    3    0    0 -0.24308916178E+02 -0.21937241806E+02  0.11503586374E+03  0.11960525043E+03  0.00000000000E+00 0. -1.
         13    1    3    3    0    0  0.54027902219E+02  0.37501590563E+02  0.16770343051E+03  0.18013834716E+03  0.00000000000E+00 0.  1.
         21    1    1    2  502  501 -0.53800354102E+02 -0.25094570944E+02  0.43027301577E+03  0.43434903441E+03  0.00000000000E+00 0. -1.
<scales pt_clust_5="13000.00000" pt_clust_6="13000.00000" pt_clust_7="13000.00000" pt_clust_8="13000.00000" pt_clust_9="59.36510"></scales>
<clustering>
<clus scale="   59.365">  1  9  2 -1</clus>
<clus scale="   91.871">  5  6 -1 -1</clus>
<clus scale="   92.155">  1  5  2 -1</clus>
<clus scale="   93.698">  7  8 -1 -1</clus>
<clus scale="   59.365">  1  5  2 -1</clus>
</clustering>
</event>
<event>
 9    1  0.1296032E-005  0.1129255E+03  0.7546771E-02  0.1255413E+00
          3   -1    0    0  502    0  0.00000000000E+00  0.00000000000E+00  0.11262184257E+03  0.11262184257E+03  0.00000000000E+00 0. -1.
         -3   -1    0    0    0  501 -0.00000000000E+00 -0.00000000000E+00 -0.41245784957E+03  0.41245784957E+03  0.00000000000E+00 0.  1.
         23    2    1    2    0    0 -0.95364346468E+02 -0.46819857970E+02 -0.31339113610E+03  0.34239833758E+03  0.87955441642E+02 0.  0.
         23    2    1    2    0    0  0.66480761486E+02  0.73600030781E+01  0.50062544877E+02  0.12165567934E+03  0.88430676931E+02 0.  0.
        -13    1    4    4    0    0  0.27413601132E+02  0.45894503551E+02  0.11761852838E+02  0.54737118717E+02  0.00000000000E+00 0.  1.
         13    1    4    4    0    0  0.39067160355E+02 -0.38534500473E+02  0.38300692039E+02  0.66918560621E+02  0.00000000000E+00 0. -1.
        -13    1    3    3    0    0 -0.86959889742E+02 -0.20787429323E+02 -0.29775521150E+03  0.31088953925E+03  0.00000000000E+00 0.  1.
         13    1    3    3    0    0 -0.84044567260E+01 -0.26032428647E+02 -0.15635924607E+02  0.31508798334E+02  0.00000000000E+00 0. -1.
         21    1    1    2  502  501  0.28883584982E+02  0.39459854892E+02 -0.36507415778E+02  0.61025675222E+02  0.00000000000E+00 0.  1.
<scales pt_clust_5="13000.00000" pt_clust_6="13000.00000" pt_clust_7="13000.00000" pt_clust_8="13000.00000" pt_clust_9="48.90135"></scales>
<clustering>
<clus scale="   48.901">  2  9  1 -1</clus>
<clus scale="   87.955">  7  8 -1 -1</clus>
<clus scale="   88.431">  5  6 -1 -1</clus>
<clus scale="  112.554">  2  7  1 -1</clus>
<clus scale="  112.926">  1  5  2 -1</clus>
</clustering>
</event>
<event>
 9    1  0.1296032E-005  0.9156438E+02  0.7546771E-02  0.1300405E+00
         -2   -1    0    0    0  501 -0.00000000000E+00  0.00000000000E+00  0.71060631804E+02  0.71060631804E+02  0.00000000000E+00 0.  1.
          2   -1    0    0  502    0  0.00000000000E+00 -0.00000000000E+00 -0.15721731615E+03  0.15721731615E+03  0.00000000000E+00 0. -1.
         23    2    1    2    0    0 -0.71661701637E+01 -0.18377493927E+02 -0.11587220329E+02  0.92058396313E+02  0.89170613875E+02 0.  0.
         23    2    1    2    0    0  0.14975410331E+01 -0.21483601183E+01 -0.68101611945E+02  0.11396472855E+03  0.91341511502E+02 0.  0.
        -13    1    3    3    0    0  0.13733818271E+02 -0.39760407395E+02  0.21684174601E+02  0.47325587040E+02  0.00000000000E+00 0. -1.
         13    1    3    3    0    0 -0.20899988434E+02  0.21382913468E+02 -0.33271394929E+02  0.44732809273E+02  0.00000000000E+00 0.  1.
        -13    1    4    4    0    0 -0.39943523102E+02 -0.97585246770E+01 -0.10215813187E+02  0.42368345268E+02  0.00000000000E+00 0.  1.
         13    1    4    4    0    0  0.41441064135E+02  0.76101645587E+01 -0.57885798758E+02  0.71596383282E+02  0.00000000000E+00 0. -1.
         21    1    1    2  502  501  0.56686291306E+01  0.20525854045E+02 -0.64678520753E+01  0.22254823095E+02  0.00000000000E+00 0.  1.
<scales pt_clust_5="13000.00000" pt_clust_6="13000.00000" pt_clust_7="13000.00000" pt_clust_8="13000.00000" pt_clust_9="21.29423"></scales>
<clustering>
<clus scale="   21.294">  1  9  2 -1</clus>
<clus scale="   89.171">  5  6 -1 -1</clus>
<clus scale="   89.399">  1  5  2 -1</clus>
<clus scale="   91.342">  7  8 -1 -1</clus>
<clus scale="   91.564">  2  5  1 -1</clus>
</clustering>
</event>
<event>
 9    1  0.1296032E-005  0.9418815E+02  0.7546771E-02  0.1296559E+00
         -1   -1    0    0    0  501 -0.00000000000E+00  0.00000000000E+00  0.30365735359E+02  0.30365735359E+02  0.00000000000E+00 0.  1.
          1   -1    0    0  502    0  0.00000000000E+00 -0.00000000000E+00 -0.55602019641E+03  0.55602019641E+03  0.00000000000E+00 0. -1.
         23    2    1    2    0    0  0.12970966056E+01  0.92839480918E+01 -0.13631343829E+03  0.16181445113E+03  0.86687305783E+02 0.  0.
         23    2    1    2    0    0  0.34178956005E+02  0.18945690119E+02 -0.14794147481E+03  0.17895143966E+03  0.92788994921E+02 0.  0.
        -11    1    4    4    0    0  0.18801515040E+02 -0.25439862007E+02 -0.12042732292E+03  0.12451274494E+03  0.00000000000E+00 0. -1.
         11    1    4    4    0    0  0.15377440965E+02  0.44385552125E+02 -0.27514151888E+02  0.54438694715E+02  0.00000000000E+00 0.  1.
        -11    1    3    3    0    0  0.17190326152E+02  0.36550251601E+02 -0.11931795451E+03  0.12596905364E+03  0.00000000000E+00 0.  1.
         11    1    3    3    0    0 -0.15893229546E+02 -0.27266303509E+02 -0.16995483777E+02  0.35845397491E+02  0.00000000000E+00 0. -1.
         21    1    1    2  502  501 -0.35476052611E+02 -0.28229638210E+02 -0.24139954794E+03  0.24562004098E+03  0.00000000000E+00 0. -1.
<scales pt_clust_5="13000.00000" pt_clust_6="13000.00000" pt_clust_7="13000.00000" pt_clust_8="13000.00000" pt_clust_9="45.33721"></scales>
<clustering>
<clus scale="   45.337">  2  9  1 -1</clus>
<clus scale="   86.687">  7  8 -1 -1</clus>
<clus scale="   88.183">  1  7  2 -1</clus>
<clus scale="   92.789">  5  6 -1 -1</clus>
<clus scale="   45.337">  2  5  1 -1</clus>
</clustering>
</event>
<event>
 9    1  0.1296032E-005  0.1009321E+03  0.7546771E-02  0.1278546E+00
          1   -1    0    0  502    0  0.00000000000E+00  0.00000000000E+00  0.16578543268E+03  0.16578543268E+03  0.00000000000E+00 0. -1.
         -1   -1    0    0    0  501 -0.00000000000E+00 -0.00000000000E+00 -0.96324609178E+02  0.96324609178E+02  0.00000000000E+00 0.  1.
         23    2    1    2    0    0 -0.46473160969E+02 -0.37144166452E+01 -0.19062584538E+02  0.10347224720E+03  0.90385685975E+02 0.  0.
         23    2    1    2    0    0  0.38449979926E+02 -0.22003548069E+02  0.53125377823E+02  0.11415402586E+03  0.90809023607E+02 0.  0.
        -11    1    3    3    0    0  0.13206300537E+02 -0.32749905306E+02 -0.76199814189E+01  0.36125154508E+02  0.00000000000E+00 0.  1.
         11    1    3    3    0    0 -0.59679461506E+02  0.29035488661E+02 -0.11442603119E+02  0.67347092688E+02  0.00000000000E+00 0. -1.
        -13    1    4    4    0    0 -0.30012229092E+02 -0.43043978314E+01  0.15354496117E+02  0.33985618823E+02  0.00000000000E+00 0.  1.
         13    1    4    4    0    0  0.68462209018E+02 -0.17699150238E+02  0.37770881706E+02  0.80168407042E+02  0.00000000000E+00 0. -1.
         21    1    1    2  502  501  0.80231810432E+01  0.25717964714E+02  0.35398030214E+02  0.44483768794E+02  0.00000000000E+00 0. -1.
<scales pt_clust_5="13000.00000" pt_clust_6="13000.00000" pt_clust_7="13000.00000" pt_clust_8="13000.00000" pt_clust_9="26.94040"></scales>
<clustering>
<clus scale="   26.940">  1  9  2 -1</clus>
<clus scale="   90.386">  5  6 -1 -1</clus>
<clus scale="   90.809">  7  8 -1 -1</clus>
<clus scale="  100.551">  2  5  1 -1</clus>
<clus scale="   26.940">  1  5  2 -1</clus>
</clustering>
</event>
<event>
 9    1  0.1296032E-005  0.1189169E+03  0.7546771E-02  0.1245627E+00
         -2   -1    0    0    0  501 -0.00000000000E+00  0.00000000000E+00  0.12098154144E+03  0.12098154144E+03  0.00000000000E+00 0.  1.
          2   -1    0    0  502    0  0.00000000000E+00 -0.00000000000E+00 -0.44464025438E+03  0.44464025438E+03  0.00000000000E+00 0. -1.
         23    2    1    2    0    0 -0.71533117110E+02 -0.30072607053E+02  0.77084426851E+02  0.14123853423E+03  0.89358637807E+02 0.  0.
         23    2    1    2    0    0  0.45417849129E+02  0.41752326178E+02 -0.30148706531E+03  0.32108664314E+03  0.91630475774E+02 0.  0.
        -13    1    4    4    0    0  0.15361592717E+02 -0.29301358888E+02 -0.81234243411E+02  0.87712886545E+02  0.00000000000E+00 0.  1.
         13    1    4    4    0    0  0.30056256411E+02  0.71053685066E+02 -0.22025282190E+03  0.23337375659E+03  0.00000000000E+00 0. -1.
        -13    1    3    3    0    0 -0.69196238666E+02  0.16603524131E+02  0.40424242303E+02  0.81840795603E+02  0.00000000000E+00 0. -1.
         13    1    3    3    0    0 -0.23368784437E+01 -0.46676131185E+02  0.36660184548E+02  0.59397738630E+02  0.00000000000E+00 0.  1.
         21    1    1    2  502  501  0.26115267981E+02 -0.11679719125E+02 -0.99256074487E+02  0.10329661845E+03  0.00000000000E+00 0.  1.
<scales pt_clust_5="13000.00000" pt_clust_6="13000.00000" pt_clust_7="13000.00000" pt_clust_8="13000.00000" pt_clust_9="28.60809"></scales>
<clustering>
<clus scale="   28.608">  2  9  1 -1</clus>
<clus scale="   89.359">  7  8 -1 -1</clus>
<clus scale="   91.630">  5  6 -1 -1</clus>
<clus scale="  117.175">  1  7  2 -1</clus>
<clus scale="   28.608">  2  5  1 -1</clus>
</clustering>
</event>
<event>
 9    1  0.1296032E-005  0.1000884E+03  0.7546771E-02  0.1283075E+00
          4   -1    0    0  502    0  0.00000000000E+00  0.00000000000E+00  0.23832921004E+03  0.23832921004E+03  0.00000000000E+00 0. -1.
         -4   -1    0    0    0  501 -0.00000000000E+00 -0.00000000000E+00 -0.55228609001E+02  0.55228609001E+02  0.00000000000E+00 0.  1.
         23    2    1    2    0    0  0.32372146000E+02  0.19672039608E+02  0.40473960377E+02  0.11060704126E+03  0.95712230824E+02 0.  0.
         23    2    1    2    0    0 -0.12040053198E+02 -0.79849910935E+01  0.11421887552E+03  0.14611353818E+03  0.89969392302E+02 0.  0.
        -11    1    3    3    0    0  0.20483130274E+02  0.40884964337E+02 -0.16536396063E+02  0.48627063755E+02  0.00000000000E+00 0.  1.
         11    1    3    3    0    0  0.11889015726E+02 -0.21212924729E+02  0.57010356440E+02  0.61979977508E+02  0.00000000000E+00 0. -1.
        -11    1    4    4    0    0 -0.45117261546E+02  0.11152832130E+02  0.35071247729E+02  0.58223237382E+02  0.00000000000E+00 0. -1.
         11    1    4    4    0    0  0.33077208348E+02 -0.19137823223E+02  0.79147627789E+02  0.87890300798E+02  0.00000000000E+00 0.  1.
         21    1    1    2  502  501 -0.20332092802E+02 -0.11687048515E+02  0.28407765143E+02  0.36837239596E+02  0.00000000000E+00 0. -1.
<scales pt_clust_5="13000.00000" pt_clust_6="13000.00000" pt_clust_7="13000.00000" pt_clust_8="13000.00000" pt_clust_9="23.45168"></scales>
<clustering>
<clus scale="   23.452">  1  9  2 -1</clus>
<clus scale="   89.969">  7  8 -1 -1</clus>
<clus scale="   94.612">  1  7  2 -1</clus>
<clus scale="   95.712">  5  6 -1 -1</clus>
<clus scale="   23.452">  1  5  2 -1</clus>
</clustering>
</event>
<event>
 9    1  0.1296032E-005  0.1701537E+03  0.7546771E-02  0.1177792E+00
          1   -1    0    0  502    0  0.00000000000E+00  0.00000000000E+00  0.58764165968E+02  0.58764165968E+02  0.00000000000E+00 0. -1.
         -1   -1    0    0    0  501 -0.00000000000E+00 -0.00000000000E+00 -0.83266333848E+03  0.83266333848E+03  0.00000000000E+00 0.  1.
         23    2    1    2    0    0 -0.13814249592E+03  0.91497395899E+01 -0.49120252672E+03  0.51839002210E+03  0.91001240899E+02 0.  0.
         23    2    1    2    0    0  0.15166725103E+03 -0.27159124320E+02 -0.29686414782E+03  0.34642968176E+03  0.90247598723E+02 0.  0.
        -11    1    4    4    0    0  0.25338237517E+02  0.13226733481E+01 -0.14340095555E+03  0.14562832760E+03  0.00000000000E+00 0.  1.
         11    1    4    4    0    0  0.12632901351E+03 -0.28481797668E+02 -0.15346319227E+03  0.20080135416E+03  0.00000000000E+00 0. -1.
        -11    1    3    3    0    0 -0.11785405380E+03 -0.23327393161E+02 -0.29573292194E+03  0.31920480321E+03  0.00000000000E+00 0.  1.
         11    1    3    3    0    0 -0.20288442124E+02  0.32477132751E+02 -0.19546960477E+03  0.19918521889E+03  0.00000000000E+00 0. -1.
         21    1    1    2  502  501 -0.13524755104E+02  0.18009384730E+02  0.14167502019E+02  0.26607800594E+02  0.00000000000E+00 0. -1.
<scales pt_clust_5="13000.00000" pt_clust_6="13000.00000" pt_clust_7="13000.00000" pt_clust_8="13000.00000" pt_clust_9="22.52237"></scales>
<clustering>
<clus scale="   22.522">  1  9  2 -1</clus>
<clus scale="   90.248">  5  6 -1 -1</clus>
<clus scale="   91.001">  7  8 -1 -1</clus>
<clus scale="  169.752">  1  5  2 -1</clus>
<clus scale="   22.522">  1  5  2 -1</clus>
</clustering>
</event>
<event>
 9    1  0.1296032E-005  0.9833911E+02  0.7546771E-02  0.1286505E+00
          2   -1    0    0  502    0  0.00000000000E+00  0.00000000000E+00  0.10279600213E+04  0.10279600213E+04  0.00000000000E+00 0. -1.
         -2   -1    0    0    0  501 -0.00000000000E+00 -0.00000000000E+00 -0.21459380271E+02  0.21459380271E+02  0.00000000000E+00 0.  1.
         23    2    1    2    0    0 -0.24985467784E+01  0.16446003956E+02  0.26718838539E+03  0.28474588686E+03  0.97025115405E+02 0.  0.
         23    2    1    2    0    0 -0.18007672769E+02  0.63048904220E+02  0.41395649890E+03  0.42911977250E+03  0.92110561622E+02 0.  0.
        -11    1    4    4    0    0  0.34104579286E+02  0.39238155331E+02  0.25256647947E+03  0.25786155532E+03  0.00000000000E+00 0.  1.
         11    1    4    4    0    0 -0.52112252056E+02  0.23810748889E+02  0.16139001943E+03  0.17125821717E+03  0.00000000000E+00 0. -1.
        -13    1    3    3    0    0 -0.44623538282E+02 -0.13355847316E+02  0.11646253197E+03  0.12543189458E+03  0.00000000000E+00 0.  1.
         13    1    3    3    0    0  0.42124991503E+02  0.29801851271E+02  0.15072585342E+03  0.15931399228E+03  0.00000000000E+00 0. -1.
         21    1    1    2  502  501  0.20506219548E+02 -0.79494908176E+02  0.32535575677E+03  0.33555374223E+03  0.00000000000E+00 0. -1.
<scales pt_clust_5="13000.00000" pt_clust_6="13000.00000" pt_clust_7="13000.00000" pt_clust_8="13000.00000" pt_clust_9="82.09717"></scales>
<clustering>
<clus scale="   82.097">  1  9  2 -1</clus>
<clus scale="   92.111">  5  6 -1 -1</clus>
<clus scale="   93.494">  1  5  2 -1</clus>
<clus scale="   97.025">  7  8 -1 -1</clus>
<clus scale="   82.097">  1  5  2 -1</clus>
</clustering>
</event>
<event>
 9    1  0.1296032E-005  0.1755538E+03  0.7546771E-02  0.1172349E+00
         -2   -1    0    0    0  501 -0.00000000000E+00  0.00000000000E+00  0.89679039827E+02  0.89679039827E+02  0.00000000000E+00 0.  1.
          2   -1    0    0  502    0  0.00000000000E+00 -0.00000000000E+00 -0.38602410053E+03  0.38602410053E+03  0.00000000000E+00 0. -1.
         23    2    1    2    0    0 -0.14591274627E+01 -0.14043192284E+03 -0.11576497912E+03  0.20327508197E+03  0.90531621848E+02 0.  0.
         23    2    1    2    0    0 -0.61334381298E+01  0.15952716142E+03 -0.16805100094E+03  0.24836038192E+03  0.89191962059E+02 0.  0.
        -11    1    4    4    0    0 -0.45094357077E+02  0.10241593368E+03 -0.86434119111E+02  0.14139795422E+03  0.00000000000E+00 0.  1.
         11    1    4    4    0    0  0.38960918948E+02  0.57111227741E+02 -0.81616881829E+02  0.10696242770E+03  0.00000000000E+00 0. -1.
        -11    1    3    3    0    0 -0.27142259911E+02 -0.12594643841E+03 -0.64372410973E+02  0.14402435529E+03  0.00000000000E+00 0.  1.
         11    1    3    3    0    0  0.25683132449E+02 -0.14485484425E+02 -0.51392568150E+02  0.59250726683E+02  0.00000000000E+00 0. -1.
         21    1    1    2  502  501  0.75925655925E+01 -0.19095238585E+02 -0.12529080641E+02  0.24067676468E+02  0.00000000000E+00 0. -1.
<scales pt_clust_5="13000.00000" pt_clust_6="13000.00000" pt_clust_7="13000.00000" pt_clust_8="13000.00000" pt_clust_9="20.54934"></scales>
<clustering>
<clus scale="   20.549">  1  9  2 -1</clus>
<clus scale="   89.192">  5  6 -1 -1</clus>
<clus scale="   90.532">  7  8 -1 -1</clus>
<clus scale="  174.867">  2  5  1 -1</clus>
<clus scale="  174.867">  2  5  1 -1</clus>
</clustering>
</event>
<event>
 9    1  0.1296032E-005  0.9885040E+02  0.7546771E-02  0.1290188E+00
          1   -1    0    0  502    0  0.00000000000E+00  0.00000000000E+00  0.82247752976E+02  0.82247752976E+02  0.00000000000E+00 0. -1.
         -1   -1    0    0    0  501 -0.00000000000E+00 -0.00000000000E+00 -0.14788092395E+03  0.14788092395E+03  0.00000000000E+00 0.  1.
         23    2    1    2    0    0  0.42053222620E+02 -0.19281591259E+02 -0.63271402729E+02  0.10919135046E+03  0.76021229386E+02 0.  0.
         23    2    1    2    0    0 -0.30754299070E+02 -0.29692791363E+01 -0.59848659421E+01  0.95720392796E+02  0.90398735869E+02 0.  0.
        -11    1    3    3    0    0  0.22334887639E+02  0.28369343799E+02 -0.17009445012E+02  0.39912254923E+02  0.00000000000E+00 0.  1.
         11    1    3    3    0    0  0.19718334981E+02 -0.47650935058E+02 -0.46261957717E+02  0.69279095535E+02  0.00000000000E+00 0. -1.
        -11    1    4    4    0    0 -0.57255405339E+02  0.17522924608E+02 -0.13518483227E+02  0.61383904373E+02  0.00000000000E+00 0. -1.
         11    1    4    4    0    0  0.26501106269E+02 -0.20492203744E+02  0.75336172846E+01  0.34336488423E+02  0.00000000000E+00 0.  1.
         21    1    1    2  502  501 -0.11298923551E+02  0.22250870395E+02  0.36230976999E+01  0.25216933670E+02  0.00000000000E+00 0.  1.
<scales pt_clust_5="13000.00000" pt_clust_6="13000.00000" pt_clust_7="13000.00000" pt_clust_8="13000.00000" pt_clust_9="24.95530"></scales>
<clustering>
<clus scale="   24.955">  1  9  2 -1</clus>
<clus scale="   76.021">  5  6 -1 -1</clus>
<clus scale="   85.899">  2  5  1 -1</clus>
<clus scale="   90.399">  7  8 -1 -1</clus>
<clus scale="   24.955">  1  5  2 -1</clus>
</clustering>
</event>
<event>
 9    1  0.1296032E-005  0.1019841E+03  0.7546771E-02  0.1278752E+00
         -1   -1    0    0    0  501 -0.00000000000E+00  0.00000000000E+00  0.19682085428E+03  0.19682085428E+03  0.00000000000E+00 0.  1.
          1   -1    0    0  502    0  0.00000000000E+00 -0.00000000000E+00 -0.72622839203E+02  0.72622839203E+02  0.00000000000E+00 0. -1.
         23    2    1    2    0    0  0.36980105566E+02  0.54089222998E+00  0.55615021404E+02  0.11134593062E+03  0.89090206470E+02 0.  0.
         23    2    1    2    0    0 -0.32919554539E+02  0.34503055986E+02  0.60721423322E+02  0.12195401278E+03  0.94400911227E+02 0.  0.
        -11    1    4    4    0    0 -0.18508232542E+02 -0.28650632078E+02  0.42828311750E+02  0.54751051841E+02  0.00000000000E+00 0. -1.
         11    1    4    4    0    0 -0.14411321997E+02  0.63153688064E+02  0.17893111572E+02  0.67202960943E+02  0.00000000000E+00 0.  1.
        -13    1    3    3    0    0  0.32629479432E+02  0.42841263748E+02  0.33406408086E+02  0.63372272397E+02  0.00000000000E+00 0.  1.
         13    1    3    3    0    0  0.43506261340E+01 -0.42300371518E+02  0.22208613318E+02  0.47973658228E+02  0.00000000000E+00 0. -1.
         21    1    1    2  502  501 -0.40605510269E+01 -0.35043948216E+02  0.78615703537E+01  0.36143750077E+02  0.00000000000E+00 0. -1.
<scales pt_clust_5="13000.00000" pt_clust_6="13000.00000" pt_clust_7="13000.00000" pt_clust_8="13000.00000" pt_clust_9="35.27841"></scales>
<clustering>
<clus scale="   35.278">  2  9  1 -1</clus>
<clus scale="   89.090">  7  8 -1 -1</clus>
<clus scale="   94.401">  5  6 -1 -1</clus>
<clus scale="   97.089">  1  7  2 -1</clus>
<clus scale="   35.278">  2  5  1 -1</clus>
</clustering>
</event>
<event>
 9    1  0.1296032E-005  0.3140087E+03  0.7546771E-02  0.1078908E+00
          2   -1    0    0  502    0  0.00000000000E+00  0.00000000000E+00  0.37246693369E+03  0.37246693369E+03  0.00000000000E+00 0. -1.
         -2   -1    0    0    0  501 -0.00000000000E+00 -0.00000000000E+00 -0.49464188788E+03  0.49464188788E+03  0.00000000000E+00 0.  1.
         23    2    1    2    0    0 -0.16544984796E+03  0.23095050551E+03 -0.18176414227E+03  0.34930296631E+03  0.90898683562E+02 0.  0.
         23    2    1    2    0    0  0.76896999100E+02 -0.32594792393E+03 -0.41831651226E+02  0.35302629587E+03  0.10354941309E+03 0.  0.
        -11    1    4    4    0    0  0.99170846537E+02 -0.20707502167E+03 -0.27547872909E+02  0.23124404145E+03  0.00000000000E+00 0.  1.
         11    1    4    4    0    0 -0.22273847437E+02 -0.11887290226E+03 -0.14283778317E+02  0.12178225443E+03  0.00000000000E+00 0. -1.
        -13    1    3    3    0    0 -0.87803231745E+02  0.10730175224E+03 -0.36563721642E+02  0.14338751438E+03  0.00000000000E+00 0.  1.
         13    1    3    3    0    0 -0.77646616211E+02  0.12364875327E+03 -0.14520042063E+03  0.20591545193E+03  0.00000000000E+00 0. -1.
         21    1    1    2  502  501  0.88552848855E+02  0.94997418413E+02  0.10142083930E+03  0.16477955938E+03  0.00000000000E+00 0.  1.
<scales pt_clust_5="13000.00000" pt_clust_6="13000.00000" pt_clust_7="13000.00000" pt_clust_8="13000.00000" pt_clust_9="129.86961"></scales>
<clustering>
<clus scale="   90.899">  7  8 -1 -1</clus>
<clus scale="  103.549">  5  6 -1 -1</clus>
<clus scale="  129.870">  1  9  2 -1</clus>
<clus scale="  310.067">  2  7  1 -1</clus>
<clus scale="  129.870">  1  5  2 -1</clus>
</clustering>
</event>
<event>
 9    1  0.1296032E-005  0.1060884E+03  0.7546771E-02  0.1270758E+00
          1   -1    0    0  502    0  0.00000000000E+00  0.00000000000E+00  0.65487441659E+03  0.65487441659E+03  0.00000000000E+00 0. -1.
         -1   -1    0    0    0  501 -0.00000000000E+00 -0.00000000000E+00 -0.27013939888E+02  0.27013939888E+02  0.00000000000E+00 0.  1.
         23    2    1    2    0    0 -0.42659843987E+02 -0.42979379929E+02  0.18777597231E+03  0.21940470887E+03  0.95976669598E+02 0.  0.
         23    2    1    2    0    0 -0.14031337266E+01  0.32140512894E+02  0.26638273687E+03  0.28295278373E+03  0.89819452063E+02 0.  0.
        -11    1    4    4    0    0 -0.37244550192E+02 -0.78979890047E+01  0.74188313196E+02  0.83387292582E+02  0.00000000000E+00 0. -1.
         11    1    4    4    0    0  0.35841416466E+02  0.40038501898E+02  0.19219442367E+03  0.19956549115E+03  0.00000000000E+00 0.  1.
        -11    1    3    3    0    0 -0.35454657435E+02 -0.19458995586E+02  0.19041650003E+03  0.19466414340E+03  0.00000000000E+00 0. -1.
         11    1    3    3    0    0 -0.72051865520E+01 -0.23520384343E+02 -0.26405277175E+01  0.24740565464E+02  0.00000000000E+00 0.  1.
         21    1    1    2  502  501  0.44062977714E+02  0.10838867035E+02  0.17370176752E+03  0.17953086387E+03  0.00000000000E+00 0. -1.
<scales pt_clust_5="13000.00000" pt_clust_6="13000.00000" pt_clust_7="13000.00000" pt_clust_8="13000.00000" pt_clust_9="45.37650"></scales>
<clustering>
<clus scale="   45.377">  1  9  2 -1</clus>
<clus scale="   89.819">  5  6 -1 -1</clus>
<clus scale="   95.977">  7  8 -1 -1</clus>
<clus scale="  100.552">  1  5  2 -1</clus>
<clus scale="   45.377">  1  5  2 -1</clus>
</clustering>
</event>
<event>
 9    1  0.1296032E-005  0.1218043E+03  0.7546771E-02  0.1240231E+00
         -2   -1    0    0    0  501 -0.00000000000E+00  0.00000000000E+00  0.17347872375E+03  0.17347872375E+03  0.00000000000E+00 0.  1.
          2   -1    0    0  502    0  0.00000000000E+00 -0.00000000000E+00 -0.55168783481E+03  0.55168783481E+03  0.00000000000E+00 0. -1.
         23    2    1    2    0    0 -0.66078589345E+02  0.39286315465E+02  0.13643493901E+03  0.18230268038E+03  0.93327274355E+02 0.  0.
         23    2    1    2    0    0  0.78891121422E+02 -0.64273723047E+02 -0.35641408533E+03  0.38216150340E+03  0.93067147494E+02 0.  0.
        -11    1    3    3    0    0  0.21892158555E+02 -0.42564584368E+01  0.19442484908E+02  0.29587062443E+02  0.00000000000E+00 0. -1.
         11    1    3    3    0    0 -0.87970747900E+02  0.43542773901E+02  0.11699245411E+03  0.15271561794E+03  0.00000000000E+00 0.  1.
        -11    1    4    4    0    0  0.77362313510E+02 -0.85862229179E+02 -0.31290666525E+03  0.33356833049E+03  0.00000000000E+00 0. -1.
         11    1    4    4    0    0  0.15288079122E+01  0.21588506132E+02 -0.43507420087E+02  0.48593172908E+02  0.00000000000E+00 0.  1.
         21    1    1    2  502  501 -0.12812532077E+02  0.24987407582E+02 -0.15822996474E+03  0.16070237478E+03  0.00000000000E+00 0.  1.
<scales pt_clust_5="13000.00000" pt_clust_6="13000.00000" pt_clust_7="13000.00000" pt_clust_8="13000.00000" pt_clust_9="28.08080"></scales>
<clustering>
<clus scale="   28.081">  2  9  1 -1</clus>
<clus scale="   93.067">  7  8 -1 -1</clus>
<clus scale="   93.327">  5  6 -1 -1</clus>
<clus scale="  121.605">  2  7  1 -1</clus>
<clus scale="   28.081">  2  5  1 -1</clus>
</clustering>
</event>
<event>
 9    1  0.1296032E-005  0.9249950E+02  0.7546771E-02  0.1297826E+00
          1   -1    0    0  502    0  0.00000000000E+00  0.00000000000E+00  0.11738582715E+03  0.11738582715E+03  0.00000000000E+00 0. -1.
         -1   -1    0    0    0  501 -0.00000000000E+00 -0.00000000000E+00 -0.12277758571E+03  0.12277758571E+03  0.00000000000E+00 0.  1.
         23    2    1    2    0    0 -0.14173909171E+02  0.19198736429E+02 -0.50270310066E+02  0.10454767214E+03  0.88507742570E+02 0.  0.
         23    2    1    2    0    0 -0.13506404373E+02 -0.22491080599E+02  0.15503768660E+02  0.95119850116E+02  0.90106311532E+02 0.  0.
        -13    1    4    4    0    0 -0.29958409116E+02  0.12960316549E+02 -0.23254000859E+02  0.40077732443E+02  0.00000000000E+00 0.  1.
         13    1    4    4    0    0  0.16452004743E+02 -0.35451397148E+02  0.38757769519E+02  0.55042117673E+02  0.00000000000E+00 0. -1.
        -13    1    3    3    0    0  0.39973142457E+01 -0.32937564862E+02 -0.32755758224E+02  0.46624043122E+02  0.00000000000E+00 0. -1.
         13    1    3    3    0    0 -0.18171223417E+02  0.52136301291E+02 -0.17514551842E+02  0.57923629021E+02  0.00000000000E+00 0.  1.
         21    1    1    2  502  501  0.27680313544E+02  0.32923441704E+01  0.29374782850E+02  0.40495890600E+02  0.00000000000E+00 0.  1.
<scales pt_clust_5="13000.00000" pt_clust_6="13000.00000" pt_clust_7="13000.00000" pt_clust_8="13000.00000" pt_clust_9="27.87542"></scales>
<clustering>
<clus scale="   27.875">  1  9  2 -1</clus>
<clus scale="   88.508">  7  8 -1 -1</clus>
<clus scale="   90.106">  5  6 -1 -1</clus>
<clus scale="   90.943">  2  7  1 -1</clus>
<clus scale="   27.875">  1  5  2 -1</clus>
</clustering>
</event>
<event>
 9    1  0.1296032E-005  0.3174305E+03  0.7546771E-02  0.1077032E+00
          1   -1    0    0  502    0  0.00000000000E+00  0.00000000000E+00  0.57823345734E+03  0.57823345734E+03  0.00000000000E+00 0. -1.
         -1   -1    0    0    0  501 -0.00000000000E+00 -0.00000000000E+00 -0.20901963647E+03  0.20901963647E+03  0.00000000000E+00 0.  1.
         23    2    1    2    0    0  0.12804518393E+03  0.26557450628E+03  0.73047106792E+02  0.31637507914E+03  0.88498154633E+02 0.  0.
         23    2    1    2    0    0 -0.13065727169E+03 -0.28860434989E+03  0.23523976204E+03  0.40569143489E+03  0.94254980098E+02 0.  0.
        -11    1    4    4    0    0  0.88687076887E+01 -0.67720299538E+02  0.36565000741E+02  0.77470589418E+02  0.00000000000E+00 0.  1.
         11    1    4    4    0    0 -0.13952597938E+03 -0.22088405036E+03  0.19867476130E+03  0.32822084547E+03  0.00000000000E+00 0. -1.
        -13    1    3    3    0    0  0.11194078902E+03  0.21773661110E+03  0.93280746169E+02  0.26199478938E+03  0.00000000000E+00 0.  1.
         13    1    3    3    0    0  0.16104394909E+02  0.47837895187E+02 -0.20233639377E+02  0.54380289754E+02  0.00000000000E+00 0. -1.
         21    1    1    2  502  501  0.26120877605E+01  0.23029843610E+02  0.60926952038E+02  0.65186579783E+02  0.00000000000E+00 0. -1.
<scales pt_clust_5="13000.00000" pt_clust_6="13000.00000" pt_clust_7="13000.00000" pt_clust_8="13000.00000" pt_clust_9="23.17750"></scales>
<clustering>
<clus scale="   23.178">  1  9  2 -1</clus>
<clus scale="   88.498">  7  8 -1 -1</clus>
<clus scale="   94.255">  5  6 -1 -1</clus>
<clus scale="  315.769">  2  7  1 -1</clus>
<clus scale="   23.178">  1  5  2 -1</clus>
</clustering>
</event>
<event>
 9    1  0.1296032E-005  0.9179237E+02  0.7546771E-02  0.1298608E+00
          2   -1    0    0  502    0  0.00000000000E+00  0.00000000000E+00  0.13467110068E+03  0.13467110068E+03  0.00000000000E+00 0. -1.
         -2   -1    0    0    0  501 -0.00000000000E+00 -0.00000000000E+00 -0.20996098118E+03  0.20996098118E+03  0.00000000000E+00 0.  1.
         23    2    1    2    0    0 -0.57341189101E+01  0.86347301383E+01 -0.15169120321E+03  0.17738827656E+03  0.91372538803E+02 0.  0.
         23    2    1    2    0    0 -0.16775761443E+02 -0.89413911649E+01  0.61410298958E+01  0.93465099012E+02  0.91305190637E+02 0.  0.
        -11    1    3    3    0    0 -0.27280052087E+02  0.31827595433E+02 -0.13549082930E+03  0.14182722551E+03  0.00000000000E+00 0.  1.
         11    1    3    3    0    0  0.21545933177E+02 -0.23192865294E+02 -0.16200373911E+02  0.35561051051E+02  0.00000000000E+00 0. -1.
        -13    1    4    4    0    0 -0.20268292095E+02 -0.48941276567E+02  0.96673358787E+00  0.52981004051E+02  0.00000000000E+00 0. -1.
         13    1    4    4    0    0  0.34925306522E+01  0.39999885402E+02  0.51742963079E+01  0.40484094961E+02  0.00000000000E+00 0.  1.
         21    1    1    2  502  501  0.22509880353E+02  0.30666102658E+00  0.70260292816E+02  0.73778706285E+02  0.00000000000E+00 0. -1.
<scales pt_clust_5="13000.00000" pt_clust_6="13000.00000" pt_clust_7="13000.00000" pt_clust_8="13000.00000" pt_clust_9="22.51197"></scales>
<clustering>
<clus scale="   22.512">  1  9  2 -1</clus>
<clus scale="   91.305">  7  8 -1 -1</clus>
<clus scale="   91.373">  5  6 -1 -1</clus>
<clus scale="   91.725">  1  7  2 -1</clus>
<clus scale="   22.512">  1  5  2 -1</clus>
</clustering>
</event>
<event>
 9    1  0.1296032E-005  0.9092161E+02  0.7546771E-02  0.1301340E+00
         -1   -1    0    0    0  501 -0.00000000000E+00  0.00000000000E+00  0.15984302818E+03  0.15984302818E+03  0.00000000000E+00 0.  1.
          1   -1    0    0  502    0  0.00000000000E+00 -0.00000000000E+00 -0.10760138051E+03  0.10760138051E+03  0.00000000000E+00 0. -1.
         23    2    1    2    0    0  0.20260127195E+02  0.59545391058E+00  0.10600664875E+03  0.13931163602E+03  0.88087995954E+02 0.  0.
         23    2    1    2    0    0 -0.12621597921E+01 -0.94428444083E+01 -0.57809118376E+02  0.10678906238E+03  0.89281853240E+02 0.  0.
        -11    1    4    4    0    0  0.41127974721E+02 -0.19075640431E+02 -0.37369891189E+02  0.58752864866E+02  0.00000000000E+00 0.  1.
         11    1    4    4    0    0 -0.42390134513E+02  0.96327960229E+01 -0.20439227187E+02  0.48036197510E+02  0.00000000000E+00 0. -1.
        -11    1    3    3    0    0  0.11885373291E+02 -0.43694414888E+02  0.51240497321E+02  0.68381668277E+02  0.00000000000E+00 0.  1.
         11    1    3    3    0    0  0.83747539044E+01  0.44289868799E+02  0.54766151434E+02  0.70929967743E+02  0.00000000000E+00 0. -1.
         21    1    1    2  502  501 -0.18997967403E+02  0.88473904977E+01  0.40441172925E+01  0.21343710285E+02  0.00000000000E+00 0.  1.
<scales pt_clust_5="13000.00000" pt_clust_6="13000.00000" pt_clust_7="13000.00000" pt_clust_8="13000.00000" pt_clust_9="20.95708"></scales>
<clustering>
<clus scale="   20.957">  2  9  1 -1</clus>
<clus scale="   88.088">  7  8 -1 -1</clus>
<clus scale="   89.282">  5  6 -1 -1</clus>
<clus scale="   89.750">  1  7  2 -1</clus>
<clus scale="   20.957">  2  5  1 -1</clus>
</clustering>
</event>
<event>
 9    1  0.1296032E-005  0.9050648E+02  0.7546771E-02  0.1303925E+00
          1   -1    0    0  502    0  0.00000000000E+00  0.00000000000E+00  0.44398607822E+03  0.44398607822E+03  0.00000000000E+00 0. -1.
         -1   -1    0    0    0  501 -0.00000000000E+00 -0.00000000000E+00 -0.38460950268E+02  0.38460950268E+02  0.00000000000E+00 0.  1.
         23    2    1    2    0    0  0.64481368720E+00  0.34662290418E+01  0.46835067193E+02  0.10158410925E+03  0.90074287144E+02 0.  0.
         23    2    1    2    0    0 -0.21864565477E+02 -0.12756175059E+02  0.18584008419E+03  0.20646769177E+03  0.86322602070E+02 0.  0.
        -13    1    4    4    0    0  0.10518175624E+02 -0.39053028469E+02  0.13375864960E+03  0.13973956989E+03  0.00000000000E+00 0. -1.
         13    1    4    4    0    0 -0.32382741101E+02  0.26296853410E+02  0.52081434589E+02  0.66728121878E+02  0.00000000000E+00 0.  1.
        -13    1    3    3    0    0  0.20700582524E+02  0.33828671554E+02  0.51387602187E+02  0.64912085119E+02  0.00000000000E+00 0.  1.
         13    1    3    3    0    0 -0.20055768836E+02 -0.30362442512E+02 -0.45525349947E+01  0.36672024130E+02  0.00000000000E+00 0. -1.
         21    1    1    2  502  501  0.21219751790E+02  0.92899460169E+01  0.17284997657E+03  0.17439522747E+03  0.00000000000E+00 0.  1.
<scales pt_clust_5="13000.00000" pt_clust_6="13000.00000" pt_clust_7="13000.00000" pt_clust_8="13000.00000" pt_clust_9="23.16422"></scales>
<clustering>
<clus scale="   23.164">  1  9  2 -1</clus>
<clus scale="   86.323">  5  6 -1 -1</clus>
<clus scale="   86.773">  1  5  2 -1</clus>
<clus scale="   90.074">  7  8 -1 -1</clus>
<clus scale="   23.164">  1  5  2 -1</clus>
</clustering>
</event>
<event>
 9    1  0.1296032E-005  0.9800709E+02  0.7546771E-02  0.1285059E+00
          3   -1    0    0  502    0  0.00000000000E+00  0.00000000000E+00  0.21568589243E+02  0.21568589243E+02  0.00000000000E+00 0. -1.
         -3   -1    0    0    0  501 -0.00000000000E+00 -0.00000000000E+00 -0.71471640175E+03  0.71471640175E+03  0.00000000000E+00 0.  1.
         23    2    1    2    0    0  0.90582884324E+01 -0.16964585582E+02 -0.46891387733E+03  0.47853642106E+03  0.93525569589E+02 0.  0.
         23    2    1    2    0    0  0.10328788496E+02  0.32990846201E+02 -0.15214853242E+03  0.18140064874E+03  0.92530749703E+02 0.  0.
        -13    1    4    4    0    0 -0.35375489745E+02 -0.85828997717E+01 -0.47061951546E+02  0.59497216124E+02  0.00000000000E+00 0.  1.
         13    1    4    4    0    0  0.45704278241E+02  0.41573745972E+02 -0.10508658087E+03  0.12190343261E+03  0.00000000000E+00 0. -1.
        -13    1    3    3    0    0 -0.37181545754E+02 -0.29056302098E+02 -0.25741427509E+03  0.26170373528E+03  0.00000000000E+00 0.  1.
         13    1    3    3    0    0  0.46239834186E+02  0.12091716516E+02 -0.21149960224E+03  0.21683268578E+03  0.00000000000E+00 0. -1.
         21    1    1    2  502  501 -0.19387076928E+02 -0.16026260619E+02 -0.72085402759E+02  0.76347921204E+02  0.00000000000E+00 0.  1.
<scales pt_clust_5="13000.00000" pt_clust_6="13000.00000" pt_clust_7="13000.00000" pt_clust_8="13000.00000" pt_clust_9="25.15352"></scales>
<clustering>
<clus scale="   25.154">  2  9  1 -1</clus>
<clus scale="   92.531">  5  6 -1 -1</clus>
<clus scale="   93.526">  7  8 -1 -1</clus>
<clus scale="   97.058">  1  5  2 -1</clus>
<clus scale="   97.058">  1  5  2 -1</clus>
</clustering>
</event>
<event>
 9    1  0.1296032E-005  0.1054927E+03  0.7546771E-02  0.1276808E+00
          3   -1    0    0  502    0  0.00000000000E+00  0.00000000000E+00  0.26672371784E+03  0.26672371784E+03  0.00000000000E+00 0. -1.
         -3   -1    0    0    0  501 -0.00000000000E+00 -0.00000000000E+00 -0.49112941940E+03  0.49112941940E+03  0.00000000000E+00 0.  1.
         23    2    1    2    0    0 -0.12196918481E+02 -0.53587053077E+01 -0.31232409291E+03  0.32556125077E+03  0.90919241338E+02 0.  0.
         23    2    1    2    0    0 -0.58188336079E+02 -0.86884266990E+01 -0.14494434335E+03  0.18861903368E+03  0.10538930678E+03 0.  0.
        -13    1    4    4    0    0  0.28707905139E+02  0.35230455738E+01 -0.59419575707E+02  0.66085109100E+02  0.00000000000E+00 0. -1.
         13    1    4    4    0    0 -0.86896241218E+02 -0.12211472273E+02 -0.85524767640E+02  0.12253392458E+03  0.00000000000E+00 0.  1.
        -13    1    3    3    0    0 -0.35856900249E+02 -0.26114349726E+02 -0.26525785879E+03  0.26894127278E+03  0.00000000000E+00 0.  1.
         13    1    3    3    0    0  0.23659981768E+02  0.20755644418E+02 -0.47066234124E+02  0.56619977986E+02  0.00000000000E+00 0. -1.
         21    1    1    2  502  501  0.70385254560E+02  0.14047132007E+02  0.23286273470E+03  0.24367285279E+03  0.00000000000E+00 0. -1.
<scales pt_clust_5="13000.00000" pt_clust_6="13000.00000" pt_clust_7="13000.00000" pt_clust_8="13000.00000" pt_clust_9="71.77330"></scales>
<clustering>
<clus scale="   71.773">  1  9  2 -1</clus>
<clus scale="   90.919">  7  8 -1 -1</clus>
<clus scale="   91.039">  2  7  1 -1</clus>
<clus scale="  105.389">  5  6 -1 -1</clus>
<clus scale="   71.773">  1  5  2 -1</clus>
</clustering>
</event>
<event>
 9    1  0.1296032E-005  0.1334640E+03  0.7546771E-02  0.1222936E+00
          1   -1    0    0  502    0  0.00000000000E+00  0.00000000000E+00  0.41469936325E+03  0.41469936325E+03  0.00000000000E+00 0. -1.
         -1   -1    0    0    0  501 -0.00000000000E+00 -0.00000000000E+00 -0.10305675476E+03  0.10305675476E+03  0.00000000000E+00 0.  1.
         23    2    1    2    0    0 -0.71866492452E+02  0.57147386116E+02  0.40473077335E-01  0.12662406160E+03  0.87195383259E+02 0.  0.
         23    2    1    2    0    0  0.74585618398E+02 -0.89883728200E+02  0.10206379227E+03  0.17903448692E+03  0.89410462173E+02 0.  0.
        -11    1    4    4    0    0  0.32410876398E+02  0.25027697101E+01 -0.33239660054E+01  0.32676865136E+02  0.00000000000E+00 0.  1.
         11    1    4    4    0    0  0.42174742000E+02 -0.92386497910E+02  0.10538775828E+03  0.14635762178E+03  0.00000000000E+00 0. -1.
        -13    1    3    3    0    0 -0.57482481391E+02 -0.79201627190E+01 -0.11051962161E+02  0.59068693163E+02  0.00000000000E+00 0. -1.
         13    1    3    3    0    0 -0.14384011061E+02  0.65067548835E+02  0.11092435238E+02  0.67555368441E+02  0.00000000000E+00 0.  1.
         21    1    1    2  502  501 -0.27191259456E+01  0.32736342084E+02  0.20953834314E+03  0.21209756949E+03  0.00000000000E+00 0.  1.
<scales pt_clust_5="13000.00000" pt_clust_6="13000.00000" pt_clust_7="13000.00000" pt_clust_8="13000.00000" pt_clust_9="32.84908"></scales>
<clustering>
<clus scale="   32.849">  1  9  2 -1</clus>
<clus scale="   87.195">  7  8 -1 -1</clus>
<clus scale="   89.410">  5  6 -1 -1</clus>
<clus scale="  131.990">  2  7  1 -1</clus>
<clus scale="   32.849">  1  5  2 -1</clus>
</clustering>
</event>
<event>
 9    1  0.1296032E-005  0.9325906E+02  0.7546771E-02  0.1297992E+00
          1   -1    0    0  502    0  0.00000000000E+00  0.00000000000E+00  0.10853227556E+03  0.10853227556E+03  0.00000000000E+00 0. -1.
         -1   -1    0    0    0  501 -0.00000000000E+00 -0.00000000000E+00 -0.14546966091E+03  0.14546966091E+03  0.00000000000E+00 0.  1.
         23    2    1    2    0    0 -0.32326022038E+02 -0.73365947906E+01 -0.39769611307E+02  0.10184507048E+03  0.87704042511E+02 0.  0.
         23    2    1    2    0    0 -0.23824719779E+02  0.52267225827E+00  0.27231750343E+01  0.95594093439E+02  0.92536071666E+02 0.  0.
        -11    1    3    3    0    0 -0.21211951942E+02 -0.30718179459E+02  0.15803522105E+02  0.40537695610E+02  0.00000000000E+00 0.  1.
         11    1    3    3    0    0 -0.11114070096E+02  0.23381584668E+02 -0.55573133412E+02  0.61307374866E+02  0.00000000000E+00 0. -1.
        -11    1    4    4    0    0 -0.58608936321E+02 -0.32651853033E+01  0.10797684477E+02  0.59684661697E+02  0.00000000000E+00 0. -1.
         11    1    4    4    0    0  0.34784216542E+02  0.37878575615E+01 -0.80745094425E+01  0.35909431743E+02  0.00000000000E+00 0.  1.
         21    1    1    2  502  501  0.56150741817E+02  0.68139225324E+01  0.10905091978E+00  0.56562772554E+02  0.00000000000E+00 0.  1.
<scales pt_clust_5="13000.00000" pt_clust_6="13000.00000" pt_clust_7="13000.00000" pt_clust_8="13000.00000" pt_clust_9="56.56267"></scales>
<clustering>
<clus scale="   56.563">  1  9  2 -1</clus>
<clus scale="   87.704">  5  6 -1 -1</clus>
<clus scale="   88.467">  2  5  1 -1</clus>
<clus scale="   92.536">  7  8 -1 -1</clus>
<clus scale="   56.563">  1  5  2 -1</clus>
</clustering>
</event>
<event>
 9    1  0.1296032E-005  0.1174155E+03  0.7546771E-02  0.1248329E+00
          1   -1    0    0  502    0  0.00000000000E+00  0.00000000000E+00  0.41296741620E+03  0.41296741620E+03  0.00000000000E+00 0. -1.
         -1   -1    0    0    0  501 -0.00000000000E+00 -0.00000000000E+00 -0.49260235240E+02  0.49260235240E+02  0.00000000000E+00 0.  1.
         23    2    1    2    0    0 -0.52853508800E+02 -0.39007018774E+02  0.75949865356E+02  0.13710102012E+03  0.93344880754E+02 0.  0.
         23    2    1    2    0    0  0.41826725024E+02  0.61695872566E+02  0.20186690704E+03  0.23560827382E+03  0.95943498567E+02 0.  0.
        -11    1    3    3    0    0 -0.41069601041E+02 -0.67175280909E+02  0.35365198926E+02  0.86312964205E+02  0.00000000000E+00 0.  1.
         11    1    3    3    0    0 -0.11783907759E+02  0.28168262136E+02  0.40584666430E+02  0.50788055910E+02  0.00000000000E+00 0. -1.
        -11    1    4    4    0    0 -0.11896013800E+02  0.57494405632E+02  0.14886173380E+03  0.16002167857E+03  0.00000000000E+00 0. -1.
         11    1    4    4    0    0  0.53722738824E+02  0.42014669336E+01  0.53005173243E+02  0.75586595252E+02  0.00000000000E+00 0.  1.
         21    1    1    2  502  501  0.11026783775E+02 -0.22688853792E+02  0.85890408557E+02  0.89518357497E+02  0.00000000000E+00 0.  1.
<scales pt_clust_5="13000.00000" pt_clust_6="13000.00000" pt_clust_7="13000.00000" pt_clust_8="13000.00000" pt_clust_9="25.22646"></scales>
<clustering>
<clus scale="   25.226">  1  9  2 -1</clus>
<clus scale="   93.345">  5  6 -1 -1</clus>
<clus scale="   95.943">  7  8 -1 -1</clus>
<clus scale="  115.302">  2  5  1 -1</clus>
<clus scale="   25.226">  1  5  2 -1</clus>
</clustering>
</event>
<event>
 9    1  0.1296032E-005  0.1192419E+03  0.7546771E-02  0.1244975E+00
          2   -1    0    0  502    0  0.00000000000E+00  0.00000000000E+00  0.29232967756E+03  0.29232967756E+03  0.00000000000E+00 0. -1.
         -2   -1    0    0    0  501 -0.00000000000E+00 -0.00000000000E+00 -0.15455599051E+03  0.15455599051E+03  0.00000000000E+00 0.  1.
         23    2    1    2    0    0 -0.15696255485E+02  0.68282871641E+02 -0.82726520193E+02  0.14260329291E+03  0.92645016114E+02 0.  0.
         23    2    1    2    0    0  0.60115760148E+02 -0.81950731463E+02  0.83919468292E+02  0.16001109929E+03  0.90726224053E+02 0.  0.
        -11    1    4    4    0    0  0.17846228157E+02 -0.68153063474E+02  0.65241261075E+01  0.70752329586E+02  0.00000000000E+00 0.  1.
         11    1    4    4    0    0  0.42269531990E+02 -0.13797667989E+02  0.77395342185E+02  0.89258769701E+02  0.00000000000E+00 0. -1.
        -11    1    3    3    0    0  0.20412099562E+02  0.46782784464E+02 -0.86471491012E+02  0.10041215807E+03  0.00000000000E+00 0.  1.
         11    1    3    3    0    0 -0.36108355047E+02  0.21500087177E+02  0.37449708187E+01  0.42191134842E+02  0.00000000000E+00 0. -1.
         21    1    1    2  502  501 -0.44419504662E+02  0.13667859822E+02  0.13658073896E+03  0.14427127587E+03  0.00000000000E+00 0. -1.
<scales pt_clust_5="13000.00000" pt_clust_6="13000.00000" pt_clust_7="13000.00000" pt_clust_8="13000.00000" pt_clust_9="46.47475"></scales>
<clustering>
<clus scale="   46.475">  1  9  2 -1</clus>
<clus scale="   90.726">  5  6 -1 -1</clus>
<clus scale="   92.645">  7  8 -1 -1</clus>
<clus scale="  117.757">  1  5  2 -1</clus>
<clus scale="   46.475">  1  5  2 -1</clus>
</clustering>
</event>
<event>
 9    1  0.1296032E-005  0.1034857E+03  0.7546771E-02  0.1273952E+00
          3   -1    0    0  502    0  0.00000000000E+00  0.00000000000E+00  0.77579875280E+02  0.77579875280E+02  0.00000000000E+00 0. -1.
         -3   -1    0    0    0  501 -0.00000000000E+00 -0.00000000000E+00 -0.28701306375E+03  0.28701306375E+03  0.00000000000E+00 0.  1.
         23    2    1    2    0    0 -0.84198644125E+01  0.58011331381E+02 -0.18896753693E+03  0.21814301760E+03  0.91877295508E+02 0.  0.
         23    2    1    2    0    0 -0.19439516578E+02 -0.23411189626E+02 -0.32450899799E+02  0.10043947594E+03  0.90050257211E+02 0.  0.
        -11    1    4    4    0    0 -0.49476185038E+02 -0.29023888753E+02 -0.21422981774E+01  0.57400944641E+02  0.00000000000E+00 0.  1.
         11    1    4    4    0    0  0.30036668460E+02  0.56126991269E+01 -0.30308601622E+02  0.43038531294E+02  0.00000000000E+00 0. -1.
        -13    1    3    3    0    0 -0.28193811742E+02 -0.14368294991E+02 -0.78150064215E+02  0.84313530696E+02  0.00000000000E+00 0.  1.
         13    1    3    3    0    0  0.19773947329E+02  0.72379626372E+02 -0.11081747271E+03  0.13382948690E+03  0.00000000000E+00 0. -1.
         21    1    1    2  502  501  0.27859380990E+02 -0.34600141754E+02  0.11985248259E+02  0.46010445492E+02  0.00000000000E+00 0. -1.
<scales pt_clust_5="13000.00000" pt_clust_6="13000.00000" pt_clust_7="13000.00000" pt_clust_8="13000.00000" pt_clust_9="44.42201"></scales>
<clustering>
<clus scale="   44.422">  1  9  2 -1</clus>
<clus scale="   90.050">  5  6 -1 -1</clus>
<clus scale="   91.877">  7  8 -1 -1</clus>
<clus scale="  101.867">  1  5  2 -1</clus>
<clus scale="   44.422">  1  5  2 -1</clus>
</clustering>
</event>
<event>
 9    1  0.1296032E-005  0.2667420E+03  0.7546771E-02  0.1130505E+00
         -2   -1    0    0    0  501 -0.00000000000E+00  0.00000000000E+00  0.10597626319E+03  0.10597626319E+03  0.00000000000E+00 0.  1.
          2   -1    0    0  502    0  0.00000000000E+00 -0.00000000000E+00 -0.11655047126E+04  0.11655047126E+04  0.00000000000E+00 0. -1.
         23    2    1    2    0    0 -0.46083920175E+02 -0.22718701477E+03 -0.25280147435E+03  0.35485418254E+03  0.90968335437E+02 0.  0.
         23    2    1    2    0    0  0.70096433802E+02 -0.58541689263E+02 -0.37602552137E+03  0.39920893954E+03  0.98142474355E+02 0.  0.
        -11    1    4    4    0    0 -0.18286383711E+02 -0.38773500581E+02 -0.13943921760E+03  0.14588033309E+03  0.00000000000E+00 0.  1.
         11    1    4    4    0    0  0.88382817513E+02 -0.19768188681E+02 -0.23658630377E+03  0.25332860645E+03  0.00000000000E+00 0. -1.
        -13    1    3    3    0    0 -0.88465043423E+01 -0.20176148109E+03 -0.22272812686E+03  0.30065557435E+03  0.00000000000E+00 0. -1.
         13    1    3    3    0    0 -0.37237415832E+02 -0.25425533684E+02 -0.30073347492E+02  0.54198608196E+02  0.00000000000E+00 0.  1.
         21    1    1    2  502  501 -0.24012513628E+02  0.28572870404E+03 -0.43070145371E+03  0.51741785372E+03  0.00000000000E+00 0.  1.
<scales pt_clust_5="13000.00000" pt_clust_6="13000.00000" pt_clust_7="13000.00000" pt_clust_8="13000.00000" pt_clust_9="250.75095"></scales>
<clustering>
<clus scale="   90.968">  7  8 -1 -1</clus>
<clus scale="   98.142">  5  6 -1 -1</clus>
<clus scale="  134.062">  2  5  1 -1</clus>
<clus scale="  250.751">  2  9  1 -1</clus>
<clus scale="  134.062">  2  5  1 -1</clus>
</clustering>
</event>
<event>
 9    1  0.1296032E-005  0.1082039E+03  0.7546771E-02  0.1264486E+00
          2   -1    0    0  502    0  0.00000000000E+00  0.00000000000E+00  0.50855251059E+03  0.50855251059E+03  0.00000000000E+00 0. -1.
         -2   -1    0    0    0  501 -0.00000000000E+00 -0.00000000000E+00 -0.17499379325E+03  0.17499379325E+03  0.00000000000E+00 0.  1.
         23    2    1    2    0    0 -0.40194958110E+02  0.24349823544E+02 -0.83747631670E+02  0.13157712423E+03  0.89946235306E+02 0.  0.
         23    2    1    2    0    0  0.11703189770E+03  0.23275880177E+02  0.28690072120E+02  0.15297703231E+03  0.91326997651E+02 0.  0.
        -11    1    3    3    0    0  0.26117804300E+02  0.59416054996E+01 -0.54510859828E+01  0.27334167552E+02  0.00000000000E+00 0. -1.
         11    1    3    3    0    0 -0.66312762410E+02  0.18408218044E+02 -0.78296545687E+02  0.10424295668E+03  0.00000000000E+00 0.  1.
        -13    1    4    4    0    0  0.54991841713E+02 -0.26094009182E+02  0.40075908425E+02  0.72877145980E+02  0.00000000000E+00 0.  1.
         13    1    4    4    0    0  0.62040055983E+02  0.49369889359E+02 -0.11385836305E+02  0.80099886330E+02  0.00000000000E+00 0. -1.
         21    1    1    2  502  501 -0.76836939586E+02 -0.47625703721E+02  0.38861627689E+03  0.39899214730E+03  0.00000000000E+00 0.  1.
<scales pt_clust_5="13000.00000" pt_clust_6="13000.00000" pt_clust_7="13000.00000" pt_clust_8="13000.00000" pt_clust_9="90.39980"></scales>
<clustering>
<clus scale="   89.946">  5  6 -1 -1</clus>
<clus scale="   90.400">  1  9  2 -1</clus>
<clus scale="   91.327">  7  8 -1 -1</clus>
<clus scale="  107.041">  2  5  1 -1</clus>
<clus scale="   90.400">  1  5  2 -1</clus>
</clustering>
</event>
<event>
 9    1  0.1296032E-005  0.2242569E+03  0.7546771E-02  0.1131086E+00
         -2   -1    0    0    0  501 -0.00000000000E+00  0.00000000000E+00  0.17832231311E+03  0.17832231311E+03  0.00000000000E+00 0.  1.
          2   -1    0    0  502    0  0.00000000000E+00 -0.00000000000E+00 -0.34317223085E+03  0.34317223085E+03  0.00000000000E+00 0. -1.
         23    2    1    2    0    0  0.66466602164E+02 -0.18509496026E+03 -0.25842913192E+02  0.21862315165E+03  0.91925365148E+02 0.  0.
         23    2    1    2    0    0 -0.91932678485E+02  0.19038576101E+03 -0.93453367793E+02  0.25041524456E+03  0.96311512237E+02 0.  0.
        -11    1    4    4    0    0 -0.38341494433E+02  0.25096101771E+02 -0.56538325733E+02  0.72776828703E+02  0.00000000000E+00 0.  1.
         11    1    4    4    0    0 -0.53591184053E+02  0.16528965923E+03 -0.36915042060E+02  0.17763841586E+03  0.00000000000E+00 0. -1.
        -13    1    3    3    0    0  0.63567019623E+02 -0.15648610845E+03  0.14004217782E+02  0.16948388194E+03  0.00000000000E+00 0.  1.
         13    1    3    3    0    0  0.28995825415E+01 -0.28608851816E+02 -0.39847130975E+02  0.49139269714E+02  0.00000000000E+00 0. -1.
         21    1    1    2  502  501  0.25466076321E+02 -0.52908007425E+01 -0.45553636751E+02  0.52456147752E+02  0.00000000000E+00 0.  1.
<scales pt_clust_5="13000.00000" pt_clust_6="13000.00000" pt_clust_7="13000.00000" pt_clust_8="13000.00000" pt_clust_9="26.00988"></scales>
<clustering>
<clus scale="   26.010">  2  9  1 -1</clus>
<clus scale="   91.925">  7  8 -1 -1</clus>
<clus scale="   96.312">  5  6 -1 -1</clus>
<clus scale="  222.408">  1  7  2 -1</clus>
<clus scale="   26.010">  2  5  1 -1</clus>
</clustering>
</event>
<event>
 9    1  0.1296032E-005  0.9364991E+02  0.7546771E-02  0.1300360E+00
          1   -1    0    0  502    0  0.00000000000E+00  0.00000000000E+00  0.16344457126E+03  0.16344457126E+03  0.00000000000E+00 0. -1.
         -1   -1    0    0    0  501 -0.00000000000E+00 -0.00000000000E+00 -0.86775755195E+02  0.86775755195E+02  0.00000000000E+00 0.  1.
         23    2    1    2    0    0  0.19511788406E+02 -0.18394788186E+02 -0.33025626064E+02  0.91086026450E+02  0.80541257243E+02 0.  0.
         23    2    1    2    0    0 -0.74604327012E+01 -0.41526375450E+00  0.98147028537E+02  0.13398681526E+03  0.90905428623E+02 0.  0.
        -13    1    3    3    0    0  0.36331481552E+02 -0.30327074363E+02 -0.46583759636E+02  0.66405983563E+02  0.00000000000E+00 0.  1.
         13    1    3    3    0    0 -0.16819693146E+02  0.11932286176E+02  0.13558133572E+02  0.24680042886E+02  0.00000000000E+00 0. -1.
        -13    1    4    4    0    0 -0.45287829659E+02 -0.64145814840E+01  0.26808842671E+02  0.53017435021E+02  0.00000000000E+00 0. -1.
         13    1    4    4    0    0  0.37827396958E+02  0.59993177295E+01  0.71338185866E+02  0.80969380240E+02  0.00000000000E+00 0.  1.
         21    1    1    2  502  501 -0.12051355705E+02  0.18810051941E+02  0.11547413594E+02  0.25147484746E+02  0.00000000000E+00 0.  1.
<scales pt_clust_5="13000.00000" pt_clust_6="13000.00000" pt_clust_7="13000.00000" pt_clust_8="13000.00000" pt_clust_9="22.33950"></scales>
<clustering>
<clus scale="   22.339">  1  9  2 -1</clus>
<clus scale="   80.541">  5  6 -1 -1</clus>
<clus scale="   83.627">  2  5  1 -1</clus>
<clus scale="   90.905">  7  8 -1 -1</clus>
<clus scale="   22.339">  1  5  2 -1</clus>
</clustering>
</event>
<event>
 9    1  0.1296032E-005  0.1882844E+03  0.7546771E-02  0.1185020E+00
         -1   -1    0    0    0  501 -0.00000000000E+00  0.00000000000E+00  0.55874804538E+02  0.55874804538E+02  0.00000000000E+00 0.  1.
          1   -1    0    0  502    0  0.00000000000E+00 -0.00000000000E+00 -0.10227676679E+04  0.10227676679E+04  0.00000000000E+00 0. -1.
         23    2    1    2    0    0 -0.13758206638E+02  0.18623588834E+03 -0.28377805884E+03  0.35115158649E+03  0.88906443302E+02 0.  0.
         23    2    1    2    0    0  0.45075371959E+02 -0.46061299638E+02 -0.29593537738E+03  0.31452891558E+03  0.84836658777E+02 0.  0.
        -11    1    3    3    0    0 -0.21678045599E+02  0.12412141117E+03 -0.25011310783E+03  0.28005826015E+03  0.00000000000E+00 0.  1.
         11    1    3    3    0    0  0.79198389607E+01  0.62114477171E+02 -0.33664951010E+02  0.71093326338E+02  0.00000000000E+00 0. -1.
        -13    1    4    4    0    0  0.63990994399E+02 -0.19783324938E+02 -0.13909662279E+03  0.15438295819E+03  0.00000000000E+00 0.  1.
         13    1    4    4    0    0 -0.18915622440E+02 -0.26277974700E+02 -0.15683875459E+03  0.16014595739E+03  0.00000000000E+00 0. -1.
         21    1    1    2  502  501 -0.31317165320E+02 -0.14017458870E+03 -0.38717942711E+03  0.41296197033E+03  0.00000000000E+00 0.  1.
<scales pt_clust_5="13000.00000" pt_clust_6="13000.00000" pt_clust_7="13000.00000" pt_clust_8="13000.00000" pt_clust_9="165.97191"></scales>
<clustering>
<clus scale="   84.837">  7  8 -1 -1</clus>
<clus scale="   88.906">  5  6 -1 -1</clus>
<clus scale="  106.540">  2  7  1 -1</clus>
<clus scale="  165.972">  2  9  1 -1</clus>
<clus scale="  106.540">  2  5  1 -1</clus>
</clustering>
</event>
<event>
 9    1  0.1296032E-005  0.1205141E+03  0.7546771E-02  0.1242596E+00
         -2   -1    0    0    0  501 -0.00000000000E+00  0.00000000000E+00  0.23436713921E+02  0.23436713921E+02  0.00000000000E+00 0.  1.
          2   -1    0    0  502    0  0.00000000000E+00 -0.00000000000E+00 -0.90106464136E+03  0.90106464136E+03  0.00000000000E+00 0. -1.
         23    2    1    2    0    0  0.22367292678E+02 -0.58471335261E+02 -0.23732218203E+03  0.26220139740E+03  0.92241866229E+02 0.  0.
         23    2    1    2    0    0 -0.54360057470E+02  0.65333365847E+02 -0.58112703132E+03  0.59467788557E+03  0.93325754812E+02 0.  0.
        -11    1    3    3    0    0  0.28989222456E+02  0.69158994110E+01 -0.21919333241E+02  0.36995430164E+02  0.00000000000E+00 0.  1.
         11    1    3    3    0    0 -0.66219297774E+01 -0.65387234672E+02 -0.21540284879E+03  0.22520596724E+03  0.00000000000E+00 0. -1.
        -11    1    4    4    0    0 -0.74445910346E+02  0.69314896480E+02 -0.52865485406E+03  0.53835183956E+03  0.00000000000E+00 0. -1.
         11    1    4    4    0    0  0.20085852877E+02 -0.39815306329E+01 -0.52472177268E+02  0.56326046010E+02  0.00000000000E+00 0.  1.
         21    1    1    2  502  501  0.31992764792E+02 -0.68620305860E+01 -0.59178714088E+02  0.67622072312E+02  0.00000000000E+00 0. -1.
<scales pt_clust_5="13000.00000" pt_clust_6="13000.00000" pt_clust_7="13000.00000" pt_clust_8="13000.00000" pt_clust_9="32.72040"></scales>
<clustering>
<clus scale="   32.720">  1  9  2 -1</clus>
<clus scale="   92.242">  5  6 -1 -1</clus>
<clus scale="   93.326">  7  8 -1 -1</clus>
<clus scale="  119.677">  1  5  2 -1</clus>
<clus scale="  120.514">  2  5  1 -1</clus>
</clustering>
</event>
<event>
 9    1  0.1296032E-005  0.1515502E+03  0.7546771E-02  0.1199791E+00
         -2   -1    0    0    0  501 -0.00000000000E+00  0.00000000000E+00  0.26472494056E+03  0.26472494056E+03  0.00000000000E+00 0.  1.
          2   -1    0    0  502    0  0.00000000000E+00 -0.00000000000E+00 -0.33656465778E+03  0.33656465778E+03  0.00000000000E+00 0. -1.
         23    2    1    2    0    0 -0.33988726322E+02 -0.11767382109E+03  0.19927930288E+03  0.25031450941E+03  0.89122114987E+02 0.  0.
         23    2    1    2    0    0  0.93411732861E+02  0.99908681565E+02 -0.21133987194E+03  0.26483427141E+03  0.82250552314E+02 0.  0.
        -11    1    4    4    0    0  0.45864780550E+02  0.66696253535E+02 -0.54414597889E+02  0.97534182695E+02  0.00000000000E+00 0.  1.
         11    1    4    4    0    0  0.47546952311E+02  0.33212428030E+02 -0.15692527405E+03  0.16730008872E+03  0.00000000000E+00 0. -1.
        -11    1    3    3    0    0  0.26266839732E+02 -0.59258819294E+02  0.63816927707E+02  0.90962381211E+02  0.00000000000E+00 0. -1.
         11    1    3    3    0    0 -0.60255566054E+02 -0.58415001794E+02  0.13546237517E+03  0.15935212820E+03  0.00000000000E+00 0.  1.
         21    1    1    2  502  501 -0.59423006540E+02  0.17765139524E+02 -0.59779148155E+02  0.86140817518E+02  0.00000000000E+00 0.  1.
<scales pt_clust_5="13000.00000" pt_clust_6="13000.00000" pt_clust_7="13000.00000" pt_clust_8="13000.00000" pt_clust_9="62.02172"></scales>
<clustering>
<clus scale="   62.022">  2  9  1 -1</clus>
<clus scale="   82.251">  5  6 -1 -1</clus>
<clus scale="   89.122">  7  8 -1 -1</clus>
<clus scale="  147.614">  2  5  1 -1</clus>
<clus scale="   62.022">  2  5  1 -1</clus>
</clustering>
</event>
<event>
 9    1  0.1379242E-005  0.1121415E+03  0.7546771E-02  0.1257248E+00
         -1   -1    0    0    0  501 -0.00000000000E+00  0.00000000000E+00  0.19598828284E+03  0.19598828284E+03  0.00000000000E+00 0.  1.
          1   -1    0    0  502    0  0.00000000000E+00 -0.00000000000E+00 -0.15800253826E+03  0.15800253826E+03  0.00000000000E+00 0. -1.
         23    2    1    2    0    0 -0.21540964580E+02 -0.59470834174E+02  0.14441590593E+03  0.18302671052E+03  0.92962517205E+02 0.  0.
         23    2    1    2    0    0  0.72852008237E+01  0.41232706018E+02 -0.10563445642E+03  0.14780187267E+03  0.94517432171E+02 0.  0.
        -11    1    4    4    0    0  0.47666334400E+02  0.23033662353E+02 -0.31962792110E+02  0.61840513549E+02  0.00000000000E+00 0. -1.
         11    1    4    4    0    0 -0.40381133577E+02  0.18199043666E+02 -0.73671664309E+02  0.85961359117E+02  0.00000000000E+00 0.  1.
        -13    1    3    3    0    0  0.26487449526E+02 -0.33405033666E+01  0.82257135256E+02  0.86481097620E+02  0.00000000000E+00 0. -1.
         13    1    3    3    0    0 -0.48028414107E+02 -0.56130330808E+02  0.62158770679E+02  0.96545612901E+02  0.00000000000E+00 0.  1.
         21    1    1    2  502  501  0.14255763757E+02  0.18238128156E+02 -0.79570493128E+00  0.23162237916E+02  0.00000000000E+00 0. -1.
<scales pt_clust_5="13000.00000" pt_clust_6="13000.00000" pt_clust_7="13000.00000" pt_clust_8="13000.00000" pt_clust_9="23.14857"></scales>
<clustering>
<clus scale="   23.149">  2  9  1 -1</clus>
<clus scale="   92.963">  7  8 -1 -1</clus>
<clus scale="   94.517">  5  6 -1 -1</clus>
<clus scale="  110.834">  1  7  2 -1</clus>
<clus scale="   23.149">  2  5  1 -1</clus>
</clustering>
</event>
<event>
 9    1  0.1296032E-005  0.1455335E+03  0.7546771E-02  0.1206103E+00
         -1   -1    0    0    0  501 -0.00000000000E+00  0.00000000000E+00  0.71904782924E+02  0.71904782924E+02  0.00000000000E+00 0.  1.
          1   -1    0    0  502    0  0.00000000000E+00 -0.00000000000E+00 -0.43984082116E+03  0.43984082116E+03  0.00000000000E+00 0. -1.
         23    2    1    2    0    0  0.10419557616E+03 -0.82102869015E+02 -0.91561648172E+02  0.18524718465E+03  0.91298328648E+02 0.  0.
         23    2    1    2    0    0 -0.62967878201E+02  0.57457204916E+02 -0.18309045369E+03  0.22157452024E+03  0.91142030387E+02 0.  0.
        -11    1    4    4    0    0 -0.85472767921E+02  0.56063569791E+02 -0.14825550247E+03  0.18007890473E+03  0.00000000000E+00 0. -1.
         11    1    4    4    0    0  0.22504889720E+02  0.13936351244E+01 -0.34834951219E+02  0.41495615511E+02  0.00000000000E+00 0.  1.
        -13    1    3    3    0    0  0.11708121782E+03 -0.66072560078E+02 -0.94697715889E+02  0.16444224566E+03  0.00000000000E+00 0.  1.
         13    1    3    3    0    0 -0.12885641667E+02 -0.16030308936E+02  0.31360677170E+01  0.20804938993E+02  0.00000000000E+00 0. -1.
         21    1    1    2  502  501 -0.41227697956E+02  0.24645664099E+02 -0.93283936365E+02  0.10492389919E+03  0.00000000000E+00 0. -1.
<scales pt_clust_5="13000.00000" pt_clust_6="13000.00000" pt_clust_7="13000.00000" pt_clust_8="13000.00000" pt_clust_9="48.03261"></scales>
<clustering>
<clus scale="   48.033">  2  9  1 -1</clus>
<clus scale="   91.142">  5  6 -1 -1</clus>
<clus scale="   91.298">  7  8 -1 -1</clus>
<clus scale="  145.436">  2  5  1 -1</clus>
<clus scale="   48.033">  2  5  1 -1</clus>
</clustering>
</event>
<event>
 9    1  0.1296032E-005  0.1131835E+03  0.7546771E-02  0.1255150E+00
          1   -1    0    0  502    0  0.00000000000E+00  0.00000000000E+00  0.25959704556E+03  0.25959704556E+03  0.00000000000E+00 0. -1.
         -1   -1    0    0    0  501 -0.00000000000E+00 -0.00000000000E+00 -0.11631271426E+03  0.11631271426E+03  0.00000000000E+00 0.  1.
         23    2    1    2    0    0  0.41377002114E+00 -0.55177678423E+02 -0.26304214549E+02  0.11079076558E+03  0.92400944980E+02 0.  0.
         23    2    1    2    0    0  0.35883241228E+02  0.86754037516E+02  0.57398321122E+02  0.14304858012E+03  0.91402729612E+02 0.  0.
        -13    1    3    3    0    0 -0.27351413903E+02 -0.41507060015E+02 -0.50984615030E+02  0.71206508434E+02  0.00000000000E+00 0.  1.
         13    1    3    3    0    0  0.27765183924E+02 -0.13670618408E+02  0.24680400481E+02  0.39584257147E+02  0.00000000000E+00 0. -1.
        -13    1    4    4    0    0  0.30169302951E+02  0.10638594367E+03  0.48576180917E+02  0.12077997021E+03  0.00000000000E+00 0. -1.
         13    1    4    4    0    0  0.57139382768E+01 -0.19631906151E+02  0.88221402047E+01  0.22268609915E+02  0.00000000000E+00 0.  1.
         21    1    1    2  502  501 -0.36297011249E+02 -0.31576359093E+02  0.11219022473E+03  0.12207041412E+03  0.00000000000E+00 0.  1.
<scales pt_clust_5="13000.00000" pt_clust_6="13000.00000" pt_clust_7="13000.00000" pt_clust_8="13000.00000" pt_clust_9="48.10966"></scales>
<clustering>
<clus scale="   48.110">  1  9  2 -1</clus>
<clus scale="   91.403">  7  8 -1 -1</clus>
<clus scale="   92.401">  5  6 -1 -1</clus>
<clus scale="  112.370">  1  7  2 -1</clus>
<clus scale="   48.110">  1  5  2 -1</clus>
</clustering>
</event>
<event>
 9    1  0.1296032E-005  0.2382483E+03  0.7546771E-02  0.1120986E+00
          2   -1    0    0  502    0  0.00000000000E+00  0.00000000000E+00  0.10415289016E+04  0.10415289016E+04  0.00000000000E+00 0. -1.
         -2   -1    0    0    0  501 -0.00000000000E+00 -0.00000000000E+00 -0.13582784489E+03  0.13582784489E+03  0.00000000000E+00 0.  1.
         23    2    1    2    0    0 -0.15552407773E+03  0.10024569695E+03  0.12000583550E+03  0.23831270100E+03  0.90302848221E+02 0.  0.
         23    2    1    2    0    0  0.28432167854E+03 -0.19209712813E+03  0.57225345939E+03  0.67336963370E+03  0.90622945706E+02 0.  0.
        -11    1    4    4    0    0  0.14559324283E+03 -0.63148519339E+02  0.19651313263E+03  0.25259164505E+03  0.00000000000E+00 0.  1.
         11    1    4    4    0    0  0.13872843571E+03 -0.12894860879E+03  0.37574032675E+03  0.42077798865E+03  0.00000000000E+00 0. -1.
        -13    1    3    3    0    0 -0.97076099978E+02  0.42332414357E+02  0.11431963430E+03  0.15583575096E+03  0.00000000000E+00 0.  1.
         13    1    3    3    0    0 -0.58447977748E+02  0.57913282597E+02  0.56862011966E+01  0.82476950041E+02  0.00000000000E+00 0. -1.
         21    1    1    2  502  501 -0.12879760082E+03  0.91851431173E+02  0.21344176178E+03  0.26567441175E+03  0.00000000000E+00 0. -1.
<scales pt_clust_5="13000.00000" pt_clust_6="13000.00000" pt_clust_7="13000.00000" pt_clust_8="13000.00000" pt_clust_9="158.19452"></scales>
<clustering>
<clus scale="   90.303">  7  8 -1 -1</clus>
<clus scale="   90.623">  5  6 -1 -1</clus>
<clus scale="  158.195">  1  9  2 -1</clus>
<clus scale="  238.127">  2  7  1 -1</clus>
<clus scale="  158.195">  1  5  2 -1</clus>
</clustering>
</event>
<event>
 9    1  0.1296032E-005  0.9574881E+02  0.7546771E-02  0.1290721E+00
         -1   -1    0    0    0  501 -0.00000000000E+00  0.00000000000E+00  0.11788883664E+03  0.11788883664E+03  0.00000000000E+00 0.  1.
          1   -1    0    0  502    0  0.00000000000E+00 -0.00000000000E+00 -0.34204716723E+03  0.34204716723E+03  0.00000000000E+00 0. -1.
         23    2    1    2    0    0 -0.15768066175E+02 -0.21443213643E+02  0.79489231612E+02  0.12464463519E+03  0.92245887803E+02 0.  0.
         23    2    1    2    0    0 -0.14158137679E+02  0.31092679162E+02 -0.14836015474E+03  0.17685251999E+03  0.89993726183E+02 0.  0.
        -11    1    3    3    0    0 -0.28746963461E+02  0.24926449383E+02  0.63279288219E+02  0.73837552130E+02  0.00000000000E+00 0. -1.
         11    1    3    3    0    0  0.12978897286E+02 -0.46369663027E+02  0.16209943393E+02  0.50807083057E+02  0.00000000000E+00 0.  1.
        -11    1    4    4    0    0 -0.20043368374E+02 -0.37386099446E+01  0.37182621650E+01  0.20725329759E+02  0.00000000000E+00 0.  1.
         11    1    4    4    0    0  0.58852306949E+01  0.34831289106E+02 -0.15207841690E+03  0.15612719023E+03  0.00000000000E+00 0. -1.
         21    1    1    2  502  501  0.29926203854E+02 -0.96494655183E+01 -0.15528740745E+03  0.15843884869E+03  0.00000000000E+00 0.  1.
<scales pt_clust_5="13000.00000" pt_clust_6="13000.00000" pt_clust_7="13000.00000" pt_clust_8="13000.00000" pt_clust_9="31.44344"></scales>
<clustering>
<clus scale="   31.443">  2  9  1 -1</clus>
<clus scale="   89.994">  7  8 -1 -1</clus>
<clus scale="   92.246">  5  6 -1 -1</clus>
<clus scale="   93.581">  2  7  1 -1</clus>
<clus scale="   31.443">  2  5  1 -1</clus>
</clustering>
</event>
<event>
 9    1  0.1296032E-005  0.9150498E+02  0.7546771E-02  0.1299457E+00
         -3   -1    0    0    0  501 -0.00000000000E+00  0.00000000000E+00  0.58096762381E+03  0.58096762381E+03  0.00000000000E+00 0.  1.
          3   -1    0    0  502    0  0.00000000000E+00 -0.00000000000E+00 -0.21183673691E+02  0.21183673691E+02  0.00000000000E+00 0. -1.
         23    2    1    2    0    0 -0.49375967089E+01  0.17764270507E+02  0.26143395776E+03  0.27747140649E+03  0.91119251428E+02 0.  0.
         23    2    1    2    0    0 -0.58466149750E+01  0.14122577409E+02  0.24031806298E+03  0.25759207454E+03  0.91472812194E+02 0.  0.
        -11    1    4    4    0    0  0.20215116494E+02  0.30437159068E+02  0.21406756644E+03  0.21716352039E+03  0.00000000000E+00 0.  1.
         11    1    4    4    0    0 -0.26061731469E+02 -0.16314581659E+02  0.26250496543E+02  0.40428554149E+02  0.00000000000E+00 0. -1.
        -13    1    3    3    0    0  0.38582908801E+02  0.26191696785E+02  0.10524565810E+03  0.11511426663E+03  0.00000000000E+00 0.  1.
         13    1    3    3    0    0 -0.43520505510E+02 -0.84274262780E+01  0.15618829966E+03  0.16235713987E+03  0.00000000000E+00 0. -1.
         21    1    1    2  502  501  0.10784211684E+02 -0.31886847917E+02  0.58031929368E+02  0.67087816463E+02  0.00000000000E+00 0.  1.
<scales pt_clust_5="13000.00000" pt_clust_6="13000.00000" pt_clust_7="13000.00000" pt_clust_8="13000.00000" pt_clust_9="33.66111"></scales>
<clustering>
<clus scale="   33.661">  2  9  1 -1</clus>
<clus scale="   91.119">  7  8 -1 -1</clus>
<clus scale="   91.152">  1  7  2 -1</clus>
<clus scale="   91.473">  5  6 -1 -1</clus>
<clus scale="   33.661">  2  5  1 -1</clus>
</clustering>
</event>
<event>
 9    1  0.1296032E-005  0.1206431E+03  0.7546771E-02  0.1245255E+00
          2   -1    0    0  502    0  0.00000000000E+00  0.00000000000E+00  0.69476631342E+03  0.69476631342E+03  0.00000000000E+00 0. -1.
         -2   -1    0    0    0  501 -0.00000000000E+00 -0.00000000000E+00 -0.31102558652E+03  0.31102558652E+03  0.00000000000E+00 0.  1.
         23    2    1    2    0    0  0.28067917981E+02  0.73894326768E+02 -0.25820565986E+03  0.28652211125E+03  0.95794456536E+02 0.  0.
         23    2    1    2    0    0 -0.84670501723E+02  0.49220905864E+01  0.71005456839E+02  0.14014162878E+03  0.86049871458E+02 0.  0.
        -11    1    4    4    0    0 -0.55188418198E+02  0.17196275275E+02  0.86978003608E+02  0.10443489119E+03  0.00000000000E+00 0.  1.
         11    1    4    4    0    0 -0.29482083525E+02 -0.12274184689E+02 -0.15972546769E+02  0.35706737586E+02  0.00000000000E+00 0. -1.
        -13    1    3    3    0    0 -0.13235510247E+02  0.31382142470E+02 -0.20195480797E+03  0.20480664554E+03  0.00000000000E+00 0.  1.
         13    1    3    3    0    0  0.41303428228E+02  0.42512184298E+02 -0.56250851896E+02  0.81715465710E+02  0.00000000000E+00 0. -1.
         21    1    1    2  502  501  0.56602583742E+02 -0.78816417354E+02  0.57094092993E+03  0.57912815991E+03  0.00000000000E+00 0. -1.
<scales pt_clust_5="13000.00000" pt_clust_6="13000.00000" pt_clust_7="13000.00000" pt_clust_8="13000.00000" pt_clust_9="97.03546"></scales>
<clustering>
<clus scale="   86.050">  5  6 -1 -1</clus>
<clus scale="   95.794">  7  8 -1 -1</clus>
<clus scale="   97.035">  1  9  2 -1</clus>
<clus scale="  113.061">  1  5  2 -1</clus>
<clus scale="   97.035">  1  5  2 -1</clus>
</clustering>
</event>
<event>
 9    1  0.1296032E-005  0.9341794E+02  0.7546771E-02  0.1295246E+00
          2   -1    0    0  502    0  0.00000000000E+00  0.00000000000E+00  0.49893924637E+03  0.49893924637E+03  0.00000000000E+00 0. -1.
         -2   -1    0    0    0  501 -0.00000000000E+00 -0.00000000000E+00 -0.27011773293E+02  0.27011773293E+02  0.00000000000E+00 0.  1.
         23    2    1    2    0    0  0.69326225498E+01  0.88635830000E+01  0.14134644991E+03  0.16898039021E+03  0.91918055964E+02 0.  0.
         23    2    1    2    0    0  0.13420211599E+02 -0.25894722788E+02  0.17775117147E+03  0.20185370211E+03  0.91097746127E+02 0.  0.
        -11    1    4    4    0    0  0.52185988659E+02 -0.14088702335E+02  0.86371256776E+02  0.10189142723E+03  0.00000000000E+00 0.  1.
         11    1    4    4    0    0 -0.38765777060E+02 -0.11806020452E+02  0.91379914694E+02  0.99962274882E+02  0.00000000000E+00 0. -1.
        -13    1    3    3    0    0  0.11453412564E+02 -0.33957876042E+02  0.11007982083E+03  0.11576651052E+03  0.00000000000E+00 0.  1.
         13    1    3    3    0    0 -0.45207900146E+01  0.42821459042E+02  0.31266629085E+02  0.53213879686E+02  0.00000000000E+00 0. -1.
         21    1    1    2  502  501 -0.20352834148E+02  0.17031139788E+02  0.15282985169E+03  0.15511692734E+03  0.00000000000E+00 0. -1.
<scales pt_clust_5="13000.00000" pt_clust_6="13000.00000" pt_clust_7="13000.00000" pt_clust_8="13000.00000" pt_clust_9="26.53861"></scales>
<clustering>
<clus scale="   26.539">  1  9  2 -1</clus>
<clus scale="   91.098">  5  6 -1 -1</clus>
<clus scale="   91.918">  7  8 -1 -1</clus>
<clus scale="   92.611">  1  5  2 -1</clus>
<clus scale="   26.539">  1  5  2 -1</clus>
</clustering>
</event>
<event>
 9    1  0.1296032E-005  0.1298156E+03  0.7546771E-02  0.1228809E+00
          1   -1    0    0  502    0  0.00000000000E+00  0.00000000000E+00  0.22080454354E+03  0.22080454354E+03  0.00000000000E+00 0. -1.
         -1   -1    0    0    0  501 -0.00000000000E+00 -0.00000000000E+00 -0.30323512709E+03  0.30323512709E+03  0.00000000000E+00 0.  1.
         23    2    1    2    0    0  0.82804000677E+02  0.39668454243E+02 -0.23977118748E+03  0.27236300284E+03  0.90891661769E+02 0.  0.
         23    2    1    2    0    0 -0.68000015435E+02 -0.89639254344E+02  0.13114664125E+03  0.19334689390E+03  0.86743194827E+02 0.  0.
        -11    1    3    3    0    0  0.64020818650E+02  0.60496891493E+02 -0.22280367490E+03  0.23958300576E+03  0.00000000000E+00 0.  1.
         11    1    3    3    0    0  0.18783182026E+02 -0.20828437250E+02 -0.16967512586E+02  0.32779997081E+02  0.00000000000E+00 0. -1.
        -13    1    4    4    0    0 -0.45161704904E+02 -0.29815538082E+02  0.11531843752E+03  0.12738480259E+03  0.00000000000E+00 0. -1.
         13    1    4    4    0    0 -0.22838310531E+02 -0.59823716262E+02  0.15828203738E+02  0.65962091302E+02  0.00000000000E+00 0.  1.
         21    1    1    2  502  501 -0.14803985241E+02  0.49970800101E+02  0.26193962678E+02  0.58329773894E+02  0.00000000000E+00 0.  1.
<scales pt_clust_5="13000.00000" pt_clust_6="13000.00000" pt_clust_7="13000.00000" pt_clust_8="13000.00000" pt_clust_9="52.11755"></scales>
<clustering>
<clus scale="   52.118">  1  9  2 -1</clus>
<clus scale="   86.743">  7  8 -1 -1</clus>
<clus scale="   90.892">  5  6 -1 -1</clus>
<clus scale="  126.946">  1  7  2 -1</clus>
<clus scale="   52.118">  1  5  2 -1</clus>
</clustering>
</event>
<event>
 9    1  0.1296032E-005  0.1196827E+03  0.7546771E-02  0.1244205E+00
          1   -1    0    0  502    0  0.00000000000E+00  0.00000000000E+00  0.12468518110E+03  0.12468518110E+03  0.00000000000E+00 0. -1.
         -1   -1    0    0    0  501 -0.00000000000E+00 -0.00000000000E+00 -0.30269199527E+03  0.30269199527E+03  0.00000000000E+00 0.  1.
         23    2    1    2    0    0 -0.12634376484E+02 -0.83847309895E+02 -0.21985457357E+03  0.25289388420E+03  0.91811133878E+02 0.  0.
         23    2    1    2    0    0  0.37385575281E+02  0.63655740946E+02  0.64289599629E+02  0.13544539402E+03  0.93608586926E+02 0.  0.
        -11    1    4    4    0    0 -0.22318634528E+01  0.75757969454E+02  0.29427715338E+02  0.81303392182E+02  0.00000000000E+00 0. -1.
         11    1    4    4    0    0  0.39617438734E+02 -0.12102228508E+02  0.34861884291E+02  0.54142001838E+02  0.00000000000E+00 0.  1.
        -13    1    3    3    0    0 -0.23155265247E+02 -0.44079370892E+02 -0.28924870173E+02  0.57583030151E+02  0.00000000000E+00 0. -1.
         13    1    3    3    0    0  0.10520888763E+02 -0.39767939003E+02 -0.19092970339E+03  0.19531085405E+03  0.00000000000E+00 0.  1.
         21    1    1    2  502  501 -0.24751198797E+02  0.20191568949E+02 -0.22441840237E+02  0.39037898147E+02  0.00000000000E+00 0.  1.
<scales pt_clust_5="13000.00000" pt_clust_6="13000.00000" pt_clust_7="13000.00000" pt_clust_8="13000.00000" pt_clust_9="31.94247"></scales>
<clustering>
<clus scale="   31.942">  2  9  1 -1</clus>
<clus scale="   91.811">  7  8 -1 -1</clus>
<clus scale="   93.609">  5  6 -1 -1</clus>
<clus scale="  118.282">  2  7  1 -1</clus>
<clus scale="  119.683">  1  5  2 -1</clus>
</clustering>
</event>
<event>
 9    1  0.1296032E-005  0.1195554E+03  0.7546771E-02  0.1243865E+00
          2   -1    0    0  502    0  0.00000000000E+00  0.00000000000E+00  0.32270832136E+03  0.32270832136E+03  0.00000000000E+00 0. -1.
         -2   -1    0    0    0  501 -0.00000000000E+00 -0.00000000000E+00 -0.62673771884E+02  0.62673771884E+02  0.00000000000E+00 0.  1.
         23    2    1    2    0    0  0.55605671342E+02 -0.52585788012E+02  0.47503405855E+02  0.12982698014E+03  0.93494467313E+02 0.  0.
         23    2    1    2    0    0 -0.64592884214E+02  0.32778535393E+02  0.16191559140E+03  0.20046399424E+03  0.93394224517E+02 0.  0.
        -11    1    3    3    0    0  0.54520325610E+02 -0.76408452966E+02  0.49089634254E+02  0.10592690773E+03  0.00000000000E+00 0.  1.
         11    1    3    3    0    0  0.10853457320E+01  0.23822664953E+02 -0.15862283994E+01  0.23900072414E+02  0.00000000000E+00 0. -1.
        -11    1    4    4    0    0 -0.59040722438E+02 -0.10871425107E+02  0.43497778535E+02  0.74135359494E+02  0.00000000000E+00 0.  1.
         11    1    4    4    0    0 -0.55521617761E+01  0.43649960500E+02  0.11841781287E+03  0.12632863474E+03  0.00000000000E+00 0. -1.
         21    1    1    2  502  501  0.89872128723E+01  0.19807252619E+02  0.50615552219E+02  0.55091118867E+02  0.00000000000E+00 0. -1.
<scales pt_clust_5="13000.00000" pt_clust_6="13000.00000" pt_clust_7="13000.00000" pt_clust_8="13000.00000" pt_clust_9="21.75080"></scales>
<clustering>
<clus scale="   21.751">  1  9  2 -1</clus>
<clus scale="   93.394">  7  8 -1 -1</clus>
<clus scale="   93.494">  5  6 -1 -1</clus>
<clus scale="  119.477">  1  7  2 -1</clus>
<clus scale="   21.751">  1  5  2 -1</clus>
</clustering>
</event>
<event>
 9    1  0.1296032E-005  0.9487219E+02  0.7546771E-02  0.1293256E+00
          1   -1    0    0  502    0  0.00000000000E+00  0.00000000000E+00  0.64197992307E+02  0.64197992307E+02  0.00000000000E+00 0. -1.
         -1   -1    0    0    0  501 -0.00000000000E+00 -0.00000000000E+00 -0.18479943431E+03  0.18479943431E+03  0.00000000000E+00 0.  1.
         23    2    1    2    0    0 -0.18078710292E+00  0.32136987581E+01 -0.72410932447E+02  0.11903183197E+03  0.94418606962E+02 0.  0.
         23    2    1    2    0    0 -0.20271534767E+02  0.13241470779E+02 -0.38390155467E+02  0.10194565506E+03  0.91284395588E+02 0.  0.
        -13    1    4    4    0    0 -0.40714193386E+02 -0.87560729240E+01  0.11952803113E+02  0.43326479875E+02  0.00000000000E+00 0. -1.
         13    1    4    4    0    0  0.20442658619E+02  0.21997543703E+02 -0.50342958580E+02  0.58619175182E+02  0.00000000000E+00 0.  1.
        -13    1    3    3    0    0 -0.18105658382E+02  0.43731171954E+02 -0.22861966674E+02  0.52563293144E+02  0.00000000000E+00 0.  1.
         13    1    3    3    0    0  0.17924871280E+02 -0.40517473196E+02 -0.49548965773E+02  0.66468538826E+02  0.00000000000E+00 0. -1.
         21    1    1    2  502  501  0.20452321870E+02 -0.16455169537E+02 -0.98003540890E+01  0.28019939590E+02  0.00000000000E+00 0. -1.
<scales pt_clust_5="13000.00000" pt_clust_6="13000.00000" pt_clust_7="13000.00000" pt_clust_8="13000.00000" pt_clust_9="26.25014"></scales>
<clustering>
<clus scale="   26.250">  1  9  2 -1</clus>
<clus scale="   91.284">  5  6 -1 -1</clus>
<clus scale="   91.753">  1  5  2 -1</clus>
<clus scale="   94.419">  7  8 -1 -1</clus>
<clus scale="   26.250">  1  5  2 -1</clus>
</clustering>
</event>
<event>
 9    1  0.1296032E-005  0.1056323E+03  0.7546771E-02  0.1268890E+00
          1   -1    0    0  502    0  0.00000000000E+00  0.00000000000E+00  0.23952245434E+03  0.23952245434E+03  0.00000000000E+00 0. -1.
         -1   -1    0    0    0  501 -0.00000000000E+00 -0.00000000000E+00 -0.10008940974E+03  0.10008940974E+03  0.00000000000E+00 0.  1.
         23    2    1    2    0    0  0.33680296648E+02  0.36165328887E+02 -0.21716047927E+02  0.10401831858E+03  0.88915299396E+02 0.  0.
         23    2    1    2    0    0 -0.33898746265E+02 -0.70136324009E+02  0.67885060161E+02  0.13633501457E+03  0.88941699230E+02 0.  0.
        -11    1    3    3    0    0  0.13949347447E+02 -0.27008859456E+02  0.80541595139E+01  0.31447293506E+02  0.00000000000E+00 0.  1.
         11    1    3    3    0    0  0.19730949200E+02  0.63174188344E+02 -0.29770207441E+02  0.72571025074E+02  0.00000000000E+00 0. -1.
        -13    1    4    4    0    0 -0.11557869283E+02 -0.36164492115E+02  0.84324782533E+02  0.92477693426E+02  0.00000000000E+00 0. -1.
         13    1    4    4    0    0 -0.22340876982E+02 -0.33971831894E+02 -0.16439722371E+02  0.43857321147E+02  0.00000000000E+00 0.  1.
         21    1    1    2  502  501  0.21844961754E+00  0.33970995122E+02  0.93264032361E+02  0.99258530928E+02  0.00000000000E+00 0.  1.
<scales pt_clust_5="13000.00000" pt_clust_6="13000.00000" pt_clust_7="13000.00000" pt_clust_8="13000.00000" pt_clust_9="33.97170"></scales>
<clustering>
<clus scale="   33.972">  1  9  2 -1</clus>
<clus scale="   88.915">  5  6 -1 -1</clus>
<clus scale="   88.942">  7  8 -1 -1</clus>
<clus scale="  105.610">  2  5  1 -1</clus>
<clus scale="   33.972">  1  5  2 -1</clus>
</clustering>
</event>
<event>
 9    1  0.1296032E-005  0.9046330E+02  0.7546771E-02  0.1301784E+00
         -1   -1    0    0    0  501 -0.00000000000E+00  0.00000000000E+00  0.39691469680E+02  0.39691469680E+02  0.00000000000E+00 0.  1.
          1   -1    0    0  502    0  0.00000000000E+00 -0.00000000000E+00 -0.36565252500E+03  0.36565252500E+03  0.00000000000E+00 0. -1.
         23    2    1    2    0    0  0.18790924631E+02 -0.65140286210E+01 -0.67337039096E+02  0.11410862381E+03  0.89949818095E+02 0.  0.
         23    2    1    2    0    0  0.68590747738E+01  0.17201966495E+01 -0.11950697902E+03  0.14969225611E+03  0.89865719404E+02 0.  0.
        -11    1    4    4    0    0 -0.20402900206E+02 -0.88271283900E+01 -0.11836953764E+03  0.12043896368E+03  0.00000000000E+00 0. -1.
         11    1    4    4    0    0  0.27261974979E+02  0.10547325040E+02 -0.11374413792E+01  0.29253292433E+02  0.00000000000E+00 0.  1.
        -13    1    3    3    0    0  0.19033885885E+02  0.39688372114E+02 -0.21353448048E+02  0.48922647480E+02  0.00000000000E+00 0.  1.
         13    1    3    3    0    0 -0.24296125354E+00 -0.46202400735E+02 -0.45983591048E+02  0.65185976326E+02  0.00000000000E+00 0. -1.
         21    1    1    2  502  501 -0.25649999405E+02  0.47938319715E+01 -0.13911703721E+03  0.14154311476E+03  0.00000000000E+00 0. -1.
<scales pt_clust_5="13000.00000" pt_clust_6="13000.00000" pt_clust_7="13000.00000" pt_clust_8="13000.00000" pt_clust_9="26.09412"></scales>
<clustering>
<clus scale="   26.094">  2  9  1 -1</clus>
<clus scale="   89.866">  5  6 -1 -1</clus>
<clus scale="   89.950">  7  8 -1 -1</clus>
<clus scale="   90.380">  2  5  1 -1</clus>
<clus scale="   26.094">  2  5  1 -1</clus>
</clustering>
</event>
<event>
 9    1  0.1296032E-005  0.1253339E+03  0.7546771E-02  0.1234865E+00
         -1   -1    0    0    0  501 -0.00000000000E+00  0.00000000000E+00  0.85210851248E+02  0.85210851248E+02  0.00000000000E+00 0.  1.
          1   -1    0    0  502    0  0.00000000000E+00 -0.00000000000E+00 -0.43017215634E+03  0.43017215634E+03  0.00000000000E+00 0. -1.
         23    2    1    2    0    0  0.86621721611E+02 -0.34617754571E+02  0.15811404060E+01  0.13039841225E+03  0.91101780043E+02 0.  0.
         23    2    1    2    0    0 -0.56508176388E+02 -0.12044989392E+02 -0.26350309064E+03  0.28508578786E+03  0.92205053511E+02 0.  0.
        -11    1    4    4    0    0 -0.28090020125E+02  0.33011986500E+02 -0.18637853212E+03  0.19135254824E+03  0.00000000000E+00 0. -1.
         11    1    4    4    0    0 -0.28418156263E+02 -0.45056975892E+02 -0.77124558522E+02  0.93733239617E+02  0.00000000000E+00 0.  1.
        -13    1    3    3    0    0  0.13309547288E+02 -0.41196118127E+02  0.28714558575E+02  0.51949880384E+02  0.00000000000E+00 0.  1.
         13    1    3    3    0    0  0.73312174323E+02  0.65783635564E+01 -0.27133418169E+02  0.78448531870E+02  0.00000000000E+00 0. -1.
         21    1    1    2  502  501 -0.30113545223E+02  0.46662743963E+02 -0.83039354855E+02  0.99898807475E+02  0.00000000000E+00 0.  1.
<scales pt_clust_5="13000.00000" pt_clust_6="13000.00000" pt_clust_7="13000.00000" pt_clust_8="13000.00000" pt_clust_9="55.53591"></scales>
<clustering>
<clus scale="   55.536">  2  9  1 -1</clus>
<clus scale="   91.102">  7  8 -1 -1</clus>
<clus scale="   92.205">  5  6 -1 -1</clus>
<clus scale="  124.524">  1  7  2 -1</clus>
<clus scale="   55.536">  2  5  1 -1</clus>
</clustering>
</event>
<event>
 9    1  0.1296032E-005  0.9675192E+02  0.7546771E-02  0.1287330E+00
          1   -1    0    0  502    0  0.00000000000E+00  0.00000000000E+00  0.22347855951E+03  0.22347855951E+03  0.00000000000E+00 0. -1.
         -1   -1    0    0    0  501 -0.00000000000E+00 -0.00000000000E+00 -0.82596823093E+02  0.82596823093E+02  0.00000000000E+00 0.  1.
         23    2    1    2    0    0 -0.35404067217E+02  0.49970117613E+01 -0.27534468579E+02  0.10184234204E+03  0.91297850856E+02 0.  0.
         23    2    1    2    0    0  0.14492062586E+02 -0.98148605514E+01  0.14728134999E+03  0.17411318497E+03  0.91198978939E+02 0.  0.
        -11    1    4    4    0    0 -0.11120689341E+02 -0.44394043316E+02  0.50246811861E+02  0.67965012436E+02  0.00000000000E+00 0. -1.
         11    1    4    4    0    0  0.25612751927E+02  0.34579182764E+02  0.97034538133E+02  0.10614817254E+03  0.00000000000E+00 0.  1.
        -11    1    3    3    0    0 -0.47442214176E+02 -0.26267108130E+02  0.58543632829E+01  0.54543544301E+02  0.00000000000E+00 0. -1.
         11    1    3    3    0    0  0.12038146959E+02  0.31264119891E+02 -0.33388831862E+02  0.47298797742E+02  0.00000000000E+00 0.  1.
         21    1    1    2  502  501  0.20912004630E+02  0.48178487901E+01  0.21134855000E+02  0.30119855585E+02  0.00000000000E+00 0. -1.
<scales pt_clust_5="13000.00000" pt_clust_6="13000.00000" pt_clust_7="13000.00000" pt_clust_8="13000.00000" pt_clust_9="21.45981"></scales>
<clustering>
<clus scale="   21.460">  1  9  2 -1</clus>
<clus scale="   91.199">  5  6 -1 -1</clus>
<clus scale="   91.298">  7  8 -1 -1</clus>
<clus scale="   96.659">  1  5  2 -1</clus>
<clus scale="   21.460">  1  5  2 -1</clus>
</clustering>
</event>
<event>
 9    1  0.1296032E-005  0.1312842E+03  0.7546771E-02  0.1225813E+00
         -1   -1    0    0    0  501 -0.00000000000E+00  0.00000000000E+00  0.74182981265E+02  0.74182981265E+02  0.00000000000E+00 0.  1.
          1   -1    0    0  502    0  0.00000000000E+00 -0.00000000000E+00 -0.33915273784E+03  0.33915273784E+03  0.00000000000E+00 0. -1.
         23    2    1    2    0    0 -0.11018233466E+03  0.97040226718E+01 -0.61944252398E+02  0.15585973021E+03  0.90668904089E+02 0.  0.
         23    2    1    2    0    0  0.85173686478E+02 -0.19795418085E+02 -0.18773726334E+03  0.22647600417E+03  0.91649795280E+02 0.  0.
        -11    1    4    4    0    0  0.24258977953E+02 -0.47425865555E+02 -0.48656635121E+02  0.72146925619E+02  0.00000000000E+00 0.  1.
         11    1    4    4    0    0  0.60914708525E+02  0.27630447470E+02 -0.13908062822E+03  0.15432907855E+03  0.00000000000E+00 0. -1.
        -11    1    3    3    0    0 -0.10766255368E+03 -0.20452921661E+02 -0.61349544347E+02  0.12559185507E+03  0.00000000000E+00 0.  1.
         11    1    3    3    0    0 -0.25197809822E+01  0.30156944333E+02 -0.59470805085E+00  0.30267875138E+02  0.00000000000E+00 0. -1.
         21    1    1    2  502  501  0.25008648180E+02  0.10091395413E+02 -0.15288240844E+02  0.30999984730E+02  0.00000000000E+00 0. -1.
<scales pt_clust_5="13000.00000" pt_clust_6="13000.00000" pt_clust_7="13000.00000" pt_clust_8="13000.00000" pt_clust_9="26.96792"></scales>
<clustering>
<clus scale="   26.968">  1  9  2 -1</clus>
<clus scale="   90.669">  7  8 -1 -1</clus>
<clus scale="   91.650">  5  6 -1 -1</clus>
<clus scale="  130.601">  1  7  2 -1</clus>
<clus scale="  131.284">  2  5  1 -1</clus>
</clustering>
</event>
<event>
 9    1  0.1296032E-005  0.1598164E+03  0.7546771E-02  0.1190394E+00
          2   -1    0    0  502    0  0.00000000000E+00  0.00000000000E+00  0.56887560671E+03  0.56887560671E+03  0.00000000000E+00 0. -1.
         -2   -1    0    0    0  501 -0.00000000000E+00 -0.00000000000E+00 -0.10926143560E+03  0.10926143560E+03  0.00000000000E+00 0.  1.
         23    2    1    2    0    0  0.73707156542E+02  0.14524477533E+03  0.47992075797E+02  0.19699738924E+03  0.99879639283E+02 0.  0.
         23    2    1    2    0    0 -0.64380383901E+02 -0.56717293636E+02  0.11034854173E+03  0.16699023354E+03  0.91363297908E+02 0.  0.
        -11    1    3    3    0    0  0.94437199518E+02  0.87512146654E+02  0.23145098560E+02  0.13081458654E+03  0.00000000000E+00 0.  1.
         11    1    3    3    0    0 -0.20730042976E+02  0.57732628676E+02  0.24846977237E+02  0.66182802702E+02  0.00000000000E+00 0. -1.
        -11    1    4    4    0    0 -0.17858856507E+02 -0.95120466159E+01  0.97375935049E+02  0.99455972738E+02  0.00000000000E+00 0.  1.
         11    1    4    4    0    0 -0.46521527393E+02 -0.47205247020E+02  0.12972606686E+02  0.67534260798E+02  0.00000000000E+00 0. -1.
         21    1    1    2  502  501 -0.93267726418E+01 -0.88527481694E+02  0.30127355358E+03  0.31414941953E+03  0.00000000000E+00 0. -1.
<scales pt_clust_5="13000.00000" pt_clust_6="13000.00000" pt_clust_7="13000.00000" pt_clust_8="13000.00000" pt_clust_9="89.01743"></scales>
<clustering>
<clus scale="   89.017">  1  9  2 -1</clus>
<clus scale="   91.363">  7  8 -1 -1</clus>
<clus scale="   99.880">  5  6 -1 -1</clus>
<clus scale="  154.637">  1  7  2 -1</clus>
<clus scale="   89.017">  1  5  2 -1</clus>
</clustering>
</event>
<event>
 9    1  0.1296032E-005  0.1602943E+03  0.7546771E-02  0.1188823E+00
          1   -1    0    0  502    0  0.00000000000E+00  0.00000000000E+00  0.31430714811E+03  0.31430714811E+03  0.00000000000E+00 0. -1.
         -1   -1    0    0    0  501 -0.00000000000E+00 -0.00000000000E+00 -0.13694997805E+03  0.13694997805E+03  0.00000000000E+00 0.  1.
         23    2    1    2    0    0  0.78016263448E+02 -0.11508991739E+03 -0.40300093486E+02  0.17017039244E+03  0.89451878014E+02 0.  0.
         23    2    1    2    0    0 -0.71849432810E+02  0.81305343614E+02  0.16233739170E+03  0.21597363638E+03  0.92294544645E+02 0.  0.
        -13    1    4    4    0    0 -0.25144719618E+02  0.73640081412E+02  0.46040940469E+02  0.90415080127E+02  0.00000000000E+00 0.  1.
         13    1    4    4    0    0 -0.46704713192E+02  0.76652622016E+01  0.11629645123E+03  0.12555855625E+03  0.00000000000E+00 0. -1.
        -13    1    3    3    0    0  0.46744854653E+02 -0.12419812063E+03 -0.34097452225E+02  0.13701419946E+03  0.00000000000E+00 0.  1.
         13    1    3    3    0    0  0.31271408795E+02  0.91082032412E+01 -0.62026412613E+01  0.33156192980E+02  0.00000000000E+00 0. -1.
         21    1    1    2  502  501 -0.61668306377E+01  0.33784573776E+02  0.55319871844E+02  0.65113097348E+02  0.00000000000E+00 0. -1.
<scales pt_clust_5="13000.00000" pt_clust_6="13000.00000" pt_clust_7="13000.00000" pt_clust_8="13000.00000" pt_clust_9="34.34279"></scales>
<clustering>
<clus scale="   34.343">  1  9  2 -1</clus>
<clus scale="   89.452">  7  8 -1 -1</clus>
<clus scale="   92.295">  5  6 -1 -1</clus>
<clus scale="  158.675">  2  7  1 -1</clus>
<clus scale="   34.343">  1  5  2 -1</clus>
</clustering>
</event>
<event>
 9    1  0.1296032E-005  0.1461546E+03  0.7546771E-02  0.1210593E+00
          1   -1    0    0  502    0  0.00000000000E+00  0.00000000000E+00  0.18132558338E+03  0.18132558338E+03  0.00000000000E+00 0. -1.
         -1   -1    0    0    0  501 -0.00000000000E+00 -0.00000000000E+00 -0.20163380038E+03  0.20163380038E+03  0.00000000000E+00 0.  1.
         23    2    1    2    0    0 -0.86504225069E+02  0.63029418512E+02 -0.56579098690E+02  0.16542721456E+03  0.11273544409E+03 0.  0.
         23    2    1    2    0    0  0.90460942966E+02  0.68142288253E+01 -0.16576982057E+02  0.12985841376E+03  0.91426447887E+02 0.  0.
        -11    1    4    4    0    0  0.30707291441E+02 -0.41208251479E+02 -0.13511762178E+02  0.53137796856E+02  0.00000000000E+00 0.  1.
         11    1    4    4    0    0  0.59753651525E+02  0.48022480304E+02 -0.30652198789E+01  0.76720616903E+02  0.00000000000E+00 0. -1.
        -11    1    3    3    0    0 -0.34115575062E+02  0.47400710511E+02 -0.85528312300E+02  0.10356539974E+03  0.00000000000E+00 0.  1.
         11    1    3    3    0    0 -0.52388650008E+02  0.15628708001E+02  0.28949213610E+02  0.61861814814E+02  0.00000000000E+00 0. -1.
         21    1    1    2  502  501 -0.39567178967E+01 -0.69843647337E+02  0.52847863752E+02  0.87673755441E+02  0.00000000000E+00 0.  1.
<scales pt_clust_5="13000.00000" pt_clust_6="13000.00000" pt_clust_7="13000.00000" pt_clust_8="13000.00000" pt_clust_9="69.95563"></scales>
<clustering>
<clus scale="   69.956">  1  9  2 -1</clus>
<clus scale="   91.426">  5  6 -1 -1</clus>
<clus scale="  112.735">  7  8 -1 -1</clus>
<clus scale="  130.425">  1  5  2 -1</clus>
<clus scale="   69.956">  1  5  2 -1</clus>
</clustering>
</event>
<event>
 9    1  0.1296032E-005  0.1378426E+03  0.7546771E-02  0.1223550E+00
          1   -1    0    0  502    0  0.00000000000E+00  0.00000000000E+00  0.53106652381E+03  0.53106652381E+03  0.00000000000E+00 0. -1.
         -1   -1    0    0    0  501 -0.00000000000E+00 -0.00000000000E+00 -0.72106362519E+02  0.72106362519E+02  0.00000000000E+00 0.  1.
         23    2    1    2    0    0 -0.55910531434E+02  0.50892533944E+02  0.20143330308E+02  0.14015405026E+03  0.11628141086E+03 0.  0.
         23    2    1    2    0    0  0.32501611175E+02 -0.61339304051E+02  0.40131874450E+03  0.41759616505E+03  0.92254850402E+02 0.  0.
        -11    1    4    4    0    0  0.46234584928E+02  0.11257635355E+01  0.10977237427E+03  0.11911707828E+03  0.00000000000E+00 0.  1.
         11    1    4    4    0    0 -0.13732973754E+02 -0.62465067586E+02  0.29154637024E+03  0.29847908676E+03  0.00000000000E+00 0. -1.
        -13    1    3    3    0    0 -0.85372279496E+01  0.19891139993E+02  0.64625484970E+02  0.68154200303E+02  0.00000000000E+00 0. -1.
         13    1    3    3    0    0 -0.47373303484E+02  0.31001393952E+02 -0.44482154662E+02  0.71999849953E+02  0.00000000000E+00 0.  1.
         21    1    1    2  502  501  0.23408920259E+02  0.10446770107E+02  0.37498086480E+02  0.45422671025E+02  0.00000000000E+00 0. -1.
<scales pt_clust_5="13000.00000" pt_clust_6="13000.00000" pt_clust_7="13000.00000" pt_clust_8="13000.00000" pt_clust_9="25.63421"></scales>
<clustering>
<clus scale="   25.634">  1  9  2 -1</clus>
<clus scale="   92.255">  5  6 -1 -1</clus>
<clus scale="  116.281">  7  8 -1 -1</clus>
<clus scale="  118.280">  1  5  2 -1</clus>
<clus scale="   25.634">  1  5  2 -1</clus>
</clustering>
</event>
<event>
 9    1  0.1296032E-005  0.9168560E+02  0.7546771E-02  0.1317019E+00
         -2   -1    0    0    0  501 -0.00000000000E+00  0.00000000000E+00  0.28893902931E+02  0.28893902931E+02  0.00000000000E+00 0.  1.
          2   -1    0    0  502    0  0.00000000000E+00 -0.00000000000E+00 -0.52428709548E+03  0.52428709548E+03  0.00000000000E+00 0. -1.
         23    2    1    2    0    0  0.13453923096E+02 -0.14555994761E+02 -0.75926215140E+02  0.12007223576E+03  0.90882708066E+02 0.  0.
         23    2    1    2    0    0 -0.67813626235E+01 -0.22040508345E+02 -0.23057953466E+03  0.24059306685E+03  0.64701863358E+02 0.  0.
        -11    1    4    4    0    0  0.25641431950E+02 -0.20943546544E+02 -0.80405752260E+02  0.86955161841E+02  0.00000000000E+00 0. -1.
         11    1    4    4    0    0 -0.32422794574E+02 -0.10969618014E+01 -0.15017378240E+03  0.15363790501E+03  0.00000000000E+00 0.  1.
        -13    1    3    3    0    0  0.60064680996E+01 -0.48511465820E+02 -0.17183326662E+02  0.51814155307E+02  0.00000000000E+00 0.  1.
         13    1    3    3    0    0  0.74474549960E+01  0.33955471059E+02 -0.58742888477E+02  0.68258080455E+02  0.00000000000E+00 0. -1.
         21    1    1    2  502  501 -0.66725604720E+01  0.36596503106E+02 -0.18888744274E+03  0.19251569580E+03  0.00000000000E+00 0. -1.
<scales pt_clust_5="13000.00000" pt_clust_6="13000.00000" pt_clust_7="13000.00000" pt_clust_8="13000.00000" pt_clust_9="37.19983"></scales>
<clustering>
<clus scale="   37.200">  2  9  1 -1</clus>
<clus scale="   64.702">  5  6 -1 -1</clus>
<clus scale="   65.825">  2  5  1 -1</clus>
<clus scale="   90.883">  7  8 -1 -1</clus>
<clus scale="   37.200">  2  5  1 -1</clus>
</clustering>
</event>
<event>
 9    1  0.1296032E-005  0.1802849E+03  0.7546771E-02  0.1183837E+00
         -2   -1    0    0    0  501 -0.00000000000E+00  0.00000000000E+00  0.12110491325E+03  0.12110491325E+03  0.00000000000E+00 0.  1.
          2   -1    0    0  502    0  0.00000000000E+00 -0.00000000000E+00 -0.46534652128E+03  0.46534652128E+03  0.00000000000E+00 0. -1.
         23    2    1    2    0    0 -0.96629125698E+02  0.49252120602E+02 -0.68866797714E+02  0.14236899195E+03  0.61346024517E+02 0.  0.
         23    2    1    2    0    0 -0.38658424921E+01  0.11484112536E+03 -0.89079144294E+02  0.17625431265E+03  0.99634632377E+02 0.  0.
        -11    1    4    4    0    0  0.38882120803E+01  0.26441015989E+02 -0.83124625152E+02  0.87315226773E+02  0.00000000000E+00 0. -1.
         11    1    4    4    0    0 -0.77540545724E+01  0.88400109372E+02 -0.59545191416E+01  0.88939085882E+02  0.00000000000E+00 0.  1.
        -13    1    3    3    0    0 -0.67132732577E+02  0.56983648014E+02 -0.69009112135E+02  0.11187581277E+03  0.00000000000E+00 0.  1.
         13    1    3    3    0    0 -0.29496393121E+02 -0.77315274120E+01  0.14231442142E+00  0.30493179183E+02  0.00000000000E+00 0. -1.
         21    1    1    2  502  501  0.10049496819E+03 -0.16409324596E+03 -0.18629566602E+03  0.26782812993E+03  0.00000000000E+00 0. -1.
<scales pt_clust_5="13000.00000" pt_clust_6="13000.00000" pt_clust_7="13000.00000" pt_clust_8="13000.00000" pt_clust_9="150.25169"></scales>
<clustering>
<clus scale="   61.346">  7  8 -1 -1</clus>
<clus scale="   99.635">  5  6 -1 -1</clus>
<clus scale="  124.605">  1  7  2 -1</clus>
<clus scale="  150.252">  1  9  2 -1</clus>
<clus scale="  180.285">  2  5  1 -1</clus>
</clustering>
</event>
<event>
 9    1  0.1296032E-005  0.1128901E+03  0.7546771E-02  0.1256469E+00
         -2   -1    0    0    0  501 -0.00000000000E+00  0.00000000000E+00  0.14647211355E+03  0.14647211355E+03  0.00000000000E+00 0.  1.
          2   -1    0    0  502    0  0.00000000000E+00 -0.00000000000E+00 -0.15822802911E+03  0.15822802911E+03  0.00000000000E+00 0. -1.
         23    2    1    2    0    0  0.13137618639E+02 -0.51092889799E+02  0.54476995497E+02  0.11793908056E+03  0.90326094087E+02 0.  0.
         23    2    1    2    0    0 -0.16966289702E+02  0.88719004184E+02 -0.27916569119E+02  0.13292310833E+03  0.93436080869E+02 0.  0.
        -11    1    4    4    0    0  0.29003706540E+02  0.57509509141E+02  0.10654191242E+02  0.65284534354E+02  0.00000000000E+00 0. -1.
         11    1    4    4    0    0 -0.45969996242E+02  0.31209495043E+02 -0.38570760361E+02  0.67638573981E+02  0.00000000000E+00 0.  1.
        -13    1    3    3    0    0 -0.25206415074E+02 -0.23801307681E+02  0.61258726671E+02  0.70388189362E+02  0.00000000000E+00 0.  1.
         13    1    3    3    0    0  0.38344033713E+02 -0.27291582117E+02 -0.67817311745E+01  0.47550891196E+02  0.00000000000E+00 0. -1.
         21    1    1    2  502  501  0.38286710631E+01 -0.37626114386E+02 -0.38316341941E+02  0.53837953765E+02  0.00000000000E+00 0. -1.
<scales pt_clust_5="13000.00000" pt_clust_6="13000.00000" pt_clust_7="13000.00000" pt_clust_8="13000.00000" pt_clust_9="37.82041"></scales>
<clustering>
<clus scale="   37.820">  2  9  1 -1</clus>
<clus scale="   90.326">  7  8 -1 -1</clus>
<clus scale="   93.436">  5  6 -1 -1</clus>
<clus scale="  110.330">  1  7  2 -1</clus>
<clus scale="   37.820">  2  5  1 -1</clus>
</clustering>
</event>
<event>
 9    1  0.1296032E-005  0.1070072E+03  0.7546771E-02  0.1269458E+00
         -1   -1    0    0    0  501 -0.00000000000E+00  0.00000000000E+00  0.55094503905E+02  0.55094503905E+02  0.00000000000E+00 0.  1.
          1   -1    0    0  502    0  0.00000000000E+00 -0.00000000000E+00 -0.66002142678E+03  0.66002142678E+03  0.00000000000E+00 0. -1.
         23    2    1    2    0    0  0.19803205432E+02 -0.29774016271E+02 -0.22546929794E+02  0.10573653052E+03  0.96918475288E+02 0.  0.
         23    2    1    2    0    0 -0.10507181194E+02 -0.17402698930E+02 -0.22256636793E+03  0.24636713678E+03  0.10367122632E+03 0.  0.
        -11    1    3    3    0    0 -0.58632582120E+01  0.32758387238E+02  0.31371276350E+01  0.33426505966E+02  0.00000000000E+00 0.  1.
         11    1    3    3    0    0  0.25666463644E+02 -0.62532403508E+02 -0.25684057429E+02  0.72310024551E+02  0.00000000000E+00 0. -1.
        -11    1    4    4    0    0 -0.42476955777E+02  0.27338019078E+02 -0.11296592018E+03  0.12374553803E+03  0.00000000000E+00 0.  1.
         11    1    4    4    0    0  0.31969774583E+02 -0.44740718008E+02 -0.10960044775E+03  0.12262159876E+03  0.00000000000E+00 0. -1.
         21    1    1    2  502  501 -0.92960242383E+01  0.47176715200E+02 -0.35981362516E+03  0.36301226339E+03  0.00000000000E+00 0.  1.
<scales pt_clust_5="13000.00000" pt_clust_6="13000.00000" pt_clust_7="13000.00000" pt_clust_8="13000.00000" pt_clust_9="48.08387"></scales>
<clustering>
<clus scale="   48.084">  2  9  1 -1</clus>
<clus scale="   96.918">  5  6 -1 -1</clus>
<clus scale="  100.479">  1  5  2 -1</clus>
<clus scale="  103.671">  7  8 -1 -1</clus>
<clus scale="   48.084">  2  5  1 -1</clus>
</clustering>
</event>
<event>
 9    1  0.1296032E-005  0.1468918E+03  0.7546771E-02  0.1206211E+00
          4   -1    0    0  502    0  0.00000000000E+00  0.00000000000E+00  0.56397900917E+02  0.56397900917E+02  0.00000000000E+00 0. -1.
         -4   -1    0    0    0  501 -0.00000000000E+00 -0.00000000000E+00 -0.70583452578E+03  0.70583452578E+03  0.00000000000E+00 0.  1.
         23    2    1    2    0    0  0.32105806348E+02  0.98463190462E+02 -0.43882875888E+03  0.46078584806E+03  0.95011238654E+02 0.  0.
         23    2    1    2    0    0 -0.47414594425E+02 -0.12260027028E+03 -0.22096453267E+03  0.27104562209E+03  0.85798802554E+02 0.  0.
        -13    1    4    4    0    0 -0.84455207791E+01 -0.57163407408E+02 -0.29267578177E+02  0.64773243706E+02  0.00000000000E+00 0. -1.
         13    1    4    4    0    0 -0.38969073646E+02 -0.65436862867E+02 -0.19169695449E+03  0.20627237838E+03  0.00000000000E+00 0.  1.
        -13    1    3    3    0    0  0.43343907093E+02  0.47183636034E+01 -0.10094264060E+03  0.10995623643E+03  0.00000000000E+00 0. -1.
         13    1    3    3    0    0 -0.11238100745E+02  0.93744826859E+02 -0.33788611828E+03  0.35082961163E+03  0.00000000000E+00 0.  1.
         21    1    1    2  502  501  0.15308788077E+02  0.24137079814E+02  0.10356666687E+02  0.30400956550E+02  0.00000000000E+00 0.  1.
<scales pt_clust_5="13000.00000" pt_clust_6="13000.00000" pt_clust_7="13000.00000" pt_clust_8="13000.00000" pt_clust_9="28.58247"></scales>
<clustering>
<clus scale="   28.582">  1  9  2 -1</clus>
<clus scale="   85.799">  5  6 -1 -1</clus>
<clus scale="   95.011">  7  8 -1 -1</clus>
<clus scale="  141.108">  1  5  2 -1</clus>
<clus scale="   28.582">  1  5  2 -1</clus>
</clustering>
</event>
<event>
 9    1  0.1296032E-005  0.1079988E+03  0.7546771E-02  0.1264753E+00
          2   -1    0    0  502    0  0.00000000000E+00  0.00000000000E+00  0.27199961042E+03  0.27199961042E+03  0.00000000000E+00 0.  1.
         -2   -1    0    0    0  501 -0.00000000000E+00 -0.00000000000E+00 -0.89354310794E+02  0.89354310794E+02  0.00000000000E+00 0. -1.
         23    2    1    2    0    0  0.15704876801E+02  0.51679905399E+02 -0.24359990676E+02  0.10906773507E+03  0.91569131867E+02 0.  0.
         23    2    1    2    0    0 -0.45358161977E+02 -0.49672325811E+02  0.16587751519E+03  0.20154328927E+03  0.92626370937E+02 0.  0.
        -13    1    4    4    0    0  0.94017427218E+00 -0.65324367619E+02  0.87982600200E+02  0.10958601585E+03  0.00000000000E+00 0. -1.
         13    1    4    4    0    0 -0.46298336249E+02  0.15652041808E+02  0.77894914991E+02  0.91957273413E+02  0.00000000000E+00 0.  1.
        -13    1    3    3    0    0 -0.23284086593E+01  0.24911275708E+02 -0.57561083300E+02  0.62763615694E+02  0.00000000000E+00 0. -1.
         13    1    3    3    0    0  0.18033285460E+02  0.26768629691E+02  0.33201092624E+02  0.46304119379E+02  0.00000000000E+00 0.  1.
         21    1    1    2  502  501  0.29653285176E+02 -0.20075795884E+01  0.41127775107E+02  0.50742896870E+02  0.00000000000E+00 0. -1.
<scales pt_clust_5="13000.00000" pt_clust_6="13000.00000" pt_clust_7="13000.00000" pt_clust_8="13000.00000" pt_clust_9="29.72117"></scales>
<clustering>
<clus scale="   29.721">  1  9  2 -1</clus>
<clus scale="   91.569">  7  8 -1 -1</clus>
<clus scale="   92.626">  5  6 -1 -1</clus>
<clus scale="  107.093">  2  7  1 -1</clus>
<clus scale="   29.721">  1  5  2 -1</clus>
</clustering>
</event>
<event>
 9    1  0.1296032E-005  0.2275033E+03  0.7546771E-02  0.1128414E+00
         -1   -1    0    0    0  501 -0.00000000000E+00  0.00000000000E+00  0.13101947966E+03  0.13101947966E+03  0.00000000000E+00 0.  1.
          1   -1    0    0  502    0  0.00000000000E+00 -0.00000000000E+00 -0.44593521737E+03  0.44593521737E+03  0.00000000000E+00 0. -1.
         23    2    1    2    0    0  0.20674707198E+03 -0.43883759800E+02 -0.10877771310E+03  0.25455306992E+03  0.91074356390E+02 0.  0.
         23    2    1    2    0    0 -0.19513769546E+03  0.64034013060E+02 -0.18692018444E+03  0.29223317156E+03  0.91005473401E+02 0.  0.
        -11    1    4    4    0    0 -0.15277673367E+03  0.74895743996E+02 -0.18046557871E+03  0.24802807889E+03  0.00000000000E+00 0.  1.
         11    1    4    4    0    0 -0.42360961790E+02 -0.10861730936E+02 -0.64546057369E+01  0.44205092670E+02  0.00000000000E+00 0. -1.
        -13    1    3    3    0    0  0.67755250866E+02  0.12688332104E+02  0.46999887035E+00  0.68934669728E+02  0.00000000000E+00 0.  1.
         13    1    3    3    0    0  0.13899182112E+03 -0.56572091904E+02 -0.10924771197E+03  0.18561840020E+03  0.00000000000E+00 0. -1.
         21    1    1    2  502  501 -0.11609376522E+02 -0.20150253260E+02 -0.19217840156E+02  0.30168455544E+02  0.00000000000E+00 0. -1.
<scales pt_clust_5="13000.00000" pt_clust_6="13000.00000" pt_clust_7="13000.00000" pt_clust_8="13000.00000" pt_clust_9="23.25533"></scales>
<clustering>
<clus scale="   23.255">  2  9  1 -1</clus>
<clus scale="   91.005">  5  6 -1 -1</clus>
<clus scale="   91.074">  7  8 -1 -1</clus>
<clus scale="  227.476">  2  5  1 -1</clus>
<clus scale="   23.255">  2  5  1 -1</clus>
</clustering>
</event>
<event>
 9    1  0.1296032E-005  0.9533572E+02  0.7546771E-02  0.1293546E+00
          3   -1    0    0  502    0  0.00000000000E+00  0.00000000000E+00  0.24650209762E+03  0.24650209762E+03  0.00000000000E+00 0. -1.
         -3   -1    0    0    0  501 -0.00000000000E+00 -0.00000000000E+00 -0.12140976393E+03  0.12140976393E+03  0.00000000000E+00 0.  1.
         23    2    1    2    0    0  0.25321479696E+02  0.12904186410E+00 -0.69305466451E+02  0.11854772414E+03  0.92785350316E+02 0.  0.
         23    2    1    2    0    0  0.78990211945E+01 -0.23782774800E+02  0.18708102196E+03  0.20793183113E+03  0.87225699805E+02 0.  0.
        -13    1    3    3    0    0 -0.30621753204E+01  0.36528121853E+02 -0.17098880725E+01  0.36696107710E+02  0.00000000000E+00 0. -1.
         13    1    3    3    0    0  0.28383655016E+02 -0.36399079989E+02 -0.67595578378E+02  0.81851616431E+02  0.00000000000E+00 0.  1.
        -13    1    4    4    0    0  0.38362151285E+02 -0.10266543132E+02  0.37281659258E+02  0.54469979586E+02  0.00000000000E+00 0.  1.
         13    1    4    4    0    0 -0.30463130090E+02 -0.13516231667E+02  0.14979936270E+03  0.15346185154E+03  0.00000000000E+00 0. -1.
         21    1    1    2  502  501 -0.33220500890E+02  0.23653732935E+02  0.73167781781E+01  0.41432306285E+02  0.00000000000E+00 0. -1.
<scales pt_clust_5="13000.00000" pt_clust_6="13000.00000" pt_clust_7="13000.00000" pt_clust_8="13000.00000" pt_clust_9="40.78113"></scales>
<clustering>
<clus scale="   40.781">  2  9  1 -1</clus>
<clus scale="   87.226">  7  8 -1 -1</clus>
<clus scale="   89.934">  1  7  2 -1</clus>
<clus scale="   92.785">  5  6 -1 -1</clus>
<clus scale="   89.934">  1  5  2 -1</clus>
</clustering>
</event>
<event>
 9    1  0.1296032E-005  0.9723645E+02  0.7546771E-02  0.1286408E+00
         -1   -1    0    0    0  501 -0.00000000000E+00  0.00000000000E+00  0.32716263309E+03  0.32716263309E+03  0.00000000000E+00 0.  1.
          1   -1    0    0  502    0  0.00000000000E+00 -0.00000000000E+00 -0.48733534587E+02  0.48733534587E+02  0.00000000000E+00 0. -1.
         23    2    1    2    0    0  0.17202824524E+02  0.53671399021E+01  0.14839388781E+03  0.17614840667E+03  0.93181392293E+02 0.  0.
         23    2    1    2    0    0 -0.33942720577E+02 -0.20140324628E+02  0.14218823271E+03  0.17432794489E+03  0.92817012949E+02 0.  0.
        -11    1    4    4    0    0  0.29747115532E+02 -0.16572572421E+02  0.30536733035E+02  0.45738748382E+02  0.00000000000E+00 0.  1.
         11    1    4    4    0    0 -0.63689836109E+02 -0.35677522068E+01  0.11165149968E+03  0.12858919651E+03  0.00000000000E+00 0. -1.
        -13    1    3    3    0    0  0.44327671805E+02  0.20832085625E+02  0.13218670236E+03  0.14096894183E+03  0.00000000000E+00 0.  1.
         13    1    3    3    0    0 -0.27124847281E+02 -0.15464945723E+02  0.16207185452E+02  0.35179464841E+02  0.00000000000E+00 0. -1.
         21    1    1    2  502  501  0.16739896053E+02  0.14773184726E+02 -0.12153022023E+02  0.25419816111E+02  0.00000000000E+00 0. -1.
<scales pt_clust_5="13000.00000" pt_clust_6="13000.00000" pt_clust_7="13000.00000" pt_clust_8="13000.00000" pt_clust_9="22.32647"></scales>
<clustering>
<clus scale="   22.326">  2  9  1 -1</clus>
<clus scale="   92.817">  5  6 -1 -1</clus>
<clus scale="   93.181">  7  8 -1 -1</clus>
<clus scale="   96.887">  2  5  1 -1</clus>
<clus scale="   22.326">  2  5  1 -1</clus>
</clustering>
</event>
<event>
 9    1  0.1296032E-005  0.1000401E+03  0.7546771E-02  0.1281258E+00
         -1   -1    0    0    0  501 -0.00000000000E+00  0.00000000000E+00  0.19580532727E+03  0.19580532727E+03  0.00000000000E+00 0.  1.
          1   -1    0    0  502    0  0.00000000000E+00 -0.00000000000E+00 -0.10129836719E+03  0.10129836719E+03  0.00000000000E+00 0. -1.
         23    2    1    2    0    0 -0.24786480981E+02  0.17938270478E+02  0.12190692688E+03  0.15642870076E+03  0.93126196173E+02 0.  0.
         23    2    1    2    0    0  0.14026669021E+02 -0.36163207754E+02 -0.49032035835E+02  0.11041167758E+03  0.91005895243E+02 0.  0.
        -11    1    4    4    0    0  0.45386676822E+02 -0.34962010061E+02 -0.53891281495E+02  0.78654706163E+02  0.00000000000E+00 0. -1.
         11    1    4    4    0    0 -0.31360007801E+02 -0.12011976930E+01  0.48592456597E+01  0.31756971416E+02  0.00000000000E+00 0.  1.
        -11    1    3    3    0    0 -0.42894860972E+02 -0.20020624217E+02  0.95990151675E+02  0.10702758388E+03  0.00000000000E+00 0.  1.
         11    1    3    3    0    0  0.18108379991E+02  0.37958894696E+02  0.25916775201E+02  0.49401116882E+02  0.00000000000E+00 0. -1.
         21    1    1    2  502  501  0.10759811960E+02  0.18224937276E+02  0.21632069039E+02  0.30263316127E+02  0.00000000000E+00 0. -1.
<scales pt_clust_5="13000.00000" pt_clust_6="13000.00000" pt_clust_7="13000.00000" pt_clust_8="13000.00000" pt_clust_9="21.16417"></scales>
<clustering>
<clus scale="   21.164">  1  9  2 -1</clus>
<clus scale="   91.006">  5  6 -1 -1</clus>
<clus scale="   93.126">  7  8 -1 -1</clus>
<clus scale="   98.069">  2  5  1 -1</clus>
<clus scale="   98.069">  2  5  1 -1</clus>
</clustering>
</event>
<event>
 9    1  0.1296032E-005  0.1160937E+03  0.7546771E-02  0.1249939E+00
          2   -1    0    0  502    0  0.00000000000E+00  0.00000000000E+00  0.38083851138E+03  0.38083851138E+03  0.00000000000E+00 0. -1.
         -2   -1    0    0    0  501 -0.00000000000E+00 -0.00000000000E+00 -0.15915950227E+03  0.15915950227E+03  0.00000000000E+00 0.  1.
         23    2    1    2    0    0  0.65762276525E+02 -0.22223159761E+02 -0.10888504784E+03  0.15823104601E+03  0.91447058110E+02 0.  0.
         23    2    1    2    0    0 -0.77705147269E+02  0.69065597935E+02  0.27801340748E+03  0.31036376788E+03  0.90697667778E+02 0.  0.
        -13    1    3    3    0    0  0.86136180905E+02 -0.16668784309E+02 -0.63906484727E+02  0.10854182982E+03  0.00000000000E+00 0.  1.
         13    1    3    3    0    0 -0.20373904380E+02 -0.55543754521E+01 -0.44978563109E+02  0.49689216191E+02  0.00000000000E+00 0. -1.
        -13    1    4    4    0    0 -0.55650379583E+02 -0.41211648654E+01  0.75340269391E+02  0.93755559513E+02  0.00000000000E+00 0.  1.
         13    1    4    4    0    0 -0.22054767686E+02  0.73186762800E+02  0.20267313809E+03  0.21660820837E+03  0.00000000000E+00 0. -1.
         21    1    1    2  502  501  0.11942870743E+02 -0.46842438174E+02  0.52550649466E+02  0.71403199753E+02  0.00000000000E+00 0.  1.
<scales pt_clust_5="13000.00000" pt_clust_6="13000.00000" pt_clust_7="13000.00000" pt_clust_8="13000.00000" pt_clust_9="48.34094"></scales>
<clustering>
<clus scale="   48.341">  1  9  2 -1</clus>
<clus scale="   90.698">  7  8 -1 -1</clus>
<clus scale="   91.447">  5  6 -1 -1</clus>
<clus scale="  115.504">  1  7  2 -1</clus>
<clus scale="   48.341">  1  5  2 -1</clus>
</clustering>
</event>
<event>
 9    1  0.1296032E-005  0.9538151E+02  0.7546771E-02  0.1292231E+00
          1   -1    0    0  502    0  0.00000000000E+00  0.00000000000E+00  0.17904572542E+03  0.17904572542E+03  0.00000000000E+00 0. -1.
         -1   -1    0    0    0  501 -0.00000000000E+00 -0.00000000000E+00 -0.64785482058E+02  0.64785482058E+02  0.00000000000E+00 0.  1.
         23    2    1    2    0    0 -0.55443768155E+01 -0.58495430110E+01  0.41532757091E+02  0.10018317991E+03  0.90811576118E+02 0.  0.
         23    2    1    2    0    0 -0.14941371746E+02  0.21795449153E+02  0.59521544416E+02  0.11452184146E+03  0.94202716144E+02 0.  0.
        -11    1    3    3    0    0  0.28403014930E+02  0.28023525968E+02  0.32324084174E+02  0.51350712580E+02  0.00000000000E+00 0. -1.
         11    1    3    3    0    0 -0.33947391746E+02 -0.33873068979E+02  0.92086729171E+01  0.48832467327E+02  0.00000000000E+00 0.  1.
        -11    1    4    4    0    0 -0.34477958867E+02 -0.69461410184E+00 -0.12422206690E+02  0.36654104210E+02  0.00000000000E+00 0.  1.
         11    1    4    4    0    0  0.19536587121E+02  0.22490063255E+02  0.71943751107E+02  0.77867737253E+02  0.00000000000E+00 0. -1.
         21    1    1    2  502  501  0.20485748561E+02 -0.15945906142E+02  0.13205941849E+02  0.29126186104E+02  0.00000000000E+00 0. -1.
<scales pt_clust_5="13000.00000" pt_clust_6="13000.00000" pt_clust_7="13000.00000" pt_clust_8="13000.00000" pt_clust_9="25.96031"></scales>
<clustering>
<clus scale="   25.960">  2  9  1 -1</clus>
<clus scale="   90.812">  5  6 -1 -1</clus>
<clus scale="   92.034">  2  5  1 -1</clus>
<clus scale="   94.203">  7  8 -1 -1</clus>
<clus scale="   95.382">  1  5  2 -1</clus>
</clustering>
</event>
<event>
 9    1  0.1296032E-005  0.2528482E+03  0.7546771E-02  0.1111679E+00
         -2   -1    0    0    0  501 -0.00000000000E+00  0.00000000000E+00  0.65700672325E+03  0.65700672325E+03  0.00000000000E+00 0.  1.
          2   -1    0    0  502    0  0.00000000000E+00 -0.00000000000E+00 -0.13350409593E+03  0.13350409593E+03  0.00000000000E+00 0. -1.
         23    2    1    2    0    0  0.15396191962E+03  0.17488864278E+03  0.37471331929E+03  0.45071688937E+03  0.91898490993E+02 0.  0.
         23    2    1    2    0    0 -0.13445647400E+03 -0.20082347097E+03  0.16253812504E+03  0.30455038159E+03  0.89015071457E+02 0.  0.
        -11    1    4    4    0    0 -0.92016879896E+02 -0.79643040814E+02  0.42852118397E+02  0.12902102227E+03  0.00000000000E+00 0. -1.
         11    1    4    4    0    0 -0.42439594102E+02 -0.12118043015E+03  0.11968600664E+03  0.17552935933E+03  0.00000000000E+00 0.  1.
        -13    1    3    3    0    0  0.42767482787E+02  0.47079860331E+01  0.38042705663E+02  0.57432309465E+02  0.00000000000E+00 0. -1.
         13    1    3    3    0    0  0.11119443684E+03  0.17018065675E+03  0.33667061362E+03  0.39328457991E+03  0.00000000000E+00 0.  1.
         21    1    1    2  502  501 -0.19505445624E+02  0.25934828184E+02 -0.13748817005E+02  0.35243548217E+02  0.00000000000E+00 0.  1.
<scales pt_clust_5="13000.00000" pt_clust_6="13000.00000" pt_clust_7="13000.00000" pt_clust_8="13000.00000" pt_clust_9="32.45116"></scales>
<clustering>
<clus scale="   32.451">  2  9  1 -1</clus>
<clus scale="   89.015">  5  6 -1 -1</clus>
<clus scale="   91.898">  7  8 -1 -1</clus>
<clus scale="  251.815">  2  5  1 -1</clus>
<clus scale="   32.451">  2  5  1 -1</clus>
</clustering>
</event>
<event>
 9    1  0.1296032E-005  0.9923802E+02  0.7546771E-02  0.1284230E+00
         -2   -1    0    0    0  501 -0.00000000000E+00  0.00000000000E+00  0.29214872391E+02  0.29214872391E+02  0.00000000000E+00 0.  1.
          2   -1    0    0  502    0  0.00000000000E+00 -0.00000000000E+00 -0.50590310975E+03  0.50590310975E+03  0.00000000000E+00 0. -1.
         23    2    1    2    0    0  0.40134445050E+02 -0.14742497179E+02 -0.13197932126E+03  0.16506442569E+03  0.89440530434E+02 0.  0.
         23    2    1    2    0    0 -0.15655986627E+02  0.84373164898E+01 -0.18399066805E+03  0.20735965525E+03  0.93963623136E+02 0.  0.
        -13    1    4    4    0    0  0.91399050431E+01 -0.25031147543E+02 -0.10015409171E+02  0.28467606721E+02  0.00000000000E+00 0.  1.
         13    1    4    4    0    0 -0.24795891670E+02  0.33468464033E+02 -0.17397525887E+03  0.17889204853E+03  0.00000000000E+00 0. -1.
        -13    1    3    3    0    0 -0.19186428791E+02 -0.29499577599E+02 -0.68064574015E+02  0.76623301705E+02  0.00000000000E+00 0.  1.
         13    1    3    3    0    0  0.59320873841E+02  0.14757080420E+02 -0.63914747245E+02  0.88441123981E+02  0.00000000000E+00 0. -1.
         21    1    1    2  502  501 -0.24478458423E+02  0.63051806896E+01 -0.16071824806E+03  0.16269390120E+03  0.00000000000E+00 0. -1.
<scales pt_clust_5="13000.00000" pt_clust_6="13000.00000" pt_clust_7="13000.00000" pt_clust_8="13000.00000" pt_clust_9="25.27746"></scales>
<clustering>
<clus scale="   25.277">  2  9  1 -1</clus>
<clus scale="   89.441">  7  8 -1 -1</clus>
<clus scale="   93.964">  5  6 -1 -1</clus>
<clus scale="   94.966">  1  7  2 -1</clus>
<clus scale="   25.277">  2  5  1 -1</clus>
</clustering>
</event>
<event>
 9    1  0.1296032E-005  0.2376588E+03  0.7546771E-02  0.1139737E+00
          2   -1    0    0  502    0  0.00000000000E+00  0.00000000000E+00  0.65547771375E+03  0.65547771375E+03  0.00000000000E+00 0. -1.
         -2   -1    0    0    0  501 -0.00000000000E+00 -0.00000000000E+00 -0.41712978621E+03  0.41712978621E+03  0.00000000000E+00 0.  1.
         23    2    1    2    0    0  0.40068587764E+02  0.11414277078E+03 -0.21832321394E+03  0.26568801135E+03  0.91055092009E+02 0.  0.
         23    2    1    2    0    0  0.14026504808E+03 -0.23142502240E+03 -0.17642571567E+02  0.28610393091E+03  0.91172222982E+02 0.  0.
        -11    1    4    4    0    0  0.13854907698E+03 -0.18509015992E+03 -0.39987049046E+02  0.23463413673E+03  0.00000000000E+00 0.  1.
         11    1    4    4    0    0  0.17159710972E+01 -0.46334862488E+02  0.22344477479E+02  0.51469794175E+02  0.00000000000E+00 0. -1.
        -13    1    3    3    0    0  0.28167534908E+02 -0.56053558955E+01 -0.25563140412E+02  0.38448721503E+02  0.00000000000E+00 0.  1.
         13    1    3    3    0    0  0.11901052857E+02  0.11974812668E+03 -0.19276007353E+03  0.22723928985E+03  0.00000000000E+00 0. -1.
         21    1    1    2  502  501 -0.18033363584E+03  0.11728225162E+03  0.47431371304E+03  0.52081555770E+03  0.00000000000E+00 0. -1.
<scales pt_clust_5="13000.00000" pt_clust_6="13000.00000" pt_clust_7="13000.00000" pt_clust_8="13000.00000" pt_clust_9="219.47513"></scales>
<clustering>
<clus scale="   91.055">  7  8 -1 -1</clus>
<clus scale="   91.172">  5  6 -1 -1</clus>
<clus scale="  151.410">  2  7  1 -1</clus>
<clus scale="  219.475">  1  9  2 -1</clus>
<clus scale="  219.475">  1  5  2 -1</clus>
</clustering>
</event>
<event>
 9    1  0.1296032E-005  0.9787551E+02  0.7546771E-02  0.1289198E+00
         -2   -1    0    0    0  501 -0.00000000000E+00  0.00000000000E+00  0.16058595201E+02  0.16058595201E+02  0.00000000000E+00 0.  1.
          2   -1    0    0  502    0  0.00000000000E+00 -0.00000000000E+00 -0.71536771061E+03  0.71536771061E+03  0.00000000000E+00 0. -1.
         23    2    1    2    0    0 -0.16589376826E+02 -0.15052274370E+02 -0.25472576441E+03  0.26953922478E+03  0.85231451103E+02 0.  0.
         23    2    1    2    0    0  0.37293767058E+02  0.12946921585E+02 -0.32293501718E+03  0.33847143612E+03  0.93367231461E+02 0.  0.
        -11    1    3    3    0    0 -0.49680625168E+02 -0.91286510294E+01 -0.11129319886E+03  0.12221977295E+03  0.00000000000E+00 0. -1.
         11    1    3    3    0    0  0.33091248341E+02 -0.59236233404E+01 -0.14343256554E+03  0.14731945184E+03  0.00000000000E+00 0.  1.
        -13    1    4    4    0    0  0.37174046448E+02  0.46073807727E+02 -0.26681257983E+03  0.27330140549E+03  0.00000000000E+00 0. -1.
         13    1    4    4    0    0  0.11972060963E+00 -0.33126886142E+02 -0.56122437346E+02  0.65170030629E+02  0.00000000000E+00 0.  1.
         21    1    1    2  502  501 -0.20704390231E+02  0.21053527850E+01 -0.12164833383E+03  0.12341564491E+03  0.00000000000E+00 0.  1.
<scales pt_clust_5="13000.00000" pt_clust_6="13000.00000" pt_clust_7="13000.00000" pt_clust_8="13000.00000" pt_clust_9="20.81116"></scales>
<clustering>
<clus scale="   20.811">  2  9  1 -1</clus>
<clus scale="   85.231">  5  6 -1 -1</clus>
<clus scale="   90.148">  1  5  2 -1</clus>
<clus scale="   93.367">  7  8 -1 -1</clus>
<clus scale="   20.811">  2  5  1 -1</clus>
</clustering>
</event>
<event>
 9    1  0.1296032E-005  0.1216662E+03  0.7546771E-02  0.1244757E+00
         -2   -1    0    0    0  501 -0.00000000000E+00  0.00000000000E+00  0.10965142155E+03  0.10965142155E+03  0.00000000000E+00 0.  1.
          2   -1    0    0  502    0  0.00000000000E+00 -0.00000000000E+00 -0.37078509169E+03  0.37078509169E+03  0.00000000000E+00 0. -1.
         23    2    1    2    0    0  0.29702216572E+02 -0.42056908039E+02  0.54585868501E+02  0.12243426541E+03  0.96744649064E+02 0.  0.
         23    2    1    2    0    0 -0.45107890442E+02  0.68748062703E+02 -0.23458081731E+03  0.27120798176E+03  0.10846470214E+03 0.  0.
        -13    1    4    4    0    0 -0.34171553745E+02  0.49160595354E+01 -0.18872102342E+03  0.19185277534E+03  0.00000000000E+00 0. -1.
         13    1    4    4    0    0 -0.10936336696E+02  0.63832003167E+02 -0.45859793894E+02  0.79355206412E+02  0.00000000000E+00 0.  1.
        -13    1    3    3    0    0  0.52070393256E+02 -0.84072935410E+00  0.54719022529E+02  0.75539420875E+02  0.00000000000E+00 0.  1.
         13    1    3    3    0    0 -0.22368176685E+02 -0.41216178685E+02 -0.13315402735E+00  0.46894844531E+02  0.00000000000E+00 0. -1.
         21    1    1    2  502  501  0.15405673870E+02 -0.26691154664E+02 -0.81138721326E+02  0.86794266073E+02  0.00000000000E+00 0.  1.
<scales pt_clust_5="13000.00000" pt_clust_6="13000.00000" pt_clust_7="13000.00000" pt_clust_8="13000.00000" pt_clust_9="30.81806"></scales>
<clustering>
<clus scale="   30.818">  2  9  1 -1</clus>
<clus scale="   96.745">  7  8 -1 -1</clus>
<clus scale="  108.465">  5  6 -1 -1</clus>
<clus scale="  111.345">  1  7  2 -1</clus>
<clus scale="   30.818">  2  5  1 -1</clus>
</clustering>
</event>
<event>
 9    1  0.1296032E-005  0.1333073E+03  0.7546771E-02  0.1223216E+00
          3   -1    0    0  502    0  0.00000000000E+00  0.00000000000E+00  0.11177023639E+04  0.11177023639E+04  0.00000000000E+00 0. -1.
         -3   -1    0    0    0  501 -0.00000000000E+00 -0.00000000000E+00 -0.32228604674E+02  0.32228604674E+02  0.00000000000E+00 0.  1.
         23    2    1    2    0    0  0.27051169050E+02  0.12316637452E+03  0.27958141063E+03  0.31979606837E+03  0.90565107071E+02 0.  0.
         23    2    1    2    0    0 -0.28017342653E+02 -0.57820327021E+02  0.30972057758E+03  0.32967764351E+03  0.92910444783E+02 0.  0.
        -11    1    4    4    0    0  0.19240700612E+02 -0.33818046797E+02  0.44057748460E+02  0.58778823130E+02  0.00000000000E+00 0.  1.
         11    1    4    4    0    0 -0.47258043265E+02 -0.24002280224E+02  0.26566282912E+03  0.27089882038E+03  0.00000000000E+00 0. -1.
        -11    1    3    3    0    0 -0.25200290157E+02  0.49469094513E+01  0.54380560101E+02  0.60139603041E+02  0.00000000000E+00 0. -1.
         11    1    3    3    0    0  0.52251459206E+02  0.11821946507E+03  0.22520085053E+03  0.25965646533E+03  0.00000000000E+00 0.  1.
         21    1    1    2  502  501  0.96617360362E+00 -0.65346047502E+02  0.49617177104E+03  0.50045725671E+03  0.00000000000E+00 0. -1.
<scales pt_clust_5="13000.00000" pt_clust_6="13000.00000" pt_clust_7="13000.00000" pt_clust_8="13000.00000" pt_clust_9="65.35319"></scales>
<clustering>
<clus scale="   65.353">  1  9  2 -1</clus>
<clus scale="   90.565">  7  8 -1 -1</clus>
<clus scale="   92.910">  5  6 -1 -1</clus>
<clus scale="  131.683">  2  7  1 -1</clus>
<clus scale="   65.353">  1  5  2 -1</clus>
</clustering>
</event>
<event>
 9    1  0.1296032E-005  0.1266164E+03  0.7546771E-02  0.1233091E+00
          1   -1    0    0  502    0  0.00000000000E+00  0.00000000000E+00  0.47568981212E+03  0.47568981212E+03  0.00000000000E+00 0. -1.
         -1   -1    0    0    0  501 -0.00000000000E+00 -0.00000000000E+00 -0.76555601748E+02  0.76555601748E+02  0.00000000000E+00 0.  1.
         23    2    1    2    0    0  0.87949799280E+02 -0.17323567147E-01  0.24303977187E+02  0.12832732268E+03  0.90233313940E+02 0.  0.
         23    2    1    2    0    0 -0.80970712728E+02  0.43968334453E+02  0.16931682147E+03  0.21364169831E+03  0.92114702800E+02 0.  0.
        -11    1    3    3    0    0  0.60149287833E+02  0.13252293450E+02  0.56633473945E+02  0.83671443633E+02  0.00000000000E+00 0. -1.
         11    1    3    3    0    0  0.27800511446E+02 -0.13269617017E+02 -0.32329496758E+02  0.44655879043E+02  0.00000000000E+00 0.  1.
        -13    1    4    4    0    0 -0.58440762034E+02 -0.10455431866E+01  0.30393723878E+02  0.65880150871E+02  0.00000000000E+00 0. -1.
         13    1    4    4    0    0 -0.22529950694E+02  0.45013877639E+02  0.13892309759E+03  0.14776154744E+03  0.00000000000E+00 0.  1.
         21    1    1    2  502  501 -0.69790865520E+01 -0.43951010885E+02  0.20551341172E+03  0.21027639288E+03  0.00000000000E+00 0. -1.
<scales pt_clust_5="13000.00000" pt_clust_6="13000.00000" pt_clust_7="13000.00000" pt_clust_8="13000.00000" pt_clust_9="44.50167"></scales>
<clustering>
<clus scale="   44.502">  1  9  2 -1</clus>
<clus scale="   90.233">  5  6 -1 -1</clus>
<clus scale="   92.115">  7  8 -1 -1</clus>
<clus scale="  125.254">  2  5  1 -1</clus>
<clus scale="   44.502">  1  5  2 -1</clus>
</clustering>
</event>
<event>
 9    1  0.1296032E-005  0.1047487E+03  0.7546771E-02  0.1271672E+00
          4   -1    0    0  502    0  0.00000000000E+00  0.00000000000E+00  0.41064773351E+03  0.41064773351E+03  0.00000000000E+00 0. -1.
         -4   -1    0    0    0  501 -0.00000000000E+00 -0.00000000000E+00 -0.84712794946E+02  0.84712794946E+02  0.00000000000E+00 0.  1.
         23    2    1    2    0    0  0.75272916384E+02 -0.17172545447E+02  0.55031853057E+01  0.12134159686E+03  0.93448327018E+02 0.  0.
         23    2    1    2    0    0  0.12919701351E+02  0.14064195580E+02  0.10009610334E+03  0.13666813996E+03  0.91072664928E+02 0.  0.
        -11    1    3    3    0    0  0.62120030358E+01 -0.45717349123E+02 -0.23833719495E+01  0.46198976768E+02  0.00000000000E+00 0. -1.
         11    1    3    3    0    0  0.69060913348E+02  0.28544803675E+02  0.78865572552E+01  0.75142620095E+02  0.00000000000E+00 0.  1.
        -11    1    4    4    0    0  0.42506250249E+02 -0.10647924788E+02  0.84298601803E+02  0.95007441174E+02  0.00000000000E+00 0.  1.
         11    1    4    4    0    0 -0.29586548898E+02  0.24712120367E+02  0.15797501534E+02  0.41660698788E+02  0.00000000000E+00 0. -1.
         21    1    1    2  502  501 -0.88192617735E+02  0.31083498676E+01  0.22033564992E+03  0.23735079163E+03  0.00000000000E+00 0. -1.
<scales pt_clust_5="13000.00000" pt_clust_6="13000.00000" pt_clust_7="13000.00000" pt_clust_8="13000.00000" pt_clust_9="88.24738"></scales>
<clustering>
<clus scale="   88.247">  1  9  2 -1</clus>
<clus scale="   91.073">  7  8 -1 -1</clus>
<clus scale="   93.448">  5  6 -1 -1</clus>
<clus scale="  102.635">  1  7  2 -1</clus>
<clus scale="   88.247">  1  5  2 -1</clus>
</clustering>
</event>
<event>
 9    1  0.1296032E-005  0.1266982E+03  0.7546771E-02  0.1232517E+00
         -1   -1    0    0    0  501 -0.00000000000E+00  0.00000000000E+00  0.75485981405E+02  0.75485981405E+02  0.00000000000E+00 0.  1.
          1   -1    0    0  502    0  0.00000000000E+00 -0.00000000000E+00 -0.32040929452E+03  0.32040929452E+03  0.00000000000E+00 0. -1.
         23    2    1    2    0    0  0.52986040375E+02 -0.74816060598E+02 -0.41625556647E+02  0.13569517437E+03  0.90969939995E+02 0.  0.
         23    2    1    2    0    0 -0.70894336813E+02  0.48071730139E+02 -0.13011746563E+03  0.18025436208E+03  0.90687275608E+02 0.  0.
        -11    1    4    4    0    0 -0.29213959936E+01  0.39446175596E+02 -0.95754325966E+02  0.10360225029E+03  0.00000000000E+00 0.  1.
         11    1    4    4    0    0 -0.67972940819E+02  0.86255545429E+01 -0.34363139662E+02  0.76652111792E+02  0.00000000000E+00 0. -1.
        -11    1    3    3    0    0  0.22275458689E+02 -0.48991369626E+02  0.23879297883E+02  0.58877595272E+02  0.00000000000E+00 0.  1.
         11    1    3    3    0    0  0.30710581685E+02 -0.25824690972E+02 -0.65504854530E+02  0.76817579096E+02  0.00000000000E+00 0. -1.
         21    1    1    2  502  501  0.17908296438E+02  0.26744330459E+02 -0.73180290844E+02  0.79945739480E+02  0.00000000000E+00 0. -1.
<scales pt_clust_5="13000.00000" pt_clust_6="13000.00000" pt_clust_7="13000.00000" pt_clust_8="13000.00000" pt_clust_9="32.18643"></scales>
<clustering>
<clus scale="   32.186">  2  9  1 -1</clus>
<clus scale="   90.687">  5  6 -1 -1</clus>
<clus scale="   90.970">  7  8 -1 -1</clus>
<clus scale="  126.495">  2  5  1 -1</clus>
<clus scale="   32.186">  2  5  1 -1</clus>
</clustering>
</event>
<event>
 9    1  0.1296032E-005  0.1286907E+03  0.7546771E-02  0.1230704E+00
          1   -1    0    0  502    0  0.00000000000E+00  0.00000000000E+00  0.98585149397E+02  0.98585149397E+02  0.00000000000E+00 0. -1.
         -1   -1    0    0    0  501 -0.00000000000E+00 -0.00000000000E+00 -0.36031617603E+03  0.36031617603E+03  0.00000000000E+00 0.  1.
         23    2    1    2    0    0 -0.59610800026E+02 -0.85494058181E+02 -0.23529900008E+03  0.27340216421E+03  0.92306242976E+02 0.  0.
         23    2    1    2    0    0  0.31658744859E+02  0.58462938989E+02 -0.67469749117E+02  0.12896515847E+03  0.87519447515E+02 0.  0.
        -13    1    3    3    0    0 -0.80161483037E+02 -0.59182830472E+02 -0.20661424932E+03  0.22938596036E+03  0.00000000000E+00 0.  1.
         13    1    3    3    0    0  0.20550683011E+02 -0.26311227708E+02 -0.28684750759E+02  0.44016203855E+02  0.00000000000E+00 0. -1.
        -13    1    4    4    0    0  0.26443202659E+02  0.20285075439E+02 -0.81426481977E+02  0.87982948459E+02  0.00000000000E+00 0.  1.
         13    1    4    4    0    0  0.52155422000E+01  0.38177863550E+02  0.13956732860E+02  0.40982210016E+02  0.00000000000E+00 0. -1.
         21    1    1    2  502  501  0.27952055167E+02  0.27031119192E+02  0.41037722564E+02  0.56534002742E+02  0.00000000000E+00 0. -1.
<scales pt_clust_5="13000.00000" pt_clust_6="13000.00000" pt_clust_7="13000.00000" pt_clust_8="13000.00000" pt_clust_9="38.88443"></scales>
<clustering>
<clus scale="   38.884">  1  9  2 -1</clus>
<clus scale="   87.519">  7  8 -1 -1</clus>
<clus scale="   92.306">  5  6 -1 -1</clus>
<clus scale="  125.302">  1  7  2 -1</clus>
<clus scale="   38.884">  1  5  2 -1</clus>
</clustering>
</event>
<event>
 9    1  0.1296032E-005  0.2112877E+03  0.7546771E-02  0.1140589E+00
          1   -1    0    0  502    0  0.00000000000E+00  0.00000000000E+00  0.76728645246E+03  0.76728645246E+03  0.00000000000E+00 0. -1.
         -1   -1    0    0    0  501 -0.00000000000E+00 -0.00000000000E+00 -0.82205764466E+02  0.82205764466E+02  0.00000000000E+00 0.  1.
         23    2    1    2    0    0 -0.17057706711E+03 -0.63903855393E+02  0.15798955535E+03  0.25667076630E+03  0.87971268703E+02 0.  0.
         23    2    1    2    0    0  0.19736294627E+03  0.78676084848E+02  0.39262302066E+03  0.45491795094E+03  0.87495410427E+02 0.  0.
        -11    1    4    4    0    0  0.89322629787E+02  0.42659967495E+02  0.99068397594E+02  0.14004625101E+03  0.00000000000E+00 0.  1.
         11    1    4    4    0    0  0.10804031648E+03  0.36016117354E+02  0.29355462307E+03  0.31487169993E+03  0.00000000000E+00 0. -1.
        -11    1    3    3    0    0 -0.22977311494E+02  0.18610972634E+02  0.42974258468E+02  0.52164279318E+02  0.00000000000E+00 0. -1.
         11    1    3    3    0    0 -0.14759975562E+03 -0.82514828027E+02  0.11501529688E+03  0.20450648698E+03  0.00000000000E+00 0.  1.
         21    1    1    2  502  501 -0.26785879159E+02 -0.14772229455E+02  0.13446811198E+03  0.13790349968E+03  0.00000000000E+00 0.  1.
<scales pt_clust_5="13000.00000" pt_clust_6="13000.00000" pt_clust_7="13000.00000" pt_clust_8="13000.00000" pt_clust_9="30.58925"></scales>
<clustering>
<clus scale="   30.589">  1  9  2 -1</clus>
<clus scale="   87.495">  5  6 -1 -1</clus>
<clus scale="   87.971">  7  8 -1 -1</clus>
<clus scale="  211.090">  1  5  2 -1</clus>
<clus scale="   30.589">  1  5  2 -1</clus>
</clustering>
</event>
<event>
 9    1  0.1296032E-005  0.1074406E+03  0.7546771E-02  0.1266453E+00
         -1   -1    0    0    0  501 -0.00000000000E+00  0.00000000000E+00  0.27697966324E+02  0.27697966324E+02  0.00000000000E+00 0.  1.
          1   -1    0    0  502    0  0.00000000000E+00 -0.00000000000E+00 -0.86323728810E+03  0.86323728810E+03  0.00000000000E+00 0. -1.
         23    2    1    2    0    0  0.64204582624E+00 -0.41360331172E+02 -0.16155019980E+03  0.19037091044E+03  0.91823348179E+02 0.  0.
         23    2    1    2    0    0 -0.38951397537E+02  0.86458170106E+02 -0.41720407648E+03  0.43704967438E+03  0.89224155326E+02 0.  0.
        -11    1    3    3    0    0 -0.31933227263E+02 -0.11229419487E+02 -0.13384341886E+03  0.13805756639E+03  0.00000000000E+00 0.  1.
         11    1    3    3    0    0  0.32575273090E+02 -0.30130911685E+02 -0.27706780933E+02  0.52313344048E+02  0.00000000000E+00 0. -1.
        -13    1    4    4    0    0 -0.21651525535E+02 -0.83529645195E+01 -0.29433745224E+02  0.37482074811E+02  0.00000000000E+00 0.  1.
         13    1    4    4    0    0 -0.17299872002E+02  0.94811134626E+02 -0.38777033126E+03  0.39956759957E+03  0.00000000000E+00 0. -1.
         21    1    1    2  502  501  0.38309351711E+02 -0.45097838934E+02 -0.25678504549E+03  0.26351466960E+03  0.00000000000E+00 0. -1.
<scales pt_clust_5="13000.00000" pt_clust_6="13000.00000" pt_clust_7="13000.00000" pt_clust_8="13000.00000" pt_clust_9="59.17281"></scales>
<clustering>
<clus scale="   59.173">  2  9  1 -1</clus>
<clus scale="   89.224">  7  8 -1 -1</clus>
<clus scale="   91.823">  5  6 -1 -1</clus>
<clus scale="  105.228">  2  7  1 -1</clus>
<clus scale="   59.173">  2  5  1 -1</clus>
</clustering>
</event>
<event>
 9    1  0.1296032E-005  0.9951903E+02  0.7546771E-02  0.1281512E+00
         -1   -1    0    0    0  501 -0.00000000000E+00  0.00000000000E+00  0.25146674249E+03  0.25146674249E+03  0.00000000000E+00 0.  1.
          1   -1    0    0  502    0  0.00000000000E+00 -0.00000000000E+00 -0.71379981495E+02  0.71379981495E+02  0.00000000000E+00 0. -1.
         23    2    1    2    0    0  0.48530859184E+02 -0.32171791869E+02  0.12564681094E+03  0.16543870712E+03  0.90512851175E+02 0.  0.
         23    2    1    2    0    0 -0.19942698340E+02 -0.13209768921E+02  0.36321537502E+02  0.10079489230E+03  0.90929351781E+02 0.  0.
        -13    1    3    3    0    0 -0.27573832561E+01 -0.42413025048E+02  0.18793177533E+02  0.46472049427E+02  0.00000000000E+00 0. -1.
         13    1    3    3    0    0  0.51288242440E+02  0.10241233179E+02  0.10685363341E+03  0.11896665769E+03  0.00000000000E+00 0.  1.
        -13    1    4    4    0    0  0.21939715531E+02  0.23099909563E+02  0.32065636223E+02  0.45201349159E+02  0.00000000000E+00 0.  1.
         13    1    4    4    0    0 -0.41882413871E+02 -0.36309678483E+02  0.42559012785E+01  0.55593543141E+02  0.00000000000E+00 0. -1.
         21    1    1    2  502  501 -0.28588160844E+02  0.45381560790E+02  0.18118412556E+02  0.56613124571E+02  0.00000000000E+00 0. -1.
<scales pt_clust_5="13000.00000" pt_clust_6="13000.00000" pt_clust_7="13000.00000" pt_clust_8="13000.00000" pt_clust_9="53.63552"></scales>
<clustering>
<clus scale="   53.636">  2  9  1 -1</clus>
<clus scale="   90.513">  5  6 -1 -1</clus>
<clus scale="   90.929">  7  8 -1 -1</clus>
<clus scale="   99.139">  1  5  2 -1</clus>
<clus scale="   53.636">  2  5  1 -1</clus>
</clustering>
</event>
<event>
 9    1  0.1296032E-005  0.1116896E+03  0.7546771E-02  0.1257492E+00
          1   -1    0    0  502    0  0.00000000000E+00  0.00000000000E+00  0.61037084235E+03  0.61037084235E+03  0.00000000000E+00 0. -1.
         -1   -1    0    0    0  501 -0.00000000000E+00 -0.00000000000E+00 -0.35793233998E+02  0.35793233998E+02  0.00000000000E+00 0.  1.
         23    2    1    2    0    0 -0.15305004386E+01  0.43332912300E+02  0.15727714281E+03  0.18709306288E+03  0.91584009558E+02 0.  0.
         23    2    1    2    0    0 -0.12416444372E+02 -0.93410115598E+02  0.23193558460E+03  0.26655508518E+03  0.91530761184E+02 0.  0.
        -11    1    3    3    0    0 -0.39710431127E+02 -0.46184751913E+01  0.59040130386E+02  0.71302073247E+02  0.00000000000E+00 0. -1.
         11    1    3    3    0    0  0.38179930688E+02  0.47951387492E+02  0.98237012423E+02  0.11579098963E+03  0.00000000000E+00 0.  1.
        -11    1    4    4    0    0  0.38780451855E+02 -0.39583680441E+02  0.78574360787E+02  0.96149474135E+02  0.00000000000E+00 0.  1.
         11    1    4    4    0    0 -0.51196896227E+02 -0.53826435156E+02  0.15336122382E+03  0.17040561104E+03  0.00000000000E+00 0. -1.
         21    1    1    2  502  501  0.13946944811E+02  0.50077203297E+02  0.18536488094E+03  0.19251592829E+03  0.00000000000E+00 0.  1.
<scales pt_clust_5="13000.00000" pt_clust_6="13000.00000" pt_clust_7="13000.00000" pt_clust_8="13000.00000" pt_clust_9="51.98311"></scales>
<clustering>
<clus scale="   51.983">  1  9  2 -1</clus>
<clus scale="   91.531">  7  8 -1 -1</clus>
<clus scale="   91.584">  5  6 -1 -1</clus>
<clus scale="  111.646">  1  7  2 -1</clus>
<clus scale="   51.983">  1  5  2 -1</clus>
</clustering>
</event>
<event>
 9    1  0.1296032E-005  0.1113141E+03  0.7546771E-02  0.1258711E+00
         -1   -1    0    0    0  501 -0.00000000000E+00  0.00000000000E+00  0.32583172400E+03  0.32583172400E+03  0.00000000000E+00 0.  1.
          1   -1    0    0  502    0  0.00000000000E+00 -0.00000000000E+00 -0.67586806024E+02  0.67586806024E+02  0.00000000000E+00 0. -1.
         23    2    1    2    0    0  0.10754295698E+02 -0.62382642943E+02  0.13038246544E+03  0.17068255825E+03  0.90142661263E+02 0.  0.
         23    2    1    2    0    0  0.40516709878E+02  0.61264695752E+02  0.12480412345E+03  0.17136166695E+03  0.91617601719E+02 0.  0.
        -11    1    4    4    0    0 -0.14169636481E+02  0.26957334658E+02 -0.44099155039E+00  0.30457691367E+02  0.00000000000E+00 0. -1.
         11    1    4    4    0    0  0.54686346359E+02  0.34307361094E+02  0.12524511501E+03  0.14090397559E+03  0.00000000000E+00 0.  1.
        -13    1    3    3    0    0  0.14132566471E+01 -0.23329753132E+02 -0.94411821199E+01  0.25207352010E+02  0.00000000000E+00 0. -1.
         13    1    3    3    0    0  0.93410390507E+01 -0.39052889811E+02  0.13982364756E+03  0.14547520624E+03  0.00000000000E+00 0.  1.
         21    1    1    2  502  501 -0.51271005576E+02  0.11179471906E+01  0.30583290764E+01  0.51374304817E+02  0.00000000000E+00 0. -1.
<scales pt_clust_5="13000.00000" pt_clust_6="13000.00000" pt_clust_7="13000.00000" pt_clust_8="13000.00000" pt_clust_9="51.28319"></scales>
<clustering>
<clus scale="   51.283">  2  9  1 -1</clus>
<clus scale="   90.143">  7  8 -1 -1</clus>
<clus scale="   91.618">  5  6 -1 -1</clus>
<clus scale="  110.103">  1  7  2 -1</clus>
<clus scale="   51.283">  2  5  1 -1</clus>
</clustering>
</event>
<event>
 9    1  0.1296032E-005  0.1004495E+03  0.7546771E-02  0.1280899E+00
         -1   -1    0    0    0  501 -0.00000000000E+00  0.00000000000E+00  0.52768484675E+03  0.52768484675E+03  0.00000000000E+00 0.  1.
          1   -1    0    0  502    0  0.00000000000E+00 -0.00000000000E+00 -0.63509240351E+02  0.63509240351E+02  0.00000000000E+00 0. -1.
         23    2    1    2    0    0  0.39641489984E+02 -0.16485148570E+02  0.44826612053E+03  0.45954881815E+03  0.91648205605E+02 0.  0.
         23    2    1    2    0    0 -0.16810987615E+02  0.33899003495E+02  0.28437975519E+02  0.10031737029E+03  0.88448315916E+02 0.  0.
        -11    1    4    4    0    0  0.88640057314E+01 -0.27903741946E+02  0.84859219510E+01  0.30482786676E+02  0.00000000000E+00 0. -1.
         11    1    4    4    0    0 -0.25674993346E+02  0.61802745441E+02  0.19952053568E+02  0.69834583617E+02  0.00000000000E+00 0.  1.
        -13    1    3    3    0    0 -0.13028136131E+01 -0.48405595504E+02  0.18648816510E+03  0.19267235069E+03  0.00000000000E+00 0. -1.
         13    1    3    3    0    0  0.40944303597E+02  0.31920446934E+02  0.26177795544E+03  0.26687646746E+03  0.00000000000E+00 0.  1.
         21    1    1    2  502  501 -0.22830502369E+02 -0.17413854925E+02 -0.12528489650E+02  0.31327898664E+02  0.00000000000E+00 0. -1.
<scales pt_clust_5="13000.00000" pt_clust_6="13000.00000" pt_clust_7="13000.00000" pt_clust_8="13000.00000" pt_clust_9="28.71366"></scales>
<clustering>
<clus scale="   28.714">  2  9  1 -1</clus>
<clus scale="   88.448">  5  6 -1 -1</clus>
<clus scale="   91.648">  7  8 -1 -1</clus>
<clus scale="   97.539">  2  5  1 -1</clus>
<clus scale="   28.714">  2  5  1 -1</clus>
</clustering>
</event>
<event>
 9    1  0.1296032E-005  0.1031482E+03  0.7546771E-02  0.1274359E+00
         -1   -1    0    0    0  501 -0.00000000000E+00  0.00000000000E+00  0.28773255836E+03  0.28773255836E+03  0.00000000000E+00 0.  1.
          1   -1    0    0  502    0  0.00000000000E+00 -0.00000000000E+00 -0.81834096736E+02  0.81834096736E+02  0.00000000000E+00 0. -1.
         23    2    1    2    0    0 -0.24572467113E+02 -0.44379812144E+02  0.19912175962E+03  0.22466251601E+03  0.90831696460E+02 0.  0.
         23    2    1    2    0    0  0.29279126235E+02  0.23631969123E+02  0.38565692369E+02  0.10665279220E+03  0.92042209110E+02 0.  0.
        -11    1    3    3    0    0  0.33706391735E+02 -0.26998297345E+02  0.85596749702E+02  0.95874044782E+02  0.00000000000E+00 0.  1.
         11    1    3    3    0    0 -0.58278858849E+02 -0.17381514799E+02  0.11352500992E+03  0.12878847123E+03  0.00000000000E+00 0. -1.
        -13    1    4    4    0    0 -0.31708178048E+01 -0.30241910632E+02 -0.40590227064E+01  0.30677400633E+02  0.00000000000E+00 0.  1.
         13    1    4    4    0    0  0.32449944040E+02  0.53873879755E+02  0.42624715076E+02  0.75975391564E+02  0.00000000000E+00 0. -1.
         21    1    1    2  502  501 -0.47066591220E+01  0.20747843022E+02 -0.31788990364E+02  0.38251346885E+02  0.00000000000E+00 0.  1.
<scales pt_clust_5="13000.00000" pt_clust_6="13000.00000" pt_clust_7="13000.00000" pt_clust_8="13000.00000" pt_clust_9="21.27500"></scales>
<clustering>
<clus scale="   21.275">  2  9  1 -1</clus>
<clus scale="   90.832">  5  6 -1 -1</clus>
<clus scale="   92.042">  7  8 -1 -1</clus>
<clus scale="  102.070">  1  5  2 -1</clus>
<clus scale="   21.275">  2  5  1 -1</clus>
</clustering>
</event>
<event>
 9    1  0.2031920E-005  0.9091634E+02  0.7546771E-02  0.1300799E+00
         -2   -1    0    0    0  501 -0.00000000000E+00  0.00000000000E+00  0.55138070245E+02  0.55138070245E+02  0.00000000000E+00 0.  1.
          2   -1    0    0  502    0  0.00000000000E+00 -0.00000000000E+00 -0.40078013419E+03  0.40078013419E+03  0.00000000000E+00 0. -1.
         23    2    1    2    0    0  0.15177895781E+00 -0.65238008336E+01  0.56024055193E+00  0.90663635774E+02  0.90426754714E+02 0.  0.
         23    2    1    2    0    0 -0.44563568898E+01  0.27978164972E+02 -0.28400773333E+03  0.29932290848E+03  0.90173023221E+02 0.  0.
        -11    1    3    3    0    0 -0.12471805179E+02 -0.46334128665E+02 -0.61091240895E+01  0.48370639862E+02  0.00000000000E+00 0.  1.
         11    1    3    3    0    0  0.12623584136E+02  0.39810327831E+02  0.66693646414E+01  0.42292995912E+02  0.00000000000E+00 0. -1.
        -13    1    4    4    0    0  0.21558340817E+02  0.52209829984E+02 -0.20584985846E+03  0.21345911232E+03  0.00000000000E+00 0. -1.
         13    1    4    4    0    0 -0.26014697707E+02 -0.24231665012E+02 -0.78157874872E+02  0.85863796158E+02  0.00000000000E+00 0.  1.
         21    1    1    2  502  501  0.43045779320E+01 -0.21454364138E+02 -0.62194571170E+02  0.65931660185E+02  0.00000000000E+00 0. -1.
<scales pt_clust_5="13000.00000" pt_clust_6="13000.00000" pt_clust_7="13000.00000" pt_clust_8="13000.00000" pt_clust_9="21.88194"></scales>
<clustering>
<clus scale="   21.882">  2  9  1 -1</clus>
<clus scale="   90.173">  7  8 -1 -1</clus>
<clus scale="   90.427">  5  6 -1 -1</clus>
<clus scale="   90.664">  2  7  1 -1</clus>
<clus scale="   21.882">  2  5  1 -1</clus>
</clustering>
</event>
<event>
 9    1  0.1296032E-005  0.9801652E+02  0.7546771E-02  0.1288352E+00
         -1   -1    0    0    0  501 -0.00000000000E+00  0.00000000000E+00  0.10234860855E+03  0.10234860855E+03  0.00000000000E+00 0.  1.
          1   -1    0    0  502    0  0.00000000000E+00 -0.00000000000E+00 -0.23827365258E+03  0.23827365258E+03  0.00000000000E+00 0. -1.
         23    2    1    2    0    0  0.20381521057E+02  0.24575463053E+02  0.41136178852E+02  0.10925831815E+03  0.96051210762E+02 0.  0.
         23    2    1    2    0    0  0.27546135314E+01  0.21292312590E+02 -0.80418857848E+02  0.12191587180E+03  0.89080506448E+02 0.  0.
        -11    1    4    4    0    0 -0.86477045590E+01 -0.20728180275E+02  0.76049766789E+01  0.23712358000E+02  0.00000000000E+00 0. -1.
         11    1    4    4    0    0  0.11402318090E+02  0.42020492865E+02 -0.88023834527E+02  0.98203513803E+02  0.00000000000E+00 0.  1.
        -11    1    3    3    0    0  0.21521874627E+02 -0.35224898226E+02  0.19506817960E+02  0.45656330223E+02  0.00000000000E+00 0. -1.
         11    1    3    3    0    0 -0.11403535698E+01  0.59800361279E+02  0.21629360892E+02  0.63601987924E+02  0.00000000000E+00 0.  1.
         21    1    1    2  502  501 -0.23136134589E+02 -0.45867775643E+02 -0.96642365031E+02  0.10944807118E+03  0.00000000000E+00 0. -1.
<scales pt_clust_5="13000.00000" pt_clust_6="13000.00000" pt_clust_7="13000.00000" pt_clust_8="13000.00000" pt_clust_9="51.37250"></scales>
<clustering>
<clus scale="   51.372">  2  9  1 -1</clus>
<clus scale="   89.081">  5  6 -1 -1</clus>
<clus scale="   91.196">  2  5  1 -1</clus>
<clus scale="   96.051">  7  8 -1 -1</clus>
<clus scale="   51.372">  2  5  1 -1</clus>
</clustering>
</event>
<event>
 9    1  0.1296032E-005  0.3184029E+03  0.7546771E-02  0.1076424E+00
          2   -1    0    0  502    0  0.00000000000E+00  0.00000000000E+00  0.15637175036E+04  0.15637175036E+04  0.00000000000E+00 0.  1.
         -2   -1    0    0    0  501 -0.00000000000E+00 -0.00000000000E+00 -0.75886129436E+02  0.75886129436E+02  0.00000000000E+00 0. -1.
         23    2    1    2    0    0  0.52337818182E+02 -0.30863652661E+03  0.48779861254E+03  0.58691335252E+03  0.92325750501E+02 0.  0.
         23    2    1    2    0    0 -0.52872987552E+02  0.28553895167E+03  0.90203514252E+03  0.95200603286E+03  0.91214267130E+02 0.  0.
        -11    1    4    4    0    0 -0.69090380654E+02  0.27272184850E+03  0.80361580971E+03  0.85143940299E+03  0.00000000000E+00 0.  1.
         11    1    4    4    0    0  0.16217393102E+02  0.12817103169E+02  0.98419332809E+02  0.10056662987E+03  0.00000000000E+00 0. -1.
        -13    1    3    3    0    0 -0.13926988904E+02 -0.12994809678E+03  0.25065213413E+03  0.28267819375E+03  0.00000000000E+00 0.  1.
         13    1    3    3    0    0  0.66264807086E+02 -0.17868842984E+03  0.23714647841E+03  0.30423515878E+03  0.00000000000E+00 0. -1.
         21    1    1    2  502  501  0.53516937031E+00  0.23097574947E+02  0.97997619152E+02  0.10068424770E+03  0.00000000000E+00 0.  1.
<scales pt_clust_5="13000.00000" pt_clust_6="13000.00000" pt_clust_7="13000.00000" pt_clust_8="13000.00000" pt_clust_9="23.10377"></scales>
<clustering>
<clus scale="   23.104">  1  9  2 -1</clus>
<clus scale="   91.214">  5  6 -1 -1</clus>
<clus scale="   92.326">  7  8 -1 -1</clus>
<clus scale="  318.082">  1  5  2 -1</clus>
<clus scale="   23.104">  1  5  2 -1</clus>
</clustering>
</event>
<event>
 9    1  0.1296032E-005  0.9696687E+02  0.7546771E-02  0.1290189E+00
         -1   -1    0    0    0  501 -0.00000000000E+00  0.00000000000E+00  0.30482294864E+02  0.30482294864E+02  0.00000000000E+00 0.  1.
          1   -1    0    0  502    0  0.00000000000E+00 -0.00000000000E+00 -0.64875012856E+03  0.64875012856E+03  0.00000000000E+00 0. -1.
         23    2    1    2    0    0  0.86501878980E+01 -0.16237974345E+02 -0.87601009319E+02  0.13153853758E+03  0.96384399540E+02 0.  0.
         23    2    1    2    0    0 -0.77553879262E+01 -0.24242362732E+02 -0.33677588337E+03  0.34962027487E+03  0.90379769806E+02 0.  0.
        -11    1    4    4    0    0  0.39999352106E+02 -0.20277366414E+02 -0.18997623235E+03  0.19519756304E+03  0.00000000000E+00 0.  1.
         11    1    4    4    0    0 -0.47754740032E+02 -0.39649963178E+01 -0.14679965102E+03  0.15442271184E+03  0.00000000000E+00 0. -1.
        -13    1    3    3    0    0 -0.30094923394E+02  0.17666165501E+02 -0.68032186292E+02  0.76460291585E+02  0.00000000000E+00 0. -1.
         13    1    3    3    0    0  0.38745111292E+02 -0.33904139846E+02 -0.19568823026E+02  0.55078245999E+02  0.00000000000E+00 0.  1.
         21    1    1    2  502  501 -0.89479997176E+00  0.40480337077E+02 -0.19389094101E+03  0.19807361097E+03  0.00000000000E+00 0. -1.
<scales pt_clust_5="13000.00000" pt_clust_6="13000.00000" pt_clust_7="13000.00000" pt_clust_8="13000.00000" pt_clust_9="40.49023"></scales>
<clustering>
<clus scale="   40.490">  2  9  1 -1</clus>
<clus scale="   90.380">  5  6 -1 -1</clus>
<clus scale="   91.001">  2  5  1 -1</clus>
<clus scale="   96.384">  7  8 -1 -1</clus>
<clus scale="   40.490">  2  5  1 -1</clus>
</clustering>
</event>
<event>
 9    1  0.1296032E-005  0.1558706E+03  0.7546771E-02  0.1193674E+00
          2   -1    0    0  502    0  0.00000000000E+00  0.00000000000E+00  0.85670344692E+03  0.85670344692E+03  0.00000000000E+00 0. -1.
         -2   -1    0    0    0  501 -0.00000000000E+00 -0.00000000000E+00 -0.42741425786E+02  0.42741425786E+02  0.00000000000E+00 0.  1.
         23    2    1    2    0    0 -0.13197541790E+03  0.24634125817E+01  0.16862944913E+03  0.23276241606E+03  0.91207849928E+02 0.  0.
         23    2    1    2    0    0  0.10771999962E+03 -0.57858350851E+01  0.52624634542E+03  0.54510575998E+03  0.92563487915E+02 0.  0.
        -11    1    3    3    0    0  0.28777634304E+01  0.21789341418E+02  0.38701501142E+02  0.44506888370E+02  0.00000000000E+00 0. -1.
         11    1    3    3    0    0 -0.13485318133E+03 -0.19325928837E+02  0.12992794798E+03  0.18825552769E+03  0.00000000000E+00 0.  1.
        -13    1    4    4    0    0  0.31935989669E+02  0.29001539211E+02  0.77682253469E+02  0.88856790493E+02  0.00000000000E+00 0. -1.
         13    1    4    4    0    0  0.75784009954E+02 -0.34787374296E+02  0.44856409195E+03  0.45624896949E+03  0.00000000000E+00 0.  1.
         21    1    1    2  502  501  0.24255418276E+02  0.33224225034E+01  0.11908622659E+03  0.12157669666E+03  0.00000000000E+00 0. -1.
<scales pt_clust_5="13000.00000" pt_clust_6="13000.00000" pt_clust_7="13000.00000" pt_clust_8="13000.00000" pt_clust_9="24.48191"></scales>
<clustering>
<clus scale="   24.482">  1  9  2 -1</clus>
<clus scale="   91.208">  5  6 -1 -1</clus>
<clus scale="   92.563">  7  8 -1 -1</clus>
<clus scale="  155.069">  2  5  1 -1</clus>
<clus scale="   24.482">  1  5  2 -1</clus>
</clustering>
</event>
<event>
 9    1  0.1296032E-005  0.1039629E+03  0.7546771E-02  0.1274681E+00
         -2   -1    0    0    0  501 -0.00000000000E+00  0.00000000000E+00  0.21706140347E+03  0.21706140347E+03  0.00000000000E+00 0.  1.
          2   -1    0    0  502    0  0.00000000000E+00 -0.00000000000E+00 -0.18013147153E+03  0.18013147153E+03  0.00000000000E+00 0. -1.
         23    2    1    2    0    0  0.33052218169E+02  0.27734134808E+02  0.13655487296E+03  0.17007173811E+03  0.91736205585E+02 0.  0.
         23    2    1    2    0    0 -0.65466378741E+02 -0.22157862318E+02  0.11670706068E+02  0.11106729732E+03  0.86156378438E+02 0.  0.
        -13    1    4    4    0    0 -0.22001585571E+01 -0.38072633224E+02  0.23458708720E+02  0.44773620728E+02  0.00000000000E+00 0.  1.
         13    1    4    4    0    0 -0.63266220184E+02  0.15914770906E+02 -0.11788002652E+02  0.66293676590E+02  0.00000000000E+00 0. -1.
        -13    1    3    3    0    0 -0.24519181436E+01 -0.28989847289E+02  0.69472722189E+02  0.75318538732E+02  0.00000000000E+00 0.  1.
         13    1    3    3    0    0  0.35504136313E+02  0.56723982096E+02  0.67082150766E+02  0.94753199374E+02  0.00000000000E+00 0. -1.
         21    1    1    2  502  501  0.32414160571E+02 -0.55762724899E+01 -0.11129564708E+03  0.11605383958E+03  0.00000000000E+00 0. -1.
<scales pt_clust_5="13000.00000" pt_clust_6="13000.00000" pt_clust_7="13000.00000" pt_clust_8="13000.00000" pt_clust_9="32.89031"></scales>
<clustering>
<clus scale="   32.890">  2  9  1 -1</clus>
<clus scale="   86.156">  5  6 -1 -1</clus>
<clus scale="   91.736">  7  8 -1 -1</clus>
<clus scale="   99.074">  2  5  1 -1</clus>
<clus scale="   32.890">  2  5  1 -1</clus>
</clustering>
</event>
<event>
 9    1  0.1296032E-005  0.1230481E+03  0.7546771E-02  0.1238896E+00
          2   -1    0    0  502    0  0.00000000000E+00  0.00000000000E+00  0.65930103960E+03  0.65930103960E+03  0.00000000000E+00 0. -1.
         -2   -1    0    0    0  501 -0.00000000000E+00 -0.00000000000E+00 -0.46958204590E+02  0.46958204590E+02  0.00000000000E+00 0.  1.
         23    2    1    2    0    0  0.47862497894E+02 -0.37239456131E+02  0.21568325342E+03  0.24289832695E+03  0.93822895030E+02 0.  0.
         23    2    1    2    0    0 -0.74580027709E+02  0.57104244048E+02  0.40773224824E+03  0.42827473557E+03  0.91381549816E+02 0.  0.
        -11    1    4    4    0    0 -0.58809703389E+02  0.80754709317E+02  0.27634754921E+03  0.29385008464E+03  0.00000000000E+00 0.  1.
         11    1    4    4    0    0 -0.15770324320E+02 -0.23650465269E+02  0.13138469903E+03  0.13442465092E+03  0.00000000000E+00 0. -1.
        -11    1    3    3    0    0  0.40280826374E+02  0.87806924144E+01  0.28817792534E+02  0.50300205757E+02  0.00000000000E+00 0.  1.
         11    1    3    3    0    0  0.75816715192E+01 -0.46020148545E+02  0.18686546088E+03  0.19259812119E+03  0.00000000000E+00 0. -1.
         21    1    1    2  502  501  0.26717529816E+02 -0.19864787917E+02 -0.11072666643E+02  0.35086181682E+02  0.00000000000E+00 0.  1.
<scales pt_clust_5="13000.00000" pt_clust_6="13000.00000" pt_clust_7="13000.00000" pt_clust_8="13000.00000" pt_clust_9="33.29319"></scales>
<clustering>
<clus scale="   33.293">  2  9  1 -1</clus>
<clus scale="   91.382">  5  6 -1 -1</clus>
<clus scale="   93.823">  7  8 -1 -1</clus>
<clus scale="  121.197">  1  5  2 -1</clus>
<clus scale="  121.197">  1  5  2 -1</clus>
</clustering>
</event>
<event>
 9    1  0.1296032E-005  0.1012723E+03  0.7546771E-02  0.1277664E+00
          1   -1    0    0  502    0  0.00000000000E+00  0.00000000000E+00  0.35037549283E+03  0.35037549283E+03  0.00000000000E+00 0. -1.
         -1   -1    0    0    0  501 -0.00000000000E+00 -0.00000000000E+00 -0.78185339611E+02  0.78185339611E+02  0.00000000000E+00 0.  1.
         23    2    1    2    0    0 -0.18713577245E+02  0.23978114289E+02  0.71047251697E+02  0.11961075958E+03  0.91290053648E+02 0.  0.
         23    2    1    2    0    0  0.49997649833E+02  0.63339616387E+02  0.17382947972E+03  0.21225931685E+03  0.91245041376E+02 0.  0.
        -11    1    4    4    0    0  0.37664179719E+02  0.85184473930E+02  0.15523657073E+03  0.18103418993E+03  0.00000000000E+00 0. -1.
         11    1    4    4    0    0  0.12333470113E+02 -0.21844857543E+02  0.18592908992E+02  0.31225126915E+02  0.00000000000E+00 0.  1.
        -13    1    3    3    0    0 -0.92211622712E+01  0.55142417523E+02  0.66239844030E+02  0.86680061035E+02  0.00000000000E+00 0. -1.
         13    1    3    3    0    0 -0.94924149741E+01 -0.31164303233E+02  0.48074076665E+01  0.32930698543E+02  0.00000000000E+00 0.  1.
         21    1    1    2  502  501 -0.31284072587E+02 -0.87317730677E+02  0.27313421799E+02  0.96690756014E+02  0.00000000000E+00 0.  1.
<scales pt_clust_5="13000.00000" pt_clust_6="13000.00000" pt_clust_7="13000.00000" pt_clust_8="13000.00000" pt_clust_9="92.75279"></scales>
<clustering>
<clus scale="   91.245">  5  6 -1 -1</clus>
<clus scale="   91.290">  7  8 -1 -1</clus>
<clus scale="   92.753">  2  9  1 -1</clus>
<clus scale="  101.232">  1  5  2 -1</clus>
<clus scale="  101.232">  1  5  2 -1</clus>
</clustering>
</event>
<event>
 9    1  0.1296032E-005  0.1111453E+03  0.7546771E-02  0.1258590E+00
         -2   -1    0    0    0  501 -0.00000000000E+00  0.00000000000E+00  0.16311504149E+03  0.16311504149E+03  0.00000000000E+00 0.  1.
          2   -1    0    0  502    0  0.00000000000E+00 -0.00000000000E+00 -0.24684001845E+03  0.24684001845E+03  0.00000000000E+00 0. -1.
         23    2    1    2    0    0 -0.21718476424E+02 -0.50651766733E+02  0.10450996677E+03  0.15146505773E+03  0.94773608493E+02 0.  0.
         23    2    1    2    0    0  0.13674442932E+02  0.71088302537E+02 -0.69643674142E+02  0.13788217621E+03  0.94449542202E+02 0.  0.
        -11    1    4    4    0    0 -0.32317457317E+02  0.30028631304E+02  0.98948862230E+00  0.44126135489E+02  0.00000000000E+00 0.  1.
         11    1    4    4    0    0  0.45991900248E+02  0.41059671233E+02 -0.70633162765E+02  0.93756040724E+02  0.00000000000E+00 0. -1.
        -13    1    3    3    0    0 -0.53054267913E+02 -0.50174712105E+02  0.92625169726E+02  0.11794778143E+03  0.00000000000E+00 0.  1.
         13    1    3    3    0    0  0.31335791489E+02 -0.47705462853E+00  0.11884797046E+02  0.33517276294E+02  0.00000000000E+00 0. -1.
         21    1    1    2  502  501  0.80440334925E+01 -0.20436535803E+02 -0.11859126959E+03  0.12060782600E+03  0.00000000000E+00 0. -1.
<scales pt_clust_5="13000.00000" pt_clust_6="13000.00000" pt_clust_7="13000.00000" pt_clust_8="13000.00000" pt_clust_9="21.96266"></scales>
<clustering>
<clus scale="   21.963">  2  9  1 -1</clus>
<clus scale="   94.450">  5  6 -1 -1</clus>
<clus scale="   94.774">  7  8 -1 -1</clus>
<clus scale="  110.869">  2  5  1 -1</clus>
<clus scale="   21.963">  2  5  1 -1</clus>
</clustering>
</event>
<event>
 9    1  0.1296032E-005  0.9104697E+02  0.7546771E-02  0.1300528E+00
         -3   -1    0    0    0  501 -0.00000000000E+00  0.00000000000E+00  0.12923711418E+03  0.12923711418E+03  0.00000000000E+00 0.  1.
          3   -1    0    0  502    0  0.00000000000E+00 -0.00000000000E+00 -0.23358838023E+03  0.23358838023E+03  0.00000000000E+00 0. -1.
         23    2    1    2    0    0 -0.12009087294E+01 -0.18713369514E+01  0.91350034934E+02  0.12872573286E+03  0.90667200989E+02 0.  0.
         23    2    1    2    0    0  0.16566699887E+02 -0.12036664621E+02 -0.10232396453E+03  0.13845005162E+03  0.90988385174E+02 0.  0.
        -13    1    4    4    0    0 -0.16658487931E+02  0.31611799635E+02 -0.24857533588E+02  0.43528244536E+02  0.00000000000E+00 0.  1.
         13    1    4    4    0    0  0.33225187818E+02 -0.43648464256E+02 -0.77466430945E+02  0.94921807088E+02  0.00000000000E+00 0. -1.
        -13    1    3    3    0    0  0.36366212741E+02  0.66159304543E+01  0.80706291153E+02  0.88768110246E+02  0.00000000000E+00 0. -1.
         13    1    3    3    0    0 -0.37567121471E+02 -0.84872674057E+01  0.10643743781E+02  0.39957622618E+02  0.00000000000E+00 0.  1.
         21    1    1    2  502  501 -0.15365791158E+02  0.13908001573E+02 -0.93377336453E+02  0.95649709925E+02  0.00000000000E+00 0.  1.
<scales pt_clust_5="13000.00000" pt_clust_6="13000.00000" pt_clust_7="13000.00000" pt_clust_8="13000.00000" pt_clust_9="20.72535"></scales>
<clustering>
<clus scale="   20.725">  2  9  1 -1</clus>
<clus scale="   90.667">  7  8 -1 -1</clus>
<clus scale="   90.726">  1  7  2 -1</clus>
<clus scale="   90.988">  5  6 -1 -1</clus>
<clus scale="   20.725">  2  5  1 -1</clus>
</clustering>
</event>
<event>
 9    1  0.1296032E-005  0.1359997E+03  0.7546771E-02  0.1220233E+00
         -1   -1    0    0    0  501 -0.00000000000E+00  0.00000000000E+00  0.27999094013E+03  0.27999094013E+03  0.00000000000E+00 0.  1.
          1   -1    0    0  502    0  0.00000000000E+00 -0.00000000000E+00 -0.80860429760E+02  0.80860429760E+02  0.00000000000E+00 0. -1.
         23    2    1    2    0    0  0.82440077593E+02  0.38956532960E+02  0.10414130368E+03  0.16857374987E+03  0.96217047133E+02 0.  0.
         23    2    1    2    0    0 -0.79523736959E+02 -0.66154930557E+02  0.90505838968E+02  0.16455834044E+03  0.90485584183E+02 0.  0.
        -11    1    3    3    0    0  0.24291475687E+01  0.36468587407E+02  0.74915618023E+02  0.83355914302E+02  0.00000000000E+00 0.  1.
         11    1    3    3    0    0  0.80010930025E+02  0.24879455533E+01  0.29225685653E+02  0.85217835565E+02  0.00000000000E+00 0. -1.
        -13    1    4    4    0    0 -0.47187886966E+02 -0.19028921932E+02  0.94435867240E+02  0.10727035736E+03  0.00000000000E+00 0.  1.
         13    1    4    4    0    0 -0.32335849992E+02 -0.47126008625E+02 -0.39300282724E+01  0.57287983085E+02  0.00000000000E+00 0. -1.
         21    1    1    2  502  501 -0.29163406345E+01  0.27198397597E+02  0.44833677306E+01  0.27719279586E+02  0.00000000000E+00 0.  1.
<scales pt_clust_5="13000.00000" pt_clust_6="13000.00000" pt_clust_7="13000.00000" pt_clust_8="13000.00000" pt_clust_9="27.35430"></scales>
<clustering>
<clus scale="   27.354">  2  9  1 -1</clus>
<clus scale="   90.486">  7  8 -1 -1</clus>
<clus scale="   96.217">  5  6 -1 -1</clus>
<clus scale="  132.007">  2  7  1 -1</clus>
<clus scale="   27.354">  2  5  1 -1</clus>
</clustering>
</event>
<event>
 9    1  0.1296032E-005  0.1368320E+03  0.7546771E-02  0.1217945E+00
         -2   -1    0    0    0  501 -0.00000000000E+00  0.00000000000E+00  0.15171249964E+03  0.15171249964E+03  0.00000000000E+00 0.  1.
          2   -1    0    0  502    0  0.00000000000E+00 -0.00000000000E+00 -0.28268193166E+03  0.28268193166E+03  0.00000000000E+00 0. -1.
         23    2    1    2    0    0 -0.56496289643E+02 -0.53332041748E+02  0.47412184335E+02  0.13004972309E+03  0.92891753304E+02 0.  0.
         23    2    1    2    0    0  0.45941703934E+02  0.96786139593E+02 -0.20758035879E+03  0.25093848706E+03  0.91664180323E+02 0.  0.
        -11    1    3    3    0    0 -0.42751077355E+02 -0.68521426129E+02  0.64511127154E+02  0.10336598077E+03  0.00000000000E+00 0.  1.
         11    1    3    3    0    0 -0.13745212288E+02  0.15189384380E+02 -0.17098942819E+02  0.26683742320E+02  0.00000000000E+00 0. -1.
        -11    1    4    4    0    0 -0.10116520562E+02  0.80930371285E+02 -0.13677997911E+03  0.15925084512E+03  0.00000000000E+00 0. -1.
         11    1    4    4    0    0  0.56058224495E+02  0.15855768308E+02 -0.70800379674E+02  0.91687641938E+02  0.00000000000E+00 0.  1.
         21    1    1    2  502  501  0.10554585709E+02 -0.43454097845E+02  0.29198742428E+02  0.53406221158E+02  0.00000000000E+00 0.  1.
<scales pt_clust_5="13000.00000" pt_clust_6="13000.00000" pt_clust_7="13000.00000" pt_clust_8="13000.00000" pt_clust_9="44.71753"></scales>
<clustering>
<clus scale="   44.718">  1  9  2 -1</clus>
<clus scale="   91.664">  7  8 -1 -1</clus>
<clus scale="   92.892">  5  6 -1 -1</clus>
<clus scale="  136.002">  2  7  1 -1</clus>
<clus scale="  136.002">  2  5  1 -1</clus>
</clustering>
</event>
<event>
 9    1  0.1296032E-005  0.1686905E+03  0.7546771E-02  0.1179287E+00
         -2   -1    0    0    0  501 -0.00000000000E+00  0.00000000000E+00  0.46488700333E+02  0.46488700333E+02  0.00000000000E+00 0.  1.
          2   -1    0    0  502    0  0.00000000000E+00 -0.00000000000E+00 -0.79309849336E+03  0.79309849336E+03  0.00000000000E+00 0. -1.
         23    2    1    2    0    0 -0.89871855986E+01  0.15391658570E+03 -0.23009151610E+03  0.29106685375E+03  0.89480292303E+02 0.  0.
         23    2    1    2    0    0  0.55875501819E+01 -0.12506908489E+03 -0.40120519075E+03  0.42960506057E+03  0.89002282433E+02 0.  0.
        -11    1    4    4    0    0  0.26558545078E+02 -0.50455443867E+02 -0.74405762302E+02  0.93740736056E+02  0.00000000000E+00 0.  1.
         11    1    4    4    0    0 -0.20970994896E+02 -0.74613641019E+02 -0.32679942844E+03  0.33586432452E+03  0.00000000000E+00 0. -1.
        -13    1    3    3    0    0  0.40162173854E+02  0.71278518194E+02 -0.11421260502E+03  0.14049251407E+03  0.00000000000E+00 0. -1.
         13    1    3    3    0    0 -0.49149359453E+02  0.82638067502E+02 -0.11587891108E+03  0.15057433967E+03  0.00000000000E+00 0.  1.
         21    1    1    2  502  501  0.33996354167E+01 -0.28847500809E+02 -0.11531308618E+03  0.11891527937E+03  0.00000000000E+00 0. -1.
<scales pt_clust_5="13000.00000" pt_clust_6="13000.00000" pt_clust_7="13000.00000" pt_clust_8="13000.00000" pt_clust_9="29.04713"></scales>
<clustering>
<clus scale="   29.047">  2  9  1 -1</clus>
<clus scale="   89.002">  5  6 -1 -1</clus>
<clus scale="   89.480">  7  8 -1 -1</clus>
<clus scale="  168.437">  2  5  1 -1</clus>
<clus scale="   29.047">  2  5  1 -1</clus>
</clustering>
</event>
<event>
 9    1  0.1296032E-005  0.1019214E+03  0.7546771E-02  0.1277179E+00
         -1   -1    0    0    0  501 -0.00000000000E+00  0.00000000000E+00  0.33260698065E+03  0.33260698065E+03  0.00000000000E+00 0.  1.
          1   -1    0    0  502    0  0.00000000000E+00 -0.00000000000E+00 -0.31066302795E+03  0.31066302795E+03  0.00000000000E+00 0. -1.
         23    2    1    2    0    0 -0.45493568307E+02  0.21271604340E+01  0.28487536157E+03  0.30241830115E+03  0.90712004025E+02 0.  0.
         23    2    1    2    0    0  0.22665118432E+02  0.16488883520E+02 -0.23395533427E+02  0.99511427264E+02  0.92572038427E+02 0.  0.
        -13    1    4    4    0    0 -0.25793825697E+02  0.36162340268E+02 -0.11137775315E+02  0.45793955242E+02  0.00000000000E+00 0.  1.
         13    1    4    4    0    0  0.48458944129E+02 -0.19673456748E+02 -0.12257758112E+02  0.53717472022E+02  0.00000000000E+00 0. -1.
        -13    1    3    3    0    0 -0.24160502268E+02 -0.33519326417E+02  0.54849410489E+02  0.68671194429E+02  0.00000000000E+00 0. -1.
         13    1    3    3    0    0 -0.21333066039E+02  0.35646486851E+02  0.23002595108E+03  0.23374710673E+03  0.00000000000E+00 0.  1.
         21    1    1    2  502  501  0.22828449875E+02 -0.18616043954E+02 -0.23953587544E+03  0.24134028018E+03  0.00000000000E+00 0. -1.
<scales pt_clust_5="13000.00000" pt_clust_6="13000.00000" pt_clust_7="13000.00000" pt_clust_8="13000.00000" pt_clust_9="29.45667"></scales>
<clustering>
<clus scale="   29.457">  2  9  1 -1</clus>
<clus scale="   90.712">  7  8 -1 -1</clus>
<clus scale="   92.572">  5  6 -1 -1</clus>
<clus scale="  100.235">  1  7  2 -1</clus>
<clus scale="   29.457">  2  5  1 -1</clus>
</clustering>
</event>
<event>
 9    1  0.1296032E-005  0.1229949E+03  0.7546771E-02  0.1240288E+00
         -2   -1    0    0    0  501 -0.00000000000E+00  0.00000000000E+00  0.40910438314E+02  0.40910438314E+02  0.00000000000E+00 0.  1.
          2   -1    0    0  502    0  0.00000000000E+00 -0.00000000000E+00 -0.70108460128E+03  0.70108460128E+03  0.00000000000E+00 0. -1.
         23    2    1    2    0    0 -0.74046717536E+02  0.44597742321E+02 -0.90811916659E+02  0.15277227067E+03  0.87296549070E+02 0.  0.
         23    2    1    2    0    0  0.59657072878E+02 -0.98569652715E+01 -0.37670966337E+03  0.39293471229E+03  0.93975483735E+02 0.  0.
        -13    1    4    4    0    0 -0.19204444261E+02 -0.12065548152E+02 -0.31441888492E+02  0.38768292244E+02  0.00000000000E+00 0. -1.
         13    1    4    4    0    0  0.78861517139E+02  0.22085828809E+01 -0.34526777488E+03  0.35416642005E+03  0.00000000000E+00 0.  1.
        -13    1    3    3    0    0 -0.76895237636E+01 -0.19140620091E+02  0.36020489856E+01  0.20939600524E+02  0.00000000000E+00 0.  1.
         13    1    3    3    0    0 -0.66357193772E+02  0.63738362413E+02 -0.94413965644E+02  0.13183267014E+03  0.00000000000E+00 0. -1.
         21    1    1    2  502  501  0.14389644658E+02 -0.34740777050E+02 -0.19265258294E+03  0.19628805664E+03  0.00000000000E+00 0.  1.
<scales pt_clust_5="13000.00000" pt_clust_6="13000.00000" pt_clust_7="13000.00000" pt_clust_8="13000.00000" pt_clust_9="37.60297"></scales>
<clustering>
<clus scale="   37.603">  2  9  1 -1</clus>
<clus scale="   87.297">  7  8 -1 -1</clus>
<clus scale="   93.975">  5  6 -1 -1</clus>
<clus scale="  117.970">  1  7  2 -1</clus>
<clus scale="   37.603">  2  5  1 -1</clus>
</clustering>
</event>
<event>
 9    1  0.1296032E-005  0.1513631E+03  0.7546771E-02  0.1220704E+00
         -1   -1    0    0    0  501 -0.00000000000E+00  0.00000000000E+00  0.16932669511E+03  0.16932669511E+03  0.00000000000E+00 0.  1.
          1   -1    0    0  502    0  0.00000000000E+00 -0.00000000000E+00 -0.21964436726E+03  0.21964436726E+03  0.00000000000E+00 0. -1.
         23    2    1    2    0    0  0.18580306985E+02  0.20631559463E+02  0.15294899493E+02  0.96038196812E+02  0.90656010518E+02 0.  0.
         23    2    1    2    0    0 -0.77280716862E+02  0.77625173216E+02  0.19390796313E+02  0.15036464960E+03  0.10117088590E+03 0.  0.
        -11    1    3    3    0    0 -0.28155086011E+02  0.28018273738E+02 -0.11899015382E+02  0.41464672898E+02  0.00000000000E+00 0. -1.
         11    1    3    3    0    0  0.46735392996E+02 -0.73867142747E+01  0.27193914874E+02  0.54573523914E+02  0.00000000000E+00 0.  1.
        -13    1    4    4    0    0 -0.99197762992E+02  0.64814202673E+02  0.30950013309E+02  0.12247032447E+03  0.00000000000E+00 0. -1.
         13    1    4    4    0    0  0.21917046130E+02  0.12810970543E+02 -0.11559216996E+02  0.27894325137E+02  0.00000000000E+00 0.  1.
         21    1    1    2  502  501  0.58700409878E+02 -0.98256732679E+02 -0.85003367958E+02  0.14256821596E+03  0.00000000000E+00 0.  1.
<scales pt_clust_5="13000.00000" pt_clust_6="13000.00000" pt_clust_7="13000.00000" pt_clust_8="13000.00000" pt_clust_9="112.58439"></scales>
<clustering>
<clus scale="   90.656">  5  6 -1 -1</clus>
<clus scale="   94.812">  1  5  2 -1</clus>
<clus scale="  101.171">  7  8 -1 -1</clus>
<clus scale="  112.584">  2  9  1 -1</clus>
<clus scale="  112.584">  2  5  1 -1</clus>
</clustering>
</event>
<event>
 9    1  0.1296032E-005  0.1158427E+03  0.7546771E-02  0.1251526E+00
         -1   -1    0    0    0  501 -0.00000000000E+00  0.00000000000E+00  0.10551741036E+03  0.10551741036E+03  0.00000000000E+00 0.  1.
          1   -1    0    0  502    0  0.00000000000E+00 -0.00000000000E+00 -0.19761434871E+03  0.19761434871E+03  0.00000000000E+00 0. -1.
         23    2    1    2    0    0 -0.13391679051E+02  0.67414737922E+02  0.24065467938E+02  0.11527044820E+03  0.89353486354E+02 0.  0.
         23    2    1    2    0    0  0.34802145727E+02 -0.61504077614E+02 -0.69463658731E+02  0.13614944559E+03  0.93367717866E+02 0.  0.
        -11    1    3    3    0    0  0.31482982610E+02  0.14161692155E+01  0.15141825623E+02  0.34963675614E+02  0.00000000000E+00 0.  1.
         11    1    3    3    0    0 -0.44874661661E+02  0.65998568707E+02  0.89236423150E+01  0.80306772583E+02  0.00000000000E+00 0. -1.
        -11    1    4    4    0    0  0.36864674100E+02 -0.26154132141E+02  0.12472346356E+02  0.46889255147E+02  0.00000000000E+00 0.  1.
         11    1    4    4    0    0 -0.20625283736E+01 -0.35349945473E+02 -0.81936005087E+02  0.89260190443E+02  0.00000000000E+00 0. -1.
         21    1    1    2  502  501 -0.21410466676E+02 -0.59106603082E+01 -0.46698747557E+02  0.51711865291E+02  0.00000000000E+00 0.  1.
<scales pt_clust_5="13000.00000" pt_clust_6="13000.00000" pt_clust_7="13000.00000" pt_clust_8="13000.00000" pt_clust_9="22.21135"></scales>
<clustering>
<clus scale="   22.211">  2  9  1 -1</clus>
<clus scale="   89.353">  5  6 -1 -1</clus>
<clus scale="   93.368">  7  8 -1 -1</clus>
<clus scale="  112.632">  1  5  2 -1</clus>
<clus scale="   22.211">  2  5  1 -1</clus>
</clustering>
</event>
<event>
 9    1  0.1296032E-005  0.3062486E+03  0.7546771E-02  0.1082171E+00
          2   -1    0    0  502    0  0.00000000000E+00  0.00000000000E+00  0.81695233510E+03  0.81695233510E+03  0.00000000000E+00 0. -1.
         -2   -1    0    0    0  501 -0.00000000000E+00 -0.00000000000E+00 -0.14646712851E+03  0.14646712851E+03  0.00000000000E+00 0.  1.
         23    2    1    2    0    0  0.26827045379E+03 -0.20291920574E+02  0.22313356803E+03  0.36122712005E+03  0.91190156632E+02 0.  0.
         23    2    1    2    0    0 -0.32248586605E+03  0.31397628459E+02  0.32462340926E+03  0.46756372126E+03  0.90843440736E+02 0.  0.
        -11    1    4    4    0    0 -0.65365860053E+02  0.38068847179E+02  0.46755521875E+02  0.88927001590E+02  0.00000000000E+00 0.  1.
         11    1    4    4    0    0 -0.25712000600E+03 -0.66712187206E+01  0.27786788738E+03  0.37863671967E+03  0.00000000000E+00 0. -1.
        -13    1    3    3    0    0  0.14435450177E+03  0.20513406694E+02  0.75442020609E+02  0.16416613691E+03  0.00000000000E+00 0. -1.
         13    1    3    3    0    0  0.12391595202E+03 -0.40805327267E+02  0.14769154742E+03  0.19706098314E+03  0.00000000000E+00 0.  1.
         21    1    1    2  502  501  0.54215412264E+02 -0.11105707885E+02  0.12272822931E+03  0.13462862230E+03  0.00000000000E+00 0. -1.
<scales pt_clust_5="13000.00000" pt_clust_6="13000.00000" pt_clust_7="13000.00000" pt_clust_8="13000.00000" pt_clust_9="55.34119"></scales>
<clustering>
<clus scale="   55.341">  1  9  2 -1</clus>
<clus scale="   90.843">  5  6 -1 -1</clus>
<clus scale="   91.190">  7  8 -1 -1</clus>
<clus scale="  306.146">  1  5  2 -1</clus>
<clus scale="   55.341">  1  5  2 -1</clus>
</clustering>
</event>
<event>
 9    1  0.1296032E-005  0.9715487E+02  0.7546771E-02  0.1287435E+00
          1   -1    0    0  502    0  0.00000000000E+00  0.00000000000E+00  0.50648219418E+02  0.50648219418E+02  0.00000000000E+00 0. -1.
         -1   -1    0    0    0  501 -0.00000000000E+00 -0.00000000000E+00 -0.59129186240E+03  0.59129186240E+03  0.00000000000E+00 0.  1.
         23    2    1    2    0    0 -0.37893340706E+02 -0.17692404109E+02 -0.42845417776E+03  0.44007380817E+03  0.91340285556E+02 0.  0.
         23    2    1    2    0    0  0.14626526950E+02 -0.26157395852E+02 -0.24359352084E+02  0.10097881975E+03  0.93301657844E+02 0.  0.
        -11    1    3    3    0    0 -0.57002097785E+02 -0.37764653998E+02 -0.35585798625E+03  0.36236765118E+03  0.00000000000E+00 0.  1.
         11    1    3    3    0    0  0.19108757079E+02  0.20072249889E+02 -0.72596191511E+02  0.77706156993E+02  0.00000000000E+00 0. -1.
        -13    1    4    4    0    0  0.50062273577E+02 -0.21998136788E+02 -0.33525356547E+02  0.64141240941E+02  0.00000000000E+00 0. -1.
         13    1    4    4    0    0 -0.35435746627E+02 -0.41592590641E+01  0.91660044625E+01  0.36837578813E+02  0.00000000000E+00 0.  1.
         21    1    1    2  502  501  0.23266813756E+02  0.43849799961E+02 -0.87830113131E+02  0.10088745389E+03  0.00000000000E+00 0. -1.
<scales pt_clust_5="13000.00000" pt_clust_6="13000.00000" pt_clust_7="13000.00000" pt_clust_8="13000.00000" pt_clust_9="49.64020"></scales>
<clustering>
<clus scale="   49.640">  2  9  1 -1</clus>
<clus scale="   91.340">  5  6 -1 -1</clus>
<clus scale="   93.302">  7  8 -1 -1</clus>
<clus scale="   95.273">  2  5  1 -1</clus>
<clus scale="   97.155">  1  5  2 -1</clus>
</clustering>
</event>
<event>
 9    1  0.1296032E-005  0.1033718E+03  0.7546771E-02  0.1278046E+00
          2   -1    0    0  502    0  0.00000000000E+00  0.00000000000E+00  0.31838744390E+03  0.31838744390E+03  0.00000000000E+00 0. -1.
         -2   -1    0    0    0  501 -0.00000000000E+00 -0.00000000000E+00 -0.13220581591E+03  0.13220581591E+03  0.00000000000E+00 0.  1.
         23    2    1    2    0    0 -0.18712711427E+02 -0.10200423621E+02 -0.97116417824E+02  0.14205379429E+03  0.10145672797E+03 0.  0.
         23    2    1    2    0    0  0.12803668638E+02 -0.99771180187E+01  0.17847768780E+03  0.20163129265E+03  0.92398140238E+02 0.  0.
        -13    1    4    4    0    0  0.37156613891E+02  0.84962820505E+01  0.16294641122E+03  0.16734495419E+03  0.00000000000E+00 0.  1.
         13    1    4    4    0    0 -0.24352945253E+02 -0.18473400069E+02  0.15531276578E+02  0.34286338456E+02  0.00000000000E+00 0. -1.
        -13    1    3    3    0    0  0.22620577460E+02 -0.15433894933E+02  0.83723473470E+01  0.28635499603E+02  0.00000000000E+00 0. -1.
         13    1    3    3    0    0 -0.41333288888E+02  0.52334713114E+01 -0.10548876517E+03  0.11341829469E+03  0.00000000000E+00 0.  1.
         21    1    1    2  502  501  0.59090427890E+01  0.20177541640E+02  0.10482035802E+03  0.10690817288E+03  0.00000000000E+00 0. -1.
<scales pt_clust_5="13000.00000" pt_clust_6="13000.00000" pt_clust_7="13000.00000" pt_clust_8="13000.00000" pt_clust_9="21.02498"></scales>
<clustering>
<clus scale="   21.025">  1  9  2 -1</clus>
<clus scale="   92.398">  5  6 -1 -1</clus>
<clus scale="   94.497">  1  5  2 -1</clus>
<clus scale="  101.457">  7  8 -1 -1</clus>
<clus scale="   21.025">  1  5  2 -1</clus>
</clustering>
</event>
<event>
 9    1  0.1296032E-005  0.1140895E+03  0.7546771E-02  0.1254115E+00
          1   -1    0    0  502    0  0.00000000000E+00  0.00000000000E+00  0.93890557365E+02  0.93890557365E+02  0.00000000000E+00 0. -1.
         -1   -1    0    0    0  501 -0.00000000000E+00 -0.00000000000E+00 -0.37771947811E+03  0.37771947811E+03  0.00000000000E+00 0.  1.
         23    2    1    2    0    0  0.69810805860E+02  0.98475973090E+00 -0.31670290166E+03  0.33728237121E+03  0.92650696925E+02 0.  0.
         23    2    1    2    0    0 -0.44342051108E+02  0.96966758086E+01  0.34706555943E+02  0.10664899261E+03  0.90051205323E+02 0.  0.
        -11    1    4    4    0    0  0.29762500646E+01  0.40857453027E+02  0.15325606694E+01  0.40994368814E+02  0.00000000000E+00 0.  1.
         11    1    4    4    0    0 -0.47318301173E+02 -0.31160777218E+02  0.33173995274E+02  0.65654623791E+02  0.00000000000E+00 0. -1.
        -13    1    3    3    0    0  0.88976601509E+02  0.17044922752E+02 -0.25927160033E+03  0.27464363773E+03  0.00000000000E+00 0.  1.
         13    1    3    3    0    0 -0.19165795650E+02 -0.16060163021E+02 -0.57431301325E+02  0.62638733472E+02  0.00000000000E+00 0. -1.
         21    1    1    2  502  501 -0.25468754752E+02 -0.10681435540E+02 -0.18325750285E+01  0.27678671663E+02  0.00000000000E+00 0. -1.
<scales pt_clust_5="13000.00000" pt_clust_6="13000.00000" pt_clust_7="13000.00000" pt_clust_8="13000.00000" pt_clust_9="27.61794"></scales>
<clustering>
<clus scale="   27.618">  1  9  2 -1</clus>
<clus scale="   90.051">  5  6 -1 -1</clus>
<clus scale="   92.651">  7  8 -1 -1</clus>
<clus scale="  111.989">  1  5  2 -1</clus>
<clus scale="   27.618">  1  5  2 -1</clus>
</clustering>
</event>
<event>
 9    1  0.1296032E-005  0.9787840E+02  0.7546771E-02  0.1285364E+00
         -3   -1    0    0    0  501 -0.00000000000E+00  0.00000000000E+00  0.47328480885E+03  0.47328480885E+03  0.00000000000E+00 0.  1.
          3   -1    0    0  502    0  0.00000000000E+00 -0.00000000000E+00 -0.37455908517E+02  0.37455908517E+02  0.00000000000E+00 0. -1.
         23    2    1    2    0    0 -0.38205770295E+02 -0.13395530860E+02  0.33415589755E+03  0.34906633888E+03  0.92455524122E+02 0.  0.
         23    2    1    2    0    0  0.97569830530E+01  0.50061314934E+01  0.92805233724E+02  0.13071710398E+03  0.91399615946E+02 0.  0.
        -11    1    4    4    0    0 -0.12770468566E+01  0.45512292384E+02  0.27839659286E+02  0.53367089445E+02  0.00000000000E+00 0. -1.
         11    1    4    4    0    0  0.11034029910E+02 -0.40506160891E+02  0.64965574438E+02  0.77350014533E+02  0.00000000000E+00 0.  1.
        -13    1    3    3    0    0 -0.38964397825E+02 -0.47138133646E+02  0.15258068232E+03  0.16438093734E+03  0.00000000000E+00 0.  1.
         13    1    3    3    0    0  0.75862752998E+00  0.33742602786E+02  0.18157521522E+03  0.18468540154E+03  0.00000000000E+00 0. -1.
         21    1    1    2  502  501  0.28448787242E+02  0.83893993667E+01  0.88677690659E+01  0.30957274517E+02  0.00000000000E+00 0. -1.
<scales pt_clust_5="13000.00000" pt_clust_6="13000.00000" pt_clust_7="13000.00000" pt_clust_8="13000.00000" pt_clust_9="29.66000"></scales>
<clustering>
<clus scale="   29.660">  2  9  1 -1</clus>
<clus scale="   91.400">  5  6 -1 -1</clus>
<clus scale="   92.456">  7  8 -1 -1</clus>
<clus scale="   96.882">  2  5  1 -1</clus>
<clus scale="   29.660">  2  5  1 -1</clus>
</clustering>
</event>
<event>
 9    1  0.1296032E-005  0.9469752E+02  0.7546771E-02  0.1294330E+00
          1   -1    0    0  502    0  0.00000000000E+00  0.00000000000E+00  0.65157753147E+02  0.65157753147E+02  0.00000000000E+00 0. -1.
         -1   -1    0    0    0  501 -0.00000000000E+00 -0.00000000000E+00 -0.20392449027E+03  0.20392449027E+03  0.00000000000E+00 0.  1.
         23    2    1    2    0    0 -0.34613056499E+01 -0.11043322637E+02 -0.93844251634E+02  0.13350196136E+03  0.94244864632E+02 0.  0.
         23    2    1    2    0    0 -0.26281155550E+02 -0.51866969057E+01 -0.36107489797E+02  0.10056983103E+03  0.89960764403E+02 0.  0.
        -11    1    4    4    0    0 -0.23344102212E+02  0.38453566932E+02 -0.18686881970E+01  0.45023504011E+02  0.00000000000E+00 0. -1.
         11    1    4    4    0    0 -0.29370533385E+01 -0.43640263838E+02 -0.34238801600E+02  0.55546327018E+02  0.00000000000E+00 0.  1.
        -13    1    3    3    0    0 -0.40575172219E+02  0.45493206991E+00 -0.84201700181E+02  0.93469127936E+02  0.00000000000E+00 0.  1.
         13    1    3    3    0    0  0.37113866570E+02 -0.11498254707E+02 -0.96425514526E+01  0.40032833419E+02  0.00000000000E+00 0. -1.
         21    1    1    2  502  501  0.29742461200E+02  0.16230019543E+02 -0.88149956964E+01  0.35010451036E+02  0.00000000000E+00 0. -1.
<scales pt_clust_5="13000.00000" pt_clust_6="13000.00000" pt_clust_7="13000.00000" pt_clust_8="13000.00000" pt_clust_9="33.88255"></scales>
<clustering>
<clus scale="   33.883">  1  9  2 -1</clus>
<clus scale="   89.961">  5  6 -1 -1</clus>
<clus scale="   90.435">  1  5  2 -1</clus>
<clus scale="   94.245">  7  8 -1 -1</clus>
<clus scale="   33.883">  1  5  2 -1</clus>
</clustering>
</event>
<event>
 9    1  0.1296032E-005  0.1009723E+03  0.7546771E-02  0.1282542E+00
          2   -1    0    0  502    0  0.00000000000E+00  0.00000000000E+00  0.33662341377E+03  0.33662341377E+03  0.00000000000E+00 0. -1.
         -2   -1    0    0    0  501 -0.00000000000E+00 -0.00000000000E+00 -0.12955591760E+03  0.12955591760E+03  0.00000000000E+00 0.  1.
         23    2    1    2    0    0 -0.12754457013E+02  0.47723481162E+02 -0.83960734888E+02  0.12870163209E+03  0.84110036685E+02 0.  0.
         23    2    1    2    0    0 -0.15361567442E+02  0.14283934107E+02  0.11813153127E+03  0.15165870354E+03  0.92764730109E+02 0.  0.
        -11    1    4    4    0    0  0.22990838907E+02 -0.26478355169E+02  0.68053455789E+02  0.76556873048E+02  0.00000000000E+00 0. -1.
         11    1    4    4    0    0 -0.38352406348E+02  0.40762289276E+02  0.50078075482E+02  0.75101830495E+02  0.00000000000E+00 0.  1.
        -11    1    3    3    0    0  0.26898997689E+01  0.62911487671E+02 -0.28418021609E+02  0.69084548156E+02  0.00000000000E+00 0.  1.
         11    1    3    3    0    0 -0.15444356781E+02 -0.15188006509E+02 -0.55542713279E+02  0.59617083932E+02  0.00000000000E+00 0. -1.
         21    1    1    2  502  501  0.28116024454E+02 -0.62007415269E+02  0.17289669979E+03  0.18581899574E+03  0.00000000000E+00 0. -1.
<scales pt_clust_5="13000.00000" pt_clust_6="13000.00000" pt_clust_7="13000.00000" pt_clust_8="13000.00000" pt_clust_9="68.08400"></scales>
<clustering>
<clus scale="   68.084">  1  9  2 -1</clus>
<clus scale="   84.110">  7  8 -1 -1</clus>
<clus scale="   92.765">  5  6 -1 -1</clus>
<clus scale="   93.084">  2  7  1 -1</clus>
<clus scale="   68.084">  1  5  2 -1</clus>
</clustering>
</event>
<event>
 9    1  0.1296032E-005  0.1093912E+03  0.7546771E-02  0.1262882E+00
          1   -1    0    0  502    0  0.00000000000E+00  0.00000000000E+00  0.73630346945E+03  0.73630346945E+03  0.00000000000E+00 0. -1.
         -1   -1    0    0    0  501 -0.00000000000E+00 -0.00000000000E+00 -0.35746032512E+02  0.35746032512E+02  0.00000000000E+00 0.  1.
         23    2    1    2    0    0  0.27758097621E+02  0.41089158052E+02  0.81395767324E+02  0.13427074807E+03  0.94575535717E+02 0.  0.
         23    2    1    2    0    0 -0.53249372887E+02 -0.59082005729E+02  0.47285455503E+03  0.48818156321E+03  0.91671311382E+02 0.  0.
        -11    1    3    3    0    0 -0.24625048059E+02 -0.14522014923E+02  0.11806290092E+02  0.30930088830E+02  0.00000000000E+00 0. -1.
         11    1    3    3    0    0  0.52383145680E+02  0.55611172974E+02  0.69589477232E+02  0.10334065924E+03  0.00000000000E+00 0.  1.
        -13    1    4    4    0    0 -0.70035927395E+02 -0.46903114466E+02  0.44776672935E+03  0.45563140496E+03  0.00000000000E+00 0. -1.
         13    1    4    4    0    0  0.16786554509E+02 -0.12178891262E+02  0.25087825678E+02  0.32550158247E+02  0.00000000000E+00 0.  1.
         21    1    1    2  502  501  0.25491275266E+02  0.17992847677E+02  0.14630711458E+03  0.14959719068E+03  0.00000000000E+00 0.  1.
<scales pt_clust_5="13000.00000" pt_clust_6="13000.00000" pt_clust_7="13000.00000" pt_clust_8="13000.00000" pt_clust_9="31.20173"></scales>
<clustering>
<clus scale="   31.202">  1  9  2 -1</clus>
<clus scale="   91.671">  7  8 -1 -1</clus>
<clus scale="   94.576">  5  6 -1 -1</clus>
<clus scale="  106.890">  1  7  2 -1</clus>
<clus scale="   31.202">  1  5  2 -1</clus>
</clustering>
</event>
<event>
 9    1  0.1296032E-005  0.3820418E+03  0.7546771E-02  0.1050229E+00
         -2   -1    0    0    0  501 -0.00000000000E+00  0.00000000000E+00  0.19528345956E+03  0.19528345956E+03  0.00000000000E+00 0.  1.
          2   -1    0    0  502    0  0.00000000000E+00 -0.00000000000E+00 -0.21679306434E+04  0.21679306434E+04  0.00000000000E+00 0. -1.
         23    2    1    2    0    0 -0.81175315314E+02 -0.34925076901E+03 -0.73580700084E+02  0.37720502238E+03  0.91126165371E+02 0.  0.
         23    2    1    2    0    0  0.84785997819E+02  0.45532427757E+03 -0.16269595171E+04  0.16939357550E+04  0.88950595349E+02 0.  0.
        -11    1    4    4    0    0  0.64342419595E+02  0.29627982416E+03 -0.90688539379E+03  0.95622319498E+03  0.00000000000E+00 0.  1.
         11    1    4    4    0    0  0.20443578224E+02  0.15904445342E+03 -0.72007412333E+03  0.73771255998E+03  0.00000000000E+00 0. -1.
        -13    1    3    3    0    0 -0.96350378258E+02 -0.31817647482E+03 -0.52120986509E+02  0.33650596095E+03  0.00000000000E+00 0.  1.
         13    1    3    3    0    0  0.15175062944E+02 -0.31074294181E+02 -0.21459713574E+02  0.40699061425E+02  0.00000000000E+00 0. -1.
         21    1    1    2  502  501 -0.36106825043E+01 -0.10607350857E+03 -0.27210696659E+03  0.29207332557E+03  0.00000000000E+00 0. -1.
<scales pt_clust_5="13000.00000" pt_clust_6="13000.00000" pt_clust_7="13000.00000" pt_clust_8="13000.00000" pt_clust_9="106.13494"></scales>
<clustering>
<clus scale="   88.951">  5  6 -1 -1</clus>
<clus scale="   91.126">  7  8 -1 -1</clus>
<clus scale="  106.135">  2  9  1 -1</clus>
<clus scale="  381.529">  2  5  1 -1</clus>
<clus scale="  106.135">  2  5  1 -1</clus>
</clustering>
</event>
<event>
 9    1  0.1296032E-005  0.1026289E+03  0.7546771E-02  0.1275513E+00
          1   -1    0    0  502    0  0.00000000000E+00  0.00000000000E+00  0.36370848413E+02  0.36370848413E+02  0.00000000000E+00 0. -1.
         -1   -1    0    0    0  501 -0.00000000000E+00 -0.00000000000E+00 -0.50992552347E+03  0.50992552347E+03  0.00000000000E+00 0.  1.
         23    2    1    2    0    0  0.82836241548E+01 -0.36011501830E+02 -0.28463359937E+03  0.30092107698E+03  0.90397798572E+02 0.  0.
         23    2    1    2    0    0 -0.42384613132E+02  0.56796513242E+02 -0.14995774371E+03  0.18958071284E+03  0.91821688266E+02 0.  0.
        -11    1    4    4    0    0 -0.34174643958E+02 -0.84714666094E+01 -0.12799446574E+02  0.37463286946E+02  0.00000000000E+00 0.  1.
         11    1    4    4    0    0 -0.82099691739E+01  0.65267979852E+02 -0.13715829714E+03  0.15211742590E+03  0.00000000000E+00 0. -1.
        -13    1    3    3    0    0 -0.41213507533E+02 -0.16166656484E+02 -0.13440331320E+03  0.14150676515E+03  0.00000000000E+00 0. -1.
         13    1    3    3    0    0  0.49497131687E+02 -0.19844845345E+02 -0.15023028617E+03  0.15941431183E+03  0.00000000000E+00 0.  1.
         21    1    1    2  502  501  0.34100988977E+02 -0.20785011412E+02 -0.38963331969E+02  0.55794582056E+02  0.00000000000E+00 0.  1.
<scales pt_clust_5="13000.00000" pt_clust_6="13000.00000" pt_clust_7="13000.00000" pt_clust_8="13000.00000" pt_clust_9="39.93613"></scales>
<clustering>
<clus scale="   39.936">  1  9  2 -1</clus>
<clus scale="   90.398">  7  8 -1 -1</clus>
<clus scale="   91.822">  5  6 -1 -1</clus>
<clus scale="  101.357">  2  7  1 -1</clus>
<clus scale="   39.936">  1  5  2 -1</clus>
</clustering>
</event>
<event>
 9    1  0.1296032E-005  0.1103397E+03  0.7546771E-02  0.1260400E+00
          2   -1    0    0  502    0  0.00000000000E+00  0.00000000000E+00  0.68619538667E+03  0.68619538667E+03  0.00000000000E+00 0. -1.
         -2   -1    0    0    0  501 -0.00000000000E+00 -0.00000000000E+00 -0.38066253706E+02  0.38066253706E+02  0.00000000000E+00 0.  1.
         23    2    1    2    0    0 -0.35755608561E+02 -0.40029071967E+02  0.10961693956E+03  0.15357217133E+03  0.93208090977E+02 0.  0.
         23    2    1    2    0    0  0.82389566417E+02  0.10910938427E+02  0.27746186875E+03  0.30391266396E+03  0.92036565964E+02 0.  0.
        -13    1    4    4    0    0  0.86620065317E+02 -0.10631172064E+02  0.26425533480E+03  0.27829290236E+03  0.00000000000E+00 0.  1.
         13    1    4    4    0    0 -0.42304988999E+01  0.21542110490E+02  0.13206533944E+02  0.25619761594E+02  0.00000000000E+00 0. -1.
        -13    1    3    3    0    0 -0.33184445072E+02  0.20544084976E+02  0.16313854047E+02  0.42301402531E+02  0.00000000000E+00 0. -1.
         13    1    3    3    0    0 -0.25711634890E+01 -0.60573156943E+02  0.93303085511E+02  0.11127076880E+03  0.00000000000E+00 0.  1.
         21    1    1    2  502  501 -0.46633957856E+02  0.29118133540E+02  0.26105032466E+03  0.26677680508E+03  0.00000000000E+00 0. -1.
<scales pt_clust_5="13000.00000" pt_clust_6="13000.00000" pt_clust_7="13000.00000" pt_clust_8="13000.00000" pt_clust_9="54.97810"></scales>
<clustering>
<clus scale="   54.978">  1  9  2 -1</clus>
<clus scale="   92.037">  5  6 -1 -1</clus>
<clus scale="   93.208">  7  8 -1 -1</clus>
<clus scale="  109.352">  1  5  2 -1</clus>
<clus scale="   54.978">  1  5  2 -1</clus>
</clustering>
</event>
<event>
 9    1  0.1296032E-005  0.1265516E+03  0.7546771E-02  0.1232950E+00
          2   -1    0    0  502    0  0.00000000000E+00  0.00000000000E+00  0.72224280249E+03  0.72224280249E+03  0.00000000000E+00 0. -1.
         -2   -1    0    0    0  501 -0.00000000000E+00 -0.00000000000E+00 -0.46680775549E+02  0.46680775549E+02  0.00000000000E+00 0.  1.
         23    2    1    2    0    0  0.61865403427E+02  0.55284558728E+02  0.19253356093E+03  0.22793852518E+03  0.89459983241E+02 0.  0.
         23    2    1    2    0    0 -0.10239222423E+03  0.23601649062E+01  0.43538961865E+03  0.45592744212E+03  0.88408000120E+02 0.  0.
        -11    1    3    3    0    0 -0.23253935308E+02  0.16201717686E+02  0.43707852493E+02  0.52092394194E+02  0.00000000000E+00 0.  1.
         11    1    3    3    0    0  0.85119338735E+02  0.39082841042E+02  0.14882570844E+03  0.17584613099E+03  0.00000000000E+00 0. -1.
        -13    1    4    4    0    0 -0.45965871940E+01  0.30059018533E+02  0.63621798862E+02  0.70515292664E+02  0.00000000000E+00 0. -1.
         13    1    4    4    0    0 -0.97795637036E+02 -0.27698853627E+02  0.37176781979E+03  0.38541214945E+03  0.00000000000E+00 0.  1.
         21    1    1    2  502  501  0.40526820803E+02 -0.57644723634E+02  0.47638847357E+02  0.85057610740E+02  0.00000000000E+00 0. -1.
<scales pt_clust_5="13000.00000" pt_clust_6="13000.00000" pt_clust_7="13000.00000" pt_clust_8="13000.00000" pt_clust_9="70.46515"></scales>
<clustering>
<clus scale="   70.465">  2  9  1 -1</clus>
<clus scale="   88.408">  7  8 -1 -1</clus>
<clus scale="   89.460">  5  6 -1 -1</clus>
<clus scale="  125.810">  1  7  2 -1</clus>
<clus scale="  125.810">  1  5  2 -1</clus>
</clustering>
</event>
<event>
 9    1  0.1296032E-005  0.9559802E+02  0.7546771E-02  0.1290213E+00
          2   -1    0    0  502    0  0.00000000000E+00  0.00000000000E+00  0.12212547534E+03  0.12212547534E+03  0.00000000000E+00 0. -1.
         -2   -1    0    0    0  501 -0.00000000000E+00 -0.00000000000E+00 -0.10244335170E+03  0.10244335170E+03  0.00000000000E+00 0.  1.
         23    2    1    2    0    0  0.11103116615E+02  0.36396684802E+02 -0.27982929601E+02  0.10197948590E+03  0.90381266487E+02 0.  0.
         23    2    1    2    0    0  0.35875116983E+00 -0.18616255783E+02  0.41571098076E+02  0.10057447438E+03  0.89668138260E+02 0.  0.
        -11    1    4    4    0    0 -0.37388801755E+02 -0.18083985096E+02 -0.36198316029E+01  0.41690001133E+02  0.00000000000E+00 0.  1.
         11    1    4    4    0    0  0.37747552925E+02 -0.53227068773E+00  0.45190929679E+02  0.58884473243E+02  0.00000000000E+00 0. -1.
        -13    1    3    3    0    0 -0.22141543455E+02  0.40234979719E+02 -0.45120292112E+02  0.64381226299E+02  0.00000000000E+00 0.  1.
         13    1    3    3    0    0  0.33244660070E+02 -0.38382949173E+01  0.17137362510E+02  0.37598259599E+02  0.00000000000E+00 0. -1.
         21    1    1    2  502  501 -0.11461867785E+02 -0.17780429018E+02  0.60939551648E+01  0.22014866766E+02  0.00000000000E+00 0.  1.
<scales pt_clust_5="13000.00000" pt_clust_6="13000.00000" pt_clust_7="13000.00000" pt_clust_8="13000.00000" pt_clust_9="21.15462"></scales>
<clustering>
<clus scale="   21.155">  1  9  2 -1</clus>
<clus scale="   89.668">  5  6 -1 -1</clus>
<clus scale="   90.381">  7  8 -1 -1</clus>
<clus scale="   94.924">  1  5  2 -1</clus>
<clus scale="   21.155">  1  5  2 -1</clus>
</clustering>
</event>
<event>
 9    1  0.1296032E-005  0.1493861E+03  0.7546771E-02  0.1201541E+00
         -1   -1    0    0    0  501 -0.00000000000E+00  0.00000000000E+00  0.21633241540E+03  0.21633241540E+03  0.00000000000E+00 0.  1.
          1   -1    0    0  502    0  0.00000000000E+00 -0.00000000000E+00 -0.25412458616E+03  0.25412458616E+03  0.00000000000E+00 0. -1.
         23    2    1    2    0    0 -0.65870585301E+02  0.10382780963E+03  0.15469542713E+03  0.21721677099E+03  0.90184823346E+02 0.  0.
         23    2    1    2    0    0  0.67562580472E+02 -0.72121299458E+02 -0.15106501928E+03  0.20104831881E+03  0.88507639951E+02 0.  0.
        -11    1    3    3    0    0  0.80083395922E+01  0.69551705820E+02  0.59001062310E+02  0.91557078585E+02  0.00000000000E+00 0. -1.
         11    1    3    3    0    0 -0.73878924893E+02  0.34276103812E+02  0.95694364821E+02  0.12565969240E+03  0.00000000000E+00 0.  1.
        -13    1    4    4    0    0 -0.12985684852E+02 -0.33138053579E+02 -0.15984874471E+02  0.39016340397E+02  0.00000000000E+00 0.  1.
         13    1    4    4    0    0  0.80548265325E+02 -0.38983245879E+02 -0.13508014481E+03  0.16203197841E+03  0.00000000000E+00 0. -1.
         21    1    1    2  502  501 -0.16919951714E+01 -0.31706510173E+02 -0.41422578605E+02  0.52191911762E+02  0.00000000000E+00 0.  1.
<scales pt_clust_5="13000.00000" pt_clust_6="13000.00000" pt_clust_7="13000.00000" pt_clust_8="13000.00000" pt_clust_9="31.75162"></scales>
<clustering>
<clus scale="   31.752">  2  9  1 -1</clus>
<clus scale="   88.508">  7  8 -1 -1</clus>
<clus scale="   90.185">  5  6 -1 -1</clus>
<clus scale="  148.380">  2  7  1 -1</clus>
<clus scale="   31.752">  2  5  1 -1</clus>
</clustering>
</event>
<event>
 9    1  0.1296032E-005  0.1039169E+03  0.7546771E-02  0.1273220E+00
          2   -1    0    0  502    0  0.00000000000E+00  0.00000000000E+00  0.39054733327E+02  0.39054733327E+02  0.00000000000E+00 0. -1.
         -2   -1    0    0    0  501 -0.00000000000E+00 -0.00000000000E+00 -0.42048885476E+03  0.42048885476E+03  0.00000000000E+00 0.  1.
         23    2    1    2    0    0 -0.50162536697E+02 -0.34576606940E+02 -0.13532748006E+03  0.17512278768E+03  0.92965811295E+02 0.  0.
         23    2    1    2    0    0  0.22633429822E+02  0.88741177473E+01 -0.13336878769E+03  0.16555830283E+03  0.95033131047E+02 0.  0.
        -13    1    4    4    0    0  0.27055007964E+02 -0.34766201320E+02 -0.10351544138E+03  0.11249937251E+03  0.00000000000E+00 0.  1.
         13    1    4    4    0    0 -0.44215781426E+01  0.43640319068E+02 -0.29853346304E+02  0.53058930324E+02  0.00000000000E+00 0. -1.
        -13    1    3    3    0    0  0.26626521270E+02  0.17508519338E+00 -0.37522607780E+02  0.46010307372E+02  0.00000000000E+00 0. -1.
         13    1    3    3    0    0 -0.76789057967E+02 -0.34751692134E+02 -0.97804872282E+02  0.12911248031E+03  0.00000000000E+00 0.  1.
         21    1    1    2  502  501  0.27529106875E+02  0.25702489193E+02 -0.11273785368E+03  0.11886249757E+03  0.00000000000E+00 0. -1.
<scales pt_clust_5="13000.00000" pt_clust_6="13000.00000" pt_clust_7="13000.00000" pt_clust_8="13000.00000" pt_clust_9="37.66258"></scales>
<clustering>
<clus scale="   37.663">  2  9  1 -1</clus>
<clus scale="   92.966">  7  8 -1 -1</clus>
<clus scale="   95.033">  5  6 -1 -1</clus>
<clus scale="  102.030">  2  7  1 -1</clus>
<clus scale="  103.917">  1  5  2 -1</clus>
</clustering>
</event>
<event>
 9    1  0.1296032E-005  0.2137402E+03  0.7546771E-02  0.1139343E+00
         -1   -1    0    0    0  501 -0.00000000000E+00  0.00000000000E+00  0.19633031430E+03  0.19633031430E+03  0.00000000000E+00 0.  1.
          1   -1    0    0  502    0  0.00000000000E+00 -0.00000000000E+00 -0.36803724474E+03  0.36803724474E+03  0.00000000000E+00 0. -1.
         23    2    1    2    0    0  0.18998157364E+03  0.41716131689E+02  0.56505201582E+02  0.22605756141E+03  0.10037902819E+03 0.  0.
         23    2    1    2    0    0 -0.17776939036E+03  0.19852397589E+01 -0.16016711076E+03  0.25652324928E+03  0.92437961488E+02 0.  0.
        -11    1    4    4    0    0 -0.67006347699E+02  0.40624921045E+02 -0.91993542773E+02  0.12084306663E+03  0.00000000000E+00 0.  1.
         11    1    4    4    0    0 -0.11076304266E+03 -0.38639681286E+02 -0.68173567991E+02  0.13568018265E+03  0.00000000000E+00 0. -1.
        -11    1    3    3    0    0  0.13498420177E+02  0.37747837596E+02 -0.18586477818E+01  0.40131797394E+02  0.00000000000E+00 0. -1.
         11    1    3    3    0    0  0.17648315346E+03  0.39682940923E+01  0.58363849364E+02  0.18592576402E+03  0.00000000000E+00 0.  1.
         21    1    1    2  502  501 -0.12212183274E+02 -0.43701371448E+02 -0.68045021255E+02  0.81786748341E+02  0.00000000000E+00 0. -1.
<scales pt_clust_5="13000.00000" pt_clust_6="13000.00000" pt_clust_7="13000.00000" pt_clust_8="13000.00000" pt_clust_9="45.37562"></scales>
<clustering>
<clus scale="   45.376">  2  9  1 -1</clus>
<clus scale="   92.438">  5  6 -1 -1</clus>
<clus scale="  100.379">  7  8 -1 -1</clus>
<clus scale="  210.128">  2  5  1 -1</clus>
<clus scale="   45.376">  2  5  1 -1</clus>
</clustering>
</event>
<event>
 9    1  0.1296032E-005  0.1037369E+03  0.7546771E-02  0.1275055E+00
         -1   -1    0    0    0  501 -0.00000000000E+00  0.00000000000E+00  0.88949830488E+02  0.88949830488E+02  0.00000000000E+00 0.  1.
          1   -1    0    0  502    0  0.00000000000E+00 -0.00000000000E+00 -0.51346016730E+03  0.51346016730E+03  0.00000000000E+00 0. -1.
         23    2    1    2    0    0  0.30834824880E+02  0.18250634427E+02  0.52668759306E+00  0.10048959096E+03  0.93882950583E+02 0.  0.
         23    2    1    2    0    0 -0.14962883893E+02 -0.67602909098E+02 -0.49601321926E+02  0.12292234321E+03  0.88631654112E+02 0.  0.
        -11    1    3    3    0    0 -0.59409127402E+00  0.47789493488E+02  0.21644375115E+02  0.52465870872E+02  0.00000000000E+00 0.  1.
         11    1    3    3    0    0  0.31428916154E+02 -0.29538859061E+02 -0.21117687522E+02  0.48023720093E+02  0.00000000000E+00 0. -1.
        -13    1    4    4    0    0 -0.48123004639E+02 -0.46601056973E+02 -0.50127406216E+02  0.83667430584E+02  0.00000000000E+00 0. -1.
         13    1    4    4    0    0  0.33160120747E+02 -0.21001852125E+02  0.52608429060E+00  0.39254912626E+02  0.00000000000E+00 0.  1.
         21    1    1    2  502  501 -0.15871940987E+02  0.49352274671E+02 -0.37543570248E+03  0.37899806362E+03  0.00000000000E+00 0. -1.
<scales pt_clust_5="13000.00000" pt_clust_6="13000.00000" pt_clust_7="13000.00000" pt_clust_8="13000.00000" pt_clust_9="51.84174"></scales>
<clustering>
<clus scale="   51.842">  2  9  1 -1</clus>
<clus scale="   88.632">  7  8 -1 -1</clus>
<clus scale="   93.883">  5  6 -1 -1</clus>
<clus scale="   99.010">  2  7  1 -1</clus>
<clus scale="   51.842">  2  5  1 -1</clus>
</clustering>
</event>
<event>
 9    1  0.1296032E-005  0.2197684E+03  0.7546771E-02  0.1152293E+00
          2   -1    0    0  502    0  0.00000000000E+00  0.00000000000E+00  0.21691937277E+04  0.21691937277E+04  0.00000000000E+00 0. -1.
         -2   -1    0    0    0  501 -0.00000000000E+00 -0.00000000000E+00 -0.10122365334E+03  0.10122365334E+03  0.00000000000E+00 0.  1.
         23    2    1    2    0    0  0.10682254236E+03  0.18181244319E+02 -0.13695022126E+02  0.14256090677E+03  0.91621205550E+02 0.  0.
         23    2    1    2    0    0  0.12436064811E+03 -0.11018080006E+03  0.94355527675E+03  0.96286568135E+03  0.95960307095E+02 0.  0.
        -11    1    4    4    0    0  0.12856196096E+03 -0.60632064213E+02  0.69824672812E+03  0.71256783420E+03  0.00000000000E+00 0.  1.
         11    1    4    4    0    0 -0.42013128443E+01 -0.49548735845E+02  0.24530854864E+03  0.25029784715E+03  0.00000000000E+00 0. -1.
        -13    1    3    3    0    0  0.10530385217E+03 -0.46929990888E+01  0.14303617067E+02  0.10637442824E+03  0.00000000000E+00 0.  1.
         13    1    3    3    0    0  0.15186901859E+01  0.22874243407E+02 -0.27998639192E+02  0.36186478524E+02  0.00000000000E+00 0. -1.
         21    1    1    2  502  501 -0.23118319047E+03  0.91999555739E+02  0.11381098197E+04  0.11649907929E+04  0.00000000000E+00 0. -1.
<scales pt_clust_5="13000.00000" pt_clust_6="13000.00000" pt_clust_7="13000.00000" pt_clust_8="13000.00000" pt_clust_9="197.71134"></scales>
<clustering>
<clus scale="   91.621">  7  8 -1 -1</clus>
<clus scale="   95.960">  5  6 -1 -1</clus>
<clus scale="  141.902">  2  7  1 -1</clus>
<clus scale="  197.711">  2  9  1 -1</clus>
<clus scale="  219.768">  1  5  2 -1</clus>
</clustering>
</event>
<event>
 9    1  0.1296032E-005  0.1204784E+03  0.7546771E-02  0.1250389E+00
          3   -1    0    0  502    0  0.00000000000E+00  0.00000000000E+00  0.11722514746E+03  0.11722514746E+03  0.00000000000E+00 0. -1.
         -3   -1    0    0    0  501 -0.00000000000E+00 -0.00000000000E+00 -0.18251674238E+03  0.18251674238E+03  0.00000000000E+00 0.  1.
         23    2    1    2    0    0 -0.31784259236E+02 -0.33076909498E+02 -0.11406108426E+03  0.16599021091E+03  0.11152801486E+03 0.  0.
         23    2    1    2    0    0  0.44524172143E+02  0.17636594092E+02  0.47022032613E+02  0.11365784092E+03  0.91725579284E+02 0.  0.
        -11    1    3    3    0    0 -0.69257484776E+01 -0.72594029664E+02 -0.59008670041E+02  0.93807687717E+02  0.00000000000E+00 0.  1.
         11    1    3    3    0    0 -0.24858510759E+02  0.39517120166E+02 -0.55052414223E+02  0.72182523197E+02  0.00000000000E+00 0. -1.
        -13    1    4    4    0    0  0.45956570248E+02 -0.30602988999E+02  0.24958638092E+02  0.60592762770E+02  0.00000000000E+00 0.  1.
         13    1    4    4    0    0 -0.14323981048E+01  0.48239583091E+02  0.22063394521E+02  0.53065078149E+02  0.00000000000E+00 0. -1.
         21    1    1    2  502  501 -0.12739912907E+02  0.15440315405E+02  0.17474567352E+01  0.20093838004E+02  0.00000000000E+00 0.  1.
<scales pt_clust_5="13000.00000" pt_clust_6="13000.00000" pt_clust_7="13000.00000" pt_clust_8="13000.00000" pt_clust_9="20.01771"></scales>
<clustering>
<clus scale="   20.018">  1  9  2 -1</clus>
<clus scale="   91.726">  7  8 -1 -1</clus>
<clus scale="  102.421">  1  7  2 -1</clus>
<clus scale="  111.528">  5  6 -1 -1</clus>
<clus scale="   20.018">  1  5  2 -1</clus>
</clustering>
</event>
<event>
 9    1  0.1296032E-005  0.1325595E+03  0.7546771E-02  0.1236560E+00
          2   -1    0    0  502    0  0.00000000000E+00  0.00000000000E+00  0.71149950815E+03  0.71149950815E+03  0.00000000000E+00 0. -1.
         -2   -1    0    0    0  501 -0.00000000000E+00 -0.00000000000E+00 -0.39487545594E+02  0.39487545594E+02  0.00000000000E+00 0.  1.
         23    2    1    2    0    0  0.35370522061E+02 -0.45084631227E+02  0.14359363756E+03  0.19895312919E+03  0.12521787836E+03 0.  0.
         23    2    1    2    0    0  0.22518126865E+02  0.32710897780E+02  0.31193639421E+03  0.32760435585E+03  0.91887056044E+02 0.  0.
        -13    1    3    3    0    0  0.45216581859E+02 -0.98103981464E+01 -0.44170281425E+01  0.46478955716E+02  0.00000000000E+00 0.  1.
         13    1    3    3    0    0 -0.98460597985E+01 -0.35274233081E+02  0.14801066571E+03  0.15247417347E+03  0.00000000000E+00 0. -1.
        -13    1    4    4    0    0 -0.14446161495E+02 -0.20987597415E+02  0.36207581103E+02  0.44273691471E+02  0.00000000000E+00 0. -1.
         13    1    4    4    0    0  0.36964288360E+02  0.53698495195E+02  0.27572881311E+03  0.28333066438E+03  0.00000000000E+00 0.  1.
         21    1    1    2  502  501 -0.57888648926E+02  0.12373733447E+02  0.21648193078E+03  0.22442956870E+03  0.00000000000E+00 0. -1.
<scales pt_clust_5="13000.00000" pt_clust_6="13000.00000" pt_clust_7="13000.00000" pt_clust_8="13000.00000" pt_clust_9="59.19633"></scales>
<clustering>
<clus scale="   59.196">  1  9  2 -1</clus>
<clus scale="   91.887">  7  8 -1 -1</clus>
<clus scale="  101.665">  1  7  2 -1</clus>
<clus scale="  125.218">  5  6 -1 -1</clus>
<clus scale="   59.196">  1  5  2 -1</clus>
</clustering>
</event>
<event>
 9    1  0.1296032E-005  0.1168226E+03  0.7546771E-02  0.1254599E+00
         -1   -1    0    0    0  501 -0.00000000000E+00  0.00000000000E+00  0.50707077017E+03  0.50707077017E+03  0.00000000000E+00 0.  1.
          1   -1    0    0  502    0  0.00000000000E+00 -0.00000000000E+00 -0.87399846712E+02  0.87399846712E+02  0.00000000000E+00 0. -1.
         23    2    1    2    0    0  0.20900204196E+02 -0.49697460268E+02  0.42937990999E+03  0.44561438314E+03  0.10629400392E+03 0.  0.
         23    2    1    2    0    0  0.22621423162E+02  0.26266894321E+02  0.35930754615E+01  0.97669630791E+02  0.91240166947E+02 0.  0.
        -11    1    3    3    0    0  0.59857655976E+02 -0.13081066211E+02  0.16803901087E+03  0.17886073478E+03  0.00000000000E+00 0. -1.
         11    1    3    3    0    0 -0.38957451780E+02 -0.36616394057E+02  0.26134089912E+03  0.26675364836E+03  0.00000000000E+00 0.  1.
        -13    1    4    4    0    0  0.53594629662E+02  0.17207330776E+02  0.22095757408E+02  0.60470646238E+02  0.00000000000E+00 0.  1.
         13    1    4    4    0    0 -0.30973206501E+02  0.90595635452E+01 -0.18502681946E+02  0.37198984553E+02  0.00000000000E+00 0. -1.
         21    1    1    2  502  501 -0.43521627357E+02  0.23430565947E+02 -0.13302061989E+02  0.51186602950E+02  0.00000000000E+00 0.  1.
<scales pt_clust_5="13000.00000" pt_clust_6="13000.00000" pt_clust_7="13000.00000" pt_clust_8="13000.00000" pt_clust_9="49.42796"></scales>
<clustering>
<clus scale="   49.428">  2  9  1 -1</clus>
<clus scale="   91.240">  7  8 -1 -1</clus>
<clus scale="  103.314">  2  7  1 -1</clus>
<clus scale="  106.294">  5  6 -1 -1</clus>
<clus scale="   49.428">  2  5  1 -1</clus>
</clustering>
</event>
<event>
 9    1  0.1296032E-005  0.1025615E+03  0.7546771E-02  0.1277821E+00
         -1   -1    0    0    0  501 -0.00000000000E+00  0.00000000000E+00  0.32363149870E+02  0.32363149870E+02  0.00000000000E+00 0.  1.
          1   -1    0    0  502    0  0.00000000000E+00 -0.00000000000E+00 -0.85220411961E+03  0.85220411961E+03  0.00000000000E+00 0. -1.
         23    2    1    2    0    0 -0.11093339162E+02  0.26074440065E+02 -0.67829300339E+02  0.11764059601E+03  0.91845289737E+02 0.  0.
         23    2    1    2    0    0 -0.80112856677E+01 -0.56315001316E+02 -0.51504329451E+03  0.52727382260E+03  0.97532193147E+02 0.  0.
        -11    1    3    3    0    0 -0.10184032346E+02  0.59461464130E+02 -0.30665323981E+02  0.67673793496E+02  0.00000000000E+00 0.  1.
         11    1    3    3    0    0 -0.90930681570E+00 -0.33387024065E+02 -0.37163976358E+02  0.49966802515E+02  0.00000000000E+00 0. -1.
        -13    1    4    4    0    0  0.74457349811E+01  0.22527531271E+02 -0.50030002835E+02  0.55370839060E+02  0.00000000000E+00 0.  1.
         13    1    4    4    0    0 -0.15457020649E+02 -0.78842532587E+02 -0.46501329168E+03  0.47190298354E+03  0.00000000000E+00 0. -1.
         21    1    1    2  502  501  0.19104624830E+02  0.30240561251E+02 -0.23696837489E+03  0.23965285088E+03  0.00000000000E+00 0.  1.
<scales pt_clust_5="13000.00000" pt_clust_6="13000.00000" pt_clust_7="13000.00000" pt_clust_8="13000.00000" pt_clust_9="35.76980"></scales>
<clustering>
<clus scale="   35.770">  2  9  1 -1</clus>
<clus scale="   91.845">  5  6 -1 -1</clus>
<clus scale="   97.169">  1  5  2 -1</clus>
<clus scale="   97.532">  7  8 -1 -1</clus>
<clus scale="   35.770">  2  5  1 -1</clus>
</clustering>
</event>
<event>
 9    1  0.1296032E-005  0.9854053E+02  0.7546771E-02  0.1287530E+00
         -1   -1    0    0    0  501 -0.00000000000E+00  0.00000000000E+00  0.15750380152E+03  0.15750380152E+03  0.00000000000E+00 0.  1.
          1   -1    0    0  502    0  0.00000000000E+00 -0.00000000000E+00 -0.40015959163E+03  0.40015959163E+03  0.00000000000E+00 0. -1.
         23    2    1    2    0    0  0.12666846769E+02  0.20523512266E+02  0.13093706736E+03  0.15967847052E+03  0.88153472859E+02 0.  0.
         23    2    1    2    0    0  0.15964171062E+02 -0.18804678694E+02 -0.21289524984E+03  0.23474763930E+03  0.95778891481E+02 0.  0.
        -11    1    3    3    0    0  0.10766289564E-01 -0.24547077038E+02  0.10139180400E+03  0.10432093282E+03  0.00000000000E+00 0.  1.
         11    1    3    3    0    0  0.12656080479E+02  0.45070589304E+02  0.29545263365E+02  0.55357537703E+02  0.00000000000E+00 0. -1.
        -13    1    4    4    0    0  0.13258842437E+02  0.18467347669E+02 -0.46869102940E+01  0.23212215767E+02  0.00000000000E+00 0.  1.
         13    1    4    4    0    0  0.27053286257E+01 -0.37272026364E+02 -0.20820833955E+03  0.21153542353E+03  0.00000000000E+00 0. -1.
         21    1    1    2  502  501 -0.28631017831E+02 -0.17188335715E+01 -0.16069760763E+03  0.16323728333E+03  0.00000000000E+00 0. -1.
<scales pt_clust_5="13000.00000" pt_clust_6="13000.00000" pt_clust_7="13000.00000" pt_clust_8="13000.00000" pt_clust_9="28.68257"></scales>
<clustering>
<clus scale="   28.683">  2  9  1 -1</clus>
<clus scale="   88.153">  5  6 -1 -1</clus>
<clus scale="   91.146">  1  5  2 -1</clus>
<clus scale="   95.779">  7  8 -1 -1</clus>
<clus scale="   28.683">  2  5  1 -1</clus>
</clustering>
</event>
<event>
 9    1  0.1296032E-005  0.9496414E+02  0.7546771E-02  0.1301165E+00
         -4   -1    0    0    0  501 -0.00000000000E+00  0.00000000000E+00  0.32805525180E+03  0.32805525180E+03  0.00000000000E+00 0.  1.
          4   -1    0    0  502    0  0.00000000000E+00 -0.00000000000E+00 -0.36845181601E+02  0.36845181601E+02  0.00000000000E+00 0. -1.
         23    2    1    2    0    0 -0.13268200703E+02 -0.13588366196E+02  0.17877246833E+03  0.20098498694E+03  0.89859227123E+02 0.  0.
         23    2    1    2    0    0  0.34922248723E+02  0.35048625178E+02  0.91248822071E+02  0.12678857074E+03  0.72808135245E+02 0.  0.
        -11    1    3    3    0    0 -0.21985987804E+02  0.35163669904E+02  0.68051148544E+02  0.79692070867E+02  0.00000000000E+00 0.  1.
         11    1    3    3    0    0  0.87177871012E+01 -0.48752036101E+02  0.11072131978E+03  0.12129291608E+03  0.00000000000E+00 0. -1.
        -13    1    4    4    0    0  0.57011764254E+02  0.29446115247E+02  0.58101886181E+02  0.86563526640E+02  0.00000000000E+00 0.  1.
         13    1    4    4    0    0 -0.22089515531E+02  0.56025099311E+01  0.33146935890E+02  0.40225044100E+02  0.00000000000E+00 0. -1.
         21    1    1    2  502  501 -0.21654048020E+02 -0.21460258982E+02  0.21188779802E+02  0.37126875720E+02  0.00000000000E+00 0.  1.
<scales pt_clust_5="13000.00000" pt_clust_6="13000.00000" pt_clust_7="13000.00000" pt_clust_8="13000.00000" pt_clust_9="30.48673"></scales>
<clustering>
<clus scale="   30.487">  2  9  1 -1</clus>
<clus scale="   72.808">  7  8 -1 -1</clus>
<clus scale="   79.022">  2  7  1 -1</clus>
<clus scale="   89.859">  5  6 -1 -1</clus>
<clus scale="   30.487">  2  5  1 -1</clus>
</clustering>
</event>
<event>
 9    1  0.1296032E-005  0.9513384E+02  0.7546771E-02  0.1291025E+00
         -4   -1    0    0    0  501 -0.00000000000E+00  0.00000000000E+00  0.17132724554E+03  0.17132724554E+03  0.00000000000E+00 0.  1.
          4   -1    0    0  502    0  0.00000000000E+00 -0.00000000000E+00 -0.78682187615E+02  0.78682187615E+02  0.00000000000E+00 0. -1.
         23    2    1    2    0    0 -0.26976359740E+02 -0.97510623888E+01  0.72239334978E+02  0.11947334017E+03  0.90733402282E+02 0.  0.
         23    2    1    2    0    0  0.91073087315E+01  0.34004162795E+02  0.23133515167E+02  0.10028784157E+03  0.91012446858E+02 0.  0.
        -11    1    4    4    0    0 -0.22418206920E+02 -0.22622818059E+02  0.12204243019E+01  0.31872516906E+02  0.00000000000E+00 0.  1.
         11    1    4    4    0    0  0.31525515651E+02  0.56626980854E+02  0.21913090865E+02  0.68415324665E+02  0.00000000000E+00 0. -1.
        -13    1    3    3    0    0 -0.14885953392E+02 -0.45596881088E+02  0.65282513900E+02  0.81009096986E+02  0.00000000000E+00 0.  1.
         13    1    3    3    0    0 -0.12090406348E+02  0.35845818699E+02  0.69568210778E+01  0.38464243180E+02  0.00000000000E+00 0. -1.
         21    1    1    2  502  501  0.17869051008E+02 -0.24253100406E+02 -0.27277922243E+01  0.30248251415E+02  0.00000000000E+00 0. -1.
<scales pt_clust_5="13000.00000" pt_clust_6="13000.00000" pt_clust_7="13000.00000" pt_clust_8="13000.00000" pt_clust_9="30.12500"></scales>
<clustering>
<clus scale="   30.125">  2  9  1 -1</clus>
<clus scale="   90.733">  7  8 -1 -1</clus>
<clus scale="   91.012">  5  6 -1 -1</clus>
<clus scale="   94.867">  1  7  2 -1</clus>
<clus scale="   30.125">  2  5  1 -1</clus>
</clustering>
</event>
<event>
 9    1  0.1296032E-005  0.3470074E+03  0.7546771E-02  0.1101582E+00
         -2   -1    0    0    0  501 -0.00000000000E+00  0.00000000000E+00  0.29301209371E+03  0.29301209371E+03  0.00000000000E+00 0.  1.
          2   -1    0    0  502    0  0.00000000000E+00 -0.00000000000E+00 -0.98125027421E+03  0.98125027421E+03  0.00000000000E+00 0. -1.
         23    2    1    2    0    0  0.69516384752E+02  0.58337501877E+02 -0.63437406604E+02  0.14124109031E+03  0.87686653271E+02 0.  0.
         23    2    1    2    0    0 -0.32340589474E+03  0.11144701844E+03 -0.72891637220E+03  0.81033454961E+03  0.91165749898E+02 0.  0.
        -11    1    3    3    0    0 -0.18071305174E+02  0.23291970647E+02 -0.27419111433E+02  0.40260348224E+02  0.00000000000E+00 0. -1.
         11    1    3    3    0    0  0.87587689927E+02  0.35045531231E+02 -0.36018295171E+02  0.10098074209E+03  0.00000000000E+00 0.  1.
        -13    1    4    4    0    0 -0.13175806423E+03  0.75672849576E+02 -0.40125375806E+03  0.42905844125E+03  0.00000000000E+00 0. -1.
         13    1    4    4    0    0 -0.19164783051E+03  0.35774168861E+02 -0.32766261414E+03  0.38127610836E+03  0.00000000000E+00 0.  1.
         21    1    1    2  502  501  0.25388950998E+03 -0.16978452031E+03  0.10411559831E+03  0.32268672800E+03  0.00000000000E+00 0.  1.
<scales pt_clust_5="13000.00000" pt_clust_6="13000.00000" pt_clust_7="13000.00000" pt_clust_8="13000.00000" pt_clust_9="334.81780"></scales>
<clustering>
<clus scale="   87.687">  5  6 -1 -1</clus>
<clus scale="   91.166">  7  8 -1 -1</clus>
<clus scale="  126.193">  1  5  2 -1</clus>
<clus scale="  334.818">  1  9  2 -1</clus>
<clus scale="  347.007">  2  5  1 -1</clus>
</clustering>
</event>
<event>
 9    1  0.1296032E-005  0.1077241E+03  0.7546771E-02  0.1265312E+00
          1   -1    0    0  502    0  0.00000000000E+00  0.00000000000E+00  0.78857781752E+03  0.78857781752E+03  0.00000000000E+00 0. -1.
         -1   -1    0    0    0  501 -0.00000000000E+00 -0.00000000000E+00 -0.22809051195E+02  0.22809051195E+02  0.00000000000E+00 0.  1.
         23    2    1    2    0    0 -0.18845791501E+02 -0.44638454022E+02  0.18298116591E+03  0.21032225591E+03  0.91681998327E+02 0.  0.
         23    2    1    2    0    0  0.25362028274E+02  0.69129221081E+02  0.40488676922E+03  0.42136774374E+03  0.90528436912E+02 0.  0.
        -11    1    4    4    0    0 -0.15322645756E+02  0.70469645213E+02  0.30695426156E+03  0.31531202492E+03  0.00000000000E+00 0.  1.
         11    1    4    4    0    0  0.40684674030E+02 -0.13404241322E+01  0.97932507654E+02  0.10605571881E+03  0.00000000000E+00 0. -1.
        -11    1    3    3    0    0  0.21989706081E+02 -0.53539802574E+02  0.13379197792E+03  0.14577500125E+03  0.00000000000E+00 0. -1.
         11    1    3    3    0    0 -0.40835497583E+02  0.89013485514E+01  0.49189187990E+02  0.64547254658E+02  0.00000000000E+00 0.  1.
         21    1    1    2  502  501 -0.65162367725E+01 -0.24490767058E+02  0.17790083120E+03  0.17969686907E+03  0.00000000000E+00 0. -1.
<scales pt_clust_5="13000.00000" pt_clust_6="13000.00000" pt_clust_7="13000.00000" pt_clust_8="13000.00000" pt_clust_9="25.34283"></scales>
<clustering>
<clus scale="   25.343">  1  9  2 -1</clus>
<clus scale="   90.528">  5  6 -1 -1</clus>
<clus scale="   91.682">  7  8 -1 -1</clus>
<clus scale="  106.744">  1  5  2 -1</clus>
<clus scale="   25.343">  1  5  2 -1</clus>
</clustering>
</event>
<event>
 9    1  0.1296032E-005  0.9491104E+02  0.7546771E-02  0.1292323E+00
         -3   -1    0    0    0  501 -0.00000000000E+00  0.00000000000E+00  0.18502604629E+03  0.18502604629E+03  0.00000000000E+00 0.  1.
          3   -1    0    0  502    0  0.00000000000E+00 -0.00000000000E+00 -0.25647153220E+03  0.25647153220E+03  0.00000000000E+00 0. -1.
         23    2    1    2    0    0 -0.12789882787E+02 -0.27593651310E+02  0.13633396772E+03  0.16576302815E+03  0.89249314034E+02 0.  0.
         23    2    1    2    0    0 -0.29631600168E+02  0.13443273369E+01 -0.20444864741E+03  0.22573751548E+03  0.90985369823E+02 0.  0.
        -11    1    3    3    0    0 -0.48188558252E+02 -0.14253974435E+02  0.47239028695E+02  0.68969839536E+02  0.00000000000E+00 0.  1.
         11    1    3    3    0    0  0.35398675465E+02 -0.13339676875E+02  0.89094939021E+02  0.96793188619E+02  0.00000000000E+00 0. -1.
        -13    1    4    4    0    0 -0.48108186583E+02 -0.22005819257E+02 -0.68412621234E+02  0.86480867489E+02  0.00000000000E+00 0.  1.
         13    1    4    4    0    0  0.18476586414E+02  0.23350146594E+02 -0.13603602618E+03  0.13925664799E+03  0.00000000000E+00 0. -1.
         21    1    1    2  502  501  0.42421482955E+02  0.26249323973E+02 -0.33308062159E+01  0.49997034864E+02  0.00000000000E+00 0.  1.
<scales pt_clust_5="13000.00000" pt_clust_6="13000.00000" pt_clust_7="13000.00000" pt_clust_8="13000.00000" pt_clust_9="49.88596"></scales>
<clustering>
<clus scale="   49.886">  1  9  2 -1</clus>
<clus scale="   89.249">  5  6 -1 -1</clus>
<clus scale="   90.985">  7  8 -1 -1</clus>
<clus scale="   93.248">  1  5  2 -1</clus>
<clus scale="   94.911">  2  5  1 -1</clus>
</clustering>
</event>
<event>
 9    1  0.1296032E-005  0.1311203E+03  0.7546771E-02  0.1226120E+00
         -2   -1    0    0    0  501 -0.00000000000E+00  0.00000000000E+00  0.46150757284E+02  0.46150757284E+02  0.00000000000E+00 0.  1.
          2   -1    0    0  502    0  0.00000000000E+00 -0.00000000000E+00 -0.50706421626E+03  0.50706421626E+03  0.00000000000E+00 0. -1.
         23    2    1    2    0    0 -0.47166409669E+02 -0.61871181068E+02 -0.10055107350E+03  0.15689588308E+03  0.91940668357E+02 0.  0.
         23    2    1    2    0    0  0.67412874965E+02  0.75146776755E+02 -0.33402860842E+03  0.36054719351E+03  0.90706304826E+02 0.  0.
        -11    1    4    4    0    0  0.32255947236E+02  0.84172369723E+02 -0.16860833635E+03  0.19119154020E+03  0.00000000000E+00 0. -1.
         11    1    4    4    0    0  0.35156927729E+02 -0.90255929681E+01 -0.16542027207E+03  0.16935565331E+03  0.00000000000E+00 0.  1.
        -13    1    3    3    0    0  0.21493952916E+02  0.25618322358E+01 -0.38381151740E+02  0.44064337114E+02  0.00000000000E+00 0. -1.
         13    1    3    3    0    0 -0.68660362585E+02 -0.64433013304E+02 -0.62169921762E+02  0.11283154597E+03  0.00000000000E+00 0.  1.
         21    1    1    2  502  501 -0.20246465296E+02 -0.13275595687E+02 -0.26333777055E+02  0.35771896955E+02  0.00000000000E+00 0.  1.
<scales pt_clust_5="13000.00000" pt_clust_6="13000.00000" pt_clust_7="13000.00000" pt_clust_8="13000.00000" pt_clust_9="24.21076"></scales>
<clustering>
<clus scale="   24.211">  1  9  2 -1</clus>
<clus scale="   90.706">  5  6 -1 -1</clus>
<clus scale="   91.941">  7  8 -1 -1</clus>
<clus scale="  130.258">  2  5  1 -1</clus>
<clus scale="  130.258">  2  5  1 -1</clus>
</clustering>
</event>
<event>
 9    1  0.1296032E-005  0.9651189E+02  0.7546771E-02  0.1287862E+00
         -2   -1    0    0    0  501 -0.00000000000E+00  0.00000000000E+00  0.12895575891E+03  0.12895575891E+03  0.00000000000E+00 0.  1.
          2   -1    0    0  502    0  0.00000000000E+00 -0.00000000000E+00 -0.13878367890E+03  0.13878367890E+03  0.00000000000E+00 0. -1.
         23    2    1    2    0    0  0.52062094867E+02  0.33212883223E+01  0.15462354023E+02  0.10679380537E+03  0.91893088947E+02 0.  0.
         23    2    1    2    0    0 -0.35289366437E+01  0.32752999277E+02 -0.23220151618E+02  0.10043854955E+03  0.91997361041E+02 0.  0.
        -11    1    3    3    0    0 -0.57844426190E+01  0.37631263199E+02  0.97107860907E+01  0.39292125329E+02  0.00000000000E+00 0.  1.
         11    1    3    3    0    0  0.57846537486E+02 -0.34309974877E+02  0.57515679325E+01  0.67501680044E+02  0.00000000000E+00 0. -1.
        -13    1    4    4    0    0  0.37466849779E+02  0.31684695644E+02 -0.31892461370E+02  0.58521909253E+02  0.00000000000E+00 0. -1.
         13    1    4    4    0    0 -0.40995786423E+02  0.10683036326E+01  0.86723097517E+01  0.41916640294E+02  0.00000000000E+00 0.  1.
         21    1    1    2  502  501 -0.48533158223E+02 -0.36074287599E+02 -0.20701223872E+01  0.60507082887E+02  0.00000000000E+00 0.  1.
<scales pt_clust_5="13000.00000" pt_clust_6="13000.00000" pt_clust_7="13000.00000" pt_clust_8="13000.00000" pt_clust_9="60.47166"></scales>
<clustering>
<clus scale="   60.472">  1  9  2 -1</clus>
<clus scale="   91.893">  5  6 -1 -1</clus>
<clus scale="   91.997">  7  8 -1 -1</clus>
<clus scale="   96.412">  1  5  2 -1</clus>
<clus scale="   96.512">  2  5  1 -1</clus>
</clustering>
</event>
<event>
 9    1  0.1296032E-005  0.3565443E+03  0.7546771E-02  0.1060003E+00
         -2   -1    0    0    0  501 -0.00000000000E+00  0.00000000000E+00  0.93698007298E+02  0.93698007298E+02  0.00000000000E+00 0.  1.
          2   -1    0    0  502    0  0.00000000000E+00 -0.00000000000E+00 -0.18136393932E+04  0.18136393932E+04  0.00000000000E+00 0. -1.
         23    2    1    2    0    0 -0.26140472286E+03 -0.21899208322E+03 -0.43459479007E+03  0.55980924827E+03  0.90685176533E+02 0.  0.
         23    2    1    2    0    0  0.28845303941E+03  0.19280793976E+03 -0.12259529884E+04  0.12772087282E+04  0.89001954590E+02 0.  0.
        -11    1    4    4    0    0  0.21623366398E+03  0.17491598495E+03 -0.10491453995E+04  0.10853841110E+04  0.00000000000E+00 0.  1.
         11    1    4    4    0    0  0.72219375435E+02  0.17891954817E+02 -0.17680758898E+03  0.19182461718E+03  0.00000000000E+00 0. -1.
        -13    1    3    3    0    0 -0.25684371348E+03 -0.18931040756E+03 -0.41677853377E+03  0.52489186484E+03  0.00000000000E+00 0.  1.
         13    1    3    3    0    0 -0.45610093828E+01 -0.29681675666E+02 -0.17816256295E+02  0.34917383425E+02  0.00000000000E+00 0. -1.
         21    1    1    2  502  501 -0.27048316548E+02  0.26184143459E+02 -0.59393607343E+02  0.70319423988E+02  0.00000000000E+00 0. -1.
<scales pt_clust_5="13000.00000" pt_clust_6="13000.00000" pt_clust_7="13000.00000" pt_clust_8="13000.00000" pt_clust_9="37.64599"></scales>
<clustering>
<clus scale="   37.646">  1  9  2 -1</clus>
<clus scale="   89.002">  5  6 -1 -1</clus>
<clus scale="   90.685">  7  8 -1 -1</clus>
<clus scale="  356.120">  2  5  1 -1</clus>
<clus scale="  356.120">  2  5  1 -1</clus>
</clustering>
</event>
<event>
 9    1  0.1513475E-005  0.1403901E+03  0.7546771E-02  0.1212871E+00
          2   -1    0    0  502    0  0.00000000000E+00  0.00000000000E+00  0.47991239236E+03  0.47991239236E+03  0.00000000000E+00 0. -1.
         -2   -1    0    0    0  501 -0.00000000000E+00 -0.00000000000E+00 -0.48514866350E+03  0.48514866350E+03  0.00000000000E+00 0.  1.
         23    2    1    2    0    0  0.83662875673E+02  0.63031857250E+02 -0.45881087163E+03  0.47988620067E+03  0.93866170052E+02 0.  0.
         23    2    1    2    0    0 -0.94085136208E+02 -0.28420502205E+02  0.34435499481E+03  0.37012924824E+03  0.93571150233E+02 0.  0.
        -11    1    3    3    0    0  0.38876469559E+02 -0.93689509504E+01 -0.60104834363E+02  0.72192438946E+02  0.00000000000E+00 0. -1.
         11    1    3    3    0    0  0.44786406114E+02  0.72400808200E+02 -0.39870603726E+03  0.40769376173E+03  0.00000000000E+00 0.  1.
        -13    1    4    4    0    0 -0.58071000512E+02 -0.48493372743E+02  0.11885734038E+03  0.14089327757E+03  0.00000000000E+00 0.  1.
         13    1    4    4    0    0 -0.36014135696E+02  0.20072870538E+02  0.22549765443E+03  0.22923597068E+03  0.00000000000E+00 0. -1.
         21    1    1    2  502  501  0.10422260534E+02 -0.34611355045E+02  0.10921960568E+03  0.11504560694E+03  0.00000000000E+00 0. -1.
<scales pt_clust_5="13000.00000" pt_clust_6="13000.00000" pt_clust_7="13000.00000" pt_clust_8="13000.00000" pt_clust_9="36.14650"></scales>
<clustering>
<clus scale="   36.146">  1  9  2 -1</clus>
<clus scale="   93.571">  7  8 -1 -1</clus>
<clus scale="   93.866">  5  6 -1 -1</clus>
<clus scale="  140.193">  1  7  2 -1</clus>
<clus scale="   36.146">  1  5  2 -1</clus>
</clustering>
</event>
<event>
 9    1  0.1296032E-005  0.1177309E+03  0.7546771E-02  0.1247340E+00
         -1   -1    0    0    0  501 -0.00000000000E+00  0.00000000000E+00  0.84834643307E+02  0.84834643307E+02  0.00000000000E+00 0.  1.
          1   -1    0    0  502    0  0.00000000000E+00 -0.00000000000E+00 -0.20813739537E+03  0.20813739537E+03  0.00000000000E+00 0. -1.
         23    2    1    2    0    0 -0.45661943596E+02  0.74885070373E+02 -0.33529217437E+02  0.13045740704E+03  0.90565665520E+02 0.  0.
         23    2    1    2    0    0  0.31723194572E+02 -0.60383272295E+02 -0.87357961127E+02  0.14225566160E+03  0.89178244201E+02 0.  0.
        -11    1    3    3    0    0  0.24441905834E+02  0.93023821046E+01  0.56778806526E+01  0.26761528401E+02  0.00000000000E+00 0.  1.
         11    1    3    3    0    0 -0.70103849431E+02  0.65582688268E+02 -0.39207098090E+02  0.10369587864E+03  0.00000000000E+00 0. -1.
        -13    1    4    4    0    0 -0.39468982906E+01 -0.35682457425E+02  0.86251850990E+01  0.36921668326E+02  0.00000000000E+00 0.  1.
         13    1    4    4    0    0  0.35670092863E+02 -0.24700814870E+02 -0.95983146226E+02  0.10533399328E+03  0.00000000000E+00 0. -1.
         21    1    1    2  502  501  0.13938749024E+02 -0.14501798078E+02 -0.24155735037E+01  0.20258970043E+02  0.00000000000E+00 0.  1.
<scales pt_clust_5="13000.00000" pt_clust_6="13000.00000" pt_clust_7="13000.00000" pt_clust_8="13000.00000" pt_clust_9="20.11444"></scales>
<clustering>
<clus scale="   20.114">  1  9  2 -1</clus>
<clus scale="   89.178">  7  8 -1 -1</clus>
<clus scale="   90.566">  5  6 -1 -1</clus>
<clus scale="  116.667">  2  7  1 -1</clus>
<clus scale="  116.667">  2  5  1 -1</clus>
</clustering>
</event>
<event>
 9    1  0.1296032E-005  0.1004045E+03  0.7546771E-02  0.1279863E+00
          1   -1    0    0  502    0  0.00000000000E+00  0.00000000000E+00  0.12179579955E+03  0.12179579955E+03  0.00000000000E+00 0. -1.
         -1   -1    0    0    0  501 -0.00000000000E+00 -0.00000000000E+00 -0.15411211755E+03  0.15411211755E+03  0.00000000000E+00 0.  1.
         23    2    1    2    0    0  0.31795157417E+02 -0.55735867741E+02 -0.28394522263E+02  0.11431035473E+03  0.90239621655E+02 0.  0.
         23    2    1    2    0    0 -0.40672717139E+02 -0.25715914485E+01  0.11939441920E+02  0.10052261067E+03  0.91111810328E+02 0.  0.
        -11    1    3    3    0    0 -0.57546245579E+00 -0.70999695923E+02 -0.32872402739E+02  0.78242461874E+02  0.00000000000E+00 0.  1.
         11    1    3    3    0    0  0.32370619872E+02  0.15263828182E+02  0.44778804760E+01  0.36067892858E+02  0.00000000000E+00 0. -1.
        -13    1    4    4    0    0  0.12852297148E+02 -0.26414226261E+02 -0.18275269971E+02  0.34595930158E+02  0.00000000000E+00 0.  1.
         13    1    4    4    0    0 -0.53525014286E+02  0.23842634813E+02  0.30214711891E+02  0.65926680516E+02  0.00000000000E+00 0. -1.
         21    1    1    2  502  501  0.88775597220E+01  0.58307459190E+02 -0.15861237659E+02  0.61074951689E+02  0.00000000000E+00 0. -1.
<scales pt_clust_5="13000.00000" pt_clust_6="13000.00000" pt_clust_7="13000.00000" pt_clust_8="13000.00000" pt_clust_9="58.97941"></scales>
<clustering>
<clus scale="   58.979">  2  9  1 -1</clus>
<clus scale="   90.240">  5  6 -1 -1</clus>
<clus scale="   91.112">  7  8 -1 -1</clus>
<clus scale="   99.614">  2  5  1 -1</clus>
<clus scale="  100.405">  1  5  2 -1</clus>
</clustering>
</event>
<event>
 9    1  0.1296032E-005  0.4434238E+03  0.7546771E-02  0.1029713E+00
          2   -1    0    0  502    0  0.00000000000E+00  0.00000000000E+00  0.18217242452E+04  0.18217242452E+04  0.00000000000E+00 0. -1.
         -2   -1    0    0    0  501 -0.00000000000E+00 -0.00000000000E+00 -0.15874826018E+04  0.15874826018E+04  0.00000000000E+00 0.  1.
         23    2    1    2    0    0  0.44956797065E+03  0.21949594047E+03 -0.13506738194E+04  0.14432805860E+04  0.91919831244E+02 0.  0.
         23    2    1    2    0    0 -0.26759138166E+03 -0.59289279280E+02 -0.66461736641E+02  0.29684618277E+03  0.92628978266E+02 0.  0.
        -11    1    4    4    0    0 -0.10031772431E+02 -0.26286530565E+02 -0.15854302663E+02  0.32295155367E+02  0.00000000000E+00 0.  1.
         11    1    4    4    0    0 -0.25755960923E+03 -0.33002748715E+02 -0.50607433977E+02  0.26455102741E+03  0.00000000000E+00 0. -1.
        -13    1    3    3    0    0  0.32903428931E+03  0.19546731713E+03 -0.10859777739E+04  0.11514420354E+04  0.00000000000E+00 0.  1.
         13    1    3    3    0    0  0.12053368133E+03  0.24028623337E+02 -0.26469604547E+03  0.29183855051E+03  0.00000000000E+00 0. -1.
         21    1    1    2  502  501 -0.18197658899E+03 -0.16020666119E+03  0.16513771994E+04  0.16690800783E+04  0.00000000000E+00 0. -1.
<scales pt_clust_5="13000.00000" pt_clust_6="13000.00000" pt_clust_7="13000.00000" pt_clust_8="13000.00000" pt_clust_9="242.44928"></scales>
<clustering>
<clus scale="   91.920">  7  8 -1 -1</clus>
<clus scale="   92.629">  5  6 -1 -1</clus>
<clus scale="  242.449">  1  9  2 -1</clus>
<clus scale="  443.276">  2  7  1 -1</clus>
<clus scale="  242.449">  1  5  2 -1</clus>
</clustering>
</event>
<event>
 9    1  0.1296032E-005  0.1064142E+03  0.7546771E-02  0.1272775E+00
         -3   -1    0    0    0  501 -0.00000000000E+00  0.00000000000E+00  0.23574207007E+03  0.23574207007E+03  0.00000000000E+00 0.  1.
          3   -1    0    0  502    0  0.00000000000E+00 -0.00000000000E+00 -0.10147421395E+03  0.10147421395E+03  0.00000000000E+00 0. -1.
         23    2    1    2    0    0 -0.41127424876E+02 -0.38223284974E+02  0.17799418441E+03  0.20253782561E+03  0.78658480333E+02 0.  0.
         23    2    1    2    0    0  0.47409222178E+02  0.16001357388E+02 -0.38775957630E+02  0.11106106624E+03  0.91254083518E+02 0.  0.
        -13    1    3    3    0    0 -0.20238080873E+01 -0.20638112678E+02  0.13680749219E+01  0.20782182827E+02  0.00000000000E+00 0. -1.
         13    1    3    3    0    0 -0.39103616789E+02 -0.17585172296E+02  0.17662610949E+03  0.18175564279E+03  0.00000000000E+00 0.  1.
        -13    1    4    4    0    0  0.32215220613E+02 -0.21641314930E+01  0.26405752232E+02  0.41710522116E+02  0.00000000000E+00 0.  1.
         13    1    4    4    0    0  0.15194001564E+02  0.18165488881E+02 -0.65181709862E+02  0.69350544124E+02  0.00000000000E+00 0. -1.
         21    1    1    2  502  501 -0.62817973012E+01  0.22221927586E+02 -0.49503706597E+01  0.23617392164E+02  0.00000000000E+00 0.  1.
<scales pt_clust_5="13000.00000" pt_clust_6="13000.00000" pt_clust_7="13000.00000" pt_clust_8="13000.00000" pt_clust_9="23.09275"></scales>
<clustering>
<clus scale="   23.093">  2  9  1 -1</clus>
<clus scale="   78.658">  5  6 -1 -1</clus>
<clus scale="   91.254">  7  8 -1 -1</clus>
<clus scale="   95.832">  1  5  2 -1</clus>
<clus scale="   23.093">  2  5  1 -1</clus>
</clustering>
</event>
<event>
 9    1  0.1296032E-005  0.9512758E+02  0.7546771E-02  0.1291336E+00
          1   -1    0    0  502    0  0.00000000000E+00  0.00000000000E+00  0.35247395338E+03  0.35247395338E+03  0.00000000000E+00 0. -1.
         -1   -1    0    0    0  501 -0.00000000000E+00 -0.00000000000E+00 -0.68412349124E+02  0.68412349124E+02  0.00000000000E+00 0.  1.
         23    2    1    2    0    0 -0.24712350347E+01  0.27869584903E+02  0.46935000843E+01  0.96685600569E+02  0.92429733576E+02 0.  0.
         23    2    1    2    0    0 -0.48502860538E+02  0.47900784973E+01  0.16890684669E+03  0.19823760640E+03  0.91614155018E+02 0.  0.
        -13    1    4    4    0    0 -0.52670284348E+02 -0.24536303257E+02  0.53136890469E+02  0.78738289031E+02  0.00000000000E+00 0.  1.
         13    1    4    4    0    0  0.41674238097E+01  0.29326381755E+02  0.11576995622E+03  0.11949931737E+03  0.00000000000E+00 0. -1.
        -13    1    3    3    0    0  0.35312192848E+02 -0.15534194205E+02  0.64494585381E+01  0.39113395004E+02  0.00000000000E+00 0. -1.
         13    1    3    3    0    0 -0.37783427883E+02  0.43403779108E+02 -0.17559584537E+01  0.57572205564E+02  0.00000000000E+00 0.  1.
         21    1    1    2  502  501  0.50974095573E+02 -0.32659663401E+02  0.11046125748E+03  0.12596309554E+03  0.00000000000E+00 0. -1.
<scales pt_clust_5="13000.00000" pt_clust_6="13000.00000" pt_clust_7="13000.00000" pt_clust_8="13000.00000" pt_clust_9="60.53934"></scales>
<clustering>
<clus scale="   60.539">  1  9  2 -1</clus>
<clus scale="   91.614">  5  6 -1 -1</clus>
<clus scale="   92.430">  7  8 -1 -1</clus>
<clus scale="   94.335">  1  5  2 -1</clus>
<clus scale="   60.539">  1  5  2 -1</clus>
</clustering>
</event>
<event>
 9    1  0.1296032E-005  0.1108672E+03  0.7546771E-02  0.1259261E+00
          1   -1    0    0  502    0  0.00000000000E+00  0.00000000000E+00  0.13236684828E+03  0.13236684828E+03  0.00000000000E+00 0. -1.
         -1   -1    0    0    0  501 -0.00000000000E+00 -0.00000000000E+00 -0.11257932230E+03  0.11257932230E+03  0.00000000000E+00 0.  1.
         23    2    1    2    0    0 -0.21610709578E+02 -0.68232699204E+02  0.18812220556E+01  0.11713132800E+03  0.92701051740E+02 0.  0.
         23    2    1    2    0    0  0.18082661303E+02  0.46668605256E+02  0.14041374542E+02  0.10562486845E+03  0.91948416412E+02 0.  0.
        -11    1    4    4    0    0 -0.33698764938E+02  0.18644368961E+02  0.24751097588E+02  0.45780302359E+02  0.00000000000E+00 0. -1.
         11    1    4    4    0    0  0.51781426241E+02  0.28024236295E+02 -0.10709723046E+02  0.59844566096E+02  0.00000000000E+00 0.  1.
        -11    1    3    3    0    0  0.36170581280E+02 -0.23661269388E+02  0.77870302514E+01  0.43918156375E+02  0.00000000000E+00 0.  1.
         11    1    3    3    0    0 -0.57781290859E+02 -0.44571429815E+02 -0.59058081958E+01  0.73213171626E+02  0.00000000000E+00 0. -1.
         21    1    1    2  502  501  0.35280482751E+01  0.21564093948E+02  0.38649293816E+01  0.22189974122E+02  0.00000000000E+00 0.  1.
<scales pt_clust_5="13000.00000" pt_clust_6="13000.00000" pt_clust_7="13000.00000" pt_clust_8="13000.00000" pt_clust_9="21.85080"></scales>
<clustering>
<clus scale="   21.851">  1  9  2 -1</clus>
<clus scale="   91.948">  5  6 -1 -1</clus>
<clus scale="   92.701">  7  8 -1 -1</clus>
<clus scale="  110.239">  1  5  2 -1</clus>
<clus scale="   21.851">  1  5  2 -1</clus>
</clustering>
</event>
<event>
 9    1  0.2920365E-005  0.1153492E+03  0.7546771E-02  0.1252232E+00
          2   -1    0    0  502    0  0.00000000000E+00  0.00000000000E+00  0.51322905823E+03  0.51322905823E+03  0.00000000000E+00 0. -1.
         -2   -1    0    0    0  501 -0.00000000000E+00 -0.00000000000E+00 -0.11577144364E+03  0.11577144364E+03  0.00000000000E+00 0.  1.
         23    2    1    2    0    0 -0.54084514783E+02  0.37417292973E+02 -0.70534150832E+02  0.13213587498E+03  0.90330695065E+02 0.  0.
         23    2    1    2    0    0  0.56897620684E+02 -0.67001299641E+02  0.42887184833E+03  0.44773729306E+03  0.93867501916E+02 0.  0.
        -11    1    3    3    0    0 -0.86263747846E+01 -0.28188543020E+02 -0.31987321392E+02  0.43499391138E+02  0.00000000000E+00 0. -1.
         11    1    3    3    0    0 -0.45458139998E+02  0.65605835993E+02 -0.38546829441E+02  0.88636483845E+02  0.00000000000E+00 0.  1.
        -13    1    4    4    0    0 -0.63704041489E+01 -0.31935878722E+02  0.37192394962E+02  0.49434367011E+02  0.00000000000E+00 0.  1.
         13    1    4    4    0    0  0.63268024833E+02 -0.35065420919E+02  0.39167945337E+03  0.39830292605E+03  0.00000000000E+00 0. -1.
         21    1    1    2  502  501 -0.28131059015E+01  0.29584006668E+02  0.39119917088E+02  0.49127333820E+02  0.00000000000E+00 0.  1.
<scales pt_clust_5="13000.00000" pt_clust_6="13000.00000" pt_clust_7="13000.00000" pt_clust_8="13000.00000" pt_clust_9="29.71745"></scales>
<clustering>
<clus scale="   29.717">  1  9  2 -1</clus>
<clus scale="   90.331">  5  6 -1 -1</clus>
<clus scale="   93.868">  7  8 -1 -1</clus>
<clus scale="  112.490">  2  5  1 -1</clus>
<clus scale="   29.717">  1  5  2 -1</clus>
</clustering>
</event>
<event>
 9    1  0.1296032E-005  0.1605897E+03  0.7546771E-02  0.1188060E+00
          1   -1    0    0  502    0  0.00000000000E+00  0.00000000000E+00  0.38675331134E+03  0.38675331134E+03  0.00000000000E+00 0. -1.
         -1   -1    0    0    0  501 -0.00000000000E+00 -0.00000000000E+00 -0.14115813303E+03  0.14115813303E+03  0.00000000000E+00 0.  1.
         23    2    1    2    0    0  0.11006911762E+03 -0.72742800729E+02 -0.26649621471E+02  0.16085792297E+03  0.88081458588E+02 0.  0.
         23    2    1    2    0    0 -0.93485373081E+02  0.10825418972E+03  0.11172719357E+03  0.20182040959E+03  0.88261131707E+02 0.  0.
        -11    1    4    4    0    0 -0.33340646546E+02  0.22555774750E+02 -0.97836465263E+01  0.41425613164E+02  0.00000000000E+00 0. -1.
         11    1    4    4    0    0 -0.60144726536E+02  0.85698414972E+02  0.12151084009E+03  0.16039479642E+03  0.00000000000E+00 0.  1.
        -13    1    3    3    0    0  0.51553588861E+02 -0.39194156612E+01  0.24317238974E+02  0.57135474575E+02  0.00000000000E+00 0. -1.
         13    1    3    3    0    0  0.58515528761E+02 -0.68823385068E+02 -0.50966860444E+02  0.10372244840E+03  0.00000000000E+00 0.  1.
         21    1    1    2  502  501 -0.16583744541E+02 -0.35511388993E+02  0.16051760622E+03  0.16523311181E+03  0.00000000000E+00 0. -1.
<scales pt_clust_5="13000.00000" pt_clust_6="13000.00000" pt_clust_7="13000.00000" pt_clust_8="13000.00000" pt_clust_9="39.19285"></scales>
<clustering>
<clus scale="   39.193">  1  9  2 -1</clus>
<clus scale="   88.081">  7  8 -1 -1</clus>
<clus scale="   88.261">  5  6 -1 -1</clus>
<clus scale="  160.491">  2  7  1 -1</clus>
<clus scale="   39.193">  1  5  2 -1</clus>
</clustering>
</event>
<event>
 9    1  0.1296032E-005  0.9898046E+02  0.7546771E-02  0.1284660E+00
          1   -1    0    0  502    0  0.00000000000E+00  0.00000000000E+00  0.12848102303E+03  0.12848102303E+03  0.00000000000E+00 0. -1.
         -1   -1    0    0    0  501 -0.00000000000E+00 -0.00000000000E+00 -0.42792624766E+03  0.42792624766E+03  0.00000000000E+00 0.  1.
         23    2    1    2    0    0  0.66996761946E+01  0.20385024734E+02 -0.25766993658E+03  0.27403228809E+03  0.90771492265E+02 0.  0.
         23    2    1    2    0    0 -0.33456165596E+02 -0.29084117095E+02 -0.14300293177E+03  0.17731014649E+03  0.94993940169E+02 0.  0.
        -11    1    3    3    0    0  0.21135286336E+02  0.49364908677E+02 -0.20739663486E+03  0.21423575493E+03  0.00000000000E+00 0.  1.
         11    1    3    3    0    0 -0.14435610141E+02 -0.28979883942E+02 -0.50273301715E+02  0.59796533167E+02  0.00000000000E+00 0. -1.
        -13    1    4    4    0    0  0.33061687667E+02 -0.16648132634E+02 -0.46216260485E+02  0.59212990507E+02  0.00000000000E+00 0.  1.
         13    1    4    4    0    0 -0.66517853263E+02 -0.12435984462E+02 -0.96786671287E+02  0.11809715598E+03  0.00000000000E+00 0. -1.
         21    1    1    2  502  501  0.26756489401E+02  0.86990923611E+01  0.10122764372E+03  0.10506483611E+03  0.00000000000E+00 0. -1.
<scales pt_clust_5="13000.00000" pt_clust_6="13000.00000" pt_clust_7="13000.00000" pt_clust_8="13000.00000" pt_clust_9="28.13510"></scales>
<clustering>
<clus scale="   28.135">  1  9  2 -1</clus>
<clus scale="   90.771">  5  6 -1 -1</clus>
<clus scale="   94.935">  2  5  1 -1</clus>
<clus scale="   94.994">  7  8 -1 -1</clus>
<clus scale="   28.135">  1  5  2 -1</clus>
</clustering>
</event>
<event>
 9    1  0.1296032E-005  0.1022910E+03  0.7546771E-02  0.1278816E+00
          1   -1    0    0  502    0  0.00000000000E+00  0.00000000000E+00  0.91644100734E+02  0.91644100734E+02  0.00000000000E+00 0. -1.
         -1   -1    0    0    0  501 -0.00000000000E+00 -0.00000000000E+00 -0.28859153274E+03  0.28859153274E+03  0.00000000000E+00 0.  1.
         23    2    1    2    0    0  0.20647375938E+02  0.13806596079E+02 -0.17428477221E+03  0.20171188359E+03  0.98466064864E+02 0.  0.
         23    2    1    2    0    0 -0.44908248056E+02  0.31448298000E+02 -0.52339140951E+02  0.11921701429E+03  0.92019370952E+02 0.  0.
        -11    1    3    3    0    0  0.93469698367E+01  0.39389427466E+02 -0.20449454770E+02  0.45354967111E+02  0.00000000000E+00 0.  1.
         11    1    3    3    0    0  0.11300406102E+02 -0.25582831387E+02 -0.15383531744E+03  0.15635691648E+03  0.00000000000E+00 0. -1.
        -13    1    4    4    0    0 -0.14854407830E+02  0.24842647946E+02 -0.75399094502E+02  0.80764064043E+02  0.00000000000E+00 0.  1.
         13    1    4    4    0    0 -0.30053840226E+02  0.66056500540E+01  0.23059953551E+02  0.38452950248E+02  0.00000000000E+00 0. -1.
         21    1    1    2  502  501  0.24260872118E+02 -0.45254894079E+02  0.29676481148E+02  0.59306735598E+02  0.00000000000E+00 0.  1.
<scales pt_clust_5="13000.00000" pt_clust_6="13000.00000" pt_clust_7="13000.00000" pt_clust_8="13000.00000" pt_clust_9="51.34779"></scales>
<clustering>
<clus scale="   51.348">  1  9  2 -1</clus>
<clus scale="   92.019">  7  8 -1 -1</clus>
<clus scale="   96.101">  1  7  2 -1</clus>
<clus scale="   98.466">  5  6 -1 -1</clus>
<clus scale="   51.348">  1  5  2 -1</clus>
</clustering>
</event>
<event>
 9    1  0.1296032E-005  0.1070900E+03  0.7546771E-02  0.1266841E+00
         -2   -1    0    0    0  501 -0.00000000000E+00  0.00000000000E+00  0.17797801432E+03  0.17797801432E+03  0.00000000000E+00 0.  1.
          2   -1    0    0  502    0  0.00000000000E+00 -0.00000000000E+00 -0.10348039371E+03  0.10348039371E+03  0.00000000000E+00 0. -1.
         23    2    1    2    0    0  0.50364108571E+02  0.44441039055E+02  0.88957611868E+02  0.14448909997E+03  0.91935270258E+02 0.  0.
         23    2    1    2    0    0 -0.22756311591E+02 -0.17120704560E+02 -0.23014265421E+02  0.97197876881E+02  0.90037784376E+02 0.  0.
        -11    1    4    4    0    0  0.81609175671E+01  0.27275959662E+02  0.13920148052E+02  0.31691466877E+02  0.00000000000E+00 0.  1.
         11    1    4    4    0    0 -0.30917229158E+02 -0.44396664223E+02 -0.36934413473E+02  0.65506410003E+02  0.00000000000E+00 0. -1.
        -13    1    3    3    0    0  0.73695188281E+02  0.45526280346E+02  0.83895467581E+02  0.12059051562E+03  0.00000000000E+00 0.  1.
         13    1    3    3    0    0 -0.23331079710E+02 -0.10852412911E+01  0.50621442869E+01  0.23898584349E+02  0.00000000000E+00 0. -1.
         21    1    1    2  502  501 -0.27607796980E+02 -0.27320334495E+02  0.85542741626E+01  0.39771431171E+02  0.00000000000E+00 0. -1.
<scales pt_clust_5="13000.00000" pt_clust_6="13000.00000" pt_clust_7="13000.00000" pt_clust_8="13000.00000" pt_clust_9="38.84059"></scales>
<clustering>
<clus scale="   38.841">  2  9  1 -1</clus>
<clus scale="   90.038">  5  6 -1 -1</clus>
<clus scale="   91.935">  7  8 -1 -1</clus>
<clus scale="  105.466">  2  5  1 -1</clus>
<clus scale="   38.841">  2  5  1 -1</clus>
</clustering>
</event>
<event>
 9    1  0.1296032E-005  0.2128542E+03  0.7546771E-02  0.1139686E+00
         -1   -1    0    0    0  501 -0.00000000000E+00  0.00000000000E+00  0.58999468728E+03  0.58999468728E+03  0.00000000000E+00 0.  1.
          1   -1    0    0  502    0  0.00000000000E+00 -0.00000000000E+00 -0.12682249102E+03  0.12682249102E+03  0.00000000000E+00 0. -1.
         23    2    1    2    0    0  0.20937880136E+02  0.17187608920E+03  0.24044615413E+03  0.30834233198E+03  0.85327930889E+02 0.  0.
         23    2    1    2    0    0 -0.15696658102E+02 -0.21990089455E+03  0.25618560193E+03  0.34970925707E+03  0.89792612984E+02 0.  0.
        -13    1    4    4    0    0 -0.23314812514E+02 -0.19605076086E+03  0.17189024611E+03  0.26177421192E+03  0.00000000000E+00 0. -1.
         13    1    4    4    0    0  0.76181544118E+01 -0.23850133684E+02  0.84295355815E+02  0.87935045149E+02  0.00000000000E+00 0.  1.
        -13    1    3    3    0    0  0.32764925083E+02  0.10563677695E+03  0.20341356172E+03  0.23153778537E+03  0.00000000000E+00 0.  1.
         13    1    3    3    0    0 -0.11827044946E+02  0.66239312251E+02  0.37032592410E+02  0.76804546611E+02  0.00000000000E+00 0. -1.
         21    1    1    2  502  501 -0.52412220340E+01  0.48024805351E+02 -0.33459559807E+02  0.58765589250E+02  0.00000000000E+00 0. -1.
<scales pt_clust_5="13000.00000" pt_clust_6="13000.00000" pt_clust_7="13000.00000" pt_clust_8="13000.00000" pt_clust_9="48.30996"></scales>
<clustering>
<clus scale="   48.310">  2  9  1 -1</clus>
<clus scale="   85.328">  7  8 -1 -1</clus>
<clus scale="   89.793">  5  6 -1 -1</clus>
<clus scale="  211.010">  1  7  2 -1</clus>
<clus scale="   48.310">  2  5  1 -1</clus>
</clustering>
</event>
<event>
 9    1  0.1296032E-005  0.1690902E+03  0.7546771E-02  0.1178843E+00
         -2   -1    0    0    0  501 -0.00000000000E+00  0.00000000000E+00  0.20279612477E+03  0.20279612477E+03  0.00000000000E+00 0.  1.
          2   -1    0    0  502    0  0.00000000000E+00 -0.00000000000E+00 -0.28037490785E+03  0.28037490785E+03  0.00000000000E+00 0. -1.
         23    2    1    2    0    0 -0.79687769007E+02 -0.12102783423E+03  0.12525318386E+03  0.21239209722E+03  0.91783253954E+02 0.  0.
         23    2    1    2    0    0  0.77075118898E+02  0.10043133970E+03 -0.19073377629E+03  0.24674962528E+03  0.92081356493E+02 0.  0.
        -13    1    3    3    0    0 -0.35033341858E+02 -0.11544683752E+03  0.11404213775E+03  0.16601480813E+03  0.00000000000E+00 0.  1.
         13    1    3    3    0    0 -0.44654427150E+02 -0.55809967040E+01  0.11211046110E+02  0.46377289088E+02  0.00000000000E+00 0. -1.
        -13    1    4    4    0    0 -0.12371087920E+02  0.23449909228E+02 -0.54378301997E+01  0.27064959937E+02  0.00000000000E+00 0.  1.
         13    1    4    4    0    0  0.89446206818E+02  0.76981430469E+02 -0.18529594609E+03  0.21968466535E+03  0.00000000000E+00 0. -1.
         21    1    1    2  502  501  0.26126501095E+01  0.20596494529E+02 -0.12098190651E+02  0.24029310113E+02  0.00000000000E+00 0. -1.
<scales pt_clust_5="13000.00000" pt_clust_6="13000.00000" pt_clust_7="13000.00000" pt_clust_8="13000.00000" pt_clust_9="20.76154"></scales>
<clustering>
<clus scale="   20.762">  2  9  1 -1</clus>
<clus scale="   91.783">  5  6 -1 -1</clus>
<clus scale="   92.081">  7  8 -1 -1</clus>
<clus scale="  168.928">  1  5  2 -1</clus>
<clus scale="   20.762">  2  5  1 -1</clus>
</clustering>
</event>
<event>
 9    1  0.1296032E-005  0.1223355E+03  0.7546771E-02  0.1240709E+00
          1   -1    0    0  502    0  0.00000000000E+00  0.00000000000E+00  0.74716334669E+03  0.74716334669E+03  0.00000000000E+00 0. -1.
         -1   -1    0    0    0  501 -0.00000000000E+00 -0.00000000000E+00 -0.42319763281E+02  0.42319763281E+02  0.00000000000E+00 0.  1.
         23    2    1    2    0    0 -0.23891557377E+02 -0.64833786644E+02  0.85337943672E+02  0.14588119695E+03  0.96044430281E+02 0.  0.
         23    2    1    2    0    0  0.26165036018E+02  0.99947746526E+02  0.46065796310E+03  0.48090359325E+03  0.91587913441E+02 0.  0.
        -11    1    4    4    0    0  0.35800866501E+02 -0.61878137941E+00  0.94228583536E+02  0.10080233573E+03  0.00000000000E+00 0.  1.
         11    1    4    4    0    0 -0.96358304835E+01  0.10056652791E+03  0.36642937956E+03  0.38010125752E+03  0.00000000000E+00 0. -1.
        -11    1    3    3    0    0 -0.17359061751E+02 -0.25851265117E+02  0.99217439447E+02  0.10398906300E+03  0.00000000000E+00 0. -1.
         11    1    3    3    0    0 -0.65324956263E+01 -0.38982521528E+02 -0.13879495775E+02  0.41892133948E+02  0.00000000000E+00 0.  1.
         21    1    1    2  502  501 -0.22734786403E+01 -0.35113959882E+02  0.15884767664E+03  0.16269831977E+03  0.00000000000E+00 0. -1.
<scales pt_clust_5="13000.00000" pt_clust_6="13000.00000" pt_clust_7="13000.00000" pt_clust_8="13000.00000" pt_clust_9="35.18748"></scales>
<clustering>
<clus scale="   35.187">  1  9  2 -1</clus>
<clus scale="   91.588">  5  6 -1 -1</clus>
<clus scale="   96.044">  7  8 -1 -1</clus>
<clus scale="  118.869">  1  5  2 -1</clus>
<clus scale="   35.187">  1  5  2 -1</clus>
</clustering>
</event>
<event>
 9    1  0.1296032E-005  0.2087995E+03  0.7546771E-02  0.1142649E+00
          4   -1    0    0  502    0  0.00000000000E+00  0.00000000000E+00  0.72164810800E+02  0.72164810800E+02  0.00000000000E+00 0. -1.
         -4   -1    0    0    0  501 -0.00000000000E+00 -0.00000000000E+00 -0.13399290725E+04  0.13399290725E+04  0.00000000000E+00 0.  1.
         23    2    1    2    0    0  0.16182731023E+03 -0.71458929923E+02 -0.82359996064E+03  0.84719068060E+03  0.90114910677E+02 0.  0.
         23    2    1    2    0    0 -0.23037539944E+03  0.15022523512E+02 -0.38514818927E+03  0.45828796010E+03  0.91598175696E+02 0.  0.
        -13    1    3    3    0    0  0.79100129778E+02 -0.69654458709E+02 -0.59066898285E+03  0.59999868454E+03  0.00000000000E+00 0.  1.
         13    1    3    3    0    0  0.82727180449E+02 -0.18044712137E+01 -0.23293097780E+03  0.24719199607E+03  0.00000000000E+00 0. -1.
        -13    1    4    4    0    0 -0.18380521074E+03  0.47220244925E+02 -0.31937708142E+03  0.37150481446E+03  0.00000000000E+00 0. -1.
         13    1    4    4    0    0 -0.46570188703E+02 -0.32197721412E+02 -0.65771107854E+02  0.86783145646E+02  0.00000000000E+00 0.  1.
         21    1    1    2  502  501  0.68548089218E+02  0.56436406410E+02 -0.59016111781E+02  0.10661524260E+03  0.00000000000E+00 0.  1.
<scales pt_clust_5="13000.00000" pt_clust_6="13000.00000" pt_clust_7="13000.00000" pt_clust_8="13000.00000" pt_clust_9="88.79138"></scales>
<clustering>
<clus scale="   88.791">  1  9  2 -1</clus>
<clus scale="   90.115">  5  6 -1 -1</clus>
<clus scale="   91.598">  7  8 -1 -1</clus>
<clus scale="  208.153">  2  5  1 -1</clus>
<clus scale="   88.791">  1  5  2 -1</clus>
</clustering>
</event>
<event>
 9    1  0.1296032E-005  0.9160848E+02  0.7546771E-02  0.1300988E+00
         -2   -1    0    0    0  501 -0.00000000000E+00  0.00000000000E+00  0.89734518172E+02  0.89734518172E+02  0.00000000000E+00 0.  1.
          2   -1    0    0  502    0  0.00000000000E+00 -0.00000000000E+00 -0.24151507923E+03  0.24151507923E+03  0.00000000000E+00 0. -1.
         23    2    1    2    0    0  0.10611650233E+02 -0.16418918207E+02  0.29369841613E+02  0.94572742641E+02  0.87745245219E+02 0.  0.
         23    2    1    2    0    0  0.31240494461E+01 -0.36120937477E+02 -0.11618010752E+03  0.15199955477E+03  0.91058033469E+02 0.  0.
        -11    1    3    3    0    0  0.28227953980E+02  0.17604864673E+02  0.42589195303E+02  0.54042466659E+02  0.00000000000E+00 0.  1.
         11    1    3    3    0    0 -0.17616303746E+02 -0.34023782880E+02 -0.13219353691E+02  0.40530275981E+02  0.00000000000E+00 0. -1.
        -11    1    4    4    0    0 -0.43146281703E+02 -0.21816955161E+02 -0.70049626336E+02  0.85114812501E+02  0.00000000000E+00 0. -1.
         11    1    4    4    0    0  0.46270331149E+02 -0.14303982316E+02 -0.46130481183E+02  0.66884742273E+02  0.00000000000E+00 0.  1.
         21    1    1    2  502  501 -0.13735699680E+02  0.52539855684E+02 -0.64970295149E+02  0.84677299985E+02  0.00000000000E+00 0.  1.
<scales pt_clust_5="13000.00000" pt_clust_6="13000.00000" pt_clust_7="13000.00000" pt_clust_8="13000.00000" pt_clust_9="54.30567"></scales>
<clustering>
<clus scale="   54.306">  2  9  1 -1</clus>
<clus scale="   87.745">  5  6 -1 -1</clus>
<clus scale="   88.316">  1  5  2 -1</clus>
<clus scale="   91.058">  7  8 -1 -1</clus>
<clus scale="   54.306">  2  5  1 -1</clus>
</clustering>
</event>
<event>
 9    1  0.1296032E-005  0.9536687E+02  0.7546771E-02  0.1290630E+00
          2   -1    0    0  502    0  0.00000000000E+00  0.00000000000E+00  0.23623247533E+03  0.23623247533E+03  0.00000000000E+00 0. -1.
         -2   -1    0    0    0  501 -0.00000000000E+00 -0.00000000000E+00 -0.56277001335E+02  0.56277001335E+02  0.00000000000E+00 0.  1.
         23    2    1    2    0    0  0.77153087238E+01  0.22995378977E+02  0.46313321478E+02  0.10539313153E+03  0.91512157574E+02 0.  0.
         23    2    1    2    0    0  0.23633788884E+02 -0.26930461943E+02  0.93134897898E+02  0.13574428585E+03  0.92024975832E+02 0.  0.
        -13    1    3    3    0    0  0.35328742017E+02  0.23639335615E+02  0.60813705674E+02  0.74197338218E+02  0.00000000000E+00 0.  1.
         13    1    3    3    0    0 -0.27613433293E+02 -0.64395663827E+00 -0.14500384196E+02  0.31195793309E+02  0.00000000000E+00 0. -1.
        -13    1    4    4    0    0  0.53964526630E+01  0.27096126020E+02  0.68057864827E+02  0.73451989159E+02  0.00000000000E+00 0. -1.
         13    1    4    4    0    0  0.18237336221E+02 -0.54026587963E+02  0.25077033071E+02  0.62292296691E+02  0.00000000000E+00 0.  1.
         21    1    1    2  502  501 -0.31349097608E+02  0.39350829668E+01  0.40507254622E+02  0.51372059291E+02  0.00000000000E+00 0. -1.
<scales pt_clust_5="13000.00000" pt_clust_6="13000.00000" pt_clust_7="13000.00000" pt_clust_8="13000.00000" pt_clust_9="31.59511"></scales>
<clustering>
<clus scale="   31.595">  1  9  2 -1</clus>
<clus scale="   91.512">  5  6 -1 -1</clus>
<clus scale="   92.025">  7  8 -1 -1</clus>
<clus scale="   94.872">  2  5  1 -1</clus>
<clus scale="   31.595">  1  5  2 -1</clus>
</clustering>
</event>
<event>
 9    1  0.1296032E-005  0.1518044E+03  0.7546771E-02  0.1198864E+00
         -1   -1    0    0    0  501 -0.00000000000E+00  0.00000000000E+00  0.11662947833E+03  0.11662947833E+03  0.00000000000E+00 0.  1.
          1   -1    0    0  502    0  0.00000000000E+00 -0.00000000000E+00 -0.30869482686E+03  0.30869482686E+03  0.00000000000E+00 0. -1.
         23    2    1    2    0    0  0.13667997339E+03 -0.13443053105E+02 -0.19457313993E+02  0.16557500934E+03  0.90412199656E+02 0.  0.
         23    2    1    2    0    0 -0.97193531265E+02  0.57641547449E+01 -0.75697107060E+02  0.15482135649E+03  0.93593762659E+02 0.  0.
        -11    1    4    4    0    0  0.14596852155E+02 -0.15340681744E+02 -0.96137046365E+01  0.23255707386E+02  0.00000000000E+00 0.  1.
         11    1    4    4    0    0 -0.11179038342E+03  0.21104836488E+02 -0.66083402423E+02  0.13156564910E+03  0.00000000000E+00 0. -1.
        -13    1    3    3    0    0  0.10557672832E+03 -0.49270456777E+02 -0.80945538374E+01  0.11678846379E+03  0.00000000000E+00 0.  1.
         13    1    3    3    0    0  0.31103245074E+02  0.35827403671E+02 -0.11362760156E+02  0.48786545546E+02  0.00000000000E+00 0. -1.
         21    1    1    2  502  501 -0.39486442129E+02  0.76788983604E+01 -0.96910927486E+02  0.10492793936E+03  0.00000000000E+00 0. -1.
<scales pt_clust_5="13000.00000" pt_clust_6="13000.00000" pt_clust_7="13000.00000" pt_clust_8="13000.00000" pt_clust_9="40.22617"></scales>
<clustering>
<clus scale="   40.226">  2  9  1 -1</clus>
<clus scale="   90.412">  7  8 -1 -1</clus>
<clus scale="   93.594">  5  6 -1 -1</clus>
<clus scale="  149.864">  1  7  2 -1</clus>
<clus scale="   40.226">  2  5  1 -1</clus>
</clustering>
</event>
<event>
 9    1  0.1296032E-005  0.9854423E+02  0.7546771E-02  0.1288868E+00
         -1   -1    0    0    0  501 -0.00000000000E+00  0.00000000000E+00  0.10158611977E+03  0.10158611977E+03  0.00000000000E+00 0.  1.
          1   -1    0    0  502    0  0.00000000000E+00 -0.00000000000E+00 -0.17932955388E+03  0.17932955388E+03  0.00000000000E+00 0. -1.
         23    2    1    2    0    0  0.29715105955E+02  0.23126594567E+02  0.30375474705E+02  0.93838746552E+02  0.80406554414E+02 0.  0.
         23    2    1    2    0    0 -0.50723639040E+02  0.12903440726E+02 -0.51944726035E+02  0.11711221659E+03  0.90981483670E+02 0.  0.
        -11    1    4    4    0    0 -0.27467341497E+02 -0.39186021648E+02 -0.25715759784E+02  0.54325863479E+02  0.00000000000E+00 0.  1.
         11    1    4    4    0    0 -0.23256297544E+02  0.52089462374E+02 -0.26228966251E+02  0.62786353107E+02  0.00000000000E+00 0. -1.
        -13    1    3    3    0    0 -0.25807636187E+02 -0.53644047540E+01  0.80861359044E+01  0.27571661499E+02  0.00000000000E+00 0.  1.
         13    1    3    3    0    0  0.55522742143E+02  0.28490999321E+02  0.22289338801E+02  0.66267085054E+02  0.00000000000E+00 0. -1.
         21    1    1    2  502  501  0.21008533085E+02 -0.36030035293E+02 -0.56174182786E+02  0.69964710514E+02  0.00000000000E+00 0.  1.
<scales pt_clust_5="13000.00000" pt_clust_6="13000.00000" pt_clust_7="13000.00000" pt_clust_8="13000.00000" pt_clust_9="41.70758"></scales>
<clustering>
<clus scale="   41.708">  2  9  1 -1</clus>
<clus scale="   80.407">  7  8 -1 -1</clus>
<clus scale="   88.874">  1  7  2 -1</clus>
<clus scale="   90.981">  5  6 -1 -1</clus>
<clus scale="   41.708">  2  5  1 -1</clus>
</clustering>
</event>
<event>
 9    1  0.1296032E-005  0.9847347E+02  0.7546771E-02  0.1285397E+00
          1   -1    0    0  502    0  0.00000000000E+00  0.00000000000E+00  0.35760339860E+03  0.35760339860E+03  0.00000000000E+00 0. -1.
         -1   -1    0    0    0  501 -0.00000000000E+00 -0.00000000000E+00 -0.36867231214E+02  0.36867231214E+02  0.00000000000E+00 0.  1.
         23    2    1    2    0    0 -0.23269022689E+02 -0.10983876029E+02  0.87129934434E+02  0.13057389761E+03  0.93786056073E+02 0.  0.
         23    2    1    2    0    0  0.41118374418E+02 -0.42490352693E+01  0.19208552039E+03  0.21620385521E+03  0.90213551365E+02 0.  0.
        -11    1    3    3    0    0 -0.49668716267E+02 -0.21772106177E+02  0.20287132594E+02  0.57901413902E+02  0.00000000000E+00 0.  1.
         11    1    3    3    0    0  0.26399693578E+02  0.10788230147E+02  0.66842801841E+02  0.72672483710E+02  0.00000000000E+00 0. -1.
        -11    1    4    4    0    0 -0.24013796714E+02  0.17399749975E+02  0.45003486348E+02  0.53895524075E+02  0.00000000000E+00 0.  1.
         11    1    4    4    0    0  0.65132171132E+02 -0.21648785245E+02  0.14708203404E+03  0.16230833114E+03  0.00000000000E+00 0. -1.
         21    1    1    2  502  501 -0.17849351729E+02  0.15232911299E+02  0.41520712566E+02  0.47692876992E+02  0.00000000000E+00 0. -1.
<scales pt_clust_5="13000.00000" pt_clust_6="13000.00000" pt_clust_7="13000.00000" pt_clust_8="13000.00000" pt_clust_9="23.46574"></scales>
<clustering>
<clus scale="   23.466">  1  9  2 -1</clus>
<clus scale="   90.214">  7  8 -1 -1</clus>
<clus scale="   93.786">  5  6 -1 -1</clus>
<clus scale="   95.077">  1  7  2 -1</clus>
<clus scale="   23.466">  1  5  2 -1</clus>
</clustering>
</event>
<event>
 9    1  0.1296032E-005  0.9860548E+02  0.7546771E-02  0.1284358E+00
          1   -1    0    0  502    0  0.00000000000E+00  0.00000000000E+00  0.16137532851E+03  0.16137532851E+03  0.00000000000E+00 0. -1.
         -1   -1    0    0    0  501 -0.00000000000E+00 -0.00000000000E+00 -0.13454723997E+03  0.13454723997E+03  0.00000000000E+00 0.  1.
         23    2    1    2    0    0  0.85146686156E+01 -0.80698169486E+01 -0.38116374423E+02  0.99032842293E+02  0.90647803759E+02 0.  0.
         23    2    1    2    0    0 -0.11533939986E+02 -0.45148439170E+02  0.90521592356E+02  0.13776707121E+03  0.92812681767E+02 0.  0.
        -11    1    3    3    0    0  0.35515363751E+02 -0.10870317697E+02  0.14464058348E+02  0.39858673498E+02  0.00000000000E+00 0. -1.
         11    1    3    3    0    0 -0.27000695135E+02  0.28005007483E+01 -0.52580432770E+02  0.59174168795E+02  0.00000000000E+00 0.  1.
        -13    1    4    4    0    0 -0.45739399943E+02 -0.49122232154E+02  0.45510670902E+02  0.81094436091E+02  0.00000000000E+00 0.  1.
         13    1    4    4    0    0  0.34205459957E+02  0.39737929843E+01  0.45010921453E+02  0.56672635122E+02  0.00000000000E+00 0. -1.
         21    1    1    2  502  501  0.30192713702E+01  0.53218256119E+02 -0.25577129385E+02  0.59122654977E+02  0.00000000000E+00 0.  1.
<scales pt_clust_5="13000.00000" pt_clust_6="13000.00000" pt_clust_7="13000.00000" pt_clust_8="13000.00000" pt_clust_9="53.30383"></scales>
<clustering>
<clus scale="   53.304">  2  9  1 -1</clus>
<clus scale="   90.648">  5  6 -1 -1</clus>
<clus scale="   92.813">  7  8 -1 -1</clus>
<clus scale="   96.571">  2  5  1 -1</clus>
<clus scale="   98.605">  1  5  2 -1</clus>
</clustering>
</event>
<event>
 9    1  0.1296032E-005  0.1983286E+03  0.7546771E-02  0.1151217E+00
         -1   -1    0    0    0  501 -0.00000000000E+00  0.00000000000E+00  0.10257490264E+03  0.10257490264E+03  0.00000000000E+00 0.  1.
          1   -1    0    0  502    0  0.00000000000E+00 -0.00000000000E+00 -0.44242209059E+03  0.44242209059E+03  0.00000000000E+00 0. -1.
         23    2    1    2    0    0 -0.45935917997E+02 -0.17252677275E+03 -0.11843302433E+03  0.23309632122E+03  0.91825474879E+02 0.  0.
         23    2    1    2    0    0  0.63359227088E+02  0.16014637519E+03 -0.18205084116E+03  0.26710874085E+03  0.92430068294E+02 0.  0.
        -13    1    3    3    0    0 -0.44677290505E+02 -0.23972408980E+02 -0.43007847278E+02  0.66486176057E+02  0.00000000000E+00 0.  1.
         13    1    3    3    0    0 -0.12586274915E+01 -0.14855436377E+03 -0.75425177056E+02  0.16661014516E+03  0.00000000000E+00 0. -1.
        -13    1    4    4    0    0  0.18935015153E+02  0.48632157682E+02 -0.39567852117E+01  0.52338109527E+02  0.00000000000E+00 0.  1.
         13    1    4    4    0    0  0.44424211936E+02  0.11151421751E+03 -0.17809405595E+03  0.21477063132E+03  0.00000000000E+00 0. -1.
         21    1    1    2  502  501 -0.17423309091E+02  0.12380397555E+02 -0.39363322448E+02  0.44791931164E+02  0.00000000000E+00 0. -1.
<scales pt_clust_5="13000.00000" pt_clust_6="13000.00000" pt_clust_7="13000.00000" pt_clust_8="13000.00000" pt_clust_9="21.37395"></scales>
<clustering>
<clus scale="   21.374">  2  9  1 -1</clus>
<clus scale="   91.825">  5  6 -1 -1</clus>
<clus scale="   92.430">  7  8 -1 -1</clus>
<clus scale="  198.048">  1  5  2 -1</clus>
<clus scale="   21.374">  2  5  1 -1</clus>
</clustering>
</event>
<event>
 9    1  0.1296032E-005  0.1026084E+03  0.7546771E-02  0.1277114E+00
          1   -1    0    0  502    0  0.00000000000E+00  0.00000000000E+00  0.70887827047E+02  0.70887827047E+02  0.00000000000E+00 0. -1.
         -1   -1    0    0    0  501 -0.00000000000E+00 -0.00000000000E+00 -0.21911684505E+03  0.21911684505E+03  0.00000000000E+00 0.  1.
         23    2    1    2    0    0  0.19460696703E+02 -0.21394954813E+02 -0.65725135003E+02  0.11853009584E+03  0.94303379798E+02 0.  0.
         23    2    1    2    0    0 -0.59490280511E+02  0.71645180727E+01 -0.59037181361E+02  0.12294047489E+03  0.89657948833E+02 0.  0.
        -13    1    4    4    0    0 -0.27090704940E+02 -0.23248507120E+02 -0.68739172363E+02  0.77456266335E+02  0.00000000000E+00 0.  1.
         13    1    4    4    0    0 -0.32399575570E+02  0.30413025193E+02  0.97019910018E+01  0.45484208555E+02  0.00000000000E+00 0. -1.
        -13    1    3    3    0    0  0.53038987374E+02 -0.27816805231E+02 -0.23832409620E+02  0.64458456258E+02  0.00000000000E+00 0.  1.
         13    1    3    3    0    0 -0.33578290671E+02  0.64218504183E+01 -0.41892725383E+02  0.54071639583E+02  0.00000000000E+00 0. -1.
         21    1    1    2  502  501  0.40029583808E+02  0.14230436740E+02 -0.23466701643E+02  0.48534101368E+02  0.00000000000E+00 0. -1.
<scales pt_clust_5="13000.00000" pt_clust_6="13000.00000" pt_clust_7="13000.00000" pt_clust_8="13000.00000" pt_clust_9="42.48380"></scales>
<clustering>
<clus scale="   42.484">  1  9  2 -1</clus>
<clus scale="   89.658">  5  6 -1 -1</clus>
<clus scale="   94.303">  7  8 -1 -1</clus>
<clus scale="   98.356">  1  5  2 -1</clus>
<clus scale="   42.484">  1  5  2 -1</clus>
</clustering>
</event>
<event>
 9    1  0.1296032E-005  0.1164167E+03  0.7546771E-02  0.1250356E+00
          2   -1    0    0  502    0  0.00000000000E+00  0.00000000000E+00  0.13103590659E+03  0.13103590659E+03  0.00000000000E+00 0. -1.
         -2   -1    0    0    0  501 -0.00000000000E+00 -0.00000000000E+00 -0.13086803976E+03  0.13086803976E+03  0.00000000000E+00 0.  1.
         23    2    1    2    0    0 -0.49941390022E+02  0.37422469961E+02 -0.17588070711E+02  0.11498982784E+03  0.94967028912E+02 0.  0.
         23    2    1    2    0    0  0.44984357710E+02 -0.59825708430E+02  0.50139379432E+00  0.11820529507E+03  0.91485149397E+02 0.  0.
        -13    1    3    3    0    0  0.17076456625E+02  0.43068147325E+02 -0.54734994252E+01  0.46652222678E+02  0.00000000000E+00 0.  1.
         13    1    3    3    0    0 -0.67017846646E+02 -0.56456773642E+01 -0.12114571286E+02  0.68337605163E+02  0.00000000000E+00 0. -1.
        -13    1    4    4    0    0  0.33578521874E+02  0.14303146138E+02  0.18726261178E+02  0.41021579423E+02  0.00000000000E+00 0.  1.
         13    1    4    4    0    0  0.11405835836E+02 -0.74128854567E+02 -0.18224867384E+02  0.77183715651E+02  0.00000000000E+00 0. -1.
         21    1    1    2  502  501  0.49570323117E+01  0.22403238469E+02  0.17254543750E+02  0.28708823439E+02  0.00000000000E+00 0. -1.
<scales pt_clust_5="13000.00000" pt_clust_6="13000.00000" pt_clust_7="13000.00000" pt_clust_8="13000.00000" pt_clust_9="22.94509"></scales>
<clustering>
<clus scale="   22.945">  1  9  2 -1</clus>
<clus scale="   91.485">  7  8 -1 -1</clus>
<clus scale="   94.967">  5  6 -1 -1</clus>
<clus scale="  113.594">  1  7  2 -1</clus>
<clus scale="   22.945">  1  5  2 -1</clus>
</clustering>
</event>
<event>
 9    1  0.1296032E-005  0.9474183E+02  0.7546771E-02  0.1296954E+00
          4   -1    0    0  502    0  0.00000000000E+00  0.00000000000E+00  0.98224830252E+02  0.98224830252E+02  0.00000000000E+00 0. -1.
         -4   -1    0    0    0  501 -0.00000000000E+00 -0.00000000000E+00 -0.12200359909E+03  0.12200359909E+03  0.00000000000E+00 0.  1.
         23    2    1    2    0    0  0.36269147967E+02  0.12944221696E+00 -0.28395479909E+02  0.93728099920E+02  0.81628338130E+02 0.  0.
         23    2    1    2    0    0 -0.10865359103E+02  0.20225938412E+02  0.11220126521E+00  0.93637210001E+02  0.90778686345E+02 0.  0.
        -11    1    3    3    0    0 -0.13060198758E+02 -0.25857112406E+02  0.40019685367E+01  0.29243371997E+02  0.00000000000E+00 0. -1.
         11    1    3    3    0    0  0.49329346725E+02  0.25986554623E+02 -0.32397448446E+02  0.64484727923E+02  0.00000000000E+00 0.  1.
        -13    1    4    4    0    0 -0.31758184045E+02  0.45393492622E+02 -0.15306748101E+02  0.57475629303E+02  0.00000000000E+00 0. -1.
         13    1    4    4    0    0  0.20892824942E+02 -0.25167554211E+02  0.15418949366E+02  0.36161580698E+02  0.00000000000E+00 0.  1.
         21    1    1    2  502  501 -0.25403788864E+02 -0.20355380629E+02  0.45045098101E+01  0.32863119417E+02  0.00000000000E+00 0.  1.
<scales pt_clust_5="13000.00000" pt_clust_6="13000.00000" pt_clust_7="13000.00000" pt_clust_8="13000.00000" pt_clust_9="32.55294"></scales>
<clustering>
<clus scale="   32.553">  1  9  2 -1</clus>
<clus scale="   81.628">  5  6 -1 -1</clus>
<clus scale="   86.014">  2  5  1 -1</clus>
<clus scale="   90.779">  7  8 -1 -1</clus>
<clus scale="   32.553">  1  5  2 -1</clus>
</clustering>
</event>
<event>
 9    1  0.1296032E-005  0.9768002E+02  0.7546771E-02  0.1285717E+00
         -1   -1    0    0    0  501 -0.00000000000E+00  0.00000000000E+00  0.25026391649E+03  0.25026391649E+03  0.00000000000E+00 0.  1.
          1   -1    0    0  502    0  0.00000000000E+00 -0.00000000000E+00 -0.66050452352E+02  0.66050452352E+02  0.00000000000E+00 0. -1.
         23    2    1    2    0    0  0.30241472947E+02  0.84806564207E+01  0.15434095000E+03  0.18199653034E+03  0.91187389418E+02 0.  0.
         23    2    1    2    0    0 -0.35795746353E+02 -0.29590548950E+02  0.41396785903E+02  0.10963411198E+03  0.90271859306E+02 0.  0.
        -11    1    3    3    0    0  0.51273192989E+00  0.36259820202E+02  0.12914397001E+03  0.13413874326E+03  0.00000000000E+00 0.  1.
         11    1    3    3    0    0  0.29728741017E+02 -0.27779163782E+02  0.25196979991E+02  0.47857787073E+02  0.00000000000E+00 0. -1.
        -13    1    4    4    0    0 -0.62975400691E+02 -0.35583495104E+02  0.21634932471E+02  0.75499380919E+02  0.00000000000E+00 0. -1.
         13    1    4    4    0    0  0.27179654339E+02  0.59929461544E+01  0.19761853432E+02  0.34134731062E+02  0.00000000000E+00 0.  1.
         21    1    1    2  502  501  0.55542734058E+01  0.21109892529E+02 -0.11524271761E+02  0.24683726527E+02  0.00000000000E+00 0.  1.
<scales pt_clust_5="13000.00000" pt_clust_6="13000.00000" pt_clust_7="13000.00000" pt_clust_8="13000.00000" pt_clust_9="21.82836"></scales>
<clustering>
<clus scale="   21.828">  2  9  1 -1</clus>
<clus scale="   90.272">  7  8 -1 -1</clus>
<clus scale="   91.187">  5  6 -1 -1</clus>
<clus scale="   96.826">  2  7  1 -1</clus>
<clus scale="   21.828">  2  5  1 -1</clus>
</clustering>
</event>
<event>
 9    1  0.1296032E-005  0.1126302E+03  0.7546771E-02  0.1256654E+00
         -1   -1    0    0    0  501 -0.00000000000E+00  0.00000000000E+00  0.65462181502E+02  0.65462181502E+02  0.00000000000E+00 0.  1.
          1   -1    0    0  502    0  0.00000000000E+00 -0.00000000000E+00 -0.36340366649E+03  0.36340366649E+03  0.00000000000E+00 0. -1.
         23    2    1    2    0    0  0.69905243711E+02  0.52188666661E+01 -0.12717088434E+02  0.11438191936E+03  0.89484744342E+02 0.  0.
         23    2    1    2    0    0 -0.44214130654E+02 -0.16039256002E+02 -0.24147431082E+03  0.26260730464E+03  0.91872773887E+02 0.  0.
        -11    1    4    4    0    0  0.17549628012E+02 -0.20854197514E+02 -0.23460342096E+02  0.35962127976E+02  0.00000000000E+00 0.  1.
         11    1    4    4    0    0 -0.61763758666E+02  0.48149415116E+01 -0.21801396873E+03  0.22664517667E+03  0.00000000000E+00 0. -1.
        -11    1    3    3    0    0  0.86789955530E+02 -0.11461845943E+02 -0.19516105379E+02  0.89692522891E+02  0.00000000000E+00 0.  1.
         11    1    3    3    0    0 -0.16884711820E+02  0.16680712609E+02  0.67990169454E+01  0.24689396465E+02  0.00000000000E+00 0. -1.
         21    1    1    2  502  501 -0.25691113056E+02  0.10820389336E+02 -0.43750085735E+02  0.51876623996E+02  0.00000000000E+00 0. -1.
<scales pt_clust_5="13000.00000" pt_clust_6="13000.00000" pt_clust_7="13000.00000" pt_clust_8="13000.00000" pt_clust_9="27.87677"></scales>
<clustering>
<clus scale="   27.877">  2  9  1 -1</clus>
<clus scale="   89.485">  7  8 -1 -1</clus>
<clus scale="   91.873">  5  6 -1 -1</clus>
<clus scale="  110.691">  1  7  2 -1</clus>
<clus scale="   27.877">  2  5  1 -1</clus>
</clustering>
</event>
<event>
 9    1  0.1296032E-005  0.1555395E+03  0.7546771E-02  0.1193895E+00
          1   -1    0    0  502    0  0.00000000000E+00  0.00000000000E+00  0.28800149465E+03  0.28800149465E+03  0.00000000000E+00 0. -1.
         -1   -1    0    0    0  501 -0.00000000000E+00 -0.00000000000E+00 -0.57356931212E+03  0.57356931212E+03  0.00000000000E+00 0.  1.
         23    2    1    2    0    0  0.10719312968E+03 -0.92006005650E+02 -0.48864112671E+03  0.51688301349E+03  0.91882679524E+02 0.  0.
         23    2    1    2    0    0 -0.42303717848E+02  0.53518758846E+02 -0.13313418527E+02  0.11552601659E+03  0.92277577477E+02 0.  0.
        -11    1    3    3    0    0  0.92288678298E+02 -0.11101087399E+03 -0.41776721964E+03  0.44200685978E+03  0.00000000000E+00 0.  1.
         11    1    3    3    0    0  0.14904451387E+02  0.19004868335E+02 -0.70873907074E+02  0.74876153717E+02  0.00000000000E+00 0. -1.
        -13    1    4    4    0    0 -0.67208840865E+02  0.17223632483E+02 -0.16749686006E+02  0.71373901307E+02  0.00000000000E+00 0.  1.
         13    1    4    4    0    0  0.24905123017E+02  0.36295126363E+02  0.34362674787E+01  0.44152115288E+02  0.00000000000E+00 0. -1.
         21    1    1    2  502  501 -0.64889411836E+02  0.38487246804E+02  0.21638672777E+03  0.22916177668E+03  0.00000000000E+00 0. -1.
<scales pt_clust_5="13000.00000" pt_clust_6="13000.00000" pt_clust_7="13000.00000" pt_clust_8="13000.00000" pt_clust_9="75.44471"></scales>
<clustering>
<clus scale="   75.445">  1  9  2 -1</clus>
<clus scale="   91.883">  5  6 -1 -1</clus>
<clus scale="   92.278">  7  8 -1 -1</clus>
<clus scale="  155.306">  2  5  1 -1</clus>
<clus scale="   75.445">  1  5  2 -1</clus>
</clustering>
</event>
<event>
 9    1  0.1296032E-005  0.1121724E+03  0.7546771E-02  0.1257618E+00
          1   -1    0    0  502    0  0.00000000000E+00  0.00000000000E+00  0.28688678932E+03  0.28688678932E+03  0.00000000000E+00 0. -1.
         -1   -1    0    0    0  501 -0.00000000000E+00 -0.00000000000E+00 -0.55260857241E+02  0.55260857241E+02  0.00000000000E+00 0.  1.
         23    2    1    2    0    0  0.58635710480E+02  0.37897836216E+02  0.63109271669E+02  0.13248454767E+03  0.93246890933E+02 0.  0.
         23    2    1    2    0    0 -0.46232443968E+02 -0.21603878998E+02  0.13482953599E+03  0.17024030835E+03  0.90546078591E+02 0.  0.
        -13    1    4    4    0    0 -0.46581675843E+02 -0.48218525003E+02  0.12504070860E+03  0.14188043376E+03  0.00000000000E+00 0.  1.
         13    1    4    4    0    0  0.34923187547E+00  0.26614646005E+02  0.97888273933E+01  0.28359874587E+02  0.00000000000E+00 0. -1.
        -13    1    3    3    0    0  0.29830363578E+02  0.65642299737E+02  0.57243443157E+02  0.92062880090E+02  0.00000000000E+00 0. -1.
         13    1    3    3    0    0  0.28805346902E+02 -0.27744463521E+02  0.58658285119E+01  0.40421667585E+02  0.00000000000E+00 0.  1.
         21    1    1    2  502  501 -0.12403266512E+02 -0.16293957218E+02  0.33687124416E+02  0.39422790533E+02  0.00000000000E+00 0. -1.
<scales pt_clust_5="13000.00000" pt_clust_6="13000.00000" pt_clust_7="13000.00000" pt_clust_8="13000.00000" pt_clust_9="20.47765"></scales>
<clustering>
<clus scale="   20.478">  1  9  2 -1</clus>
<clus scale="   90.546">  5  6 -1 -1</clus>
<clus scale="   93.247">  7  8 -1 -1</clus>
<clus scale="  109.938">  1  5  2 -1</clus>
<clus scale="   20.478">  1  5  2 -1</clus>
</clustering>
</event>
<event>
 9    1  0.1296032E-005  0.1522155E+03  0.7546771E-02  0.1197784E+00
         -2   -1    0    0    0  501 -0.00000000000E+00  0.00000000000E+00  0.68245843801E+02  0.68245843801E+02  0.00000000000E+00 0.  1.
          2   -1    0    0  502    0  0.00000000000E+00 -0.00000000000E+00 -0.89951603475E+03  0.89951603475E+03  0.00000000000E+00 0. -1.
         23    2    1    2    0    0 -0.53409977585E+02  0.10513856741E+03 -0.93866998257E+02  0.17578810598E+03  0.90463809213E+02 0.  0.
         23    2    1    2    0    0  0.11056947312E+03 -0.85910025670E+02 -0.24762642143E+03  0.29849810913E+03  0.90421986620E+02 0.  0.
        -11    1    3    3    0    0  0.13714310465E+02  0.19585776604E+02 -0.55575669234E+02  0.60500743528E+02  0.00000000000E+00 0. -1.
         11    1    3    3    0    0 -0.67124288051E+02  0.85552790810E+02 -0.38291329023E+02  0.11528736245E+03  0.00000000000E+00 0.  1.
        -13    1    4    4    0    0  0.30563659937E+02 -0.12876592032E+02 -0.14683130167E+03  0.15053031284E+03  0.00000000000E+00 0. -1.
         13    1    4    4    0    0  0.80005813188E+02 -0.73033433638E+02 -0.10079511976E+03  0.14796779629E+03  0.00000000000E+00 0.  1.
         21    1    1    2  502  501 -0.57159495540E+02 -0.19228541744E+02 -0.48977677126E+03  0.49347566344E+03  0.00000000000E+00 0. -1.
<scales pt_clust_5="13000.00000" pt_clust_6="13000.00000" pt_clust_7="13000.00000" pt_clust_8="13000.00000" pt_clust_9="60.30709"></scales>
<clustering>
<clus scale="   60.307">  2  9  1 -1</clus>
<clus scale="   90.422">  7  8 -1 -1</clus>
<clus scale="   90.464">  5  6 -1 -1</clus>
<clus scale="  152.191">  2  7  1 -1</clus>
<clus scale="   60.307">  2  5  1 -1</clus>
</clustering>
</event>
<event>
 9    1  0.1296032E-005  0.1420133E+03  0.7546771E-02  0.1211346E+00
          1   -1    0    0  502    0  0.00000000000E+00  0.00000000000E+00  0.85635871503E+03  0.85635871503E+03  0.00000000000E+00 0. -1.
         -1   -1    0    0    0  501 -0.00000000000E+00 -0.00000000000E+00 -0.70242768495E+02  0.70242768495E+02  0.00000000000E+00 0.  1.
         23    2    1    2    0    0 -0.41215283998E+02  0.10796740157E+03  0.32831396513E+02  0.15209887646E+03  0.93276514654E+02 0.  0.
         23    2    1    2    0    0 -0.33300974466E+01 -0.75162239386E+02  0.39794442390E+03  0.41488186947E+03  0.90037488445E+02 0.  0.
        -11    1    4    4    0    0 -0.45560053218E+02 -0.25891956785E+02  0.18309761567E+03  0.19044907125E+03  0.00000000000E+00 0.  1.
         11    1    4    4    0    0  0.42229955771E+02 -0.49270282601E+02  0.21484680822E+03  0.22443279822E+03  0.00000000000E+00 0. -1.
        -13    1    3    3    0    0 -0.48042561809E+02  0.74042355625E+02 -0.18510882225E+02  0.90183207596E+02  0.00000000000E+00 0.  1.
         13    1    3    3    0    0  0.68272778107E+01  0.33925045949E+02  0.51342278738E+02  0.61915668864E+02  0.00000000000E+00 0. -1.
         21    1    1    2  502  501  0.44545381444E+02 -0.32805162188E+02  0.35534012612E+03  0.35962073759E+03  0.00000000000E+00 0. -1.
<scales pt_clust_5="13000.00000" pt_clust_6="13000.00000" pt_clust_7="13000.00000" pt_clust_8="13000.00000" pt_clust_9="55.32151"></scales>
<clustering>
<clus scale="   55.322">  1  9  2 -1</clus>
<clus scale="   90.037">  5  6 -1 -1</clus>
<clus scale="   93.277">  7  8 -1 -1</clus>
<clus scale="  139.907">  1  5  2 -1</clus>
<clus scale="   55.322">  1  5  2 -1</clus>
</clustering>
</event>
<event>
 9    1  0.1296032E-005  0.3139458E+03  0.7546771E-02  0.1079167E+00
          2   -1    0    0  502    0  0.00000000000E+00  0.00000000000E+00  0.80830061056E+03  0.80830061056E+03  0.00000000000E+00 0. -1.
         -2   -1    0    0    0  501 -0.00000000000E+00 -0.00000000000E+00 -0.22109629272E+03  0.22109629272E+03  0.00000000000E+00 0.  1.
         23    2    1    2    0    0  0.25699674240E+03 -0.22581159241E+03  0.42742167022E+02  0.36085977116E+03  0.10655834423E+03 0.  0.
         23    2    1    2    0    0 -0.21761533453E+03  0.18235645813E+03  0.53077869072E+03  0.60831686094E+03  0.87824103401E+02 0.  0.
        -11    1    3    3    0    0  0.12028957806E+03 -0.16308569727E+03 -0.60321895100E+01  0.20273853741E+03  0.00000000000E+00 0.  1.
         11    1    3    3    0    0  0.13670716435E+03 -0.62725895144E+02  0.48774356532E+02  0.15812123374E+03  0.00000000000E+00 0. -1.
        -13    1    4    4    0    0 -0.11205873028E+03  0.71989824739E+02  0.16577784190E+03  0.21265461849E+03  0.00000000000E+00 0.  1.
         13    1    4    4    0    0 -0.10555660425E+03  0.11036663340E+03  0.36500084882E+03  0.39566224246E+03  0.00000000000E+00 0. -1.
         21    1    1    2  502  501 -0.39381407873E+02  0.43455134279E+02  0.13683460099E+02  0.60220271184E+02  0.00000000000E+00 0.  1.
<scales pt_clust_5="13000.00000" pt_clust_6="13000.00000" pt_clust_7="13000.00000" pt_clust_8="13000.00000" pt_clust_9="58.64507"></scales>
<clustering>
<clus scale="   58.645">  2  9  1 -1</clus>
<clus scale="   87.824">  7  8 -1 -1</clus>
<clus scale="  106.558">  5  6 -1 -1</clus>
<clus scale="  308.092">  1  7  2 -1</clus>
<clus scale="  308.092">  1  5  2 -1</clus>
</clustering>
</event>
<event>
 9    1  0.1296032E-005  0.1213970E+03  0.7546771E-02  0.1243304E+00
         -1   -1    0    0    0  501 -0.00000000000E+00  0.00000000000E+00  0.64566368544E+02  0.64566368544E+02  0.00000000000E+00 0.  1.
          1   -1    0    0  502    0  0.00000000000E+00 -0.00000000000E+00 -0.41262268388E+03  0.41262268388E+03  0.00000000000E+00 0. -1.
         23    2    1    2    0    0  0.43376713866E+02  0.65310898466E+02 -0.22512289631E+02  0.12340705936E+03  0.92603705932E+02 0.  0.
         23    2    1    2    0    0 -0.61029306914E+02 -0.53448679454E+02 -0.27709720419E+03  0.30087244008E+03  0.84616942710E+02 0.  0.
        -11    1    3    3    0    0  0.19425282272E+02  0.80745735037E+02 -0.37600618270E+02  0.91164805776E+02  0.00000000000E+00 0. -1.
         11    1    3    3    0    0  0.23951431594E+02 -0.15434836570E+02  0.15088328639E+02  0.32242253589E+02  0.00000000000E+00 0.  1.
        -13    1    4    4    0    0 -0.13574151402E+02  0.17176485502E+02 -0.12218235799E+03  0.12412823146E+03  0.00000000000E+00 0. -1.
         13    1    4    4    0    0 -0.47455155512E+02 -0.70625164956E+02 -0.15491484620E+03  0.17674420863E+03  0.00000000000E+00 0.  1.
         21    1    1    2  502  501  0.17652593048E+02 -0.11862219013E+02 -0.48446821510E+02  0.52909552972E+02  0.00000000000E+00 0. -1.
<scales pt_clust_5="13000.00000" pt_clust_6="13000.00000" pt_clust_7="13000.00000" pt_clust_8="13000.00000" pt_clust_9="21.26796"></scales>
<clustering>
<clus scale="   21.268">  2  9  1 -1</clus>
<clus scale="   84.617">  7  8 -1 -1</clus>
<clus scale="   92.604">  5  6 -1 -1</clus>
<clus scale="  115.420">  2  7  1 -1</clus>
<clus scale="   21.268">  2  5  1 -1</clus>
</clustering>
</event>
<event>
 9    1  0.1296032E-005  0.1092799E+03  0.7546771E-02  0.1268930E+00
          1   -1    0    0  502    0  0.00000000000E+00  0.00000000000E+00  0.26895463177E+03  0.26895463177E+03  0.00000000000E+00 0. -1.
         -1   -1    0    0    0  501 -0.00000000000E+00 -0.00000000000E+00 -0.10238133981E+03  0.10238133981E+03  0.00000000000E+00 0.  1.
         23    2    1    2    0    0  0.10495378488E+02  0.48024568860E+02 -0.12919424517E+02  0.10185689317E+03  0.88268924159E+02 0.  0.
         23    2    1    2    0    0  0.26239226429E+01 -0.17880364586E+02  0.20031876992E+02  0.10666461823E+03  0.10319628035E+03 0.  0.
        -11    1    4    4    0    0  0.28833794077E+02 -0.11055250891E+02  0.54613436705E+02  0.62739411233E+02  0.00000000000E+00 0. -1.
         11    1    4    4    0    0 -0.26209871434E+02 -0.68251136950E+01 -0.34581559713E+02  0.43925206997E+02  0.00000000000E+00 0.  1.
        -13    1    3    3    0    0 -0.11836064324E+02 -0.22398119030E+02  0.50332217578E+01  0.25828307649E+02  0.00000000000E+00 0.  1.
         13    1    3    3    0    0  0.22331442812E+02  0.70422687890E+02 -0.17952646275E+02  0.76028585519E+02  0.00000000000E+00 0. -1.
         21    1    1    2  502  501 -0.13119301131E+02 -0.30144204275E+02  0.15946083949E+03  0.16281446018E+03  0.00000000000E+00 0. -1.
<scales pt_clust_5="13000.00000" pt_clust_6="13000.00000" pt_clust_7="13000.00000" pt_clust_8="13000.00000" pt_clust_9="32.87536"></scales>
<clustering>
<clus scale="   32.875">  1  9  2 -1</clus>
<clus scale="   88.269">  7  8 -1 -1</clus>
<clus scale="   95.310">  2  7  1 -1</clus>
<clus scale="  103.196">  5  6 -1 -1</clus>
<clus scale="   32.875">  1  5  2 -1</clus>
</clustering>
</event>
<event>
 9    1  0.1296032E-005  0.1011154E+03  0.7546771E-02  0.1278079E+00
          1   -1    0    0  502    0  0.00000000000E+00  0.00000000000E+00  0.41185187471E+02  0.41185187471E+02  0.00000000000E+00 0. -1.
         -1   -1    0    0    0  501 -0.00000000000E+00 -0.00000000000E+00 -0.51094821557E+03  0.51094821557E+03  0.00000000000E+00 0.  1.
         23    2    1    2    0    0  0.34465530827E+02 -0.33957210510E+02 -0.30519821926E+03  0.32243195145E+03  0.92062181806E+02 0.  0.
         23    2    1    2    0    0 -0.92801132906E+01  0.34095038816E+02 -0.17631480964E+03  0.20190960437E+03  0.91825835498E+02 0.  0.
        -11    1    3    3    0    0 -0.25672806655E+02  0.60917766258E+01 -0.42905893936E+02  0.50369817138E+02  0.00000000000E+00 0. -1.
         11    1    3    3    0    0  0.60138337482E+02 -0.40048987136E+02 -0.26229232532E+03  0.27206213431E+03  0.00000000000E+00 0.  1.
        -13    1    4    4    0    0 -0.57403202795E+01  0.65918512681E+02 -0.11262450718E+03  0.13062343284E+03  0.00000000000E+00 0. -1.
         13    1    4    4    0    0 -0.35397930110E+01 -0.31823473865E+02 -0.63690302463E+02  0.71286171529E+02  0.00000000000E+00 0.  1.
         21    1    1    2  502  501 -0.25185417537E+02 -0.13782830520E+00  0.11750000795E+02  0.27791847218E+02  0.00000000000E+00 0. -1.
<scales pt_clust_5="13000.00000" pt_clust_6="13000.00000" pt_clust_7="13000.00000" pt_clust_8="13000.00000" pt_clust_9="25.18579"></scales>
<clustering>
<clus scale="   25.186">  1  9  2 -1</clus>
<clus scale="   91.826">  7  8 -1 -1</clus>
<clus scale="   92.062">  5  6 -1 -1</clus>
<clus scale="  100.900">  1  7  2 -1</clus>
<clus scale="   25.186">  1  5  2 -1</clus>
</clustering>
</event>
<event>
 9    1  0.1296032E-005  0.1005045E+03  0.7546771E-02  0.1283422E+00
         -2   -1    0    0    0  501 -0.00000000000E+00  0.00000000000E+00  0.38603237928E+02  0.38603237928E+02  0.00000000000E+00 0.  1.
          2   -1    0    0  502    0  0.00000000000E+00 -0.00000000000E+00 -0.37863909659E+03  0.37863909659E+03  0.00000000000E+00 0. -1.
         23    2    1    2    0    0  0.67478849049E+01 -0.28798838437E+02 -0.11065665374E+03  0.14515968990E+03  0.89171371584E+02 0.  0.
         23    2    1    2    0    0 -0.35662212291E+02 -0.12463744365E+01 -0.17818379577E+03  0.20605444561E+03  0.97137133208E+02 0.  0.
        -11    1    3    3    0    0  0.25410847573E+02 -0.55624005248E+02 -0.75528116596E+02  0.97181467012E+02  0.00000000000E+00 0.  1.
         11    1    3    3    0    0 -0.18662962668E+02  0.26825166811E+02 -0.35128537141E+02  0.47978222889E+02  0.00000000000E+00 0. -1.
        -13    1    4    4    0    0 -0.25424835977E+02 -0.47449860891E+02 -0.72882382580E+02  0.90607688822E+02  0.00000000000E+00 0.  1.
         13    1    4    4    0    0 -0.10237376314E+02  0.46203486454E+02 -0.10530141319E+03  0.11544675679E+03  0.00000000000E+00 0. -1.
         21    1    1    2  502  501  0.28914327386E+02  0.30045212873E+02 -0.51195409158E+02  0.66028199003E+02  0.00000000000E+00 0. -1.
<scales pt_clust_5="13000.00000" pt_clust_6="13000.00000" pt_clust_7="13000.00000" pt_clust_8="13000.00000" pt_clust_9="41.69836"></scales>
<clustering>
<clus scale="   41.698">  1  9  2 -1</clus>
<clus scale="   89.171">  5  6 -1 -1</clus>
<clus scale="   92.828">  1  5  2 -1</clus>
<clus scale="   97.137">  7  8 -1 -1</clus>
<clus scale="  100.505">  2  5  1 -1</clus>
</clustering>
</event>
<event>
 9    1  0.1296032E-005  0.2835944E+03  0.7546771E-02  0.1094103E+00
         -1   -1    0    0    0  501 -0.00000000000E+00  0.00000000000E+00  0.22174662018E+03  0.22174662018E+03  0.00000000000E+00 0.  1.
          1   -1    0    0  502    0  0.00000000000E+00 -0.00000000000E+00 -0.46413405363E+03  0.46413405363E+03  0.00000000000E+00 0. -1.
         23    2    1    2    0    0 -0.18273610668E+02  0.25965254631E+03  0.20269735443E+02  0.27800104149E+03  0.95500509134E+02 0.  0.
         23    2    1    2    0    0  0.42043174201E+02 -0.26688327488E+03 -0.25568868578E+03  0.38207584687E+03  0.87240689015E+02 0.  0.
        -11    1    4    4    0    0  0.52802044988E+02 -0.10001876917E+03 -0.74022598862E+02  0.13517083740E+03  0.00000000000E+00 0.  1.
         11    1    4    4    0    0 -0.10758870786E+02 -0.16686450571E+03 -0.18166608692E+03  0.24690500947E+03  0.00000000000E+00 0. -1.
        -13    1    3    3    0    0 -0.25338091889E+02  0.37849688051E+02  0.32175916735E+02  0.55766543768E+02  0.00000000000E+00 0. -1.
         13    1    3    3    0    0  0.70644812205E+01  0.22180285825E+03 -0.11906181292E+02  0.22223449772E+03  0.00000000000E+00 0.  1.
         21    1    1    2  502  501 -0.23769563533E+02  0.72307285794E+01 -0.69684831188E+01  0.25803785446E+02  0.00000000000E+00 0. -1.
<scales pt_clust_5="13000.00000" pt_clust_6="13000.00000" pt_clust_7="13000.00000" pt_clust_8="13000.00000" pt_clust_9="24.84503"></scales>
<clustering>
<clus scale="   24.845">  1  9  2 -1</clus>
<clus scale="   87.241">  5  6 -1 -1</clus>
<clus scale="   95.501">  7  8 -1 -1</clus>
<clus scale="  280.921">  2  5  1 -1</clus>
<clus scale="  280.921">  2  5  1 -1</clus>
</clustering>
</event>
<event>
 9    1  0.1296032E-005  0.9836085E+02  0.7546771E-02  0.1283975E+00
          2   -1    0    0  502    0  0.00000000000E+00  0.00000000000E+00  0.36257472422E+02  0.36257472422E+02  0.00000000000E+00 0. -1.
         -2   -1    0    0    0  501 -0.00000000000E+00 -0.00000000000E+00 -0.34165918031E+03  0.34165918031E+03  0.00000000000E+00 0.  1.
         23    2    1    2    0    0 -0.23000164541E+02 -0.83510196257E+01 -0.14570276435E+03  0.17345898414E+03  0.90884413086E+02 0.  0.
         23    2    1    2    0    0  0.46906482195E+02  0.76213054055E+01 -0.11968232082E+03  0.15783820270E+03  0.91272876287E+02 0.  0.
        -11    1    4    4    0    0  0.28353640023E+02  0.49501178395E+02 -0.63899101379E+02  0.85658570629E+02  0.00000000000E+00 0. -1.
         11    1    4    4    0    0  0.18552842172E+02 -0.41879872990E+02 -0.55783219441E+02  0.72179632068E+02  0.00000000000E+00 0.  1.
        -13    1    3    3    0    0 -0.28235280910E+01  0.38999453804E+02 -0.40251077519E+02  0.56116654830E+02  0.00000000000E+00 0. -1.
         13    1    3    3    0    0 -0.20176636450E+02 -0.47350473429E+02 -0.10545168683E+03  0.11734232931E+03  0.00000000000E+00 0.  1.
         21    1    1    2  502  501 -0.23906317654E+02  0.72971422025E+00 -0.40016622718E+02  0.46619465896E+02  0.00000000000E+00 0.  1.
<scales pt_clust_5="13000.00000" pt_clust_6="13000.00000" pt_clust_7="13000.00000" pt_clust_8="13000.00000" pt_clust_9="23.91745"></scales>
<clustering>
<clus scale="   23.917">  2  9  1 -1</clus>
<clus scale="   90.884">  7  8 -1 -1</clus>
<clus scale="   91.273">  5  6 -1 -1</clus>
<clus scale="   98.000">  2  7  1 -1</clus>
<clus scale="   98.361">  1  5  2 -1</clus>
</clustering>
</event>
<event>
 9    1  0.1454452E-005  0.9710544E+02  0.7546771E-02  0.1287462E+00
         -3   -1    0    0    0  501 -0.00000000000E+00  0.00000000000E+00  0.39322076534E+03  0.39322076534E+03  0.00000000000E+00 0.  1.
          3   -1    0    0  502    0  0.00000000000E+00 -0.00000000000E+00 -0.74676487611E+02  0.74676487611E+02  0.00000000000E+00 0. -1.
         23    2    1    2    0    0  0.11820346515E+02  0.35077521485E+02  0.33817233222E+03  0.35206616442E+03  0.90663690341E+02 0.  0.
         23    2    1    2    0    0 -0.14649123477E+02 -0.15049586083E+02 -0.60151287544E+01  0.91450113930E+02  0.88802335014E+02 0.  0.
        -11    1    4    4    0    0 -0.36728580733E+02  0.20514973843E+02 -0.20959398402E+02  0.47001586950E+02  0.00000000000E+00 0. -1.
         11    1    4    4    0    0  0.22079457255E+02 -0.35564559926E+02  0.14944269648E+02  0.44448526980E+02  0.00000000000E+00 0.  1.
        -13    1    3    3    0    0  0.58115201452E+01 -0.29669682298E+02  0.14881274195E+03  0.15185287610E+03  0.00000000000E+00 0.  1.
         13    1    3    3    0    0  0.60088263698E+01  0.64747203784E+02  0.18935959027E+03  0.20021328831E+03  0.00000000000E+00 0. -1.
         21    1    1    2  502  501  0.28287769625E+01 -0.20027935402E+02 -0.13612925732E+02  0.24380974603E+02  0.00000000000E+00 0. -1.
<scales pt_clust_5="13000.00000" pt_clust_6="13000.00000" pt_clust_7="13000.00000" pt_clust_8="13000.00000" pt_clust_9="20.22672"></scales>
<clustering>
<clus scale="   20.227">  2  9  1 -1</clus>
<clus scale="   88.802">  5  6 -1 -1</clus>
<clus scale="   90.664">  7  8 -1 -1</clus>
<clus scale="   95.370">  2  5  1 -1</clus>
<clus scale="   20.227">  2  5  1 -1</clus>
</clustering>
</event>
<event>
 9    1  0.1296032E-005  0.1188938E+03  0.7546771E-02  0.1245976E+00
         -2   -1    0    0    0  501 -0.00000000000E+00  0.00000000000E+00  0.17519285914E+03  0.17519285914E+03  0.00000000000E+00 0.  1.
          2   -1    0    0  502    0  0.00000000000E+00 -0.00000000000E+00 -0.12776999642E+03  0.12776999642E+03  0.00000000000E+00 0. -1.
         23    2    1    2    0    0 -0.92254003126E+02 -0.24757120712E+02  0.27125158600E+02  0.13595624768E+03  0.92868783427E+02 0.  0.
         23    2    1    2    0    0  0.42428276812E+02  0.48383599030E+02  0.92765851926E+01  0.11077246752E+03  0.89684743399E+02 0.  0.
        -13    1    4    4    0    0  0.89686183076E+01  0.53039047725E+02  0.38463133283E+02  0.66128581717E+02  0.00000000000E+00 0. -1.
         13    1    4    4    0    0  0.33459658505E+02 -0.46554486950E+01 -0.29186548091E+02  0.44643885799E+02  0.00000000000E+00 0.  1.
        -13    1    3    3    0    0 -0.46303065758E+02  0.25721027509E+02  0.40148952675E+02  0.66464152410E+02  0.00000000000E+00 0.  1.
         13    1    3    3    0    0 -0.45950937368E+02 -0.50478148220E+02 -0.13023794075E+02  0.69492095269E+02  0.00000000000E+00 0. -1.
         21    1    1    2  502  501  0.49825726314E+02 -0.23626478319E+02  0.11021118927E+02  0.56234140367E+02  0.00000000000E+00 0.  1.
<scales pt_clust_5="13000.00000" pt_clust_6="13000.00000" pt_clust_7="13000.00000" pt_clust_8="13000.00000" pt_clust_9="55.14357"></scales>
<clustering>
<clus scale="   55.144">  1  9  2 -1</clus>
<clus scale="   89.685">  5  6 -1 -1</clus>
<clus scale="   92.869">  7  8 -1 -1</clus>
<clus scale="  116.424">  2  5  1 -1</clus>
<clus scale="  116.424">  2  5  1 -1</clus>
</clustering>
</event>
<event>
 9    1  0.1296032E-005  0.9476530E+02  0.7546771E-02  0.1291793E+00
         -2   -1    0    0    0  501 -0.00000000000E+00  0.00000000000E+00  0.14561648265E+03  0.14561648265E+03  0.00000000000E+00 0.  1.
          2   -1    0    0  502    0  0.00000000000E+00 -0.00000000000E+00 -0.84052047655E+02  0.84052047655E+02  0.00000000000E+00 0. -1.
         23    2    1    2    0    0 -0.27795662296E+02  0.77214316318E+01  0.59707790121E+02  0.11260547388E+03  0.91009632442E+02 0.  0.
         23    2    1    2    0    0  0.12362303473E+02 -0.23184604066E+02  0.48893973662E+01  0.95006405409E+02  0.91169942686E+02 0.  0.
        -11    1    3    3    0    0 -0.59489989394E+02  0.31165090844E+01  0.53317584560E+02  0.79947084314E+02  0.00000000000E+00 0.  1.
         11    1    3    3    0    0  0.31694327097E+02  0.46049225474E+01  0.63902055613E+01  0.32658389564E+02  0.00000000000E+00 0. -1.
        -13    1    4    4    0    0  0.32907666032E+02 -0.50644312835E+02  0.23617444763E+00  0.60397157918E+02  0.00000000000E+00 0. -1.
         13    1    4    4    0    0 -0.20545362559E+02  0.27459708770E+02  0.46532229185E+01  0.34609247491E+02  0.00000000000E+00 0.  1.
         21    1    1    2  502  501  0.15433358823E+02  0.15463172434E+02 -0.30327524957E+01  0.22056651015E+02  0.00000000000E+00 0.  1.
<scales pt_clust_5="13000.00000" pt_clust_6="13000.00000" pt_clust_7="13000.00000" pt_clust_8="13000.00000" pt_clust_9="21.84716"></scales>
<clustering>
<clus scale="   21.847">  2  9  1 -1</clus>
<clus scale="   91.010">  5  6 -1 -1</clus>
<clus scale="   91.170">  7  8 -1 -1</clus>
<clus scale="   94.611">  1  5  2 -1</clus>
<clus scale="   21.847">  2  5  1 -1</clus>
</clustering>
</event>
<event>
 9    1  0.1296032E-005  0.1095637E+03  0.7546771E-02  0.1263311E+00
         -2   -1    0    0    0  501 -0.00000000000E+00  0.00000000000E+00  0.21002663659E+03  0.21002663659E+03  0.00000000000E+00 0.  1.
          2   -1    0    0  502    0  0.00000000000E+00 -0.00000000000E+00 -0.23312724303E+03  0.23312724303E+03  0.00000000000E+00 0. -1.
         23    2    1    2    0    0  0.30144517857E+02 -0.44971621060E+02  0.15221264303E+03  0.18460240841E+03  0.89320892489E+02 0.  0.
         23    2    1    2    0    0 -0.22499257627E+02  0.64286384185E+02 -0.41819310873E+02  0.12345098372E+03  0.94086847293E+02 0.  0.
        -11    1    4    4    0    0 -0.55603066956E+02  0.23944439940E+02 -0.75247676078E+01  0.61005404568E+02  0.00000000000E+00 0.  1.
         11    1    4    4    0    0  0.33103809329E+02  0.40341944245E+02 -0.34294543266E+02  0.62445579150E+02  0.00000000000E+00 0. -1.
        -13    1    3    3    0    0  0.47825394906E+02 -0.60546696826E+02  0.13474245956E+03  0.15526976944E+03  0.00000000000E+00 0.  1.
         13    1    3    3    0    0 -0.17680877048E+02  0.15575075766E+02  0.17470183467E+02  0.29332638965E+02  0.00000000000E+00 0. -1.
         21    1    1    2  502  501 -0.76452602300E+01 -0.19314763125E+02 -0.13349393860E+03  0.13510048749E+03  0.00000000000E+00 0. -1.
<scales pt_clust_5="13000.00000" pt_clust_6="13000.00000" pt_clust_7="13000.00000" pt_clust_8="13000.00000" pt_clust_9="20.77282"></scales>
<clustering>
<clus scale="   20.773">  2  9  1 -1</clus>
<clus scale="   89.321">  7  8 -1 -1</clus>
<clus scale="   94.087">  5  6 -1 -1</clus>
<clus scale="  105.499">  1  7  2 -1</clus>
<clus scale="   20.773">  2  5  1 -1</clus>
</clustering>
</event>
<event>
 9    1  0.1296032E-005  0.9348941E+02  0.7546771E-02  0.1295783E+00
          1   -1    0    0  502    0  0.00000000000E+00  0.00000000000E+00  0.38870389042E+03  0.38870389042E+03  0.00000000000E+00 0. -1.
         -1   -1    0    0    0  501 -0.00000000000E+00 -0.00000000000E+00 -0.40573233679E+02  0.40573233679E+02  0.00000000000E+00 0.  1.
         23    2    1    2    0    0 -0.17798152773E+02 -0.14063459439E+02  0.47696141769E+02  0.10590097082E+03  0.91790732365E+02 0.  0.
         23    2    1    2    0    0 -0.65727952455E+01  0.76741437898E+01  0.26446482010E+03  0.27946049080E+03  0.89746480299E+02 0.  0.
        -11    1    4    4    0    0  0.15532286200E+02 -0.36413106789E+02  0.93777166104E+02  0.10179058475E+03  0.00000000000E+00 0.  1.
         11    1    4    4    0    0 -0.22105081446E+02  0.44087250579E+02  0.17068765400E+03  0.17766990605E+03  0.00000000000E+00 0. -1.
        -11    1    3    3    0    0 -0.44973815790E+02 -0.96305281979E+01  0.60117966796E+02  0.75693864427E+02  0.00000000000E+00 0. -1.
         11    1    3    3    0    0  0.27175663018E+02 -0.44329312414E+01 -0.12421825028E+02  0.30207106396E+02  0.00000000000E+00 0.  1.
         21    1    1    2  502  501  0.24370948018E+02  0.63893156494E+01  0.35969694873E+02  0.43915662480E+02  0.00000000000E+00 0.  1.
<scales pt_clust_5="13000.00000" pt_clust_6="13000.00000" pt_clust_7="13000.00000" pt_clust_8="13000.00000" pt_clust_9="25.19457"></scales>
<clustering>
<clus scale="   25.195">  1  9  2 -1</clus>
<clus scale="   89.746">  5  6 -1 -1</clus>
<clus scale="   91.483">  1  5  2 -1</clus>
<clus scale="   91.791">  7  8 -1 -1</clus>
<clus scale="   25.195">  1  5  2 -1</clus>
</clustering>
</event>
<event>
 9    1  0.1296032E-005  0.1222022E+03  0.7546771E-02  0.1239993E+00
          2   -1    0    0  502    0  0.00000000000E+00  0.00000000000E+00  0.30426554531E+02  0.30426554531E+02  0.00000000000E+00 0. -1.
         -2   -1    0    0    0  501 -0.00000000000E+00 -0.00000000000E+00 -0.71823812043E+03  0.71823812043E+03  0.00000000000E+00 0.  1.
         23    2    1    2    0    0 -0.74575338291E+02 -0.64313710098E+02 -0.41325944751E+03  0.43473319854E+03  0.92259680088E+02 0.  0.
         23    2    1    2    0    0  0.52163965635E+02  0.26920050515E+02 -0.20800687038E+03  0.23437756115E+03  0.90665399229E+02 0.  0.
        -13    1    4    4    0    0  0.20511786881E+02  0.47477819922E+02 -0.18026179964E+03  0.18753451201E+03  0.00000000000E+00 0.  1.
         13    1    4    4    0    0  0.31652178754E+02 -0.20557769407E+02 -0.27745070741E+02  0.46843049145E+02  0.00000000000E+00 0. -1.
        -13    1    3    3    0    0  0.19485557794E+02 -0.55936658204E+01 -0.33889607966E+02  0.39490272067E+02  0.00000000000E+00 0. -1.
         13    1    3    3    0    0 -0.94060896084E+02 -0.58720044278E+02 -0.37936983954E+03  0.39524292647E+03  0.00000000000E+00 0.  1.
         21    1    1    2  502  501  0.22411372656E+02  0.37393659583E+02 -0.66545248013E+02  0.79553915268E+02  0.00000000000E+00 0.  1.
<scales pt_clust_5="13000.00000" pt_clust_6="13000.00000" pt_clust_7="13000.00000" pt_clust_8="13000.00000" pt_clust_9="43.59536"></scales>
<clustering>
<clus scale="   43.595">  1  9  2 -1</clus>
<clus scale="   90.665">  5  6 -1 -1</clus>
<clus scale="   92.260">  7  8 -1 -1</clus>
<clus scale="  121.003">  1  5  2 -1</clus>
<clus scale="   43.595">  1  5  2 -1</clus>
</clustering>
</event>
<event>
 9    1  0.1296032E-005  0.4071841E+03  0.7546771E-02  0.1041432E+00
         -2   -1    0    0    0  501 -0.00000000000E+00  0.00000000000E+00  0.43938272210E+03  0.43938272210E+03  0.00000000000E+00 0.  1.
          2   -1    0    0  502    0  0.00000000000E+00 -0.00000000000E+00 -0.57120160073E+03  0.57120160073E+03  0.00000000000E+00 0. -1.
         23    2    1    2    0    0  0.35676273425E+03  0.11823285112E+03  0.53234905622E+02  0.39015775960E+03  0.90169099846E+02 0.  0.
         23    2    1    2    0    0 -0.43934406009E+03 -0.21855792913E+02 -0.78408995935E+02  0.45465164473E+03  0.84019453653E+02 0.  0.
        -11    1    4    4    0    0 -0.35866090264E+03 -0.29417019714E+02 -0.94425614707E+02  0.37204730996E+03  0.00000000000E+00 0. -1.
         11    1    4    4    0    0 -0.80683157452E+02  0.75612268010E+01  0.16016618773E+02  0.82604334777E+02  0.00000000000E+00 0.  1.
        -11    1    3    3    0    0  0.32570170082E+03  0.13178586694E+03  0.39407653984E+02  0.35355632625E+03  0.00000000000E+00 0.  1.
         11    1    3    3    0    0  0.31061033427E+02 -0.13553015812E+02  0.13827251638E+02  0.36601433347E+02  0.00000000000E+00 0. -1.
         21    1    1    2  502  501  0.82581325846E+02 -0.96377058210E+02 -0.10664478831E+03  0.16577491849E+03  0.00000000000E+00 0.  1.
<scales pt_clust_5="13000.00000" pt_clust_6="13000.00000" pt_clust_7="13000.00000" pt_clust_8="13000.00000" pt_clust_9="126.91813"></scales>
<clustering>
<clus scale="   84.019">  5  6 -1 -1</clus>
<clus scale="   90.169">  7  8 -1 -1</clus>
<clus scale="  126.918">  2  9  1 -1</clus>
<clus scale="  405.867">  2  5  1 -1</clus>
<clus scale="  126.918">  2  5  1 -1</clus>
</clustering>
</event>
<event>
 9    1  0.1296032E-005  0.1649659E+03  0.7546771E-02  0.1199478E+00
         -1   -1    0    0    0  501 -0.00000000000E+00  0.00000000000E+00  0.88851014997E+03  0.88851014997E+03  0.00000000000E+00 0.  1.
          1   -1    0    0  502    0  0.00000000000E+00 -0.00000000000E+00 -0.57994318562E+02  0.57994318562E+02  0.00000000000E+00 0. -1.
         23    2    1    2    0    0  0.36322446716E+02  0.61520735733E+02  0.33434917023E+03  0.35364876115E+03  0.90409941778E+02 0.  0.
         23    2    1    2    0    0  0.89576500049E+02 -0.29146731651E+01  0.40027934827E+03  0.42409673090E+03  0.10771274682E+03 0.  0.
        -13    1    3    3    0    0  0.60369900673E+02  0.42760618981E+02  0.15530122716E+03  0.17202170386E+03  0.00000000000E+00 0.  1.
         13    1    3    3    0    0 -0.24047453958E+02  0.18760116752E+02  0.17904794307E+03  0.18162705729E+03  0.00000000000E+00 0. -1.
        -13    1    4    4    0    0 -0.48891885534E+01 -0.26123119109E+02  0.25256626777E+02  0.36663588379E+02  0.00000000000E+00 0. -1.
         13    1    4    4    0    0  0.94465688602E+02  0.23208445944E+02  0.37502272149E+03  0.38743314252E+03  0.00000000000E+00 0.  1.
         21    1    1    2  502  501 -0.12589894676E+03 -0.58606062568E+02  0.95887312914E+02  0.16875897648E+03  0.00000000000E+00 0. -1.
<scales pt_clust_5="13000.00000" pt_clust_6="13000.00000" pt_clust_7="13000.00000" pt_clust_8="13000.00000" pt_clust_9="124.94682"></scales>
<clustering>
<clus scale="   90.410">  5  6 -1 -1</clus>
<clus scale="  107.713">  7  8 -1 -1</clus>
<clus scale="  115.231">  1  5  2 -1</clus>
<clus scale="  124.947">  2  9  1 -1</clus>
<clus scale="  124.947">  2  5  1 -1</clus>
</clustering>
</event>
<event>
 9    1  0.1296032E-005  0.9754359E+02  0.7546771E-02  0.1287383E+00
         -2   -1    0    0    0  501 -0.00000000000E+00  0.00000000000E+00  0.63877881513E+02  0.63877881513E+02  0.00000000000E+00 0.  1.
          2   -1    0    0  502    0  0.00000000000E+00 -0.00000000000E+00 -0.22429792598E+03  0.22429792598E+03  0.00000000000E+00 0. -1.
         23    2    1    2    0    0  0.34965287968E+02 -0.49391194760E+01 -0.21930958751E+02  0.10245201214E+03  0.93640170734E+02 0.  0.
         23    2    1    2    0    0 -0.11496250539E+02 -0.15376665321E+02 -0.11061941349E+03  0.14400754601E+03  0.90182664928E+02 0.  0.
        -13    1    4    4    0    0 -0.32827753857E+02 -0.22365111133E+02 -0.10064282814E+02  0.40977425588E+02  0.00000000000E+00 0.  1.
         13    1    4    4    0    0  0.21331503317E+02  0.69884458128E+01 -0.10055513067E+03  0.10303012042E+03  0.00000000000E+00 0. -1.
        -13    1    3    3    0    0  0.59927984458E+02 -0.12735257401E+02 -0.37678367010E+02  0.71925026541E+02  0.00000000000E+00 0.  1.
         13    1    3    3    0    0 -0.24962696491E+02  0.77961379251E+01  0.15747408259E+02  0.30526985595E+02  0.00000000000E+00 0. -1.
         21    1    1    2  502  501 -0.23469037428E+02  0.20315784797E+02 -0.27869672227E+02  0.41716249349E+02  0.00000000000E+00 0.  1.
<scales pt_clust_5="13000.00000" pt_clust_6="13000.00000" pt_clust_7="13000.00000" pt_clust_8="13000.00000" pt_clust_9="31.04073"></scales>
<clustering>
<clus scale="   31.041">  2  9  1 -1</clus>
<clus scale="   90.183">  5  6 -1 -1</clus>
<clus scale="   93.640">  7  8 -1 -1</clus>
<clus scale="   94.229">  2  5  1 -1</clus>
<clus scale="   31.041">  2  5  1 -1</clus>
</clustering>
</event>
<event>
 9    1  0.1296032E-005  0.1169440E+03  0.7546771E-02  0.1248913E+00
         -2   -1    0    0    0  501 -0.00000000000E+00  0.00000000000E+00  0.57785228707E+02  0.57785228707E+02  0.00000000000E+00 0.  1.
          2   -1    0    0  502    0  0.00000000000E+00 -0.00000000000E+00 -0.56191371437E+03  0.56191371437E+03  0.00000000000E+00 0. -1.
         23    2    1    2    0    0  0.48643498725E+02  0.18065535606E+01 -0.10057334097E+03  0.14281843348E+03  0.88953102387E+02 0.  0.
         23    2    1    2    0    0 -0.12795739097E+03 -0.45263903683E+02 -0.26929060694E+03  0.31499721558E+03  0.91015932431E+02 0.  0.
        -11    1    4    4    0    0 -0.36931102011E+02 -0.58724856640E+02 -0.91707395097E+02  0.11499026654E+03  0.00000000000E+00 0.  1.
         11    1    4    4    0    0 -0.91026288960E+02  0.13460952957E+02 -0.17758321184E+03  0.20000694904E+03  0.00000000000E+00 0. -1.
        -11    1    3    3    0    0 -0.18152658904E+02  0.20417864597E+02 -0.50059269662E+02  0.57029279315E+02  0.00000000000E+00 0. -1.
         11    1    3    3    0    0  0.66796157629E+02 -0.18611311037E+02 -0.50514071303E+02  0.85789154164E+02  0.00000000000E+00 0.  1.
         21    1    1    2  502  501  0.79313892246E+02  0.43457350122E+02 -0.13426453776E+03  0.16188329402E+03  0.00000000000E+00 0.  1.
<scales pt_clust_5="13000.00000" pt_clust_6="13000.00000" pt_clust_7="13000.00000" pt_clust_8="13000.00000" pt_clust_9="90.43912"></scales>
<clustering>
<clus scale="   88.953">  7  8 -1 -1</clus>
<clus scale="   90.439">  2  9  1 -1</clus>
<clus scale="   91.016">  5  6 -1 -1</clus>
<clus scale="  115.346">  1  7  2 -1</clus>
<clus scale="   90.439">  2  5  1 -1</clus>
</clustering>
</event>
<event>
 9    1  0.1296032E-005  0.1854272E+03  0.7546771E-02  0.1165231E+00
         -2   -1    0    0    0  501 -0.00000000000E+00  0.00000000000E+00  0.98774238886E+02  0.98774238886E+02  0.00000000000E+00 0.  1.
          2   -1    0    0  502    0  0.00000000000E+00 -0.00000000000E+00 -0.48748243685E+03  0.48748243685E+03  0.00000000000E+00 0. -1.
         23    2    1    2    0    0 -0.97092018516E+02 -0.11203973485E+03 -0.85406473044E+02  0.19365937532E+03  0.90718938305E+02 0.  0.
         23    2    1    2    0    0  0.79426330055E+02  0.12957969096E+03 -0.15827857048E+03  0.24545301092E+03  0.10998016402E+03 0.  0.
        -11    1    4    4    0    0  0.55177127238E+02  0.11697543478E+03 -0.17173541767E+03  0.21499028209E+03  0.00000000000E+00 0. -1.
         11    1    4    4    0    0  0.24249202817E+02  0.12604256186E+02  0.13456847186E+02  0.30462728825E+02  0.00000000000E+00 0.  1.
        -13    1    3    3    0    0 -0.93039700241E+02 -0.46894157843E+02 -0.31048585805E+02  0.10871735161E+03  0.00000000000E+00 0.  1.
         13    1    3    3    0    0 -0.40523182753E+01 -0.65145577008E+02 -0.54357887239E+02  0.84942023711E+02  0.00000000000E+00 0. -1.
         21    1    1    2  502  501  0.17665688461E+02 -0.17539956112E+02 -0.14502315444E+03  0.14714428950E+03  0.00000000000E+00 0. -1.
<scales pt_clust_5="13000.00000" pt_clust_6="13000.00000" pt_clust_7="13000.00000" pt_clust_8="13000.00000" pt_clust_9="24.89431"></scales>
<clustering>
<clus scale="   24.894">  2  9  1 -1</clus>
<clus scale="   90.719">  7  8 -1 -1</clus>
<clus scale="  109.980">  5  6 -1 -1</clus>
<clus scale="  174.693">  1  7  2 -1</clus>
<clus scale="   24.894">  2  5  1 -1</clus>
</clustering>
</event>
<event>
 9    1  0.1296032E-005  0.9209399E+02  0.7546771E-02  0.1300846E+00
          2   -1    0    0  502    0  0.00000000000E+00  0.00000000000E+00  0.48258144159E+02  0.48258144159E+02  0.00000000000E+00 0. -1.
         -2   -1    0    0    0  501 -0.00000000000E+00 -0.00000000000E+00 -0.29179856134E+03  0.29179856134E+03  0.00000000000E+00 0.  1.
         23    2    1    2    0    0 -0.77378606969E+01  0.92091641113E+01 -0.16070459155E+03  0.18302749260E+03  0.86766434243E+02 0.  0.
         23    2    1    2    0    0 -0.28687365311E+02 -0.35823941395E+01 -0.65020441177E+02  0.11609212026E+03  0.91727444859E+02 0.  0.
        -11    1    4    4    0    0 -0.37092886861E+02 -0.35378741782E+02 -0.10353742744E+02  0.52294718801E+02  0.00000000000E+00 0. -1.
         11    1    4    4    0    0  0.84055215498E+01  0.31796347642E+02 -0.54666698432E+02  0.63797401463E+02  0.00000000000E+00 0.  1.
        -11    1    3    3    0    0  0.24567407801E+02  0.58567194960E+01 -0.73963030980E+01  0.26316610512E+02  0.00000000000E+00 0. -1.
         11    1    3    3    0    0 -0.32305268498E+02  0.33524446153E+01 -0.15330828845E+03  0.15671088209E+03  0.00000000000E+00 0.  1.
         21    1    1    2  502  501  0.36425226008E+02 -0.56267699719E+01 -0.17815384456E+02  0.40937092634E+02  0.00000000000E+00 0. -1.
<scales pt_clust_5="13000.00000" pt_clust_6="13000.00000" pt_clust_7="13000.00000" pt_clust_8="13000.00000" pt_clust_9="36.85726"></scales>
<clustering>
<clus scale="   36.857">  1  9  2 -1</clus>
<clus scale="   86.766">  7  8 -1 -1</clus>
<clus scale="   87.154">  2  7  1 -1</clus>
<clus scale="   91.727">  5  6 -1 -1</clus>
<clus scale="   36.857">  1  5  2 -1</clus>
</clustering>
</event>
<event>
 9    1  0.1296032E-005  0.1031974E+03  0.7546771E-02  0.1274998E+00
         -1   -1    0    0    0  501 -0.00000000000E+00  0.00000000000E+00  0.48207762607E+02  0.48207762607E+02  0.00000000000E+00 0.  1.
          1   -1    0    0  502    0  0.00000000000E+00 -0.00000000000E+00 -0.39393615968E+03  0.39393615968E+03  0.00000000000E+00 0. -1.
         23    2    1    2    0    0 -0.36810039566E+02  0.41006029834E+02 -0.12784810471E+03  0.16391099105E+03  0.86517059675E+02 0.  0.
         23    2    1    2    0    0  0.14554743425E+02 -0.49167272165E+02 -0.22967958356E+03  0.25175412168E+03  0.89432463177E+02 0.  0.
        -11    1    3    3    0    0 -0.19099860084E+02 -0.24606654598E+02 -0.61472600520E+02  0.68914241782E+02  0.00000000000E+00 0. -1.
         11    1    3    3    0    0 -0.17710179482E+02  0.65612684433E+02 -0.66375504189E+02  0.94996749271E+02  0.00000000000E+00 0.  1.
        -13    1    4    4    0    0 -0.27381887882E+02  0.74847485949E+00 -0.12851939302E+03  0.13140609720E+03  0.00000000000E+00 0.  1.
         13    1    4    4    0    0  0.41936631308E+02 -0.49915747024E+02 -0.10116019054E+03  0.12034802448E+03  0.00000000000E+00 0. -1.
         21    1    1    2  502  501  0.22255296141E+02  0.81612423301E+01  0.11799291197E+02  0.26478809554E+02  0.00000000000E+00 0. -1.
<scales pt_clust_5="13000.00000" pt_clust_6="13000.00000" pt_clust_7="13000.00000" pt_clust_8="13000.00000" pt_clust_9="23.70452"></scales>
<clustering>
<clus scale="   23.705">  1  9  2 -1</clus>
<clus scale="   86.517">  5  6 -1 -1</clus>
<clus scale="   89.432">  7  8 -1 -1</clus>
<clus scale="  100.681">  1  5  2 -1</clus>
<clus scale="  103.197">  2  5  1 -1</clus>
</clustering>
</event>
<event>
 9    1  0.1296032E-005  0.9127052E+02  0.7546771E-02  0.1302378E+00
          1   -1    0    0  502    0  0.00000000000E+00  0.00000000000E+00  0.25547239557E+03  0.25547239557E+03  0.00000000000E+00 0. -1.
         -1   -1    0    0    0  501 -0.00000000000E+00 -0.00000000000E+00 -0.48821615107E+02  0.48821615107E+02  0.00000000000E+00 0.  1.
         23    2    1    2    0    0 -0.20275133709E+02 -0.33915449426E+02  0.45068641097E+02  0.10172551755E+03  0.82192212240E+02 0.  0.
         23    2    1    2    0    0  0.14651303258E+02  0.45176491957E+01  0.94587180148E+02  0.12919150295E+03  0.86652408765E+02 0.  0.
        -11    1    3    3    0    0 -0.11597368703E+02 -0.57687160042E+02  0.11945446025E+02  0.60041661163E+02  0.00000000000E+00 0.  1.
         11    1    3    3    0    0 -0.86777650057E+01  0.23771710616E+02  0.33123195072E+02  0.41683856382E+02  0.00000000000E+00 0. -1.
        -13    1    4    4    0    0  0.10444696057E+02  0.25115130106E+02  0.10301268855E+03  0.10654330311E+03  0.00000000000E+00 0. -1.
         13    1    4    4    0    0  0.42066072009E+01 -0.20597480910E+02 -0.84255084029E+01  0.22648199837E+02  0.00000000000E+00 0.  1.
         21    1    1    2  502  501  0.56238304513E+01  0.29397800230E+02  0.66994959215E+02  0.73376990178E+02  0.00000000000E+00 0. -1.
<scales pt_clust_5="13000.00000" pt_clust_6="13000.00000" pt_clust_7="13000.00000" pt_clust_8="13000.00000" pt_clust_9="29.93089"></scales>
<clustering>
<clus scale="   29.931">  1  9  2 -1</clus>
<clus scale="   82.192">  5  6 -1 -1</clus>
<clus scale="   86.652">  7  8 -1 -1</clus>
<clus scale="   87.047">  2  5  1 -1</clus>
<clus scale="   29.931">  1  5  2 -1</clus>
</clustering>
</event>
<event>
 9    1  0.1296032E-005  0.2202199E+03  0.7546771E-02  0.1135083E+00
          1   -1    0    0  502    0  0.00000000000E+00  0.00000000000E+00  0.48243836241E+03  0.48243836241E+03  0.00000000000E+00 0. -1.
         -1   -1    0    0    0  501 -0.00000000000E+00 -0.00000000000E+00 -0.19167220348E+03  0.19167220348E+03  0.00000000000E+00 0.  1.
         23    2    1    2    0    0  0.16495444925E+03  0.96040377926E+02  0.44982802908E+02  0.22431768449E+03  0.10890934990E+03 0.  0.
         23    2    1    2    0    0 -0.21883930439E+03  0.28802990389E+02  0.17247087963E+03  0.29531258033E+03  0.93504344169E+02 0.  0.
        -11    1    4    4    0    0 -0.15667545404E+03 -0.22325439070E+02  0.12663905527E+03  0.20268959877E+03  0.00000000000E+00 0. -1.
         11    1    4    4    0    0 -0.62163850346E+02  0.51128429460E+02  0.45831824366E+02  0.92622981562E+02  0.00000000000E+00 0.  1.
        -13    1    3    3    0    0  0.13429619646E+03  0.23640611667E+02  0.58318692071E+01  0.13648574139E+03  0.00000000000E+00 0.  1.
         13    1    3    3    0    0  0.30658252788E+02  0.72399766260E+02  0.39150933700E+02  0.87831943096E+02  0.00000000000E+00 0. -1.
         21    1    1    2  502  501  0.53884855134E+02 -0.12484336832E+03  0.73312476386E+02  0.15448030107E+03  0.00000000000E+00 0.  1.
<scales pt_clust_5="13000.00000" pt_clust_6="13000.00000" pt_clust_7="13000.00000" pt_clust_8="13000.00000" pt_clust_9="135.97590"></scales>
<clustering>
<clus scale="   93.504">  5  6 -1 -1</clus>
<clus scale="  108.909">  7  8 -1 -1</clus>
<clus scale="  135.976">  1  9  2 -1</clus>
<clus scale="  213.023">  1  5  2 -1</clus>
<clus scale="  135.976">  1  5  2 -1</clus>
</clustering>
</event>
<event>
 9    1  0.1296032E-005  0.1043687E+03  0.7546771E-02  0.1277849E+00
         -1   -1    0    0    0  501 -0.00000000000E+00  0.00000000000E+00  0.20333163422E+03  0.20333163422E+03  0.00000000000E+00 0.  1.
          1   -1    0    0  502    0  0.00000000000E+00 -0.00000000000E+00 -0.73553834076E+02  0.73553834076E+02  0.00000000000E+00 0. -1.
         23    2    1    2    0    0 -0.57452036448E+01 -0.22421262465E+02  0.98363690791E+02  0.14461921962E+03  0.10345812023E+03 0.  0.
         23    2    1    2    0    0  0.16372537226E+02 -0.93413213933E+01  0.33002996918E+02  0.98735270228E+02  0.91127029584E+02 0.  0.
        -11    1    3    3    0    0  0.10694581834E+02  0.38050251166E+02  0.20050393366E+02  0.44319453612E+02  0.00000000000E+00 0.  1.
         11    1    3    3    0    0 -0.16439785478E+02 -0.60471513631E+02  0.78313297425E+02  0.10029976601E+03  0.00000000000E+00 0. -1.
        -11    1    4    4    0    0 -0.27924219689E+02  0.24619122354E+02  0.13989357510E+02  0.39768899335E+02  0.00000000000E+00 0.  1.
         11    1    4    4    0    0  0.44296756915E+02 -0.33960443748E+02  0.19013639408E+02  0.58966370893E+02  0.00000000000E+00 0. -1.
         21    1    1    2  502  501 -0.10627333581E+02  0.31762583859E+02 -0.15888875605E+01  0.33530978454E+02  0.00000000000E+00 0. -1.
<scales pt_clust_5="13000.00000" pt_clust_6="13000.00000" pt_clust_7="13000.00000" pt_clust_8="13000.00000" pt_clust_9="33.49331"></scales>
<clustering>
<clus scale="   33.493">  2  9  1 -1</clus>
<clus scale="   91.127">  7  8 -1 -1</clus>
<clus scale="   92.160">  2  7  1 -1</clus>
<clus scale="  103.458">  5  6 -1 -1</clus>
<clus scale="   33.493">  2  5  1 -1</clus>
</clustering>
</event>
<event>
 9    1  0.1296032E-005  0.2019495E+03  0.7546771E-02  0.1149094E+00
         -2   -1    0    0    0  501 -0.00000000000E+00  0.00000000000E+00  0.18194649290E+03  0.18194649290E+03  0.00000000000E+00 0.  1.
          2   -1    0    0  502    0  0.00000000000E+00 -0.00000000000E+00 -0.33105735717E+03  0.33105735717E+03  0.00000000000E+00 0. -1.
         23    2    1    2    0    0  0.10220502393E+03 -0.14924464356E+03  0.57833548683E+02  0.21548667599E+03  0.10183298889E+03 0.  0.
         23    2    1    2    0    0 -0.97782773155E+02  0.12453778645E+03 -0.15562980017E+03  0.24039297102E+03  0.92179253811E+02 0.  0.
        -11    1    3    3    0    0  0.10465351996E+03 -0.10797332476E+03  0.78102053451E+02  0.16944181554E+03  0.00000000000E+00 0.  1.
         11    1    3    3    0    0 -0.24484960271E+01 -0.41271318803E+02 -0.20268504768E+02  0.46044860452E+02  0.00000000000E+00 0. -1.
        -13    1    4    4    0    0 -0.16134809088E+02  0.56937769145E+02 -0.96102051177E+01  0.59954963614E+02  0.00000000000E+00 0.  1.
         13    1    4    4    0    0 -0.81647964067E+02  0.67600017305E+02 -0.14601959505E+03  0.18043800740E+03  0.00000000000E+00 0. -1.
         21    1    1    2  502  501 -0.44222507779E+01  0.24706857114E+02 -0.51314612782E+02  0.57124203062E+02  0.00000000000E+00 0.  1.
<scales pt_clust_5="13000.00000" pt_clust_6="13000.00000" pt_clust_7="13000.00000" pt_clust_8="13000.00000" pt_clust_9="25.09950"></scales>
<clustering>
<clus scale="   25.100">  2  9  1 -1</clus>
<clus scale="   92.179">  7  8 -1 -1</clus>
<clus scale="  101.833">  5  6 -1 -1</clus>
<clus scale="  197.258">  2  7  1 -1</clus>
<clus scale="   25.100">  2  5  1 -1</clus>
</clustering>
</event>
<event>
 9    1  0.1296032E-005  0.2586495E+03  0.7546771E-02  0.1107989E+00
         -2   -1    0    0    0  501 -0.00000000000E+00  0.00000000000E+00  0.18691765695E+03  0.18691765695E+03  0.00000000000E+00 0.  1.
          2   -1    0    0  502    0  0.00000000000E+00 -0.00000000000E+00 -0.98762699215E+03  0.98762699215E+03  0.00000000000E+00 0. -1.
         23    2    1    2    0    0  0.22213853616E+03  0.78299732775E+02 -0.28648789628E+02  0.25480223408E+03  0.92881903205E+02 0.  0.
         23    2    1    2    0    0 -0.18402614665E+03 -0.20857243445E+03 -0.26688097536E+03  0.39664593330E+03  0.93458324037E+02 0.  0.
        -11    1    4    4    0    0 -0.23755508615E+02 -0.19039694235E+02 -0.81045052747E+02  0.86574446120E+02  0.00000000000E+00 0. -1.
         11    1    4    4    0    0 -0.16027063804E+03 -0.18953274021E+03 -0.18583592262E+03  0.31007148718E+03  0.00000000000E+00 0.  1.
        -13    1    3    3    0    0  0.27450726491E+02 -0.20468704992E+02 -0.10134420931E+02  0.35710177212E+02  0.00000000000E+00 0. -1.
         13    1    3    3    0    0  0.19468780967E+03  0.98768437767E+02 -0.18514368697E+02  0.21909205687E+03  0.00000000000E+00 0.  1.
         21    1    1    2  502  501 -0.38112389511E+02  0.13027270167E+03 -0.50517957021E+03  0.52309648172E+03  0.00000000000E+00 0. -1.
<scales pt_clust_5="13000.00000" pt_clust_6="13000.00000" pt_clust_7="13000.00000" pt_clust_8="13000.00000" pt_clust_9="135.73331"></scales>
<clustering>
<clus scale="   92.882">  7  8 -1 -1</clus>
<clus scale="   93.458">  5  6 -1 -1</clus>
<clus scale="  135.733">  2  9  1 -1</clus>
<clus scale="  258.442">  1  7  2 -1</clus>
<clus scale="  135.733">  2  5  1 -1</clus>
</clustering>
</event>
<event>
 9    1  0.1296032E-005  0.1005183E+03  0.7546771E-02  0.1279633E+00
          1   -1    0    0  502    0  0.00000000000E+00  0.00000000000E+00  0.47494178263E+03  0.47494178263E+03  0.00000000000E+00 0. -1.
         -1   -1    0    0    0  501 -0.00000000000E+00 -0.00000000000E+00 -0.53372759355E+02  0.53372759355E+02  0.00000000000E+00 0.  1.
         23    2    1    2    0    0  0.10130143478E+02  0.52760461832E+02  0.48347766212E+02  0.11653158789E+03  0.91410165404E+02 0.  0.
         23    2    1    2    0    0 -0.15530152915E+02 -0.15296977586E+02  0.10737094625E+03  0.14325165142E+03  0.92289394647E+02 0.  0.
        -11    1    4    4    0    0 -0.15006454354E+01 -0.50231971533E+02  0.86936780780E+02  0.10041666571E+03  0.00000000000E+00 0. -1.
         11    1    4    4    0    0 -0.14029507479E+02  0.34934993947E+02  0.20434165468E+02  0.42834985708E+02  0.00000000000E+00 0.  1.
        -11    1    3    3    0    0 -0.12546524422E+02  0.27942085300E+02  0.70093317953E+02  0.76493454802E+02  0.00000000000E+00 0. -1.
         11    1    3    3    0    0  0.22676667901E+02  0.24818376532E+02 -0.21745551740E+02  0.40038133089E+02  0.00000000000E+00 0.  1.
         21    1    1    2  502  501  0.54000094364E+01 -0.37463484246E+02  0.26585031081E+03  0.26853130267E+03  0.00000000000E+00 0. -1.
<scales pt_clust_5="13000.00000" pt_clust_6="13000.00000" pt_clust_7="13000.00000" pt_clust_8="13000.00000" pt_clust_9="37.85066"></scales>
<clustering>
<clus scale="   37.851">  1  9  2 -1</clus>
<clus scale="   91.410">  7  8 -1 -1</clus>
<clus scale="   92.289">  5  6 -1 -1</clus>
<clus scale="   99.712">  2  7  1 -1</clus>
<clus scale="   37.851">  1  5  2 -1</clus>
</clustering>
</event>
<event>
 9    1  0.1296032E-005  0.1096908E+03  0.7546771E-02  0.1261196E+00
          1   -1    0    0  502    0  0.00000000000E+00  0.00000000000E+00  0.40896345530E+03  0.40896345530E+03  0.00000000000E+00 0. -1.
         -1   -1    0    0    0  501 -0.00000000000E+00 -0.00000000000E+00 -0.90136117325E+02  0.90136117325E+02  0.00000000000E+00 0.  1.
         23    2    1    2    0    0  0.68178445365E+02 -0.14090339309E+02 -0.31101460794E+02  0.11894382692E+03  0.91287978530E+02 0.  0.
         23    2    1    2    0    0 -0.22980186580E+02 -0.94205686763E+01  0.18802697395E+03  0.21042700250E+03  0.91151216986E+02 0.  0.
        -11    1    4    4    0    0 -0.26494871100E+02 -0.32917928728E+02  0.18068404269E+03  0.18555940157E+03  0.00000000000E+00 0.  1.
         11    1    4    4    0    0  0.35146845194E+01  0.23497360051E+02  0.73429312592E+01  0.24867600932E+02  0.00000000000E+00 0. -1.
        -13    1    3    3    0    0 -0.40169465930E+01  0.20807127459E+02  0.15448263769E+02  0.26224440252E+02  0.00000000000E+00 0. -1.
         13    1    3    3    0    0  0.72195391958E+02 -0.34897466768E+02 -0.46549724563E+02  0.92719386666E+02  0.00000000000E+00 0.  1.
         21    1    1    2  502  501 -0.45198258785E+02  0.23510907985E+02  0.16190182482E+03  0.16972874321E+03  0.00000000000E+00 0. -1.
<scales pt_clust_5="13000.00000" pt_clust_6="13000.00000" pt_clust_7="13000.00000" pt_clust_8="13000.00000" pt_clust_9="50.94748"></scales>
<clustering>
<clus scale="   50.947">  1  9  2 -1</clus>
<clus scale="   91.151">  5  6 -1 -1</clus>
<clus scale="   91.288">  7  8 -1 -1</clus>
<clus scale="  109.577">  1  5  2 -1</clus>
<clus scale="   50.947">  1  5  2 -1</clus>
</clustering>
</event>
<event>
 9    1  0.1296032E-005  0.1159929E+03  0.7546771E-02  0.1251071E+00
         -4   -1    0    0    0  501 -0.00000000000E+00  0.00000000000E+00  0.31114762113E+03  0.31114762113E+03  0.00000000000E+00 0.  1.
          4   -1    0    0  502    0  0.00000000000E+00 -0.00000000000E+00 -0.79512501380E+02  0.79512501380E+02  0.00000000000E+00 0. -1.
         23    2    1    2    0    0  0.40248842721E+02  0.62125117035E+02  0.22524677656E+03  0.25237830834E+03  0.86482371989E+02 0.  0.
         23    2    1    2    0    0 -0.55424493751E+02 -0.45955128869E+02  0.10234573294E+02  0.11577487330E+03  0.90085106536E+02 0.  0.
        -13    1    4    4    0    0 -0.57964219115E+02  0.10313613141E+02  0.78802754312E+01  0.59399663757E+02  0.00000000000E+00 0.  1.
         13    1    4    4    0    0  0.25397253635E+01 -0.56268742010E+02  0.23542978628E+01  0.56375209540E+02  0.00000000000E+00 0. -1.
        -13    1    3    3    0    0 -0.77896371918E+01  0.62324121931E+02  0.15533369411E+03  0.16755157757E+03  0.00000000000E+00 0.  1.
         13    1    3    3    0    0  0.48038479912E+02 -0.19900489632E+00  0.69913082449E+02  0.84826730768E+02  0.00000000000E+00 0. -1.
         21    1    1    2  502  501  0.15175651030E+02 -0.16169988166E+02 -0.38462301003E+01  0.22506940873E+02  0.00000000000E+00 0. -1.
<scales pt_clust_5="13000.00000" pt_clust_6="13000.00000" pt_clust_7="13000.00000" pt_clust_8="13000.00000" pt_clust_9="22.17586"></scales>
<clustering>
<clus scale="   22.176">  2  9  1 -1</clus>
<clus scale="   86.482">  7  8 -1 -1</clus>
<clus scale="   90.085">  5  6 -1 -1</clus>
<clus scale="  113.218">  1  7  2 -1</clus>
<clus scale="   22.176">  2  5  1 -1</clus>
</clustering>
</event>
<event>
 9    1  0.1296032E-005  0.1420085E+03  0.7546771E-02  0.1211041E+00
          2   -1    0    0  502    0  0.00000000000E+00  0.00000000000E+00  0.24261418802E+03  0.24261418802E+03  0.00000000000E+00 0. -1.
         -2   -1    0    0    0  501 -0.00000000000E+00 -0.00000000000E+00 -0.10468562833E+03  0.10468562833E+03  0.00000000000E+00 0.  1.
         23    2    1    2    0    0  0.12281483870E+03 -0.24428767430E+02  0.77540806012E+02  0.17233333579E+03  0.89475989765E+02 0.  0.
         23    2    1    2    0    0 -0.89260982745E+02  0.27127994332E+02  0.48831256364E+02  0.13937575557E+03  0.91310779901E+02 0.  0.
        -11    1    4    4    0    0 -0.86370878642E+02  0.54851736714E+02  0.42497990043E+02  0.11079133926E+03  0.00000000000E+00 0. -1.
         11    1    4    4    0    0 -0.28901041023E+01 -0.27723742382E+02  0.63332663208E+01  0.28584416308E+02  0.00000000000E+00 0.  1.
        -13    1    3    3    0    0  0.93997041669E+02 -0.50062967296E+02  0.80722306891E+02  0.13363321206E+03  0.00000000000E+00 0.  1.
         13    1    3    3    0    0  0.28817797029E+02  0.25634199866E+02 -0.31815008786E+01  0.38700123724E+02  0.00000000000E+00 0. -1.
         21    1    1    2  502  501 -0.33553855953E+02 -0.26992269018E+01  0.11556497314E+02  0.35590724991E+02  0.00000000000E+00 0.  1.
<scales pt_clust_5="13000.00000" pt_clust_6="13000.00000" pt_clust_7="13000.00000" pt_clust_8="13000.00000" pt_clust_9="33.66225"></scales>
<clustering>
<clus scale="   33.662">  2  9  1 -1</clus>
<clus scale="   89.476">  7  8 -1 -1</clus>
<clus scale="   91.311">  5  6 -1 -1</clus>
<clus scale="  140.836">  2  7  1 -1</clus>
<clus scale="  142.009">  1  5  2 -1</clus>
</clustering>
</event>
<event>
 9    1  0.1296032E-005  0.1272275E+03  0.7546771E-02  0.1232545E+00
          2   -1    0    0  502    0  0.00000000000E+00  0.00000000000E+00  0.22521638391E+03  0.22521638391E+03  0.00000000000E+00 0. -1.
         -2   -1    0    0    0  501 -0.00000000000E+00 -0.00000000000E+00 -0.99406298964E+02  0.99406298964E+02  0.00000000000E+00 0.  1.
         23    2    1    2    0    0  0.11305269611E+02  0.87526449260E+02  0.36840608615E+02  0.13223564433E+03  0.91325498888E+02 0.  0.
         23    2    1    2    0    0 -0.42675219471E+02 -0.73894576936E+02  0.41646477971E+02  0.13399724602E+03  0.94547606822E+02 0.  0.
        -13    1    3    3    0    0  0.62168600026E+01  0.55223654353E+02 -0.26031842630E+02  0.61367403229E+02  0.00000000000E+00 0.  1.
         13    1    3    3    0    0  0.50884096089E+01  0.32302794908E+02  0.62872451245E+02  0.70868241101E+02  0.00000000000E+00 0. -1.
        -13    1    4    4    0    0 -0.70932932247E+02 -0.43536358145E+02  0.14641717556E+02  0.84506066354E+02  0.00000000000E+00 0. -1.
         13    1    4    4    0    0  0.28257712776E+02 -0.30358218791E+02  0.27004760416E+02  0.49491179665E+02  0.00000000000E+00 0.  1.
         21    1    1    2  502  501  0.31369949860E+02 -0.13631872324E+02  0.47322998360E+02  0.58389792525E+02  0.00000000000E+00 0. -1.
<scales pt_clust_5="13000.00000" pt_clust_6="13000.00000" pt_clust_7="13000.00000" pt_clust_8="13000.00000" pt_clust_9="34.20383"></scales>
<clustering>
<clus scale="   34.204">  1  9  2 -1</clus>
<clus scale="   91.325">  5  6 -1 -1</clus>
<clus scale="   94.548">  7  8 -1 -1</clus>
<clus scale="  124.852">  2  5  1 -1</clus>
<clus scale="   34.204">  1  5  2 -1</clus>
</clustering>
</event>
<event>
 9    1  0.1296032E-005  0.1500179E+03  0.7546771E-02  0.1218654E+00
         -2   -1    0    0    0  501 -0.00000000000E+00  0.00000000000E+00  0.42178869924E+02  0.42178869924E+02  0.00000000000E+00 0.  1.
          2   -1    0    0  502    0  0.00000000000E+00 -0.00000000000E+00 -0.90121668861E+03  0.90121668861E+03  0.00000000000E+00 0. -1.
         23    2    1    2    0    0 -0.99858684686E+02  0.28876766016E+02 -0.24019661224E+03  0.27695927340E+03  0.90589193995E+02 0.  0.
         23    2    1    2    0    0 -0.30949674792E+02  0.33452403604E+02 -0.22976819427E+03  0.25125733443E+03  0.90883878298E+02 0.  0.
        -11    1    3    3    0    0 -0.80836455941E+02  0.60265104913E+02 -0.16704360117E+03  0.19511529969E+03  0.00000000000E+00 0.  1.
         11    1    3    3    0    0 -0.19022228745E+02 -0.31388338897E+02 -0.73153011071E+02  0.81843973718E+02  0.00000000000E+00 0. -1.
        -11    1    4    4    0    0  0.13547316698E+02  0.51439567768E+02 -0.10853343833E+03  0.12086796994E+03  0.00000000000E+00 0.  1.
         11    1    4    4    0    0 -0.44496991490E+02 -0.17987164163E+02 -0.12123475594E+03  0.13038936450E+03  0.00000000000E+00 0. -1.
         21    1    1    2  502  501  0.13080835948E+03 -0.62329169620E+02 -0.38907301218E+03  0.41517895070E+03  0.00000000000E+00 0. -1.
<scales pt_clust_5="13000.00000" pt_clust_6="13000.00000" pt_clust_7="13000.00000" pt_clust_8="13000.00000" pt_clust_9="119.57835"></scales>
<clustering>
<clus scale="   90.589">  5  6 -1 -1</clus>
<clus scale="   90.884">  7  8 -1 -1</clus>
<clus scale="  101.670">  2  7  1 -1</clus>
<clus scale="  119.578">  2  9  1 -1</clus>
<clus scale="  101.670">  2  5  1 -1</clus>
</clustering>
</event>
<event>
 9    1  0.1296032E-005  0.9718799E+02  0.7546771E-02  0.1287802E+00
          1   -1    0    0  502    0  0.00000000000E+00  0.00000000000E+00  0.10899971278E+03  0.10899971278E+03  0.00000000000E+00 0. -1.
         -1   -1    0    0    0  501 -0.00000000000E+00 -0.00000000000E+00 -0.33813911384E+03  0.33813911384E+03  0.00000000000E+00 0.  1.
         23    2    1    2    0    0 -0.29202683146E+02 -0.17985553715E+01 -0.25165104401E+03  0.26923347609E+03  0.91117425275E+02 0.  0.
         23    2    1    2    0    0  0.50350768633E+02  0.21905052900E+02 -0.38037161080E+02  0.11069173262E+03  0.88265524425E+02 0.  0.
        -13    1    3    3    0    0 -0.55859415855E+02 -0.11146721227E+02 -0.21789493120E+03  0.22521706147E+03  0.00000000000E+00 0.  1.
         13    1    3    3    0    0  0.26656732710E+02  0.93481658555E+01 -0.33756112812E+02  0.44016414618E+02  0.00000000000E+00 0. -1.
        -13    1    4    4    0    0 -0.16192835098E+02  0.15227919439E+02 -0.37755987862E+02  0.43813377619E+02  0.00000000000E+00 0.  1.
         13    1    4    4    0    0  0.66543603731E+02  0.66771334616E+01 -0.28117321803E+00  0.66878354997E+02  0.00000000000E+00 0. -1.
         21    1    1    2  502  501 -0.21148085487E+02 -0.20106497529E+02  0.60548804041E+02  0.67213617917E+02  0.00000000000E+00 0. -1.
<scales pt_clust_5="13000.00000" pt_clust_6="13000.00000" pt_clust_7="13000.00000" pt_clust_8="13000.00000" pt_clust_9="29.18069"></scales>
<clustering>
<clus scale="   29.181">  1  9  2 -1</clus>
<clus scale="   88.266">  7  8 -1 -1</clus>
<clus scale="   91.117">  5  6 -1 -1</clus>
<clus scale="   94.519">  1  7  2 -1</clus>
<clus scale="   29.181">  1  5  2 -1</clus>
</clustering>
</event>
<event>
 9    1  0.1296032E-005  0.9479935E+02  0.7546771E-02  0.1294074E+00
          2   -1    0    0  502    0  0.00000000000E+00  0.00000000000E+00  0.48974706827E+02  0.48974706827E+02  0.00000000000E+00 0. -1.
         -2   -1    0    0    0  501 -0.00000000000E+00 -0.00000000000E+00 -0.30062424156E+03  0.30062424156E+03  0.00000000000E+00 0.  1.
         23    2    1    2    0    0 -0.10092686488E+01 -0.14450817256E+02 -0.13558853393E+03  0.16455647090E+03  0.92112631263E+02 0.  0.
         23    2    1    2    0    0 -0.42331134222E+02  0.15851985110E+02 -0.94330452602E+02  0.13653917329E+03  0.87758197334E+02 0.  0.
        -11    1    4    4    0    0 -0.11208223922E+02  0.44649621300E+02 -0.79031641381E+02  0.91461540033E+02  0.00000000000E+00 0.  1.
         11    1    4    4    0    0 -0.31122910300E+02 -0.28797636190E+02 -0.15298811221E+02  0.45077633261E+02  0.00000000000E+00 0. -1.
        -13    1    3    3    0    0 -0.34898589678E+02  0.20606066609E+02 -0.38440606540E+02  0.55858766310E+02  0.00000000000E+00 0.  1.
         13    1    3    3    0    0  0.33889321029E+02 -0.35056883865E+02 -0.97147927394E+02  0.10869770459E+03  0.00000000000E+00 0. -1.
         21    1    1    2  502  501  0.43340402871E+02 -0.14011678543E+01 -0.21730548194E+02  0.48503304188E+02  0.00000000000E+00 0. -1.
<scales pt_clust_5="13000.00000" pt_clust_6="13000.00000" pt_clust_7="13000.00000" pt_clust_8="13000.00000" pt_clust_9="43.36305"></scales>
<clustering>
<clus scale="   43.363">  1  9  2 -1</clus>
<clus scale="   87.758">  5  6 -1 -1</clus>
<clus scale="   90.574">  1  5  2 -1</clus>
<clus scale="   92.113">  7  8 -1 -1</clus>
<clus scale="   43.363">  1  5  2 -1</clus>
</clustering>
</event>
<event>
 9    1  0.1296032E-005  0.1427131E+03  0.7546771E-02  0.1209765E+00
          1   -1    0    0  502    0  0.00000000000E+00  0.00000000000E+00  0.10594299270E+04  0.10594299270E+04  0.00000000000E+00 0. -1.
         -1   -1    0    0    0  501 -0.00000000000E+00 -0.00000000000E+00 -0.22144759710E+02  0.22144759710E+02  0.00000000000E+00 0.  1.
         23    2    1    2    0    0  0.42120378526E+02  0.95539426352E+02  0.43280748006E+03  0.45416103200E+03  0.89655004952E+02 0.  0.
         23    2    1    2    0    0 -0.61750634184E+02 -0.99845725510E+02  0.54053763069E+03  0.56038961440E+03  0.89851433004E+02 0.  0.
        -11    1    3    3    0    0  0.53936395448E+02  0.29758797513E+02  0.29024619032E+03  0.29671125995E+03  0.00000000000E+00 0.  1.
         11    1    3    3    0    0 -0.11816016921E+02  0.65780628839E+02  0.14256128974E+03  0.15744977205E+03  0.00000000000E+00 0. -1.
        -13    1    4    4    0    0 -0.55725223628E+02 -0.73695312246E+02  0.51541204955E+03  0.52362761617E+03  0.00000000000E+00 0. -1.
         13    1    4    4    0    0 -0.60254105559E+01 -0.26150413264E+02  0.25125581136E+02  0.36761998227E+02  0.00000000000E+00 0.  1.
         21    1    1    2  502  501  0.19630255658E+02  0.43062991581E+01  0.63940056579E+02  0.67024040351E+02  0.00000000000E+00 0. -1.
<scales pt_clust_5="13000.00000" pt_clust_6="13000.00000" pt_clust_7="13000.00000" pt_clust_8="13000.00000" pt_clust_9="20.09704"></scales>
<clustering>
<clus scale="   20.097">  2  9  1 -1</clus>
<clus scale="   89.655">  5  6 -1 -1</clus>
<clus scale="   89.851">  7  8 -1 -1</clus>
<clus scale="  142.590">  2  5  1 -1</clus>
<clus scale="  142.713">  1  5  2 -1</clus>
</clustering>
</event>
<event>
 9    1  0.1296032E-005  0.1106856E+03  0.7546771E-02  0.1261663E+00
         -1   -1    0    0    0  501 -0.00000000000E+00  0.00000000000E+00  0.36518785595E+02  0.36518785595E+02  0.00000000000E+00 0.  1.
          1   -1    0    0  502    0  0.00000000000E+00 -0.00000000000E+00 -0.64073464562E+03  0.64073464562E+03  0.00000000000E+00 0. -1.
         23    2    1    2    0    0  0.37883171214E+00 -0.64226901851E+02 -0.10323033222E+03  0.15595602984E+03  0.97675704846E+02 0.  0.
         23    2    1    2    0    0  0.14564424452E+02  0.25001834563E+02 -0.27405245225E+03  0.29051497660E+03  0.91961898913E+02 0.  0.
        -11    1    3    3    0    0 -0.18134768351E+02 -0.19192810955E+02  0.13370313084E+02  0.29597281758E+02  0.00000000000E+00 0.  1.
         11    1    3    3    0    0  0.18513600063E+02 -0.45034090896E+02 -0.11660064531E+03  0.12635874808E+03  0.00000000000E+00 0. -1.
        -13    1    4    4    0    0 -0.16382584033E+02 -0.26191492515E+02 -0.14524993471E+03  0.14849891203E+03  0.00000000000E+00 0.  1.
         13    1    4    4    0    0  0.30947008485E+02  0.51193327078E+02 -0.12880251754E+03  0.14201606457E+03  0.00000000000E+00 0. -1.
         21    1    1    2  502  501 -0.14943256164E+02  0.39225067288E+02 -0.22693307555E+03  0.23078242478E+03  0.00000000000E+00 0. -1.
<scales pt_clust_5="13000.00000" pt_clust_6="13000.00000" pt_clust_7="13000.00000" pt_clust_8="13000.00000" pt_clust_9="41.97507"></scales>
<clustering>
<clus scale="   41.975">  2  9  1 -1</clus>
<clus scale="   91.962">  7  8 -1 -1</clus>
<clus scale="   97.676">  5  6 -1 -1</clus>
<clus scale="  105.678">  2  7  1 -1</clus>
<clus scale="   41.975">  2  5  1 -1</clus>
</clustering>
</event>
<event>
 9    1  0.1296032E-005  0.1369015E+03  0.7546771E-02  0.1217761E+00
          3   -1    0    0  502    0  0.00000000000E+00  0.00000000000E+00  0.19700603882E+03  0.19700603882E+03  0.00000000000E+00 0. -1.
         -3   -1    0    0    0  501 -0.00000000000E+00 -0.00000000000E+00 -0.15518064005E+03  0.15518064005E+03  0.00000000000E+00 0.  1.
         23    2    1    2    0    0 -0.99107666417E+02 -0.23465907251E+02  0.13135590989E+01  0.13666007123E+03  0.91111312605E+02 0.  0.
         23    2    1    2    0    0  0.10553829925E+03 -0.42396789085E+02  0.22281023463E+02  0.14688543583E+03  0.90238943474E+02 0.  0.
        -11    1    3    3    0    0 -0.84938587740E+02 -0.34695394775E+01 -0.35754878191E+02  0.92222625780E+02  0.00000000000E+00 0.  1.
         11    1    3    3    0    0 -0.14169078677E+02 -0.19996367773E+02  0.37068437290E+02  0.44437445446E+02  0.00000000000E+00 0. -1.
        -13    1    4    4    0    0  0.15227821944E+02  0.23258308209E+02 -0.11719904226E+02  0.30169382112E+02  0.00000000000E+00 0.  1.
         13    1    4    4    0    0  0.90310477310E+02 -0.65655097294E+02  0.34000927689E+02  0.11671605372E+03  0.00000000000E+00 0. -1.
         21    1    1    2  502  501 -0.64306328376E+01  0.65862696336E+02  0.18230816206E+02  0.68641171806E+02  0.00000000000E+00 0.  1.
<scales pt_clust_5="13000.00000" pt_clust_6="13000.00000" pt_clust_7="13000.00000" pt_clust_8="13000.00000" pt_clust_9="66.17589"></scales>
<clustering>
<clus scale="   66.176">  1  9  2 -1</clus>
<clus scale="   90.239">  7  8 -1 -1</clus>
<clus scale="   91.111">  5  6 -1 -1</clus>
<clus scale="  136.322">  1  7  2 -1</clus>
<clus scale="   66.176">  1  5  2 -1</clus>
</clustering>
</event>
<event>
 9    1  0.1296032E-005  0.1300492E+03  0.7546771E-02  0.1227418E+00
          2   -1    0    0  502    0  0.00000000000E+00  0.00000000000E+00  0.56057823569E+03  0.56057823569E+03  0.00000000000E+00 0. -1.
         -2   -1    0    0    0  501 -0.00000000000E+00 -0.00000000000E+00 -0.48522280920E+02  0.48522280920E+02  0.00000000000E+00 0.  1.
         23    2    1    2    0    0  0.59401816285E+01  0.11949976717E+03  0.18719135567E+03  0.23996242470E+03  0.90696645596E+02 0.  0.
         23    2    1    2    0    0  0.21645683760E+02 -0.64005575746E+02  0.21606443893E+03  0.24392603137E+03  0.90834011565E+02 0.  0.
        -11    1    3    3    0    0  0.47448246912E+02  0.49385438890E+02  0.91235479075E+02  0.11407966669E+03  0.00000000000E+00 0.  1.
         11    1    3    3    0    0 -0.41508065283E+02  0.70114328277E+02  0.95955876592E+02  0.12588275802E+03  0.00000000000E+00 0. -1.
        -13    1    4    4    0    0  0.38407469930E+02 -0.75637286419E+02  0.12820736240E+03  0.15373113093E+03  0.00000000000E+00 0.  1.
         13    1    4    4    0    0 -0.16761786170E+02  0.11631710673E+02  0.87857076533E+02  0.90194900442E+02  0.00000000000E+00 0. -1.
         21    1    1    2  502  501 -0.27585865389E+02 -0.55494191421E+02  0.10880016017E+03  0.12521206054E+03  0.00000000000E+00 0. -1.
<scales pt_clust_5="13000.00000" pt_clust_6="13000.00000" pt_clust_7="13000.00000" pt_clust_8="13000.00000" pt_clust_9="61.97246"></scales>
<clustering>
<clus scale="   61.972">  1  9  2 -1</clus>
<clus scale="   90.697">  5  6 -1 -1</clus>
<clus scale="   90.834">  7  8 -1 -1</clus>
<clus scale="  129.953">  2  5  1 -1</clus>
<clus scale="   61.972">  1  5  2 -1</clus>
</clustering>
</event>
<event>
 9    1  0.1296032E-005  0.1187457E+03  0.7546771E-02  0.1245303E+00
          3   -1    0    0  502    0  0.00000000000E+00  0.00000000000E+00  0.11017434218E+03  0.11017434218E+03  0.00000000000E+00 0. -1.
         -3   -1    0    0    0  501 -0.00000000000E+00 -0.00000000000E+00 -0.22442273514E+03  0.22442273514E+03  0.00000000000E+00 0.  1.
         23    2    1    2    0    0 -0.18979967178E+00  0.80631082759E+02 -0.10880238368E+03  0.16348486281E+03  0.91585665585E+02 0.  0.
         23    2    1    2    0    0 -0.46860829757E+02 -0.58479480320E+02  0.15436473055E+01  0.11864021704E+03  0.91963749755E+02 0.  0.
        -11    1    4    4    0    0 -0.16568972445E+02  0.23456380612E+02  0.11045149598E+02  0.30768944878E+02  0.00000000000E+00 0.  1.
         11    1    4    4    0    0 -0.30291857312E+02 -0.81935860932E+02 -0.95015022922E+01  0.87871272165E+02  0.00000000000E+00 0. -1.
        -13    1    3    3    0    0 -0.41692905427E+02  0.20167493055E+02 -0.58222570122E+02  0.74396866941E+02  0.00000000000E+00 0. -1.
         13    1    3    3    0    0  0.41503105755E+02  0.60463589704E+02 -0.50579813561E+02  0.89087995864E+02  0.00000000000E+00 0.  1.
         21    1    1    2  502  501  0.47050629429E+02 -0.22151602438E+02 -0.69896565811E+01  0.52471997478E+02  0.00000000000E+00 0. -1.
<scales pt_clust_5="13000.00000" pt_clust_6="13000.00000" pt_clust_7="13000.00000" pt_clust_8="13000.00000" pt_clust_9="52.00438"></scales>
<clustering>
<clus scale="   52.004">  1  9  2 -1</clus>
<clus scale="   91.586">  7  8 -1 -1</clus>
<clus scale="   91.964">  5  6 -1 -1</clus>
<clus scale="  118.453">  2  7  1 -1</clus>
<clus scale="   52.004">  1  5  2 -1</clus>
</clustering>
</event>
<event>
 9    1  0.1296032E-005  0.1120903E+03  0.7546771E-02  0.1257391E+00
          1   -1    0    0  502    0  0.00000000000E+00  0.00000000000E+00  0.48977824409E+03  0.48977824409E+03  0.00000000000E+00 0. -1.
         -1   -1    0    0    0  501 -0.00000000000E+00 -0.00000000000E+00 -0.37506366941E+02  0.37506366941E+02  0.00000000000E+00 0.  1.
         23    2    1    2    0    0 -0.75901507594E+02 -0.12652833931E+02  0.12240073739E+03  0.17035547226E+03  0.90099463680E+02 0.  0.
         23    2    1    2    0    0  0.43460346426E+02  0.22981168037E+01  0.23126838936E+03  0.25261158755E+03  0.91833889151E+02 0.  0.
        -13    1    3    3    0    0  0.13063100854E+02 -0.25411195352E+02  0.27666369675E+02  0.39771867748E+02  0.00000000000E+00 0.  1.
         13    1    3    3    0    0 -0.88964608448E+02  0.12758361421E+02  0.94734367713E+02  0.13058360452E+03  0.00000000000E+00 0. -1.
        -13    1    4    4    0    0  0.54066180628E+02 -0.32791428738E+02  0.12293285075E+03  0.13824223479E+03  0.00000000000E+00 0.  1.
         13    1    4    4    0    0 -0.10605834202E+02  0.35089545542E+02  0.10833553860E+03  0.11436935276E+03  0.00000000000E+00 0. -1.
         21    1    1    2  502  501  0.32441161168E+02  0.10354717127E+02  0.98602750404E+02  0.10431755122E+03  0.00000000000E+00 0.  1.
<scales pt_clust_5="13000.00000" pt_clust_6="13000.00000" pt_clust_7="13000.00000" pt_clust_8="13000.00000" pt_clust_9="34.05362"></scales>
<clustering>
<clus scale="   34.054">  1  9  2 -1</clus>
<clus scale="   90.099">  5  6 -1 -1</clus>
<clus scale="   91.834">  7  8 -1 -1</clus>
<clus scale="  110.674">  2  5  1 -1</clus>
<clus scale="   34.054">  1  5  2 -1</clus>
</clustering>
</event>
<event>
 9    1  0.1296032E-005  0.1337672E+03  0.7546771E-02  0.1222304E+00
         -3   -1    0    0    0  501 -0.00000000000E+00  0.00000000000E+00  0.42430069572E+02  0.42430069572E+02  0.00000000000E+00 0.  1.
          3   -1    0    0  502    0  0.00000000000E+00 -0.00000000000E+00 -0.11685167759E+04  0.11685167759E+04  0.00000000000E+00 0. -1.
         23    2    1    2    0    0 -0.92455299850E+02 -0.12235533879E+02 -0.17188268413E+03  0.21553164744E+03  0.90623083060E+02 0.  0.
         23    2    1    2    0    0  0.77686667993E+02  0.12273881988E+03 -0.58666148826E+03  0.61133629604E+03  0.91980045444E+02 0.  0.
        -11    1    3    3    0    0 -0.49387231708E+02 -0.40311197727E+02 -0.43334842328E+02  0.77084368568E+02  0.00000000000E+00 0.  1.
         11    1    3    3    0    0 -0.43068068142E+02  0.28075663848E+02 -0.12854784181E+03  0.13844727887E+03  0.00000000000E+00 0. -1.
        -11    1    4    4    0    0  0.44676060743E+02  0.11092929162E+03 -0.53935956243E+03  0.55245813935E+03  0.00000000000E+00 0. -1.
         11    1    4    4    0    0  0.33010607250E+02  0.11809528262E+02 -0.47301925829E+02  0.58878156696E+02  0.00000000000E+00 0.  1.
         21    1    1    2  502  501  0.14768631858E+02 -0.11050328600E+03 -0.36754253397E+03  0.38407890202E+03  0.00000000000E+00 0. -1.
<scales pt_clust_5="13000.00000" pt_clust_6="13000.00000" pt_clust_7="13000.00000" pt_clust_8="13000.00000" pt_clust_9="111.48582"></scales>
<clustering>
<clus scale="   90.623">  5  6 -1 -1</clus>
<clus scale="   91.980">  7  8 -1 -1</clus>
<clus scale="  111.486">  2  9  1 -1</clus>
<clus scale="  132.838">  1  5  2 -1</clus>
<clus scale="  111.486">  2  5  1 -1</clus>
</clustering>
</event>
<event>
 9    1  0.1296032E-005  0.9929745E+02  0.7546771E-02  0.1282164E+00
          1   -1    0    0  502    0  0.00000000000E+00  0.00000000000E+00  0.46744086793E+03  0.46744086793E+03  0.00000000000E+00 0. -1.
         -1   -1    0    0    0  501 -0.00000000000E+00 -0.00000000000E+00 -0.24714671740E+03  0.24714671740E+03  0.00000000000E+00 0.  1.
         23    2    1    2    0    0  0.24431529684E+02  0.29837807730E+02 -0.22456423149E+03  0.24570482277E+03  0.91948743623E+02 0.  0.
         23    2    1    2    0    0  0.21800284712E+02 -0.30830470862E+02  0.25382436983E+03  0.27233159910E+03  0.91169725259E+02 0.  0.
        -11    1    3    3    0    0  0.68216469400E+01  0.52568734157E+02 -0.66481178579E+02  0.85027958832E+02  0.00000000000E+00 0. -1.
         11    1    3    3    0    0  0.17609882744E+02 -0.22730926428E+02 -0.15808305291E+03  0.16067686394E+03  0.00000000000E+00 0.  1.
        -13    1    4    4    0    0  0.36509303923E+02 -0.51624698693E+02  0.22569124938E+03  0.23438126810E+03  0.00000000000E+00 0. -1.
         13    1    4    4    0    0 -0.14709019211E+02  0.20794227831E+02  0.28133120446E+02  0.37950331003E+02  0.00000000000E+00 0.  1.
         21    1    1    2  502  501 -0.46231814396E+02  0.99266313256E+00  0.19103401219E+03  0.19655116346E+03  0.00000000000E+00 0. -1.
<scales pt_clust_5="13000.00000" pt_clust_6="13000.00000" pt_clust_7="13000.00000" pt_clust_8="13000.00000" pt_clust_9="46.24247"></scales>
<clustering>
<clus scale="   46.242">  1  9  2 -1</clus>
<clus scale="   91.170">  7  8 -1 -1</clus>
<clus scale="   91.949">  5  6 -1 -1</clus>
<clus scale="   98.577">  1  7  2 -1</clus>
<clus scale="   46.242">  1  5  2 -1</clus>
</clustering>
</event>
<event>
 9    1  0.1296032E-005  0.1028083E+03  0.7546771E-02  0.1276561E+00
         -4   -1    0    0    0  501 -0.00000000000E+00  0.00000000000E+00  0.54869203314E+02  0.54869203314E+02  0.00000000000E+00 0.  1.
          4   -1    0    0  502    0  0.00000000000E+00 -0.00000000000E+00 -0.27657877940E+03  0.27657877940E+03  0.00000000000E+00 0. -1.
         23    2    1    2    0    0 -0.31806762178E+02 -0.26360052765E+02 -0.40693382345E+02  0.10859658612E+03  0.91819086516E+02 0.  0.
         23    2    1    2    0    0  0.55345015801E+02  0.19944939203E+02 -0.14093424855E+03  0.17592842358E+03  0.87335424867E+02 0.  0.
        -11    1    4    4    0    0 -0.22110314826E+02 -0.68511154505E+01 -0.26752399381E+02  0.35376470673E+02  0.00000000000E+00 0.  1.
         11    1    4    4    0    0  0.77455330627E+02  0.26796054654E+02 -0.11418184917E+03  0.14055195291E+03  0.00000000000E+00 0. -1.
        -13    1    3    3    0    0 -0.45803677490E+02 -0.47807048320E+02 -0.48216311040E+02  0.81904233046E+02  0.00000000000E+00 0.  1.
         13    1    3    3    0    0  0.13996915313E+02  0.21446995554E+02  0.75229286945E+01  0.26692353076E+02  0.00000000000E+00 0. -1.
         21    1    1    2  502  501 -0.23538253623E+02  0.64151135621E+01 -0.40081945188E+02  0.46922973006E+02  0.00000000000E+00 0. -1.
<scales pt_clust_5="13000.00000" pt_clust_6="13000.00000" pt_clust_7="13000.00000" pt_clust_8="13000.00000" pt_clust_9="24.39678"></scales>
<clustering>
<clus scale="   24.397">  2  9  1 -1</clus>
<clus scale="   87.335">  5  6 -1 -1</clus>
<clus scale="   91.819">  7  8 -1 -1</clus>
<clus scale="   98.824">  2  5  1 -1</clus>
<clus scale="   24.397">  2  5  1 -1</clus>
</clustering>
</event>
<event>
 9    1  0.1296032E-005  0.1283145E+03  0.7546771E-02  0.1230268E+00
          2   -1    0    0  502    0  0.00000000000E+00  0.00000000000E+00  0.10109140331E+03  0.10109140331E+03  0.00000000000E+00 0. -1.
         -2   -1    0    0    0  501 -0.00000000000E+00 -0.00000000000E+00 -0.26132125759E+03  0.26132125759E+03  0.00000000000E+00 0.  1.
         23    2    1    2    0    0  0.93739184045E+02  0.17009654343E+02 -0.13929895683E+03  0.19131570604E+03  0.90117351465E+02 0.  0.
         23    2    1    2    0    0 -0.75192199426E+02 -0.46597251771E+02 -0.39468696208E+02  0.13156131850E+03  0.89024894366E+02 0.  0.
        -11    1    4    4    0    0 -0.97434342686E+01 -0.46436264421E+02 -0.45623313124E+02  0.65823611760E+02  0.00000000000E+00 0.  1.
         11    1    4    4    0    0 -0.65448765157E+02 -0.16098734973E+00  0.61546169158E+01  0.65737706736E+02  0.00000000000E+00 0. -1.
        -13    1    3    3    0    0  0.67670608253E+02 -0.11247657756E+02 -0.13650067673E+03  0.15276863478E+03  0.00000000000E+00 0.  1.
         13    1    3    3    0    0  0.26068575792E+02  0.28257312098E+02 -0.27982801085E+01  0.38547071256E+02  0.00000000000E+00 0. -1.
         21    1    1    2  502  501 -0.18546984619E+02  0.29587597428E+02  0.18537798758E+02  0.39535636366E+02  0.00000000000E+00 0. -1.
<scales pt_clust_5="13000.00000" pt_clust_6="13000.00000" pt_clust_7="13000.00000" pt_clust_8="13000.00000" pt_clust_9="34.92015"></scales>
<clustering>
<clus scale="   34.920">  1  9  2 -1</clus>
<clus scale="   89.025">  5  6 -1 -1</clus>
<clus scale="   90.117">  7  8 -1 -1</clus>
<clus scale="  127.550">  1  5  2 -1</clus>
<clus scale="   34.920">  1  5  2 -1</clus>
</clustering>
</event>
<event>
 9    1  0.1296032E-005  0.1396776E+03  0.7546771E-02  0.1215911E+00
         -1   -1    0    0    0  501 -0.00000000000E+00  0.00000000000E+00  0.80567117438E+02  0.80567117438E+02  0.00000000000E+00 0.  1.
          1   -1    0    0  502    0  0.00000000000E+00 -0.00000000000E+00 -0.46596903814E+03  0.46596903814E+03  0.00000000000E+00 0. -1.
         23    2    1    2    0    0  0.64933194536E+02 -0.78535627375E+02 -0.84052098311E+01  0.14254883766E+03  0.99324513828E+02 0.  0.
         23    2    1    2    0    0 -0.52326404199E+02  0.61599535060E+02 -0.34468651473E+03  0.36539054136E+03  0.90381961608E+02 0.  0.
        -11    1    4    4    0    0 -0.66743736086E+02  0.39383135635E+02 -0.31977306157E+03  0.32902973815E+03  0.00000000000E+00 0. -1.
         11    1    4    4    0    0  0.14417331887E+02  0.22216399425E+02 -0.24913453162E+02  0.36360803217E+02  0.00000000000E+00 0.  1.
        -13    1    3    3    0    0  0.36045201609E+02 -0.92698344127E+02  0.17817488049E+02  0.10104307222E+03  0.00000000000E+00 0.  1.
         13    1    3    3    0    0  0.28887992927E+02  0.14162716752E+02 -0.26222697880E+02  0.41505765446E+02  0.00000000000E+00 0. -1.
         21    1    1    2  502  501 -0.12606790337E+02  0.16936092315E+02 -0.32310196138E+02  0.38596776549E+02  0.00000000000E+00 0. -1.
<scales pt_clust_5="13000.00000" pt_clust_6="13000.00000" pt_clust_7="13000.00000" pt_clust_8="13000.00000" pt_clust_9="21.11309"></scales>
<clustering>
<clus scale="   21.113">  2  9  1 -1</clus>
<clus scale="   90.382">  5  6 -1 -1</clus>
<clus scale="   99.325">  7  8 -1 -1</clus>
<clus scale="  133.467">  2  5  1 -1</clus>
<clus scale="   21.113">  2  5  1 -1</clus>
</clustering>
</event>
<event>
 9    1  0.1296032E-005  0.1054310E+03  0.7546771E-02  0.1272948E+00
         -1   -1    0    0    0  501 -0.00000000000E+00  0.00000000000E+00  0.34843323950E+03  0.34843323950E+03  0.00000000000E+00 0.  1.
          1   -1    0    0  502    0  0.00000000000E+00 -0.00000000000E+00 -0.12432285702E+03  0.12432285702E+03  0.00000000000E+00 0. -1.
         23    2    1    2    0    0 -0.23852972779E+01 -0.32334687074E+02  0.27567011606E+03  0.29228879664E+03  0.91583328818E+02 0.  0.
         23    2    1    2    0    0 -0.29883848420E+02  0.59191191313E+02 -0.75299382541E+01  0.11962987340E+03  0.99287285757E+02 0.  0.
        -13    1    3    3    0    0  0.19204399859E+02  0.14687537255E+02  0.19830716318E+02  0.31269634380E+02  0.00000000000E+00 0. -1.
         13    1    3    3    0    0 -0.21589697136E+02 -0.47022224329E+02  0.25583939974E+03  0.26101916226E+03  0.00000000000E+00 0.  1.
        -13    1    4    4    0    0  0.34788615460E+02  0.59164537587E+01  0.17266596984E+01  0.35330348773E+02  0.00000000000E+00 0.  1.
         13    1    4    4    0    0 -0.64672463881E+02  0.53274737554E+02 -0.92565979525E+01  0.84299524622E+02  0.00000000000E+00 0. -1.
         21    1    1    2  502  501  0.32269145698E+02 -0.26856504239E+02 -0.44029795328E+02  0.60837426480E+02  0.00000000000E+00 0.  1.
<scales pt_clust_5="13000.00000" pt_clust_6="13000.00000" pt_clust_7="13000.00000" pt_clust_8="13000.00000" pt_clust_9="41.98297"></scales>
<clustering>
<clus scale="   41.983">  2  9  1 -1</clus>
<clus scale="   91.583">  5  6 -1 -1</clus>
<clus scale="   98.210">  1  5  2 -1</clus>
<clus scale="   99.287">  7  8 -1 -1</clus>
<clus scale="   41.983">  2  5  1 -1</clus>
</clustering>
</event>
<event>
 9    1  0.1296032E-005  0.1283299E+03  0.7546771E-02  0.1230052E+00
          1   -1    0    0  502    0  0.00000000000E+00  0.00000000000E+00  0.14009754650E+03  0.14009754650E+03  0.00000000000E+00 0. -1.
         -1   -1    0    0    0  501 -0.00000000000E+00 -0.00000000000E+00 -0.20674397394E+03  0.20674397394E+03  0.00000000000E+00 0.  1.
         23    2    1    2    0    0  0.60947722371E+02 -0.87802003725E+02 -0.32045909358E+02  0.14422930939E+03  0.91385647995E+02 0.  0.
         23    2    1    2    0    0 -0.16410548615E+02  0.81909689990E+02  0.26908222463E+02  0.12644394751E+03  0.91024809836E+02 0.  0.
        -11    1    3    3    0    0 -0.91237942423E+01 -0.59865364465E+02  0.38704095660E+01  0.60680190788E+02  0.00000000000E+00 0. -1.
         11    1    3    3    0    0  0.70071516614E+02 -0.27936639260E+02 -0.35916318924E+02  0.83549118599E+02  0.00000000000E+00 0.  1.
        -13    1    4    4    0    0 -0.24943626128E+02  0.13128830188E+02  0.46538551469E+02  0.54409442556E+02  0.00000000000E+00 0. -1.
         13    1    4    4    0    0  0.85330775131E+01  0.68780859802E+02 -0.19630329006E+02  0.72034504953E+02  0.00000000000E+00 0.  1.
         21    1    1    2  502  501 -0.44537173757E+02  0.58923137347E+01 -0.61508740545E+02  0.76168263541E+02  0.00000000000E+00 0.  1.
<scales pt_clust_5="13000.00000" pt_clust_6="13000.00000" pt_clust_7="13000.00000" pt_clust_8="13000.00000" pt_clust_9="44.92526"></scales>
<clustering>
<clus scale="   44.925">  2  9  1 -1</clus>
<clus scale="   91.025">  7  8 -1 -1</clus>
<clus scale="   91.386">  5  6 -1 -1</clus>
<clus scale="  128.073">  1  7  2 -1</clus>
<clus scale="  128.073">  1  5  2 -1</clus>
</clustering>
</event>
<event>
 9    1  0.1296032E-005  0.1026258E+03  0.7546771E-02  0.1275647E+00
          1   -1    0    0  502    0  0.00000000000E+00  0.00000000000E+00  0.43660113060E+03  0.43660113060E+03  0.00000000000E+00 0. -1.
         -1   -1    0    0    0  501 -0.00000000000E+00 -0.00000000000E+00 -0.40558678774E+02  0.40558678774E+02  0.00000000000E+00 0.  1.
         23    2    1    2    0    0  0.38315717956E+00  0.49941582151E+02  0.70673531037E+02  0.12530483601E+03  0.90621440619E+02 0.  0.
         23    2    1    2    0    0  0.12302029271E+02 -0.34113073850E+02  0.18390556662E+03  0.20894473510E+03  0.92312529806E+02 0.  0.
        -11    1    3    3    0    0 -0.18919839734E+02  0.70072039416E+02  0.63667698271E+02  0.96548572473E+02  0.00000000000E+00 0. -1.
         11    1    3    3    0    0  0.19302996914E+02 -0.20130457265E+02  0.70058327665E+01  0.28756263532E+02  0.00000000000E+00 0.  1.
        -11    1    4    4    0    0  0.28479905806E+02 -0.19509760113E+02  0.18393921485E+03  0.18715066266E+03  0.00000000000E+00 0.  1.
         11    1    4    4    0    0 -0.16177876535E+02 -0.14603313737E+02 -0.33648226972E-01  0.21794072440E+02  0.00000000000E+00 0. -1.
         21    1    1    2  502  501 -0.12685186451E+02 -0.15828508301E+02  0.14146335417E+03  0.14291023827E+03  0.00000000000E+00 0. -1.
<scales pt_clust_5="13000.00000" pt_clust_6="13000.00000" pt_clust_7="13000.00000" pt_clust_8="13000.00000" pt_clust_9="20.28437"></scales>
<clustering>
<clus scale="   20.284">  1  9  2 -1</clus>
<clus scale="   90.621">  5  6 -1 -1</clus>
<clus scale="   92.313">  7  8 -1 -1</clus>
<clus scale="  101.107">  2  5  1 -1</clus>
<clus scale="   20.284">  1  5  2 -1</clus>
</clustering>
</event>
<event>
 9    1  0.1296032E-005  0.9916875E+02  0.7546771E-02  0.1283101E+00
         -2   -1    0    0    0  501 -0.00000000000E+00  0.00000000000E+00  0.10111577421E+03  0.10111577421E+03  0.00000000000E+00 0.  1.
          2   -1    0    0  502    0  0.00000000000E+00 -0.00000000000E+00 -0.17145539314E+03  0.17145539314E+03  0.00000000000E+00 0. -1.
         23    2    1    2    0    0 -0.24327246595E+02  0.37294167620E+01  0.83902891110E+01  0.92988219798E+02  0.89278712992E+02 0.  0.
         23    2    1    2    0    0  0.60441637365E+02 -0.14573516057E+01 -0.21195027145E+02  0.11161476367E+03  0.91396449011E+02 0.  0.
        -11    1    4    4    0    0  0.21341848629E+02  0.43086938762E+02 -0.20681750467E+02  0.52342082469E+02  0.00000000000E+00 0.  1.
         11    1    4    4    0    0  0.39099788736E+02 -0.44544290368E+02 -0.51327667825E+00  0.59272681199E+02  0.00000000000E+00 0. -1.
        -13    1    3    3    0    0 -0.42337738284E+02  0.16139095259E+02  0.35925177073E+02  0.57823635536E+02  0.00000000000E+00 0.  1.
         13    1    3    3    0    0  0.18010491689E+02 -0.12409678497E+02 -0.27534887962E+02  0.35164584263E+02  0.00000000000E+00 0. -1.
         21    1    1    2  502  501 -0.36114390769E+02 -0.22720651564E+01 -0.57534880898E+02  0.67968183885E+02  0.00000000000E+00 0. -1.
<scales pt_clust_5="13000.00000" pt_clust_6="13000.00000" pt_clust_7="13000.00000" pt_clust_8="13000.00000" pt_clust_9="36.18579"></scales>
<clustering>
<clus scale="   36.186">  2  9  1 -1</clus>
<clus scale="   89.279">  7  8 -1 -1</clus>
<clus scale="   91.396">  5  6 -1 -1</clus>
<clus scale="   97.220">  1  7  2 -1</clus>
<clus scale="   36.186">  2  5  1 -1</clus>
</clustering>
</event>
<event>
 9    1  0.1296032E-005  0.1014907E+03  0.7546771E-02  0.1279382E+00
         -4   -1    0    0    0  501 -0.00000000000E+00  0.00000000000E+00  0.63738807283E+03  0.63738807283E+03  0.00000000000E+00 0.  1.
          4   -1    0    0  502    0  0.00000000000E+00 -0.00000000000E+00 -0.11891183862E+03  0.11891183862E+03  0.00000000000E+00 0. -1.
         23    2    1    2    0    0  0.20172497662E+02  0.30855743296E+02  0.51999526089E+03  0.52995084705E+03  0.95361535133E+02 0.  0.
         23    2    1    2    0    0  0.36156722442E+02 -0.43218549299E+02  0.74917299038E+02  0.13059765763E+03  0.90928515345E+02 0.  0.
        -13    1    4    4    0    0  0.63135430627E+02 -0.96533735206E+01  0.42992140029E+02  0.76990871699E+02  0.00000000000E+00 0.  1.
         13    1    4    4    0    0 -0.26978708185E+02 -0.33565175779E+02  0.31925159009E+02  0.53606785934E+02  0.00000000000E+00 0. -1.
        -13    1    3    3    0    0 -0.28074734249E+02  0.43259914415E+02  0.29854411762E+03  0.30296567638E+03  0.00000000000E+00 0. -1.
         13    1    3    3    0    0  0.48247231910E+02 -0.12404171119E+02  0.22145114327E+03  0.22698517067E+03  0.00000000000E+00 0.  1.
         21    1    1    2  502  501 -0.56329220104E+02  0.12362806003E+02 -0.76436325717E+02  0.95751406772E+02  0.00000000000E+00 0. -1.
<scales pt_clust_5="13000.00000" pt_clust_6="13000.00000" pt_clust_7="13000.00000" pt_clust_8="13000.00000" pt_clust_9="57.66992"></scales>
<clustering>
<clus scale="   57.670">  2  9  1 -1</clus>
<clus scale="   90.929">  5  6 -1 -1</clus>
<clus scale="   95.362">  7  8 -1 -1</clus>
<clus scale="   97.337">  2  5  1 -1</clus>
<clus scale="   57.670">  2  5  1 -1</clus>
</clustering>
</event>
<event>
 9    1  0.1296032E-005  0.1250720E+03  0.7546771E-02  0.1235446E+00
         -2   -1    0    0    0  501 -0.00000000000E+00  0.00000000000E+00  0.98047498636E+02  0.98047498636E+02  0.00000000000E+00 0.  1.
          2   -1    0    0  502    0  0.00000000000E+00 -0.00000000000E+00 -0.25734268235E+03  0.25734268235E+03  0.00000000000E+00 0. -1.
         23    2    1    2    0    0  0.77771204304E+02 -0.12985570265E+02  0.12429443110E+02  0.12109821873E+03  0.91067569796E+02 0.  0.
         23    2    1    2    0    0 -0.99862535829E+02  0.12647496436E+02 -0.15337917472E+03  0.20557442693E+03  0.92753374829E+02 0.  0.
        -11    1    4    4    0    0 -0.40494371127E+02 -0.36234273807E+02 -0.35774180014E+02  0.65057733183E+02  0.00000000000E+00 0.  1.
         11    1    4    4    0    0 -0.59368164702E+02  0.48881770243E+02 -0.11760499471E+03  0.14051669375E+03  0.00000000000E+00 0. -1.
        -13    1    3    3    0    0  0.37089319905E+02 -0.40312827908E+02  0.37169987731E+02  0.66199318221E+02  0.00000000000E+00 0.  1.
         13    1    3    3    0    0  0.40681884399E+02  0.27327257644E+02 -0.24740544621E+02  0.54898900506E+02  0.00000000000E+00 0. -1.
         21    1    1    2  502  501  0.22091331524E+02  0.33807382865E+00 -0.18345452102E+02  0.28717535327E+02  0.00000000000E+00 0.  1.
<scales pt_clust_5="13000.00000" pt_clust_6="13000.00000" pt_clust_7="13000.00000" pt_clust_8="13000.00000" pt_clust_9="22.09392"></scales>
<clustering>
<clus scale="   22.094">  2  9  1 -1</clus>
<clus scale="   91.068">  7  8 -1 -1</clus>
<clus scale="   92.753">  5  6 -1 -1</clus>
<clus scale="  123.827">  1  7  2 -1</clus>
<clus scale="   22.094">  2  5  1 -1</clus>
</clustering>
</event>
<event>
 9    1  0.1296032E-005  0.1220178E+03  0.7546771E-02  0.1241220E+00
         -2   -1    0    0    0  501 -0.00000000000E+00  0.00000000000E+00  0.17904448187E+03  0.17904448187E+03  0.00000000000E+00 0.  1.
          2   -1    0    0  502    0  0.00000000000E+00 -0.00000000000E+00 -0.14893019341E+03  0.14893019341E+03  0.00000000000E+00 0. -1.
         23    2    1    2    0    0  0.70435220318E+02  0.40285835745E+02  0.99442285064E+02  0.15512586088E+03  0.87127468876E+02 0.  0.
         23    2    1    2    0    0 -0.55707378466E+02 -0.58684668653E+02 -0.28373260673E+02  0.12559718190E+03  0.91773677221E+02 0.  0.
        -13    1    3    3    0    0 -0.10130978318E+02  0.21618601515E+02  0.57791943728E+02  0.62529268451E+02  0.00000000000E+00 0.  1.
         13    1    3    3    0    0  0.80566198637E+02  0.18667234230E+02  0.41650341337E+02  0.92596592432E+02  0.00000000000E+00 0. -1.
        -13    1    4    4    0    0 -0.52405911663E+02 -0.10549805787E+01  0.13687991129E+02  0.54174289680E+02  0.00000000000E+00 0.  1.
         13    1    4    4    0    0 -0.33014668036E+01 -0.57629688074E+02 -0.42061251801E+02  0.71422892224E+02  0.00000000000E+00 0. -1.
         21    1    1    2  502  501 -0.14727841852E+02  0.18398832908E+02 -0.40954735933E+02  0.47251632494E+02  0.00000000000E+00 0.  1.
<scales pt_clust_5="13000.00000" pt_clust_6="13000.00000" pt_clust_7="13000.00000" pt_clust_8="13000.00000" pt_clust_9="23.56749"></scales>
<clustering>
<clus scale="   23.567">  2  9  1 -1</clus>
<clus scale="   87.127">  5  6 -1 -1</clus>
<clus scale="   91.774">  7  8 -1 -1</clus>
<clus scale="  118.563">  1  5  2 -1</clus>
<clus scale="   23.567">  2  5  1 -1</clus>
</clustering>
</event>
<event>
 9    1  0.1296032E-005  0.1841871E+03  0.7546771E-02  0.1163926E+00
          1   -1    0    0  502    0  0.00000000000E+00  0.00000000000E+00  0.43203007805E+03  0.43203007805E+03  0.00000000000E+00 0. -1.
         -1   -1    0    0    0  501 -0.00000000000E+00 -0.00000000000E+00 -0.32960659811E+03  0.32960659811E+03  0.00000000000E+00 0.  1.
         23    2    1    2    0    0  0.15048206569E+03  0.63707756715E+02 -0.27809172100E+03  0.33473795349E+03  0.89503976765E+02 0.  0.
         23    2    1    2    0    0 -0.11400876770E+03 -0.51275168293E+02  0.31781898088E+03  0.35330737311E+03  0.90498913198E+02 0.  0.
        -11    1    4    4    0    0 -0.47512850235E+02  0.24527919484E+02  0.11299467534E+03  0.12500754548E+03  0.00000000000E+00 0.  1.
         11    1    4    4    0    0 -0.66495917466E+02 -0.75803087776E+02  0.20482430554E+03  0.22829982763E+03  0.00000000000E+00 0. -1.
        -13    1    3    3    0    0  0.15207502252E+03  0.33058554323E+02 -0.23188638955E+03  0.27926864870E+03  0.00000000000E+00 0.  1.
         13    1    3    3    0    0 -0.15929568389E+01  0.30649202392E+02 -0.46205331450E+02  0.55469304783E+02  0.00000000000E+00 0. -1.
         21    1    1    2  502  501 -0.36473297984E+02 -0.12432588423E+02  0.62696220065E+02  0.73591349567E+02  0.00000000000E+00 0. -1.
<scales pt_clust_5="13000.00000" pt_clust_6="13000.00000" pt_clust_7="13000.00000" pt_clust_8="13000.00000" pt_clust_9="38.53402"></scales>
<clustering>
<clus scale="   38.534">  1  9  2 -1</clus>
<clus scale="   89.504">  7  8 -1 -1</clus>
<clus scale="   90.499">  5  6 -1 -1</clus>
<clus scale="  183.700">  2  7  1 -1</clus>
<clus scale="   38.534">  1  5  2 -1</clus>
</clustering>
</event>
<event>
 9    1  0.1296032E-005  0.1134750E+03  0.7546771E-02  0.1254755E+00
         -1   -1    0    0    0  501 -0.00000000000E+00  0.00000000000E+00  0.54590119189E+03  0.54590119189E+03  0.00000000000E+00 0.  1.
          1   -1    0    0  502    0  0.00000000000E+00 -0.00000000000E+00 -0.34066273896E+02  0.34066273896E+02  0.00000000000E+00 0. -1.
         23    2    1    2    0    0  0.52959238337E+02 -0.58786950058E+02  0.29126569801E+03  0.31469672276E+03  0.89093961935E+02 0.  0.
         23    2    1    2    0    0 -0.31318799963E+02  0.48217083200E+02  0.21545822440E+03  0.24065056971E+03  0.90469309138E+02 0.  0.
        -13    1    3    3    0    0  0.34213081993E+02 -0.45664554438E+02  0.28543576841E+03  0.29108308848E+03  0.00000000000E+00 0.  1.
         13    1    3    3    0    0  0.18746156343E+02 -0.13122395620E+02  0.58299295986E+01  0.23613634273E+02  0.00000000000E+00 0. -1.
        -13    1    4    4    0    0  0.30250860301E+02  0.17020025350E+02  0.10309207590E+03  0.10877854534E+03  0.00000000000E+00 0. -1.
         13    1    4    4    0    0 -0.61569660264E+02  0.31197057850E+02  0.11236614850E+03  0.13187202437E+03  0.00000000000E+00 0.  1.
         21    1    1    2  502  501 -0.21640438373E+02  0.10569866857E+02  0.51109955787E+01  0.24620173317E+02  0.00000000000E+00 0. -1.
<scales pt_clust_5="13000.00000" pt_clust_6="13000.00000" pt_clust_7="13000.00000" pt_clust_8="13000.00000" pt_clust_9="24.08383"></scales>
<clustering>
<clus scale="   24.084">  2  9  1 -1</clus>
<clus scale="   89.094">  5  6 -1 -1</clus>
<clus scale="   90.469">  7  8 -1 -1</clus>
<clus scale="  112.382">  1  5  2 -1</clus>
<clus scale="   24.084">  2  5  1 -1</clus>
</clustering>
</event>
<event>
 9    1  0.1296032E-005  0.9522053E+02  0.7546771E-02  0.1292929E+00
         -3   -1    0    0    0  501 -0.00000000000E+00  0.00000000000E+00  0.10088879173E+03  0.10088879173E+03  0.00000000000E+00 0.  1.
          3   -1    0    0  502    0  0.00000000000E+00 -0.00000000000E+00 -0.13105763457E+03  0.13105763457E+03  0.00000000000E+00 0. -1.
         23    2    1    2    0    0  0.32903413109E+02  0.95179060882E+01  0.31329758155E+02  0.10211135669E+03  0.90950262717E+02 0.  0.
         23    2    1    2    0    0 -0.11165164169E+02 -0.17216697052E+02 -0.38240403617E+02  0.97081953807E+02  0.86841820213E+02 0.  0.
        -11    1    4    4    0    0  0.14466101313E+02  0.22984844243E+02 -0.41163233035E+02  0.49315138710E+02  0.00000000000E+00 0. -1.
         11    1    4    4    0    0 -0.25631265482E+02 -0.40201541295E+02  0.29228294178E+01  0.47766815097E+02  0.00000000000E+00 0.  1.
        -11    1    3    3    0    0 -0.24471649099E+02  0.27627270372E+02  0.95188731018E+01  0.38114782211E+02  0.00000000000E+00 0. -1.
         11    1    3    3    0    0  0.57375062208E+02 -0.18109364284E+02  0.21810885053E+02  0.63996574478E+02  0.00000000000E+00 0.  1.
         21    1    1    2  502  501 -0.21738248940E+02  0.76987909640E+01 -0.23258197376E+02  0.32753115798E+02  0.00000000000E+00 0.  1.
<scales pt_clust_5="13000.00000" pt_clust_6="13000.00000" pt_clust_7="13000.00000" pt_clust_8="13000.00000" pt_clust_9="23.06128"></scales>
<clustering>
<clus scale="   23.061">  2  9  1 -1</clus>
<clus scale="   86.842">  5  6 -1 -1</clus>
<clus scale="   90.950">  7  8 -1 -1</clus>
<clus scale="   91.304">  2  5  1 -1</clus>
<clus scale="   23.061">  2  5  1 -1</clus>
</clustering>
</event>
<event>
 9    1  0.1296032E-005  0.1515175E+03  0.7546771E-02  0.1199808E+00
          3   -1    0    0  502    0  0.00000000000E+00  0.00000000000E+00  0.16728246632E+03  0.16728246632E+03  0.00000000000E+00 0. -1.
         -3   -1    0    0    0  501 -0.00000000000E+00 -0.00000000000E+00 -0.18375399784E+03  0.18375399784E+03  0.00000000000E+00 0.  1.
         23    2    1    2    0    0 -0.56353940162E+02  0.93487907372E+02 -0.49458101420E+02  0.14983179619E+03  0.89931684946E+02 0.  0.
         23    2    1    2    0    0  0.54157122557E+02 -0.11903236669E+03  0.37987066632E+01  0.16235525653E+03  0.96141046944E+02 0.  0.
        -11    1    3    3    0    0 -0.32033096674E+02  0.44177933290E+02  0.22709561647E+02  0.59106118655E+02  0.00000000000E+00 0. -1.
         11    1    3    3    0    0 -0.24320843489E+02  0.49309974082E+02 -0.72167663066E+02  0.90725677536E+02  0.00000000000E+00 0.  1.
        -13    1    4    4    0    0  0.40287985792E+02 -0.23192439972E+01 -0.15534697302E+02  0.43241502196E+02  0.00000000000E+00 0.  1.
         13    1    4    4    0    0  0.13869136766E+02 -0.11671312269E+03  0.19333403965E+02  0.11911375433E+03  0.00000000000E+00 0. -1.
         21    1    1    2  502  501  0.21968176050E+01  0.25544459315E+02  0.29187863230E+02  0.38849411440E+02  0.00000000000E+00 0. -1.
<scales pt_clust_5="13000.00000" pt_clust_6="13000.00000" pt_clust_7="13000.00000" pt_clust_8="13000.00000" pt_clust_9="25.63875"></scales>
<clustering>
<clus scale="   25.639">  1  9  2 -1</clus>
<clus scale="   89.932">  5  6 -1 -1</clus>
<clus scale="   96.141">  7  8 -1 -1</clus>
<clus scale="  147.656">  2  5  1 -1</clus>
<clus scale="   25.639">  1  5  2 -1</clus>
</clustering>
</event>
<event>
 9    1  0.1296032E-005  0.1000611E+03  0.7546771E-02  0.1281690E+00
          2   -1    0    0  502    0  0.00000000000E+00  0.00000000000E+00  0.14390001312E+03  0.14390001312E+03  0.00000000000E+00 0. -1.
         -2   -1    0    0    0  501 -0.00000000000E+00 -0.00000000000E+00 -0.25121844130E+03  0.25121844130E+03  0.00000000000E+00 0.  1.
         23    2    1    2    0    0  0.31049440076E+02 -0.23042087654E+02 -0.20489579627E+03  0.22868574796E+03  0.93914207980E+02 0.  0.
         23    2    1    2    0    0  0.42911994322E+01  0.32443041189E+01  0.83571031539E+02  0.12357141276E+03  0.90867138385E+02 0.  0.
        -11    1    4    4    0    0 -0.19611987919E+02 -0.32665799485E+02  0.11893819416E+02  0.39914251420E+02  0.00000000000E+00 0.  1.
         11    1    4    4    0    0  0.23903187351E+02  0.35910103604E+02  0.71677212123E+02  0.83657161344E+02  0.00000000000E+00 0. -1.
        -13    1    3    3    0    0  0.21429404071E+02  0.24632458402E+02 -0.21843277028E+02  0.39282389401E+02  0.00000000000E+00 0. -1.
         13    1    3    3    0    0  0.96200360050E+01 -0.47674546056E+02 -0.18305251924E+03  0.18940335856E+03  0.00000000000E+00 0.  1.
         21    1    1    2  502  501 -0.35340639508E+02  0.19797783535E+02  0.14006336542E+02  0.42861293693E+02  0.00000000000E+00 0. -1.
<scales pt_clust_5="13000.00000" pt_clust_6="13000.00000" pt_clust_7="13000.00000" pt_clust_8="13000.00000" pt_clust_9="40.50818"></scales>
<clustering>
<clus scale="   40.508">  1  9  2 -1</clus>
<clus scale="   90.867">  5  6 -1 -1</clus>
<clus scale="   93.914">  7  8 -1 -1</clus>
<clus scale="   97.207">  1  5  2 -1</clus>
<clus scale="   40.508">  1  5  2 -1</clus>
</clustering>
</event>
<event>
 9    1  0.1296032E-005  0.1254945E+03  0.7546771E-02  0.1234370E+00
          1   -1    0    0  502    0  0.00000000000E+00  0.00000000000E+00  0.14573329695E+04  0.14573329695E+04  0.00000000000E+00 0. -1.
         -1   -1    0    0    0  501 -0.00000000000E+00 -0.00000000000E+00 -0.52094234849E+02  0.52094234849E+02  0.00000000000E+00 0.  1.
         23    2    1    2    0    0 -0.23807531885E+02 -0.72589869849E+02  0.80329710019E+02  0.14321120749E+03  0.90666972264E+02 0.  0.
         23    2    1    2    0    0  0.13662652004E+03  0.81001013991E+02  0.47895451045E+03  0.51273025503E+03  0.90922610496E+02 0.  0.
        -11    1    4    4    0    0  0.95326118639E+02  0.57612128149E+02  0.43138246801E+03  0.44553008867E+03  0.00000000000E+00 0. -1.
         11    1    4    4    0    0  0.41300401406E+02  0.23388885843E+02  0.47572042438E+02  0.67200166361E+02  0.00000000000E+00 0.  1.
        -13    1    3    3    0    0 -0.49210270746E+02 -0.21470631369E+02  0.64603513788E+02  0.84001504463E+02  0.00000000000E+00 0. -1.
         13    1    3    3    0    0  0.25402738861E+02 -0.51119238480E+02  0.15726196230E+02  0.59209703025E+02  0.00000000000E+00 0.  1.
         21    1    1    2  502  501 -0.11281898816E+03 -0.84111441429E+01  0.84595451421E+03  0.85348574185E+03  0.00000000000E+00 0.  1.
<scales pt_clust_5="13000.00000" pt_clust_6="13000.00000" pt_clust_7="13000.00000" pt_clust_8="13000.00000" pt_clust_9="113.13210"></scales>
<clustering>
<clus scale="   90.667">  7  8 -1 -1</clus>
<clus scale="   90.923">  5  6 -1 -1</clus>
<clus scale="  113.132">  1  9  2 -1</clus>
<clus scale="  125.309">  2  7  1 -1</clus>
<clus scale="  113.132">  1  5  2 -1</clus>
</clustering>
</event>
<event>
 9    1  0.1296032E-005  0.9003687E+02  0.7546771E-02  0.1306151E+00
         -2   -1    0    0    0  501 -0.00000000000E+00  0.00000000000E+00  0.19998228518E+02  0.19998228518E+02  0.00000000000E+00 0.  1.
          2   -1    0    0  502    0  0.00000000000E+00 -0.00000000000E+00 -0.76172177927E+03  0.76172177927E+03  0.00000000000E+00 0. -1.
         23    2    1    2    0    0 -0.15894287051E+02 -0.32432988638E+02 -0.19306074313E+03  0.21519649992E+03  0.87934952827E+02 0.  0.
         23    2    1    2    0    0  0.16001477939E+02 -0.19856581067E+02 -0.28652983912E+03  0.29922610091E+03  0.82380699503E+02 0.  0.
        -11    1    3    3    0    0 -0.21870550941E+02  0.27329295224E+02 -0.70874268956E+02  0.79046653161E+02  0.00000000000E+00 0. -1.
         11    1    3    3    0    0  0.59762638898E+01 -0.59762283862E+02 -0.12218647417E+03  0.13614984676E+03  0.00000000000E+00 0.  1.
        -11    1    4    4    0    0  0.33550672954E+02  0.14178430704E+02 -0.21526472160E+03  0.21832447393E+03  0.00000000000E+00 0. -1.
         11    1    4    4    0    0 -0.17549195015E+02 -0.34035011771E+02 -0.71265117521E+02  0.80901626975E+02  0.00000000000E+00 0.  1.
         21    1    1    2  502  501 -0.10719088754E+00  0.52289569705E+02 -0.26213296851E+03  0.26729740696E+03  0.00000000000E+00 0. -1.
<scales pt_clust_5="13000.00000" pt_clust_6="13000.00000" pt_clust_7="13000.00000" pt_clust_8="13000.00000" pt_clust_9="52.28968"></scales>
<clustering>
<clus scale="   52.290">  2  9  1 -1</clus>
<clus scale="   82.381">  7  8 -1 -1</clus>
<clus scale="   84.621">  2  7  1 -1</clus>
<clus scale="   87.935">  5  6 -1 -1</clus>
<clus scale="   52.290">  2  5  1 -1</clus>
</clustering>
</event>
<event>
 9    1  0.1296032E-005  0.1715814E+03  0.7546771E-02  0.1176233E+00
         -2   -1    0    0    0  501 -0.00000000000E+00  0.00000000000E+00  0.92553089610E+02  0.92553089610E+02  0.00000000000E+00 0.  1.
          2   -1    0    0  502    0  0.00000000000E+00 -0.00000000000E+00 -0.43224941764E+03  0.43224941764E+03  0.00000000000E+00 0. -1.
         23    2    1    2    0    0 -0.13244772950E+03  0.80399886732E+02 -0.91224631657E+02  0.20173450279E+03  0.91478595072E+02 0.  0.
         23    2    1    2    0    0  0.11856791034E+03 -0.60782272125E+02 -0.14570625893E+03  0.21753016615E+03  0.91302931646E+02 0.  0.
        -11    1    4    4    0    0  0.15488655474E+02 -0.56066539747E+02 -0.47813651894E+02  0.75296086452E+02  0.00000000000E+00 0. -1.
         11    1    4    4    0    0  0.10307925486E+03 -0.47157323775E+01 -0.97892607034E+02  0.14223407969E+03  0.00000000000E+00 0.  1.
        -13    1    3    3    0    0 -0.13154727438E+03  0.54020417477E+02 -0.46164285175E+02  0.14951264872E+03  0.00000000000E+00 0.  1.
         13    1    3    3    0    0 -0.90045512854E+00  0.26379469255E+02 -0.45060346482E+02  0.52221854071E+02  0.00000000000E+00 0. -1.
         21    1    1    2  502  501  0.13879819170E+02 -0.19617614607E+02 -0.10276543745E+03  0.10553783832E+03  0.00000000000E+00 0. -1.
<scales pt_clust_5="13000.00000" pt_clust_6="13000.00000" pt_clust_7="13000.00000" pt_clust_8="13000.00000" pt_clust_9="24.03123"></scales>
<clustering>
<clus scale="   24.031">  2  9  1 -1</clus>
<clus scale="   91.303">  5  6 -1 -1</clus>
<clus scale="   91.479">  7  8 -1 -1</clus>
<clus scale="  171.488">  2  5  1 -1</clus>
<clus scale="   24.031">  2  5  1 -1</clus>
</clustering>
</event>
<event>
 9    1  0.1296032E-005  0.1036783E+03  0.7546771E-02  0.1277949E+00
         -2   -1    0    0    0  501 -0.00000000000E+00  0.00000000000E+00  0.42610297542E+02  0.42610297542E+02  0.00000000000E+00 0.  1.
          2   -1    0    0  502    0  0.00000000000E+00 -0.00000000000E+00 -0.33707430875E+03  0.33707430875E+03  0.00000000000E+00 0. -1.
         23    2    1    2    0    0  0.39193318604E+02  0.21572660671E+02 -0.77429434274E+02  0.12236291024E+03  0.83521665441E+02 0.  0.
         23    2    1    2    0    0 -0.45515697166E+02  0.90893179040E+01 -0.14885052327E+03  0.18229373743E+03  0.94446990643E+02 0.  0.
        -11    1    3    3    0    0  0.91571130109E+01  0.25883930549E+02  0.10461344632E+02  0.29381462028E+02  0.00000000000E+00 0.  1.
         11    1    3    3    0    0  0.30036205593E+02 -0.43112698783E+01 -0.87890778906E+02  0.92981448209E+02  0.00000000000E+00 0. -1.
        -13    1    4    4    0    0  0.25062051989E+02  0.16697512082E+02 -0.69965419508E+02  0.76171341636E+02  0.00000000000E+00 0.  1.
         13    1    4    4    0    0 -0.70577749155E+02 -0.76081941776E+01 -0.78885103761E+02  0.10612239580E+03  0.00000000000E+00 0. -1.
         21    1    1    2  502  501  0.63223785619E+01 -0.30661978575E+02 -0.68184053663E+02  0.75027958620E+02  0.00000000000E+00 0. -1.
<scales pt_clust_5="13000.00000" pt_clust_6="13000.00000" pt_clust_7="13000.00000" pt_clust_8="13000.00000" pt_clust_9="31.30702"></scales>
<clustering>
<clus scale="   31.307">  2  9  1 -1</clus>
<clus scale="   83.522">  5  6 -1 -1</clus>
<clus scale="   93.834">  1  5  2 -1</clus>
<clus scale="   94.447">  7  8 -1 -1</clus>
<clus scale="   31.307">  2  5  1 -1</clus>
</clustering>
</event>
<event>
 9    1  0.1296032E-005  0.1959013E+03  0.7546771E-02  0.1153346E+00
          1   -1    0    0  502    0  0.00000000000E+00  0.00000000000E+00  0.13976020272E+03  0.13976020272E+03  0.00000000000E+00 0. -1.
         -1   -1    0    0    0  501 -0.00000000000E+00 -0.00000000000E+00 -0.33400993979E+03  0.33400993979E+03  0.00000000000E+00 0.  1.
         23    2    1    2    0    0 -0.88332779239E+02  0.16159837026E+03 -0.13277660506E+03  0.24432270587E+03  0.90262088336E+02 0.  0.
         23    2    1    2    0    0  0.58604774313E+02 -0.15642183118E+03 -0.47470648441E+02  0.19618153247E+03  0.91276625578E+02 0.  0.
        -11    1    4    4    0    0 -0.89719738873E+01 -0.97728808835E+02 -0.41257066764E+02  0.10645920322E+03  0.00000000000E+00 0.  1.
         11    1    4    4    0    0  0.67576748200E+02 -0.58693022348E+02 -0.62135816770E+01  0.89722329255E+02  0.00000000000E+00 0. -1.
        -13    1    3    3    0    0 -0.10717428594E+03  0.13599582283E+03 -0.10866077520E+03  0.20442200337E+03  0.00000000000E+00 0.  1.
         13    1    3    3    0    0  0.18841506704E+02  0.25602547434E+02 -0.24115829856E+02  0.39900702495E+02  0.00000000000E+00 0. -1.
         21    1    1    2  502  501  0.29728004926E+02 -0.51765390806E+01 -0.14002483573E+02  0.33265904165E+02  0.00000000000E+00 0. -1.
<scales pt_clust_5="13000.00000" pt_clust_6="13000.00000" pt_clust_7="13000.00000" pt_clust_8="13000.00000" pt_clust_9="30.17533"></scales>
<clustering>
<clus scale="   30.175">  2  9  1 -1</clus>
<clus scale="   90.262">  7  8 -1 -1</clus>
<clus scale="   91.277">  5  6 -1 -1</clus>
<clus scale="  195.431">  2  7  1 -1</clus>
<clus scale="  195.901">  1  5  2 -1</clus>
</clustering>
</event>
<event>
 9    1  0.1296032E-005  0.1077590E+03  0.7546771E-02  0.1264873E+00
         -1   -1    0    0    0  501 -0.00000000000E+00  0.00000000000E+00  0.34587638187E+03  0.34587638187E+03  0.00000000000E+00 0.  1.
          1   -1    0    0  502    0  0.00000000000E+00 -0.00000000000E+00 -0.49267533239E+03  0.49267533239E+03  0.00000000000E+00 0. -1.
         23    2    1    2    0    0 -0.54028332104E+02  0.25567424568E+02  0.31664682088E+03  0.33487774055E+03  0.91132530264E+02 0.  0.
         23    2    1    2    0    0 -0.28614906549E+02  0.16949865806E+02 -0.30340041666E+03  0.31860063568E+03  0.91369805699E+02 0.  0.
        -11    1    4    4    0    0 -0.57698999111E+02  0.75463140711E+01 -0.25341434493E+03  0.26000952208E+03  0.00000000000E+00 0.  1.
         11    1    4    4    0    0  0.29084092562E+02  0.94035517347E+01 -0.49986071736E+02  0.58591113600E+02  0.00000000000E+00 0. -1.
        -11    1    3    3    0    0 -0.58630764749E+02 -0.78406698382E+01  0.27499577245E+03  0.28128582891E+03  0.00000000000E+00 0.  1.
         11    1    3    3    0    0  0.46024326454E+01  0.33408094406E+02  0.41651048435E+02  0.53591911646E+02  0.00000000000E+00 0. -1.
         21    1    1    2  502  501  0.82643238653E+02 -0.42517290374E+02 -0.16004535474E+03  0.18507333803E+03  0.00000000000E+00 0. -1.
<scales pt_clust_5="13000.00000" pt_clust_6="13000.00000" pt_clust_7="13000.00000" pt_clust_8="13000.00000" pt_clust_9="92.93882"></scales>
<clustering>
<clus scale="   91.133">  7  8 -1 -1</clus>
<clus scale="   91.370">  5  6 -1 -1</clus>
<clus scale="   92.939">  2  9  1 -1</clus>
<clus scale="  107.558">  1  7  2 -1</clus>
<clus scale="   92.939">  2  5  1 -1</clus>
</clustering>
</event>
<event>
 9    1  0.1296032E-005  0.9958329E+02  0.7546771E-02  0.1281554E+00
          2   -1    0    0  502    0  0.00000000000E+00  0.00000000000E+00  0.50881187538E+03  0.50881187538E+03  0.00000000000E+00 0. -1.
         -2   -1    0    0    0  501 -0.00000000000E+00 -0.00000000000E+00 -0.45580538043E+02  0.45580538043E+02  0.00000000000E+00 0.  1.
         23    2    1    2    0    0  0.32022639884E+02  0.36460516675E+02  0.52219934833E+02  0.11649170876E+03  0.92133478570E+02 0.  0.
         23    2    1    2    0    0 -0.25123455034E+01  0.11838249574E+02  0.27747975835E+03  0.29286854173E+03  0.92900540415E+02 0.  0.
        -11    1    4    4    0    0  0.11421116821E+02  0.49397079467E+02  0.11793367636E+03  0.12837003306E+03  0.00000000000E+00 0.  1.
         11    1    4    4    0    0 -0.13933462324E+02 -0.37558829893E+02  0.15954608200E+03  0.16449850867E+03  0.00000000000E+00 0. -1.
        -13    1    3    3    0    0  0.52004954338E+02  0.37659858464E+02  0.40600951454E+01  0.64337116720E+02  0.00000000000E+00 0.  1.
         13    1    3    3    0    0 -0.19982314454E+02 -0.11993417886E+01  0.48159839687E+02  0.52154592035E+02  0.00000000000E+00 0. -1.
         21    1    1    2  502  501 -0.29510294381E+02 -0.48298766249E+02  0.13353164415E+03  0.14503216294E+03  0.00000000000E+00 0. -1.
<scales pt_clust_5="13000.00000" pt_clust_6="13000.00000" pt_clust_7="13000.00000" pt_clust_8="13000.00000" pt_clust_9="56.60060"></scales>
<clustering>
<clus scale="   56.601">  1  9  2 -1</clus>
<clus scale="   92.133">  7  8 -1 -1</clus>
<clus scale="   92.901">  5  6 -1 -1</clus>
<clus scale="   98.868">  2  7  1 -1</clus>
<clus scale="   56.601">  1  5  2 -1</clus>
</clustering>
</event>
<event>
 9    1  0.1296032E-005  0.1118132E+03  0.7546771E-02  0.1257807E+00
         -1   -1    0    0    0  501 -0.00000000000E+00  0.00000000000E+00  0.77767762659E+02  0.77767762659E+02  0.00000000000E+00 0.  1.
          1   -1    0    0  502    0  0.00000000000E+00 -0.00000000000E+00 -0.24168930681E+03  0.24168930681E+03  0.00000000000E+00 0. -1.
         23    2    1    2    0    0 -0.21610186578E+02  0.70217552352E+02 -0.11731098844E+02  0.11819980142E+03  0.91848078657E+02 0.  0.
         23    2    1    2    0    0  0.12376498974E+02 -0.43817929162E+02 -0.10121273737E+03  0.14311152188E+03  0.90353200531E+02 0.  0.
        -11    1    4    4    0    0 -0.38252914294E+00 -0.63622474814E+02 -0.10121713812E+03  0.11955281126E+03  0.00000000000E+00 0. -1.
         11    1    4    4    0    0  0.12759028117E+02  0.19804545652E+02  0.44007489419E-02  0.23558710625E+02  0.00000000000E+00 0.  1.
        -11    1    3    3    0    0 -0.35725872901E+01  0.44994421895E+02  0.38395122506E+02  0.59257462094E+02  0.00000000000E+00 0.  1.
         11    1    3    3    0    0 -0.18037599288E+02  0.25223130457E+02 -0.50126221350E+02  0.58942339324E+02  0.00000000000E+00 0. -1.
         21    1    1    2  502  501  0.92336876039E+01 -0.26399623189E+02 -0.50977707937E+02  0.58145746172E+02  0.00000000000E+00 0.  1.
<scales pt_clust_5="13000.00000" pt_clust_6="13000.00000" pt_clust_7="13000.00000" pt_clust_8="13000.00000" pt_clust_9="27.96786"></scales>
<clustering>
<clus scale="   27.968">  2  9  1 -1</clus>
<clus scale="   90.353">  5  6 -1 -1</clus>
<clus scale="   91.848">  7  8 -1 -1</clus>
<clus scale="  110.588">  2  5  1 -1</clus>
<clus scale="   27.968">  2  5  1 -1</clus>
</clustering>
</event>
<event>
 9    1  0.1296032E-005  0.1236787E+03  0.7546771E-02  0.1237691E+00
         -1   -1    0    0    0  501 -0.00000000000E+00  0.00000000000E+00  0.25233434601E+03  0.25233434601E+03  0.00000000000E+00 0.  1.
          1   -1    0    0  502    0  0.00000000000E+00 -0.00000000000E+00 -0.10722247082E+03  0.10722247082E+03  0.00000000000E+00 0. -1.
         23    2    1    2    0    0 -0.69285137839E+02 -0.17808044747E+02  0.11729585675E+03  0.16591277669E+03  0.93011691071E+02 0.  0.
         23    2    1    2    0    0  0.10401528859E+03 -0.43538002265E+01  0.49625675188E+02  0.14702867925E+03  0.91195334577E+02 0.  0.
        -11    1    4    4    0    0  0.76890553311E+02 -0.62628994528E+01 -0.13479847660E+02  0.78314030614E+02  0.00000000000E+00 0. -1.
         11    1    4    4    0    0  0.27124735278E+02  0.19090992263E+01  0.63105522848E+02  0.68714648640E+02  0.00000000000E+00 0.  1.
        -13    1    3    3    0    0  0.12416462002E+02 -0.30673442864E+02  0.46316396206E+02  0.56923081288E+02  0.00000000000E+00 0. -1.
         13    1    3    3    0    0 -0.81701599841E+02  0.12865398117E+02  0.70979460542E+02  0.10898969540E+03  0.00000000000E+00 0.  1.
         21    1    1    2  502  501 -0.34730150750E+02  0.22161844974E+02 -0.21809656746E+02  0.46615360893E+02  0.00000000000E+00 0. -1.
<scales pt_clust_5="13000.00000" pt_clust_6="13000.00000" pt_clust_7="13000.00000" pt_clust_8="13000.00000" pt_clust_9="41.19867"></scales>
<clustering>
<clus scale="   41.199">  2  9  1 -1</clus>
<clus scale="   91.195">  5  6 -1 -1</clus>
<clus scale="   93.012">  7  8 -1 -1</clus>
<clus scale="  122.319">  2  5  1 -1</clus>
<clus scale="   41.199">  2  5  1 -1</clus>
</clustering>
</event>
<event>
 9    1  0.1296032E-005  0.9854797E+02  0.7546771E-02  0.1290532E+00
         -4   -1    0    0    0  501 -0.00000000000E+00  0.00000000000E+00  0.14656981124E+03  0.14656981124E+03  0.00000000000E+00 0. -1.
          4   -1    0    0  502    0  0.00000000000E+00 -0.00000000000E+00 -0.11286966746E+03  0.11286966746E+03  0.00000000000E+00 0.  1.
         23    2    1    2    0    0  0.19559801934E+02 -0.45628210824E+02  0.49713877549E+02  0.11578499254E+03  0.92033555846E+02 0.  0.
         23    2    1    2    0    0 -0.24316700968E+02  0.11078921259E+02  0.27897264464E+02  0.87579025716E+02  0.78598880008E+02 0.  0.
        -11    1    3    3    0    0  0.91848710096E+00 -0.29591202587E+02  0.74928217958E+02  0.80565009374E+02  0.00000000000E+00 0. -1.
         11    1    3    3    0    0  0.18641314833E+02 -0.16037008236E+02 -0.25214340409E+02  0.35219983165E+02  0.00000000000E+00 0.  1.
        -11    1    4    4    0    0 -0.34794419501E+02 -0.24868709234E+02  0.26077551357E+02  0.50091346680E+02  0.00000000000E+00 0.  1.
         11    1    4    4    0    0  0.10477718533E+02  0.35947630493E+02  0.18197131074E+01  0.37487679036E+02  0.00000000000E+00 0. -1.
         21    1    1    2  502  501  0.47568990342E+01  0.34549289565E+02 -0.43910998239E+02  0.56075460446E+02  0.00000000000E+00 0. -1.
<scales pt_clust_5="13000.00000" pt_clust_6="13000.00000" pt_clust_7="13000.00000" pt_clust_8="13000.00000" pt_clust_9="34.87523"></scales>
<clustering>
<clus scale="   34.875">  2  9  1 -1</clus>
<clus scale="   78.599">  7  8 -1 -1</clus>
<clus scale="   86.135">  2  7  1 -1</clus>
<clus scale="   92.034">  5  6 -1 -1</clus>
<clus scale="   34.875">  2  5  1 -1</clus>
</clustering>
</event>
<event>
 9    1  0.1296032E-005  0.1017310E+03  0.7546771E-02  0.1278808E+00
          2   -1    0    0  502    0  0.00000000000E+00  0.00000000000E+00  0.70618538262E+03  0.70618538262E+03  0.00000000000E+00 0. -1.
         -2   -1    0    0    0  501 -0.00000000000E+00 -0.00000000000E+00 -0.26870640023E+02  0.26870640023E+02  0.00000000000E+00 0.  1.
         23    2    1    2    0    0 -0.29580284927E+02 -0.12879148855E+02  0.10755983987E+03  0.14707549538E+03  0.94980084531E+02 0.  0.
         23    2    1    2    0    0  0.51852432342E+02  0.77020418339E+01  0.44294627609E+03  0.45515807780E+03  0.90661326338E+02 0.  0.
        -11    1    3    3    0    0 -0.63692560096E+02 -0.16050003557E+02  0.64598230865E+02  0.92126414544E+02  0.00000000000E+00 0.  1.
         11    1    3    3    0    0  0.34112275169E+02  0.31708547018E+01  0.42961609006E+02  0.54949080840E+02  0.00000000000E+00 0. -1.
        -13    1    4    4    0    0  0.69380672475E+02 -0.12926435787E+02  0.38208556124E+03  0.38854876987E+03  0.00000000000E+00 0. -1.
         13    1    4    4    0    0 -0.17528240133E+02  0.20628477621E+02  0.60860714849E+02  0.66609307931E+02  0.00000000000E+00 0.  1.
         21    1    1    2  502  501 -0.22272147415E+02  0.51771070214E+01  0.12880862663E+03  0.13082244946E+03  0.00000000000E+00 0.  1.
<scales pt_clust_5="13000.00000" pt_clust_6="13000.00000" pt_clust_7="13000.00000" pt_clust_8="13000.00000" pt_clust_9="22.86594"></scales>
<clustering>
<clus scale="   22.866">  1  9  2 -1</clus>
<clus scale="   90.661">  7  8 -1 -1</clus>
<clus scale="   94.980">  5  6 -1 -1</clus>
<clus scale="   97.711">  1  7  2 -1</clus>
<clus scale="   22.866">  1  5  2 -1</clus>
</clustering>
</event>
<event>
 9    1  0.1296032E-005  0.2058791E+03  0.7546771E-02  0.1145743E+00
         -1   -1    0    0    0  501 -0.00000000000E+00  0.00000000000E+00  0.71450674069E+03  0.71450674069E+03  0.00000000000E+00 0.  1.
          1   -1    0    0  502    0  0.00000000000E+00 -0.00000000000E+00 -0.86537773039E+02  0.86537773039E+02  0.00000000000E+00 0. -1.
         23    2    1    2    0    0 -0.15802950870E+03  0.96317402428E+02  0.51374509553E+03  0.55309252925E+03  0.87903100627E+02 0.  0.
         23    2    1    2    0    0  0.15432957520E+03 -0.73639147819E+02  0.97615917173E+02  0.21960031949E+03  0.97237293071E+02 0.  0.
        -13    1    4    4    0    0  0.10334912265E+03 -0.77645861362E+02  0.26414752462E+02  0.13193809187E+03  0.00000000000E+00 0. -1.
         13    1    4    4    0    0  0.50980452548E+02  0.40067135425E+01  0.71201164711E+02  0.87662227622E+02  0.00000000000E+00 0.  1.
        -13    1    3    3    0    0 -0.12412202551E+03  0.10353915299E+03  0.47154064850E+03  0.49847489064E+03  0.00000000000E+00 0.  1.
         13    1    3    3    0    0 -0.33907483187E+02 -0.72217505629E+01  0.42204447033E+02  0.54617638604E+02  0.00000000000E+00 0. -1.
         21    1    1    2  502  501  0.36999335043E+01 -0.22678254609E+02  0.16607954950E+02  0.28351664990E+02  0.00000000000E+00 0. -1.
<scales pt_clust_5="13000.00000" pt_clust_6="13000.00000" pt_clust_7="13000.00000" pt_clust_8="13000.00000" pt_clust_9="22.97809"></scales>
<clustering>
<clus scale="   22.978">  2  9  1 -1</clus>
<clus scale="   87.903">  7  8 -1 -1</clus>
<clus scale="   97.237">  5  6 -1 -1</clus>
<clus scale="  201.638">  1  7  2 -1</clus>
<clus scale="   22.978">  2  5  1 -1</clus>
</clustering>
</event>
<event>
 9    1  0.1296032E-005  0.1435213E+03  0.7546771E-02  0.1208786E+00
          2   -1    0    0  502    0  0.00000000000E+00  0.00000000000E+00  0.29650577159E+03  0.29650577159E+03  0.00000000000E+00 0. -1.
         -2   -1    0    0    0  501 -0.00000000000E+00 -0.00000000000E+00 -0.12102856325E+03  0.12102856325E+03  0.00000000000E+00 0.  1.
         23    2    1    2    0    0  0.78180670636E+02  0.66942305962E+02 -0.22860804354E+02  0.13978877007E+03  0.91786678089E+02 0.  0.
         23    2    1    2    0    0 -0.10729950359E+03 -0.39254465623E+02  0.18415479834E+03  0.23513469168E+03  0.91220814170E+02 0.  0.
        -11    1    4    4    0    0 -0.96327078628E+00 -0.39459825757E+02  0.57760902861E+02  0.69959471401E+02  0.00000000000E+00 0.  1.
         11    1    4    4    0    0 -0.10633623281E+03  0.20536013404E+00  0.12639389547E+03  0.16517522028E+03  0.00000000000E+00 0. -1.
        -13    1    3    3    0    0  0.40784740022E+02  0.20262662207E+02  0.34332982069E+02  0.57032658681E+02  0.00000000000E+00 0. -1.
         13    1    3    3    0    0  0.37395930614E+02  0.46679643754E+02 -0.57193786423E+02  0.82756111393E+02  0.00000000000E+00 0.  1.
         21    1    1    2  502  501  0.29118832958E+02 -0.27687840339E+02  0.14183214367E+02  0.42610873087E+02  0.00000000000E+00 0.  1.
<scales pt_clust_5="13000.00000" pt_clust_6="13000.00000" pt_clust_7="13000.00000" pt_clust_8="13000.00000" pt_clust_9="40.18113"></scales>
<clustering>
<clus scale="   40.181">  2  9  1 -1</clus>
<clus scale="   91.221">  5  6 -1 -1</clus>
<clus scale="   91.787">  7  8 -1 -1</clus>
<clus scale="  143.160">  1  5  2 -1</clus>
<clus scale="  143.160">  1  5  2 -1</clus>
</clustering>
</event>
<event>
 9    1  0.1296032E-005  0.1547202E+03  0.7546771E-02  0.1215670E+00
         -1   -1    0    0    0  501 -0.00000000000E+00  0.00000000000E+00  0.69385085538E+03  0.69385085538E+03  0.00000000000E+00 0.  1.
          1   -1    0    0  502    0  0.00000000000E+00 -0.00000000000E+00 -0.98785952694E+02  0.98785952694E+02  0.00000000000E+00 0. -1.
         23    2    1    2    0    0 -0.37081331170E+02  0.13238759784E+02  0.17351900992E+03  0.19962638184E+03  0.90507213204E+02 0.  0.
         23    2    1    2    0    0  0.80753783131E+02  0.10114995621E+03  0.23307689693E+01  0.15628009590E+03  0.87553119645E+02 0.  0.
        -13    1    4    4    0    0  0.18190397913E+02  0.38614693622E+02 -0.39746173106E+02  0.58324466704E+02  0.00000000000E+00 0. -1.
         13    1    4    4    0    0  0.62563385218E+02  0.62535262593E+02  0.42076942075E+02  0.97955629200E+02  0.00000000000E+00 0.  1.
        -13    1    3    3    0    0  0.15761477753E+02 -0.27689702506E+02  0.55883350521E+02  0.64328008451E+02  0.00000000000E+00 0.  1.
         13    1    3    3    0    0 -0.52842808922E+02  0.40928462290E+02  0.11763565940E+03  0.13529837339E+03  0.00000000000E+00 0. -1.
         21    1    1    2  502  501 -0.43672451961E+02 -0.11438871600E+03  0.41921512380E+03  0.43673033033E+03  0.00000000000E+00 0.  1.
<scales pt_clust_5="13000.00000" pt_clust_6="13000.00000" pt_clust_7="13000.00000" pt_clust_8="13000.00000" pt_clust_9="127.56487"></scales>
<clustering>
<clus scale="   87.553">  5  6 -1 -1</clus>
<clus scale="   90.507">  7  8 -1 -1</clus>
<clus scale="   98.701">  1  7  2 -1</clus>
<clus scale="  127.565">  1  9  2 -1</clus>
<clus scale="  154.720">  2  5  1 -1</clus>
</clustering>
</event>
<event>
 9    1  0.1296032E-005  0.3276898E+03  0.7546771E-02  0.1072227E+00
         -3   -1    0    0    0  501 -0.00000000000E+00  0.00000000000E+00  0.71507492521E+03  0.71507492521E+03  0.00000000000E+00 0.  1.
          3   -1    0    0  502    0  0.00000000000E+00 -0.00000000000E+00 -0.24294275129E+03  0.24294275129E+03  0.00000000000E+00 0. -1.
         23    2    1    2    0    0  0.22113244391E+03 -0.21582097587E+03  0.44928873851E+03  0.55254491349E+03  0.89259506506E+02 0.  0.
         23    2    1    2    0    0 -0.25081099341E+03  0.21890380740E+03  0.68550867163E+02  0.35088806306E+03  0.87167540420E+02 0.  0.
        -11    1    4    4    0    0 -0.50628624072E+02  0.10877016181E+02 -0.75359215067E+01  0.52329314627E+02  0.00000000000E+00 0. -1.
         11    1    4    4    0    0 -0.20018236934E+03  0.20802679121E+03  0.76086788670E+02  0.29855874844E+03  0.00000000000E+00 0.  1.
        -13    1    3    3    0    0  0.54489111240E+02 -0.69758045469E+02  0.68319069668E+02  0.11181566720E+03  0.00000000000E+00 0. -1.
         13    1    3    3    0    0  0.16664333267E+03 -0.14606293040E+03  0.38096966884E+03  0.44072924629E+03  0.00000000000E+00 0.  1.
         21    1    1    2  502  501  0.29678549503E+02 -0.30828315230E+01 -0.45707431756E+02  0.54584699949E+02  0.00000000000E+00 0.  1.
<scales pt_clust_5="13000.00000" pt_clust_6="13000.00000" pt_clust_7="13000.00000" pt_clust_8="13000.00000" pt_clust_9="29.83823"></scales>
<clustering>
<clus scale="   29.838">  2  9  1 -1</clus>
<clus scale="   87.168">  5  6 -1 -1</clus>
<clus scale="   89.260">  7  8 -1 -1</clus>
<clus scale="  327.126">  2  5  1 -1</clus>
<clus scale="   29.838">  2  5  1 -1</clus>
</clustering>
</event>
<event>
 9    1  0.1296032E-005  0.9319392E+02  0.7546771E-02  0.1299665E+00
          1   -1    0    0  502    0  0.00000000000E+00  0.00000000000E+00  0.12986929966E+03  0.12986929966E+03  0.00000000000E+00 0. -1.
         -1   -1    0    0    0  501 -0.00000000000E+00 -0.00000000000E+00 -0.10208214418E+03  0.10208214418E+03  0.00000000000E+00 0.  1.
         23    2    1    2    0    0 -0.27152040023E+02 -0.12054261401E+02 -0.25245740824E+02  0.99419390495E+02  0.91456707142E+02 0.  0.
         23    2    1    2    0    0  0.37056465543E+01 -0.67396484186E+01  0.17891352611E+02  0.86294919928E+02  0.84068769646E+02 0.  0.
        -11    1    3    3    0    0 -0.27560248164E+02  0.22496991213E+02 -0.46729863122E+02  0.58731269353E+02  0.00000000000E+00 0.  1.
         11    1    3    3    0    0  0.40820814156E+00 -0.34551252614E+02  0.21484122298E+02  0.40688121141E+02  0.00000000000E+00 0. -1.
        -13    1    4    4    0    0  0.24804823262E+02  0.30394214070E+02  0.18958929952E+02  0.43572107258E+02  0.00000000000E+00 0.  1.
         13    1    4    4    0    0 -0.21099176708E+02 -0.37133862488E+02 -0.10675773408E+01  0.42722812670E+02  0.00000000000E+00 0. -1.
         21    1    1    2  502  501  0.23446393468E+02  0.18793909820E+02  0.35141543692E+02  0.46237133411E+02  0.00000000000E+00 0. -1.
<scales pt_clust_5="13000.00000" pt_clust_6="13000.00000" pt_clust_7="13000.00000" pt_clust_8="13000.00000" pt_clust_9="30.04903"></scales>
<clustering>
<clus scale="   30.049">  1  9  2 -1</clus>
<clus scale="   84.069">  7  8 -1 -1</clus>
<clus scale="   85.955">  1  7  2 -1</clus>
<clus scale="   91.457">  5  6 -1 -1</clus>
<clus scale="   30.049">  1  5  2 -1</clus>
</clustering>
</event>
<event>
 9    1  0.1296032E-005  0.1032554E+03  0.7546771E-02  0.1277412E+00
         -1   -1    0    0    0  501 -0.00000000000E+00  0.00000000000E+00  0.49694858134E+03  0.49694858134E+03  0.00000000000E+00 0.  1.
          1   -1    0    0  502    0  0.00000000000E+00 -0.00000000000E+00 -0.37565815926E+02  0.37565815926E+02  0.00000000000E+00 0. -1.
         23    2    1    2    0    0  0.26819712677E+02  0.66007267262E+02  0.20745281723E+03  0.23957467843E+03  0.96348839374E+02 0.  0.
         23    2    1    2    0    0  0.10411834995E+02 -0.18350850510E+02  0.12796724327E+03  0.15701193190E+03  0.88498425898E+02 0.  0.
        -13    1    3    3    0    0  0.27878477138E+02  0.22590784787E+02  0.18901952260E+03  0.19239525194E+03  0.00000000000E+00 0.  1.
         13    1    3    3    0    0 -0.10587644608E+01  0.43416482476E+02  0.18433294623E+02  0.47179426484E+02  0.00000000000E+00 0. -1.
        -13    1    4    4    0    0 -0.18827337304E+02 -0.43951490474E+02  0.46242608825E+02  0.66517524125E+02  0.00000000000E+00 0. -1.
         13    1    4    4    0    0  0.29239172299E+02  0.25600639964E+02  0.81724634449E+02  0.90494407778E+02  0.00000000000E+00 0.  1.
         21    1    1    2  502  501 -0.37231547672E+02 -0.47656416752E+02  0.12396270492E+03  0.13792778694E+03  0.00000000000E+00 0. -1.
<scales pt_clust_5="13000.00000" pt_clust_6="13000.00000" pt_clust_7="13000.00000" pt_clust_8="13000.00000" pt_clust_9="60.47580"></scales>
<clustering>
<clus scale="   60.476">  1  9  2 -1</clus>
<clus scale="   88.498">  7  8 -1 -1</clus>
<clus scale="   95.972">  2  7  1 -1</clus>
<clus scale="   96.349">  5  6 -1 -1</clus>
<clus scale="   95.972">  2  5  1 -1</clus>
</clustering>
</event>
<event>
 9    1  0.1296032E-005  0.1127838E+03  0.7546771E-02  0.1256093E+00
          1   -1    0    0  502    0  0.00000000000E+00  0.00000000000E+00  0.52261243318E+03  0.52261243318E+03  0.00000000000E+00 0. -1.
         -1   -1    0    0    0  501 -0.00000000000E+00 -0.00000000000E+00 -0.38981873321E+02  0.38981873321E+02  0.00000000000E+00 0.  1.
         23    2    1    2    0    0 -0.41385177557E+02  0.67189218451E+02  0.14610924642E+03  0.18900343498E+03  0.90262187792E+02 0.  0.
         23    2    1    2    0    0  0.50698360387E+02 -0.17258412175E+02  0.24391892585E+03  0.26609567092E+03  0.91881919649E+02 0.  0.
        -11    1    3    3    0    0 -0.29913963464E+02  0.38315390342E+02  0.10304431726E+02  0.49689995576E+02  0.00000000000E+00 0.  1.
         11    1    3    3    0    0 -0.11471214094E+02  0.28873828109E+02  0.13580481470E+03  0.13931343940E+03  0.00000000000E+00 0. -1.
        -11    1    4    4    0    0  0.56318450740E+02  0.15515253945E+02  0.21237296966E+03  0.22026068474E+03  0.00000000000E+00 0.  1.
         11    1    4    4    0    0 -0.56200903528E+01 -0.32773666120E+02  0.31545956190E+02  0.45834986184E+02  0.00000000000E+00 0. -1.
         21    1    1    2  502  501 -0.93131828296E+01 -0.49930806276E+02  0.93602387580E+02  0.10649520060E+03  0.00000000000E+00 0.  1.
<scales pt_clust_5="13000.00000" pt_clust_6="13000.00000" pt_clust_7="13000.00000" pt_clust_8="13000.00000" pt_clust_9="50.79194"></scales>
<clustering>
<clus scale="   50.792">  1  9  2 -1</clus>
<clus scale="   90.262">  5  6 -1 -1</clus>
<clus scale="   91.882">  7  8 -1 -1</clus>
<clus scale="  111.468">  2  5  1 -1</clus>
<clus scale="   50.792">  1  5  2 -1</clus>
</clustering>
</event>
<event>
 9    1  0.1296032E-005  0.1454214E+03  0.7546771E-02  0.1211513E+00
         -1   -1    0    0    0  501 -0.00000000000E+00  0.00000000000E+00  0.57991274968E+03  0.57991274968E+03  0.00000000000E+00 0.  1.
          1   -1    0    0  502    0  0.00000000000E+00 -0.00000000000E+00 -0.52575903609E+02  0.52575903609E+02  0.00000000000E+00 0. -1.
         23    2    1    2    0    0 -0.29217612040E+02 -0.75632078195E+02  0.26609426904E+03  0.29247084338E+03  0.90328036105E+02 0.  0.
         23    2    1    2    0    0  0.36787193034E+02  0.10786861523E+03  0.26219136482E+03  0.30689088620E+03  0.11157404951E+03 0.  0.
        -11    1    3    3    0    0  0.23492635330E+02  0.46653764289E+01  0.37248394905E+02  0.44284450713E+02  0.00000000000E+00 0.  1.
         11    1    3    3    0    0 -0.52710247370E+02 -0.80297454624E+02  0.22884587414E+03  0.24818639267E+03  0.00000000000E+00 0. -1.
        -11    1    4    4    0    0 -0.20321194857E+02 -0.14041649684E+02  0.45939948570E+02  0.52159349698E+02  0.00000000000E+00 0. -1.
         11    1    4    4    0    0  0.57108387891E+02  0.12191026491E+03  0.21625141625E+03  0.25473153650E+03  0.00000000000E+00 0.  1.
         21    1    1    2  502  501 -0.75695809935E+01 -0.32236537030E+02 -0.94878779072E+00  0.33126923708E+02  0.00000000000E+00 0. -1.
<scales pt_clust_5="13000.00000" pt_clust_6="13000.00000" pt_clust_7="13000.00000" pt_clust_8="13000.00000" pt_clust_9="33.11333"></scales>
<clustering>
<clus scale="   33.113">  2  9  1 -1</clus>
<clus scale="   90.328">  5  6 -1 -1</clus>
<clus scale="  111.574">  7  8 -1 -1</clus>
<clus scale="  129.838">  1  5  2 -1</clus>
<clus scale="   33.113">  2  5  1 -1</clus>
</clustering>
</event>
<event>
 9    1  0.1296032E-005  0.9069891E+02  0.7546771E-02  0.1301519E+00
          1   -1    0    0  502    0  0.00000000000E+00  0.00000000000E+00  0.19729140920E+03  0.19729140920E+03  0.00000000000E+00 0. -1.
         -1   -1    0    0    0  501 -0.00000000000E+00 -0.00000000000E+00 -0.79350253956E+02  0.79350253956E+02  0.00000000000E+00 0.  1.
         23    2    1    2    0    0 -0.81840979413E+01 -0.11128034457E+01 -0.24138176981E+02  0.93930970606E+02  0.90399988166E+02 0.  0.
         23    2    1    2    0    0  0.66515120161E+00 -0.19802595070E+02  0.12178988290E+03  0.15261666973E+03  0.89813624283E+02 0.  0.
        -11    1    4    4    0    0  0.40943009092E+02 -0.22107422236E+02  0.39765249925E+02  0.61207378747E+02  0.00000000000E+00 0. -1.
         11    1    4    4    0    0 -0.40277857891E+02  0.23048271656E+01  0.82024632972E+02  0.91409290987E+02  0.00000000000E+00 0.  1.
        -13    1    3    3    0    0 -0.42378871712E+02 -0.24827803800E+02 -0.11561123230E+02  0.50458380666E+02  0.00000000000E+00 0.  1.
         13    1    3    3    0    0  0.34194773771E+02  0.23715000354E+02 -0.12577053751E+02  0.43472589940E+02  0.00000000000E+00 0. -1.
         21    1    1    2  502  501  0.75189467397E+01  0.20915398516E+02  0.20289449323E+02  0.30094022812E+02  0.00000000000E+00 0.  1.
<scales pt_clust_5="13000.00000" pt_clust_6="13000.00000" pt_clust_7="13000.00000" pt_clust_8="13000.00000" pt_clust_9="22.22585"></scales>
<clustering>
<clus scale="   22.226">  1  9  2 -1</clus>
<clus scale="   89.814">  5  6 -1 -1</clus>
<clus scale="   90.114">  1  5  2 -1</clus>
<clus scale="   90.400">  7  8 -1 -1</clus>
<clus scale="   22.226">  1  5  2 -1</clus>
</clustering>
</event>
<event>
 9    1  0.1296032E-005  0.9465665E+02  0.7546771E-02  0.1292850E+00
         -2   -1    0    0    0  501 -0.00000000000E+00  0.00000000000E+00  0.61827185180E+02  0.61827185180E+02  0.00000000000E+00 0.  1.
          2   -1    0    0  502    0  0.00000000000E+00 -0.00000000000E+00 -0.39602444848E+03  0.39602444848E+03  0.00000000000E+00 0. -1.
         23    2    1    2    0    0 -0.13459673436E+02 -0.21825012549E+02  0.10905102433E+02  0.94197150416E+02  0.89981597594E+02 0.  0.
         23    2    1    2    0    0 -0.70527060882E+01  0.17195961096E+02 -0.27384948195E+03  0.28936343885E+03  0.91609056500E+02 0.  0.
        -11    1    3    3    0    0 -0.36720349076E+02 -0.46683824615E+02  0.92653104375E+01  0.60113305469E+02  0.00000000000E+00 0.  1.
         11    1    3    3    0    0  0.23260675640E+02  0.24858812066E+02  0.16397919956E+01  0.34083844947E+02  0.00000000000E+00 0. -1.
        -13    1    4    4    0    0 -0.39353706892E+02  0.35155733070E+02 -0.11918531674E+03  0.13034484854E+03  0.00000000000E+00 0. -1.
         13    1    4    4    0    0  0.32301000804E+02 -0.17959771974E+02 -0.15466416521E+03  0.15901859031E+03  0.00000000000E+00 0.  1.
         21    1    1    2  502  501  0.20512379524E+02  0.46290514526E+01 -0.71252883784E+02  0.74291044404E+02  0.00000000000E+00 0. -1.
<scales pt_clust_5="13000.00000" pt_clust_6="13000.00000" pt_clust_7="13000.00000" pt_clust_8="13000.00000" pt_clust_9="21.02822"></scales>
<clustering>
<clus scale="   21.028">  2  9  1 -1</clus>
<clus scale="   89.982">  5  6 -1 -1</clus>
<clus scale="   91.609">  7  8 -1 -1</clus>
<clus scale="   93.082">  1  5  2 -1</clus>
<clus scale="   21.028">  2  5  1 -1</clus>
</clustering>
</event>
<event>
 9    1  0.1296032E-005  0.1015738E+03  0.7546771E-02  0.1277404E+00
         -1   -1    0    0    0  501 -0.00000000000E+00  0.00000000000E+00  0.24698825354E+03  0.24698825354E+03  0.00000000000E+00 0.  1.
          1   -1    0    0  502    0  0.00000000000E+00 -0.00000000000E+00 -0.13047430344E+03  0.13047430344E+03  0.00000000000E+00 0. -1.
         23    2    1    2    0    0  0.33000937182E+02 -0.16552104376E+02  0.13450818004E+03  0.16700957806E+03  0.91851590368E+02 0.  0.
         23    2    1    2    0    0 -0.69264806625E+02 -0.47306255429E+02  0.21878411310E+02  0.12688991372E+03  0.92665474066E+02 0.  0.
        -13    1    4    4    0    0  0.82043669400E+01 -0.44951434059E+02  0.18543243980E+02  0.49313233093E+02  0.00000000000E+00 0.  1.
         13    1    4    4    0    0 -0.77469173565E+02 -0.23548213706E+01  0.33351673307E+01  0.77576680630E+02  0.00000000000E+00 0. -1.
        -13    1    3    3    0    0  0.57324926628E+02 -0.29494270784E+02  0.11913227777E+03  0.13545685228E+03  0.00000000000E+00 0.  1.
         13    1    3    3    0    0 -0.24323989445E+02  0.12942166408E+02  0.15375902264E+02  0.31552725783E+02  0.00000000000E+00 0. -1.
         21    1    1    2  502  501  0.36263869443E+02  0.63858359806E+02 -0.39872641246E+02  0.83563065190E+02  0.00000000000E+00 0.  1.
<scales pt_clust_5="13000.00000" pt_clust_6="13000.00000" pt_clust_7="13000.00000" pt_clust_8="13000.00000" pt_clust_9="73.43676"></scales>
<clustering>
<clus scale="   73.437">  2  9  1 -1</clus>
<clus scale="   91.852">  7  8 -1 -1</clus>
<clus scale="   92.665">  5  6 -1 -1</clus>
<clus scale="  100.832">  1  7  2 -1</clus>
<clus scale="   73.437">  2  5  1 -1</clus>
</clustering>
</event>
<event>
 9    1  0.1296032E-005  0.1170608E+03  0.7546771E-02  0.1252694E+00
          1   -1    0    0  502    0  0.00000000000E+00  0.00000000000E+00  0.49915502268E+03  0.49915502268E+03  0.00000000000E+00 0. -1.
         -1   -1    0    0    0  501 -0.00000000000E+00 -0.00000000000E+00 -0.38301752938E+02  0.38301752938E+02  0.00000000000E+00 0.  1.
         23    2    1    2    0    0 -0.64435239147E+02  0.55084416279E+01  0.10810667975E+03  0.15399366804E+03  0.88570608086E+02 0.  0.
         23    2    1    2    0    0  0.42854721626E+02 -0.33884527139E+02  0.27119772282E+03  0.29446232836E+03  0.10087204574E+03 0.  0.
        -11    1    3    3    0    0 -0.34669343956E+02  0.38256329243E+02  0.19943003210E+02  0.55346486018E+02  0.00000000000E+00 0.  1.
         11    1    3    3    0    0 -0.29765895191E+02 -0.32747887615E+02  0.88163676540E+02  0.98647182022E+02  0.00000000000E+00 0. -1.
        -13    1    4    4    0    0 -0.27124435186E+02  0.88215347569E+01  0.39752579579E+02  0.48926700715E+02  0.00000000000E+00 0.  1.
         13    1    4    4    0    0  0.69979156812E+02 -0.42706061896E+02  0.23144514324E+03  0.24553562764E+03  0.00000000000E+00 0. -1.
         21    1    1    2  502  501  0.21580517521E+02  0.28376085511E+02  0.81548867167E+02  0.89000779220E+02  0.00000000000E+00 0.  1.
<scales pt_clust_5="13000.00000" pt_clust_6="13000.00000" pt_clust_7="13000.00000" pt_clust_8="13000.00000" pt_clust_9="35.64998"></scales>
<clustering>
<clus scale="   35.650">  1  9  2 -1</clus>
<clus scale="   88.571">  5  6 -1 -1</clus>
<clus scale="  100.872">  7  8 -1 -1</clus>
<clus scale="  106.643">  2  5  1 -1</clus>
<clus scale="   35.650">  1  5  2 -1</clus>
</clustering>
</event>
<event>
 9    1  0.1296032E-005  0.1166422E+03  0.7546771E-02  0.1252801E+00
          3   -1    0    0  502    0  0.00000000000E+00  0.00000000000E+00  0.10747393244E+03  0.10747393244E+03  0.00000000000E+00 0. -1.
         -3   -1    0    0    0  501 -0.00000000000E+00 -0.00000000000E+00 -0.22728121690E+03  0.22728121690E+03  0.00000000000E+00 0.  1.
         23    2    1    2    0    0  0.26275172977E+02  0.57990607027E+02 -0.14669137238E+03  0.18958281124E+03  0.10183313983E+03 0.  0.
         23    2    1    2    0    0 -0.62965514674E+01 -0.43068217981E+02 -0.89273590155E+01  0.10153424988E+03  0.91296156540E+02 0.  0.
        -11    1    3    3    0    0  0.30042236134E+02  0.25770363379E+02 -0.15168222221E+03  0.15676142419E+03  0.00000000000E+00 0.  1.
         11    1    3    3    0    0 -0.37670631564E+01  0.32220243648E+02  0.49908498263E+01  0.32821387045E+02  0.00000000000E+00 0. -1.
        -13    1    4    4    0    0  0.20328657323E+02 -0.25907297339E+02 -0.43555527037E+02  0.54603354288E+02  0.00000000000E+00 0.  1.
         13    1    4    4    0    0 -0.26625208791E+02 -0.17160920642E+02  0.34628168022E+02  0.46930895591E+02  0.00000000000E+00 0. -1.
         21    1    1    2  502  501 -0.19978621510E+02 -0.14922389046E+02  0.35811446939E+02  0.43638088228E+02  0.00000000000E+00 0. -1.
<scales pt_clust_5="13000.00000" pt_clust_6="13000.00000" pt_clust_7="13000.00000" pt_clust_8="13000.00000" pt_clust_9="24.93638"></scales>
<clustering>
<clus scale="   24.936">  1  9  2 -1</clus>
<clus scale="   91.296">  7  8 -1 -1</clus>
<clus scale="  101.833">  5  6 -1 -1</clus>
<clus scale="  107.566">  1  7  2 -1</clus>
<clus scale="   24.936">  1  5  2 -1</clus>
</clustering>
</event>
<event>
 9    1  0.1296032E-005  0.9454467E+02  0.7546771E-02  0.1292999E+00
          2   -1    0    0  502    0  0.00000000000E+00  0.00000000000E+00  0.26901312641E+03  0.26901312641E+03  0.00000000000E+00 0. -1.
         -2   -1    0    0    0  501 -0.00000000000E+00 -0.00000000000E+00 -0.10905333963E+03  0.10905333963E+03  0.00000000000E+00 0.  1.
         23    2    1    2    0    0 -0.10757250842E+02 -0.29009319133E+02 -0.13168720547E+02  0.99444310963E+02  0.93586840634E+02 0.  0.
         23    2    1    2    0    0 -0.14613264807E+02 -0.24415173130E+01 -0.73706154394E+01  0.93655262109E+02  0.92181742409E+02 0.  0.
        -11    1    4    4    0    0 -0.48871255035E+02  0.11833381646E+02 -0.20480993089E+02  0.54294562967E+02  0.00000000000E+00 0.  1.
         11    1    4    4    0    0  0.34257990228E+02 -0.14274898959E+02  0.13110377650E+02  0.39360699141E+02  0.00000000000E+00 0. -1.
        -13    1    3    3    0    0 -0.10932349730E+02 -0.61694535808E+02 -0.20542323842E+02  0.65937235975E+02  0.00000000000E+00 0.  1.
         13    1    3    3    0    0  0.17509888800E+00  0.32685216675E+02  0.73736032949E+01  0.33507074988E+02  0.00000000000E+00 0. -1.
         21    1    1    2  502  501  0.25370515650E+02  0.31450836446E+02  0.18049912276E+03  0.18496689297E+03  0.00000000000E+00 0. -1.
<scales pt_clust_5="13000.00000" pt_clust_6="13000.00000" pt_clust_7="13000.00000" pt_clust_8="13000.00000" pt_clust_9="40.40814"></scales>
<clustering>
<clus scale="   40.408">  1  9  2 -1</clus>
<clus scale="   92.182">  5  6 -1 -1</clus>
<clus scale="   93.154">  1  5  2 -1</clus>
<clus scale="   93.587">  7  8 -1 -1</clus>
<clus scale="   40.408">  1  5  2 -1</clus>
</clustering>
</event>
<event>
 9    1  0.1296032E-005  0.9992130E+02  0.7546771E-02  0.1283268E+00
          1   -1    0    0  502    0  0.00000000000E+00  0.00000000000E+00  0.10664298858E+03  0.10664298858E+03  0.00000000000E+00 0. -1.
         -1   -1    0    0    0  501 -0.00000000000E+00 -0.00000000000E+00 -0.19821746431E+03  0.19821746431E+03  0.00000000000E+00 0.  1.
         23    2    1    2    0    0  0.18186270773E+02 -0.32095297604E+02 -0.13621765630E+03  0.16587526833E+03  0.87169410815E+02 0.  0.
         23    2    1    2    0    0  0.62487284708E+01  0.45252798359E+02  0.30379399245E+02  0.10778190794E+03  0.92774831791E+02 0.  0.
        -11    1    3    3    0    0  0.21113897246E+02  0.27075885761E+02 -0.38363431467E+02  0.51484493982E+02  0.00000000000E+00 0.  1.
         11    1    3    3    0    0 -0.29276264725E+01 -0.59171183365E+02 -0.97854224836E+02  0.11439077435E+03  0.00000000000E+00 0. -1.
        -13    1    4    4    0    0 -0.87779233032E+01  0.71864257561E+02  0.25914317640E+02  0.76896523401E+02  0.00000000000E+00 0.  1.
         13    1    4    4    0    0  0.15026651774E+02 -0.26611459202E+02  0.44650816041E+01  0.30885384539E+02  0.00000000000E+00 0. -1.
         21    1    1    2  502  501 -0.24434999244E+02 -0.13157500755E+02  0.14263781330E+02  0.31203276623E+02  0.00000000000E+00 0.  1.
<scales pt_clust_5="13000.00000" pt_clust_6="13000.00000" pt_clust_7="13000.00000" pt_clust_8="13000.00000" pt_clust_9="27.75228"></scales>
<clustering>
<clus scale="   27.752">  1  9  2 -1</clus>
<clus scale="   87.169">  5  6 -1 -1</clus>
<clus scale="   92.775">  7  8 -1 -1</clus>
<clus scale="   94.740">  2  5  1 -1</clus>
<clus scale="   27.752">  1  5  2 -1</clus>
</clustering>
</event>
<event>
 9    1  0.1296032E-005  0.1007165E+03  0.7546771E-02  0.1280612E+00
          1   -1    0    0  502    0  0.00000000000E+00  0.00000000000E+00  0.30848274263E+03  0.30848274263E+03  0.00000000000E+00 0. -1.
         -1   -1    0    0    0  501 -0.00000000000E+00 -0.00000000000E+00 -0.32042795974E+03  0.32042795974E+03  0.00000000000E+00 0.  1.
         23    2    1    2    0    0  0.38311598000E+02 -0.11536928769E+02 -0.18399153575E+03  0.21034591596E+03  0.93763744946E+02 0.  0.
         23    2    1    2    0    0  0.34437363969E+01  0.18049691669E+02 -0.10148046239E+03  0.14179263468E+03  0.97309898333E+02 0.  0.
        -13    1    4    4    0    0  0.42935049855E+02 -0.11640707268E+02 -0.70859044080E+02  0.83665576551E+02  0.00000000000E+00 0.  1.
         13    1    4    4    0    0 -0.39491313458E+02  0.29690398936E+02 -0.30621418311E+02  0.58127058131E+02  0.00000000000E+00 0. -1.
        -13    1    3    3    0    0  0.58553644276E+02  0.84954120520E+00 -0.59023504126E+02  0.83144603057E+02  0.00000000000E+00 0.  1.
         13    1    3    3    0    0 -0.20242046275E+02 -0.12386469975E+02 -0.12496803163E+03  0.12720131291E+03  0.00000000000E+00 0. -1.
         21    1    1    2  502  501 -0.41755334397E+02 -0.65127628994E+01  0.27352678103E+03  0.27677215173E+03  0.00000000000E+00 0. -1.
<scales pt_clust_5="13000.00000" pt_clust_6="13000.00000" pt_clust_7="13000.00000" pt_clust_8="13000.00000" pt_clust_9="42.26019"></scales>
<clustering>
<clus scale="   42.260">  1  9  2 -1</clus>
<clus scale="   93.764">  7  8 -1 -1</clus>
<clus scale="   97.295">  2  7  1 -1</clus>
<clus scale="   97.310">  5  6 -1 -1</clus>
<clus scale="   42.260">  1  5  2 -1</clus>
</clustering>
</event>
<event>
 9    1  0.1296032E-005  0.8930816E+02  0.7546771E-02  0.1305032E+00
         -1   -1    0    0    0  501 -0.00000000000E+00  0.00000000000E+00  0.46974029702E+03  0.46974029702E+03  0.00000000000E+00 0.  1.
          1   -1    0    0  502    0  0.00000000000E+00 -0.00000000000E+00 -0.67774769239E+02  0.67774769239E+02  0.00000000000E+00 0. -1.
         23    2    1    2    0    0 -0.23546011512E+02 -0.27734844333E+02  0.22309780794E+03  0.24296942478E+03  0.89094742969E+02 0.  0.
         23    2    1    2    0    0 -0.35601865701E+02 -0.21760188469E+02  0.19285084446E+03  0.21616351708E+03  0.88284875634E+02 0.  0.
        -11    1    3    3    0    0 -0.40354502568E+02 -0.47095783974E+02  0.19637465912E+03  0.20593568289E+03  0.00000000000E+00 0.  1.
         11    1    3    3    0    0  0.16808491057E+02  0.19360939641E+02  0.26723148818E+02  0.37033741887E+02  0.00000000000E+00 0. -1.
        -11    1    4    4    0    0  0.12282432276E+02 -0.37921686371E+02  0.12728618674E+03  0.13338172954E+03  0.00000000000E+00 0. -1.
         11    1    4    4    0    0 -0.47884297977E+02  0.16161497902E+02  0.65564657712E+02  0.82781787538E+02  0.00000000000E+00 0.  1.
         21    1    1    2  502  501  0.59147877212E+02  0.49495032802E+02 -0.13983124611E+02  0.78382124395E+02  0.00000000000E+00 0. -1.
<scales pt_clust_5="13000.00000" pt_clust_6="13000.00000" pt_clust_7="13000.00000" pt_clust_8="13000.00000" pt_clust_9="77.12477"></scales>
<clustering>
<clus scale="   77.125">  2  9  1 -1</clus>
<clus scale="   88.285">  7  8 -1 -1</clus>
<clus scale="   88.500">  2  7  1 -1</clus>
<clus scale="   89.095">  5  6 -1 -1</clus>
<clus scale="   77.125">  2  5  1 -1</clus>
</clustering>
</event>
<event>
 9    1  0.1296032E-005  0.9390685E+02  0.7546771E-02  0.1293661E+00
          4   -1    0    0  502    0  0.00000000000E+00  0.00000000000E+00  0.23343538396E+02  0.23343538396E+02  0.00000000000E+00 0. -1.
         -4   -1    0    0    0  501 -0.00000000000E+00 -0.00000000000E+00 -0.63078369491E+03  0.63078369491E+03  0.00000000000E+00 0.  1.
         23    2    1    2    0    0 -0.15920621217E+02 -0.18648933144E+02 -0.25411490920E+03  0.27172037947E+03  0.93039393029E+02 0.  0.
         23    2    1    2    0    0  0.65898783947E+01 -0.28769644541E+02 -0.22370175422E+03  0.24406729249E+03  0.93033593278E+02 0.  0.
        -11    1    3    3    0    0  0.15584809772E+02 -0.44376613968E+02 -0.19044289239E+03  0.19616489345E+03  0.00000000000E+00 0.  1.
         11    1    3    3    0    0 -0.31505430989E+02  0.25727680824E+02 -0.63672016813E+02  0.75555486018E+02  0.00000000000E+00 0. -1.
        -11    1    4    4    0    0  0.18571394840E+02  0.30663304794E+02 -0.65906118644E+02  0.75025005444E+02  0.00000000000E+00 0. -1.
         11    1    4    4    0    0 -0.11981516445E+02 -0.59432949335E+02 -0.15779563557E+03  0.16904228704E+03  0.00000000000E+00 0.  1.
         21    1    1    2  502  501  0.93307428227E+01  0.47418577684E+02 -0.12962349310E+03  0.13833956135E+03  0.00000000000E+00 0. -1.
<scales pt_clust_5="13000.00000" pt_clust_6="13000.00000" pt_clust_7="13000.00000" pt_clust_8="13000.00000" pt_clust_9="48.32788"></scales>
<clustering>
<clus scale="   48.328">  2  9  1 -1</clus>
<clus scale="   93.034">  7  8 -1 -1</clus>
<clus scale="   93.039">  5  6 -1 -1</clus>
<clus scale="   93.901">  1  7  2 -1</clus>
<clus scale="   93.901">  1  5  2 -1</clus>
</clustering>
</event>
<event>
 9    1  0.1296032E-005  0.9766889E+02  0.7546771E-02  0.1289954E+00
          2   -1    0    0  502    0  0.00000000000E+00  0.00000000000E+00  0.17859610949E+03  0.17859610949E+03  0.00000000000E+00 0. -1.
         -2   -1    0    0    0  501 -0.00000000000E+00 -0.00000000000E+00 -0.78878237437E+02  0.78878237437E+02  0.00000000000E+00 0.  1.
         23    2    1    2    0    0  0.74273775696E+01 -0.29057505554E+02  0.72111828710E+01  0.91900010800E+02  0.86568506167E+02 0.  0.
         23    2    1    2    0    0  0.18211644998E+02  0.12299157844E+02  0.41354512210E+02  0.10595263785E+03  0.95041214693E+02 0.  0.
        -11    1    4    4    0    0 -0.32796164464E+02  0.24902478381E+02  0.32957902516E+02  0.52744148219E+02  0.00000000000E+00 0. -1.
         11    1    4    4    0    0  0.51007809462E+02 -0.12603320537E+02  0.83966096949E+01  0.53208489633E+02  0.00000000000E+00 0.  1.
        -13    1    3    3    0    0 -0.26259951560E+02 -0.44671142803E+02 -0.67010145724E+01  0.52249398576E+02  0.00000000000E+00 0.  1.
         13    1    3    3    0    0  0.33687329129E+02  0.15613637249E+02  0.13912197443E+02  0.39650612224E+02  0.00000000000E+00 0. -1.
         21    1    1    2  502  501 -0.25639022567E+02  0.16758347710E+02  0.51152176970E+02  0.59621698273E+02  0.00000000000E+00 0. -1.
<scales pt_clust_5="13000.00000" pt_clust_6="13000.00000" pt_clust_7="13000.00000" pt_clust_8="13000.00000" pt_clust_9="30.63008"></scales>
<clustering>
<clus scale="   30.630">  1  9  2 -1</clus>
<clus scale="   86.569">  7  8 -1 -1</clus>
<clus scale="   89.445">  2  7  1 -1</clus>
<clus scale="   95.041">  5  6 -1 -1</clus>
<clus scale="   30.630">  1  5  2 -1</clus>
</clustering>
</event>
<event>
 9    1  0.1296032E-005  0.9631925E+02  0.7546771E-02  0.1288327E+00
         -1   -1    0    0    0  501 -0.00000000000E+00  0.00000000000E+00  0.43257111336E+03  0.43257111336E+03  0.00000000000E+00 0.  1.
          1   -1    0    0  502    0  0.00000000000E+00 -0.00000000000E+00 -0.30079662161E+02  0.30079662161E+02  0.00000000000E+00 0. -1.
         23    2    1    2    0    0 -0.54393475608E+00 -0.27029479429E+02  0.26348964263E+03  0.28089519417E+03  0.93511655477E+02 0.  0.
         23    2    1    2    0    0  0.14407598307E+02  0.11665823276E+02  0.12223912779E+03  0.15512419828E+03  0.93688004609E+02 0.  0.
        -11    1    4    4    0    0  0.28914309662E+02  0.37233095750E+02  0.24637051675E+02  0.53191400035E+02  0.00000000000E+00 0. -1.
         11    1    4    4    0    0 -0.14506711355E+02 -0.25567272475E+02  0.97602076117E+02  0.10193279825E+03  0.00000000000E+00 0.  1.
        -11    1    3    3    0    0 -0.34717239738E+02 -0.44229246947E+02  0.12215927343E+03  0.13447825514E+03  0.00000000000E+00 0.  1.
         11    1    3    3    0    0  0.34173304982E+02  0.17199767518E+02  0.14133036921E+03  0.14641693903E+03  0.00000000000E+00 0. -1.
         21    1    1    2  502  501 -0.13863663551E+02  0.15363656154E+02  0.16762680778E+02  0.26631383072E+02  0.00000000000E+00 0.  1.
<scales pt_clust_5="13000.00000" pt_clust_6="13000.00000" pt_clust_7="13000.00000" pt_clust_8="13000.00000" pt_clust_9="20.69404"></scales>
<clustering>
<clus scale="   20.694">  2  9  1 -1</clus>
<clus scale="   93.512">  7  8 -1 -1</clus>
<clus scale="   93.688">  5  6 -1 -1</clus>
<clus scale="   96.148">  1  7  2 -1</clus>
<clus scale="   20.694">  2  5  1 -1</clus>
</clustering>
</event>
<event>
 9    1  0.1296032E-005  0.1493672E+03  0.7546771E-02  0.1222014E+00
         -1   -1    0    0    0  501 -0.00000000000E+00  0.00000000000E+00  0.22214392974E+03  0.22214392974E+03  0.00000000000E+00 0.  1.
          1   -1    0    0  502    0  0.00000000000E+00 -0.00000000000E+00 -0.40520500155E+03  0.40520500155E+03  0.00000000000E+00 0. -1.
         23    2    1    2    0    0  0.24626853618E+02 -0.17056304564E+02  0.12700256104E+03  0.15919833194E+03  0.91197910808E+02 0.  0.
         23    2    1    2    0    0 -0.13850238882E+03  0.10685050066E+02 -0.35010576524E+02  0.17038825419E+03  0.92246055166E+02 0.  0.
        -11    1    3    3    0    0  0.34656686385E+02  0.27655336305E+02  0.89894967414E+02  0.10023476794E+03  0.00000000000E+00 0. -1.
         11    1    3    3    0    0 -0.10029832767E+02 -0.44711640869E+02  0.37107593628E+02  0.58963563999E+02  0.00000000000E+00 0.  1.
        -13    1    4    4    0    0 -0.48241223820E+02 -0.37103101604E+02 -0.30704904109E+02  0.68166318373E+02  0.00000000000E+00 0. -1.
         13    1    4    4    0    0 -0.90261164998E+02  0.47788151670E+02 -0.43056724153E+01  0.10222193581E+03  0.00000000000E+00 0.  1.
         21    1    1    2  502  501  0.11387553520E+03  0.63712544975E+01 -0.27505305633E+03  0.29776234516E+03  0.00000000000E+00 0. -1.
<scales pt_clust_5="13000.00000" pt_clust_6="13000.00000" pt_clust_7="13000.00000" pt_clust_8="13000.00000" pt_clust_9="117.47865"></scales>
<clustering>
<clus scale="   91.198">  5  6 -1 -1</clus>
<clus scale="   92.246">  7  8 -1 -1</clus>
<clus scale="   95.992">  1  5  2 -1</clus>
<clus scale="  117.479">  2  9  1 -1</clus>
<clus scale="  117.479">  2  5  1 -1</clus>
</clustering>
</event>
<event>
 9    1  0.1296032E-005  0.9992023E+02  0.7546771E-02  0.1283552E+00
          1   -1    0    0  502    0  0.00000000000E+00  0.00000000000E+00  0.18302594670E+03  0.18302594670E+03  0.00000000000E+00 0. -1.
         -1   -1    0    0    0  501 -0.00000000000E+00 -0.00000000000E+00 -0.19230688442E+03  0.19230688442E+03  0.00000000000E+00 0.  1.
         23    2    1    2    0    0 -0.45963188615E+02  0.12212995271E+02 -0.12521349883E+03  0.16242505175E+03  0.91878752638E+02 0.  0.
         23    2    1    2    0    0  0.22692055782E+02  0.14858075666E+02 -0.18115022489E+01  0.89870984219E+02  0.85661079003E+02 0.  0.
        -11    1    3    3    0    0 -0.50096092577E+02  0.33435708068E+02 -0.12717367536E+03  0.14071499128E+03  0.00000000000E+00 0.  1.
         11    1    3    3    0    0  0.41329039615E+01 -0.21222712798E+02  0.19601765346E+01  0.21710060472E+02  0.00000000000E+00 0. -1.
        -13    1    4    4    0    0 -0.17388742950E+02 -0.26859313001E+02 -0.10691442895E+01  0.32014592701E+02  0.00000000000E+00 0.  1.
         13    1    4    4    0    0  0.40080798732E+02  0.41717388667E+02 -0.74235795938E+00  0.57856391518E+02  0.00000000000E+00 0. -1.
         21    1    1    2  502  501  0.23271132833E+02 -0.27071070936E+02  0.11774406335E+03  0.12303679515E+03  0.00000000000E+00 0. -1.
<scales pt_clust_5="13000.00000" pt_clust_6="13000.00000" pt_clust_7="13000.00000" pt_clust_8="13000.00000" pt_clust_9="35.69858"></scales>
<clustering>
<clus scale="   35.699">  1  9  2 -1</clus>
<clus scale="   85.661">  7  8 -1 -1</clus>
<clus scale="   91.879">  5  6 -1 -1</clus>
<clus scale="   94.235">  1  7  2 -1</clus>
<clus scale="   35.699">  1  5  2 -1</clus>
</clustering>
</event>
<event>
 9    1  0.1296032E-005  0.9132264E+02  0.7546771E-02  0.1301720E+00
          1   -1    0    0  502    0  0.00000000000E+00  0.00000000000E+00  0.37859742253E+03  0.37859742253E+03  0.00000000000E+00 0. -1.
         -1   -1    0    0    0  501 -0.00000000000E+00 -0.00000000000E+00 -0.42115703813E+02  0.42115703813E+02  0.00000000000E+00 0.  1.
         23    2    1    2    0    0 -0.13601502510E+02  0.81535242844E+01  0.35030078965E+02  0.97771188015E+02  0.89892257424E+02 0.  0.
         23    2    1    2    0    0  0.23678697400E+02  0.12894860046E+02  0.26064028622E+03  0.27592969613E+03  0.86468955570E+02 0.  0.
        -13    1    3    3    0    0  0.51568938380E+01 -0.20865875474E+02 -0.22211648999E+02  0.30908504729E+02  0.00000000000E+00 0.  1.
         13    1    3    3    0    0 -0.18758396348E+02  0.29019399758E+02  0.57241727964E+02  0.66862683286E+02  0.00000000000E+00 0. -1.
        -13    1    4    4    0    0 -0.16313141928E+01  0.47561866608E+02  0.13193106705E+03  0.14025191191E+03  0.00000000000E+00 0. -1.
         13    1    4    4    0    0  0.25310011593E+02 -0.34667006562E+02  0.12870921917E+03  0.13567778422E+03  0.00000000000E+00 0.  1.
         21    1    1    2  502  501 -0.10077194890E+02 -0.21048384330E+02  0.40811353531E+02  0.47012242201E+02  0.00000000000E+00 0.  1.
<scales pt_clust_5="13000.00000" pt_clust_6="13000.00000" pt_clust_7="13000.00000" pt_clust_8="13000.00000" pt_clust_9="23.33633"></scales>
<clustering>
<clus scale="   23.336">  1  9  2 -1</clus>
<clus scale="   86.469">  7  8 -1 -1</clus>
<clus scale="   87.955">  1  7  2 -1</clus>
<clus scale="   89.892">  5  6 -1 -1</clus>
<clus scale="   23.336">  1  5  2 -1</clus>
</clustering>
</event>
<event>
 9    1  0.1296032E-005  0.1508065E+03  0.7546771E-02  0.1199686E+00
         -2   -1    0    0    0  501 -0.00000000000E+00  0.00000000000E+00  0.11963737340E+03  0.11963737340E+03  0.00000000000E+00 0.  1.
          2   -1    0    0  502    0  0.00000000000E+00 -0.00000000000E+00 -0.42363827622E+03  0.42363827622E+03  0.00000000000E+00 0. -1.
         23    2    1    2    0    0  0.90860130784E+02 -0.17411923565E+02 -0.33757935962E+02  0.13427066638E+03  0.91270341080E+02 0.  0.
         23    2    1    2    0    0 -0.17113649305E+03  0.10909220402E+02 -0.94249846843E+02  0.21545871543E+03  0.90181561781E+02 0.  0.
        -11    1    3    3    0    0 -0.13404686031E+02 -0.16827097723E+02  0.65431067586E+01  0.22486642067E+02  0.00000000000E+00 0.  1.
         11    1    3    3    0    0  0.10426481682E+03 -0.58482584150E+00 -0.40301042720E+02  0.11178402431E+03  0.00000000000E+00 0. -1.
        -13    1    4    4    0    0 -0.10124508107E+03 -0.26030301784E+02 -0.18869438159E+02  0.10622710929E+03  0.00000000000E+00 0.  1.
         13    1    4    4    0    0 -0.69891411973E+02  0.36939522187E+02 -0.75380408684E+02  0.10923160614E+03  0.00000000000E+00 0. -1.
         21    1    1    2  502  501  0.80276362261E+02  0.65027031624E+01 -0.17599312002E+03  0.19354626780E+03  0.00000000000E+00 0. -1.
<scales pt_clust_5="13000.00000" pt_clust_6="13000.00000" pt_clust_7="13000.00000" pt_clust_8="13000.00000" pt_clust_9="80.53930"></scales>
<clustering>
<clus scale="   80.539">  2  9  1 -1</clus>
<clus scale="   90.182">  7  8 -1 -1</clus>
<clus scale="   91.270">  5  6 -1 -1</clus>
<clus scale="  150.150">  2  7  1 -1</clus>
<clus scale="   80.539">  2  5  1 -1</clus>
</clustering>
</event>
<event>
 9    1  0.1296032E-005  0.1375283E+03  0.7546771E-02  0.1219798E+00
         -1   -1    0    0    0  501 -0.00000000000E+00  0.00000000000E+00  0.88567984556E+02  0.88567984556E+02  0.00000000000E+00 0.  1.
          1   -1    0    0  502    0  0.00000000000E+00 -0.00000000000E+00 -0.33463517245E+03  0.33463517245E+03  0.00000000000E+00 0. -1.
         23    2    1    2    0    0  0.71296081793E+02  0.30432939603E+02 -0.40090672722E+02  0.12537157967E+03  0.90008198836E+02 0.  0.
         23    2    1    2    0    0 -0.12360394636E+03 -0.27723322945E+02 -0.15273059128E+03  0.22314166417E+03  0.10207375071E+03 0.  0.
        -13    1    3    3    0    0  0.80338017653E+02  0.51505880272E+02 -0.28028998279E+02  0.99461940095E+02  0.00000000000E+00 0.  1.
         13    1    3    3    0    0 -0.90419358595E+01 -0.21072940669E+02 -0.12061674444E+02  0.25909639575E+02  0.00000000000E+00 0. -1.
        -13    1    4    4    0    0 -0.47297231097E+02  0.26922315815E+02 -0.14963447998E+02  0.56442394831E+02  0.00000000000E+00 0.  1.
         13    1    4    4    0    0 -0.76306715262E+02 -0.54645638760E+02 -0.13776714328E+03  0.16669926934E+03  0.00000000000E+00 0. -1.
         21    1    1    2  502  501  0.52307864566E+02 -0.27096166572E+01 -0.53245923892E+02  0.74689913168E+02  0.00000000000E+00 0. -1.
<scales pt_clust_5="13000.00000" pt_clust_6="13000.00000" pt_clust_7="13000.00000" pt_clust_8="13000.00000" pt_clust_9="52.37800"></scales>
<clustering>
<clus scale="   52.378">  2  9  1 -1</clus>
<clus scale="   90.008">  5  6 -1 -1</clus>
<clus scale="  102.074">  7  8 -1 -1</clus>
<clus scale="  128.827">  1  5  2 -1</clus>
<clus scale="   52.378">  2  5  1 -1</clus>
</clustering>
</event>
<event>
 9    1  0.1296032E-005  0.1070693E+03  0.7546771E-02  0.1266641E+00
          2   -1    0    0  502    0  0.00000000000E+00  0.00000000000E+00  0.16520339211E+03  0.16520339211E+03  0.00000000000E+00 0. -1.
         -2   -1    0    0    0  501 -0.00000000000E+00 -0.00000000000E+00 -0.16480279582E+03  0.16480279582E+03  0.00000000000E+00 0.  1.
         23    2    1    2    0    0 -0.49903536324E+02  0.11684273156E+02 -0.67483291262E+02  0.12562835636E+03  0.92744833518E+02 0.  0.
         23    2    1    2    0    0  0.46339858385E+02 -0.39618113402E+02 -0.20342022809E+02  0.11176676047E+03  0.91438686934E+02 0.  0.
        -11    1    4    4    0    0  0.60166996496E+02  0.49276951454E+01  0.12217657448E+01  0.60380811177E+02  0.00000000000E+00 0. -1.
         11    1    4    4    0    0 -0.13827138111E+02 -0.44545808547E+02 -0.21563788554E+02  0.51385949288E+02  0.00000000000E+00 0.  1.
        -11    1    3    3    0    0  0.22253086662E+01  0.39686622057E+02 -0.58327298089E+01  0.40174627640E+02  0.00000000000E+00 0. -1.
         11    1    3    3    0    0 -0.52128844990E+02 -0.28002348901E+02 -0.61650561453E+02  0.85453728716E+02  0.00000000000E+00 0.  1.
         21    1    1    2  502  501  0.35636779388E+01  0.27933840246E+02  0.88225910367E+02  0.92611071106E+02  0.00000000000E+00 0. -1.
<scales pt_clust_5="13000.00000" pt_clust_6="13000.00000" pt_clust_7="13000.00000" pt_clust_8="13000.00000" pt_clust_9="28.16024"></scales>
<clustering>
<clus scale="   28.160">  1  9  2 -1</clus>
<clus scale="   91.439">  5  6 -1 -1</clus>
<clus scale="   92.745">  7  8 -1 -1</clus>
<clus scale="  105.940">  1  5  2 -1</clus>
<clus scale="   28.160">  1  5  2 -1</clus>
</clustering>
</event>
<event>
 9    1  0.1296032E-005  0.1240276E+03  0.7546771E-02  0.1237194E+00
          1   -1    0    0  502    0  0.00000000000E+00  0.00000000000E+00  0.13749726686E+03  0.13749726686E+03  0.00000000000E+00 0. -1.
         -1   -1    0    0    0  501 -0.00000000000E+00 -0.00000000000E+00 -0.15783699353E+03  0.15783699353E+03  0.00000000000E+00 0.  1.
         23    2    1    2    0    0  0.91346901387E+02 -0.24834127772E+02 -0.46478181626E+02  0.14055737279E+03  0.92925579814E+02 0.  0.
         23    2    1    2    0    0 -0.67933094922E+02 -0.41347592185E+01  0.94357595781E+01  0.11395553559E+03  0.90911104461E+02 0.  0.
        -11    1    4    4    0    0 -0.37548495615E+02  0.74524666715E+01 -0.39624994073E+02  0.55095997475E+02  0.00000000000E+00 0.  1.
         11    1    4    4    0    0 -0.30384599306E+02 -0.11587225890E+02  0.49060753651E+02  0.58859538119E+02  0.00000000000E+00 0. -1.
        -13    1    3    3    0    0  0.41002773173E+02 -0.30157888615E+02 -0.68508178759E+02  0.85346916818E+02  0.00000000000E+00 0.  1.
         13    1    3    3    0    0  0.50344128215E+02  0.53237608425E+01  0.22029997133E+02  0.55210455974E+02  0.00000000000E+00 0. -1.
         21    1    1    2  502  501 -0.23413806466E+02  0.28968886991E+02  0.16702695383E+02  0.40821352008E+02  0.00000000000E+00 0. -1.
<scales pt_clust_5="13000.00000" pt_clust_6="13000.00000" pt_clust_7="13000.00000" pt_clust_8="13000.00000" pt_clust_9="37.24786"></scales>
<clustering>
<clus scale="   37.248">  1  9  2 -1</clus>
<clus scale="   90.911">  5  6 -1 -1</clus>
<clus scale="   92.926">  7  8 -1 -1</clus>
<clus scale="  122.526">  1  5  2 -1</clus>
<clus scale="   37.248">  1  5  2 -1</clus>
</clustering>
</event>
<event>
 9    1  0.1296032E-005  0.2497881E+03  0.7546771E-02  0.1113458E+00
          3   -1    0    0  502    0  0.00000000000E+00  0.00000000000E+00  0.40830796241E+03  0.40830796241E+03  0.00000000000E+00 0. -1.
         -3   -1    0    0    0  501 -0.00000000000E+00 -0.00000000000E+00 -0.19669304764E+03  0.19669304764E+03  0.00000000000E+00 0.  1.
         23    2    1    2    0    0  0.55950185604E+02  0.24868789553E+03  0.66516144411E+02  0.27863581555E+03  0.90760275380E+02 0.  0.
         23    2    1    2    0    0 -0.11389250090E+02 -0.21887523749E+03  0.13023062677E+03  0.27072767796E+03  0.91089927330E+02 0.  0.
        -11    1    3    3    0    0  0.40731117409E+02  0.22095321747E+03  0.24451812319E+02  0.22600274193E+03  0.00000000000E+00 0. -1.
         11    1    3    3    0    0  0.15219068195E+02  0.27734678059E+02  0.42064332092E+02  0.52633073615E+02  0.00000000000E+00 0.  1.
        -11    1    4    4    0    0 -0.46810582384E+02 -0.95340877267E+02  0.39089419771E+02  0.11317727793E+03  0.00000000000E+00 0.  1.
         11    1    4    4    0    0  0.35421332294E+02 -0.12353436022E+03  0.91141206995E+02  0.15755040003E+03  0.00000000000E+00 0. -1.
         21    1    1    2  502  501 -0.44560935514E+02 -0.29812658037E+02  0.14868143588E+02  0.55637516541E+02  0.00000000000E+00 0.  1.
<scales pt_clust_5="13000.00000" pt_clust_6="13000.00000" pt_clust_7="13000.00000" pt_clust_8="13000.00000" pt_clust_9="53.61410"></scales>
<clustering>
<clus scale="   53.614">  2  9  1 -1</clus>
<clus scale="   90.760">  5  6 -1 -1</clus>
<clus scale="   91.090">  7  8 -1 -1</clus>
<clus scale="  249.668">  2  5  1 -1</clus>
<clus scale="  249.788">  1  5  2 -1</clus>
</clustering>
</event>
<event>
 9    1  0.1296032E-005  0.1089774E+03  0.7546771E-02  0.1264351E+00
         -1   -1    0    0    0  501 -0.00000000000E+00  0.00000000000E+00  0.24964394966E+03  0.24964394966E+03  0.00000000000E+00 0.  1.
          1   -1    0    0  502    0  0.00000000000E+00 -0.00000000000E+00 -0.96045371102E+02  0.96045371102E+02  0.00000000000E+00 0. -1.
         23    2    1    2    0    0  0.61410762795E+02  0.89307496581E+01  0.14203177445E+03  0.18232580875E+03  0.96013725624E+02 0.  0.
         23    2    1    2    0    0 -0.19937857638E+02 -0.42922506077E+02  0.28874387203E+02  0.10701642868E+03  0.91536474021E+02 0.  0.
        -11    1    4    4    0    0 -0.69600665728E+01 -0.65106975289E+02  0.42366190794E+02  0.77988812533E+02  0.00000000000E+00 0.  1.
         11    1    4    4    0    0 -0.12977791065E+02  0.22184469212E+02 -0.13491803590E+02  0.29027616148E+02  0.00000000000E+00 0. -1.
        -13    1    3    3    0    0  0.24858519246E+02 -0.37599588573E+02  0.10017135780E+03  0.10984523641E+03  0.00000000000E+00 0.  1.
         13    1    3    3    0    0  0.36552243549E+02  0.46530338231E+02  0.41860416649E+02  0.72480572337E+02  0.00000000000E+00 0. -1.
         21    1    1    2  502  501 -0.41472905156E+02  0.33991756419E+02 -0.17307583096E+02  0.56347083324E+02  0.00000000000E+00 0.  1.
<scales pt_clust_5="13000.00000" pt_clust_6="13000.00000" pt_clust_7="13000.00000" pt_clust_8="13000.00000" pt_clust_9="53.62314"></scales>
<clustering>
<clus scale="   53.623">  2  9  1 -1</clus>
<clus scale="   91.536">  5  6 -1 -1</clus>
<clus scale="   96.014">  7  8 -1 -1</clus>
<clus scale="  105.054">  2  5  1 -1</clus>
<clus scale="   53.623">  2  5  1 -1</clus>
</clustering>
</event>
<event>
 9    1  0.1296032E-005  0.9504731E+02  0.7546771E-02  0.1292023E+00
         -1   -1    0    0    0  501 -0.00000000000E+00  0.00000000000E+00  0.14828293153E+03  0.14828293153E+03  0.00000000000E+00 0.  1.
          1   -1    0    0  502    0  0.00000000000E+00 -0.00000000000E+00 -0.15300027267E+03  0.15300027267E+03  0.00000000000E+00 0. -1.
         23    2    1    2    0    0  0.16294739748E+02 -0.12617837347E+02  0.10177047929E+03  0.13767142539E+03  0.90396142345E+02 0.  0.
         23    2    1    2    0    0 -0.24500194137E+02  0.34017558211E+02 -0.89025610764E+02  0.13479847803E+03  0.92128261293E+02 0.  0.
        -11    1    4    4    0    0 -0.44350501967E+02 -0.15916210082E+02 -0.35921338274E+02  0.59250614439E+02  0.00000000000E+00 0. -1.
         11    1    4    4    0    0  0.19850307830E+02  0.49933768293E+02 -0.53104272490E+02  0.75547863594E+02  0.00000000000E+00 0.  1.
        -11    1    3    3    0    0 -0.89751186270E+01 -0.45352150430E+02  0.30864775154E+02  0.55587810249E+02  0.00000000000E+00 0.  1.
         11    1    3    3    0    0  0.25269858375E+02  0.32734313083E+02  0.70905704140E+02  0.82083615143E+02  0.00000000000E+00 0. -1.
         21    1    1    2  502  501  0.82054543887E+01 -0.21399720864E+02 -0.17462209675E+02  0.28813300775E+02  0.00000000000E+00 0. -1.
<scales pt_clust_5="13000.00000" pt_clust_6="13000.00000" pt_clust_7="13000.00000" pt_clust_8="13000.00000" pt_clust_9="22.91893"></scales>
<clustering>
<clus scale="   22.919">  2  9  1 -1</clus>
<clus scale="   90.396">  7  8 -1 -1</clus>
<clus scale="   92.128">  5  6 -1 -1</clus>
<clus scale="   93.369">  1  7  2 -1</clus>
<clus scale="   22.919">  2  5  1 -1</clus>
</clustering>
</event>
<event>
 9    1  0.1296032E-005  0.2591527E+03  0.7546771E-02  0.1107818E+00
         -1   -1    0    0    0  501 -0.00000000000E+00  0.00000000000E+00  0.13024705402E+04  0.13024705402E+04  0.00000000000E+00 0.  1.
          1   -1    0    0  502    0  0.00000000000E+00 -0.00000000000E+00 -0.13755238503E+03  0.13755238503E+03  0.00000000000E+00 0. -1.
         23    2    1    2    0    0  0.23654955442E+03 -0.59624240656E+02  0.11325715257E+04  0.11622218892E+04  0.92361882304E+02 0.  0.
         23    2    1    2    0    0 -0.21347910761E+03  0.59246388853E+02  0.52866479224E+02  0.24692300950E+03  0.95355356507E+02 0.  0.
        -11    1    3    3    0    0  0.17122299839E+03 -0.71653392456E+02  0.94950844865E+03  0.96748013824E+03  0.00000000000E+00 0.  1.
         11    1    3    3    0    0  0.65326556028E+02  0.12029151800E+02  0.18306307702E+03  0.19474175101E+03  0.00000000000E+00 0. -1.
        -13    1    4    4    0    0 -0.15108329981E+03  0.67834970909E+02  0.72731969775E+02  0.18088030901E+03  0.00000000000E+00 0.  1.
         13    1    4    4    0    0 -0.62395807805E+02 -0.85885820552E+01 -0.19865490550E+02  0.66042700491E+02  0.00000000000E+00 0. -1.
         21    1    1    2  502  501 -0.23070446810E+02  0.37785180265E+00 -0.20519849715E+02  0.30878026497E+02  0.00000000000E+00 0.  1.
<scales pt_clust_5="13000.00000" pt_clust_6="13000.00000" pt_clust_7="13000.00000" pt_clust_8="13000.00000" pt_clust_9="23.07354"></scales>
<clustering>
<clus scale="   23.074">  2  9  1 -1</clus>
<clus scale="   92.362">  5  6 -1 -1</clus>
<clus scale="   95.355">  7  8 -1 -1</clus>
<clus scale="  258.066">  1  5  2 -1</clus>
<clus scale="   23.074">  2  5  1 -1</clus>
</clustering>
</event>
<event>
 9    1  0.1296032E-005  0.1101259E+03  0.7546771E-02  0.1260823E+00
          1   -1    0    0  502    0  0.00000000000E+00  0.00000000000E+00  0.78204827545E+02  0.78204827545E+02  0.00000000000E+00 0. -1.
         -1   -1    0    0    0  501 -0.00000000000E+00 -0.00000000000E+00 -0.42446998133E+03  0.42446998133E+03  0.00000000000E+00 0.  1.
         23    2    1    2    0    0  0.58585114696E+02  0.16889262961E+02 -0.35388044495E+03  0.37116667120E+03  0.93892841174E+02 0.  0.
         23    2    1    2    0    0 -0.39544799544E+02 -0.69357843946E+01 -0.12891237277E+02  0.10180758137E+03  0.92664466485E+02 0.  0.
        -11    1    3    3    0    0 -0.19766577781E+02 -0.13507180220E+02 -0.12664840501E+03  0.12889134962E+03  0.00000000000E+00 0. -1.
         11    1    3    3    0    0  0.78351692477E+02  0.30396443180E+02 -0.22723203994E+03  0.24227532158E+03  0.00000000000E+00 0.  1.
        -11    1    4    4    0    0 -0.69547996951E+02 -0.11644193619E+02 -0.11100907516E+02  0.71384461002E+02  0.00000000000E+00 0. -1.
         11    1    4    4    0    0  0.30003197407E+02  0.47084092246E+01 -0.17903297609E+01  0.30423120364E+02  0.00000000000E+00 0.  1.
         21    1    1    2  502  501 -0.19040315152E+02 -0.99534785663E+01  0.20506528438E+02  0.29700556312E+02  0.00000000000E+00 0.  1.
<scales pt_clust_5="13000.00000" pt_clust_6="13000.00000" pt_clust_7="13000.00000" pt_clust_8="13000.00000" pt_clust_9="21.48500"></scales>
<clustering>
<clus scale="   21.485">  1  9  2 -1</clus>
<clus scale="   92.664">  7  8 -1 -1</clus>
<clus scale="   93.893">  5  6 -1 -1</clus>
<clus scale="  109.080">  1  7  2 -1</clus>
<clus scale="   21.485">  1  5  2 -1</clus>
</clustering>
</event>
<event>
 9    1  0.1296032E-005  0.1016699E+03  0.7546771E-02  0.1281730E+00
         -2   -1    0    0    0  501 -0.00000000000E+00  0.00000000000E+00  0.30861743664E+02  0.30861743664E+02  0.00000000000E+00 0.  1.
          2   -1    0    0  502    0  0.00000000000E+00 -0.00000000000E+00 -0.47600945539E+03  0.47600945539E+03  0.00000000000E+00 0. -1.
         23    2    1    2    0    0 -0.20793020616E+02  0.24721768520E+01 -0.10384754521E+03  0.14621532215E+03  0.10077770796E+03 0.  0.
         23    2    1    2    0    0 -0.27043787820E+01 -0.42332446088E+01 -0.24808871308E+03  0.26451221257E+03  0.91615866637E+02 0.  0.
        -11    1    4    4    0    0 -0.10292781664E+02  0.38762605817E+02 -0.17358702580E+03  0.17815986218E+03  0.00000000000E+00 0. -1.
         11    1    4    4    0    0  0.75884028818E+01 -0.42995850425E+02 -0.74501687273E+02  0.86352350395E+02  0.00000000000E+00 0.  1.
        -11    1    3    3    0    0  0.27286359542E+02 -0.74144590612E+01  0.31943618940E+01  0.28455642115E+02  0.00000000000E+00 0.  1.
         11    1    3    3    0    0 -0.48079380158E+02  0.98866359132E+01 -0.10704190710E+03  0.11775968003E+03  0.00000000000E+00 0. -1.
         21    1    1    2  502  501  0.23497399398E+02  0.17610677568E+01 -0.93211453444E+02  0.96143664332E+02  0.00000000000E+00 0.  1.
<scales pt_clust_5="13000.00000" pt_clust_6="13000.00000" pt_clust_7="13000.00000" pt_clust_8="13000.00000" pt_clust_9="23.56330"></scales>
<clustering>
<clus scale="   23.563">  2  9  1 -1</clus>
<clus scale="   91.616">  5  6 -1 -1</clus>
<clus scale="   92.596">  2  5  1 -1</clus>
<clus scale="  100.778">  7  8 -1 -1</clus>
<clus scale="   23.563">  2  5  1 -1</clus>
</clustering>
</event>
<event>
 9    1  0.1296032E-005  0.1612302E+03  0.7546771E-02  0.1188370E+00
         -1   -1    0    0    0  501 -0.00000000000E+00  0.00000000000E+00  0.90559984391E+02  0.90559984391E+02  0.00000000000E+00 0.  1.
          1   -1    0    0  502    0  0.00000000000E+00 -0.00000000000E+00 -0.72751227314E+03  0.72751227314E+03  0.00000000000E+00 0. -1.
         23    2    1    2    0    0 -0.12734478612E+03  0.18330720470E+02 -0.13211068249E+02  0.16081671080E+03  0.95576002651E+02 0.  0.
         23    2    1    2    0    0  0.13964675332E+03  0.18372914781E+02 -0.46880525820E+03  0.49755693168E+03  0.89138938910E+02 0.  0.
        -13    1    4    4    0    0  0.11286500084E+03 -0.19563843745E+02 -0.38578351719E+03  0.40243033501E+03  0.00000000000E+00 0. -1.
         13    1    4    4    0    0  0.26781752480E+02  0.37936758526E+02 -0.83021741009E+02  0.95126596668E+02  0.00000000000E+00 0.  1.
        -13    1    3    3    0    0 -0.12355376279E+03  0.42449032259E+02 -0.26077091668E+02  0.13321962073E+03  0.00000000000E+00 0.  1.
         13    1    3    3    0    0 -0.37910233328E+01 -0.24118311788E+02  0.12866023419E+02  0.27597090065E+02  0.00000000000E+00 0. -1.
         21    1    1    2  502  501 -0.12301967206E+02 -0.36703635252E+02 -0.15493596229E+03  0.15969861505E+03  0.00000000000E+00 0.  1.
<scales pt_clust_5="13000.00000" pt_clust_6="13000.00000" pt_clust_7="13000.00000" pt_clust_8="13000.00000" pt_clust_9="38.71040"></scales>
<clustering>
<clus scale="   38.710">  2  9  1 -1</clus>
<clus scale="   89.139">  5  6 -1 -1</clus>
<clus scale="   95.576">  7  8 -1 -1</clus>
<clus scale="  157.500">  2  5  1 -1</clus>
<clus scale="   38.710">  2  5  1 -1</clus>
</clustering>
</event>
<event>
 9    1  0.1296032E-005  0.2384703E+03  0.7546771E-02  0.1120868E+00
         -1   -1    0    0    0  501 -0.00000000000E+00  0.00000000000E+00  0.48297786361E+02  0.48297786361E+02  0.00000000000E+00 0.  1.
          1   -1    0    0  502    0  0.00000000000E+00 -0.00000000000E+00 -0.15869311860E+04  0.15869311860E+04  0.00000000000E+00 0. -1.
         23    2    1    2    0    0 -0.19804998922E+03 -0.22237066107E+02 -0.55355918794E+03  0.59565194061E+03  0.93033190082E+02 0.  0.
         23    2    1    2    0    0  0.23815854456E+03  0.73672224666E+02 -0.75438312191E+03  0.79984248969E+03  0.92233533292E+02 0.  0.
        -11    1    4    4    0    0  0.18595988834E+03  0.14138760475E+02 -0.51773637806E+03  0.55030168252E+03  0.00000000000E+00 0.  1.
         11    1    4    4    0    0  0.52198656223E+02  0.59533464191E+02 -0.23664674385E+03  0.24954080718E+03  0.00000000000E+00 0. -1.
        -13    1    3    3    0    0 -0.13948303138E+03 -0.32407777943E+02 -0.48094055401E+03  0.50180633376E+03  0.00000000000E+00 0. -1.
         13    1    3    3    0    0 -0.58566957842E+02  0.10170711836E+02 -0.72618633935E+02  0.93845606848E+02  0.00000000000E+00 0.  1.
         21    1    1    2  502  501 -0.40108555347E+02 -0.51435158558E+02 -0.23069108974E+03  0.23973454202E+03  0.00000000000E+00 0.  1.
<scales pt_clust_5="13000.00000" pt_clust_6="13000.00000" pt_clust_7="13000.00000" pt_clust_8="13000.00000" pt_clust_9="65.22478"></scales>
<clustering>
<clus scale="   65.225">  2  9  1 -1</clus>
<clus scale="   92.234">  5  6 -1 -1</clus>
<clus scale="   93.033">  7  8 -1 -1</clus>
<clus scale="  238.159">  2  5  1 -1</clus>
<clus scale="   65.225">  2  5  1 -1</clus>
</clustering>
</event>
<event>
 9    1  0.1296032E-005  0.1270391E+03  0.7546771E-02  0.1233049E+00
         -1   -1    0    0    0  501 -0.00000000000E+00  0.00000000000E+00  0.37872476168E+03  0.37872476168E+03  0.00000000000E+00 0.  1.
          1   -1    0    0  502    0  0.00000000000E+00 -0.00000000000E+00 -0.16824143798E+03  0.16824143798E+03  0.00000000000E+00 0. -1.
         23    2    1    2    0    0  0.37386754348E+02  0.13650205392E+03  0.23668243385E+03  0.28938031586E+03  0.87702979365E+02 0.  0.
         23    2    1    2    0    0 -0.76926978341E+02 -0.46368186473E+02 -0.79061688865E+02  0.14586303204E+03  0.83411658400E+02 0.  0.
        -13    1    3    3    0    0  0.63458104168E+02  0.68272643822E+02  0.12479258241E+03  0.15576030785E+03  0.00000000000E+00 0.  1.
         13    1    3    3    0    0 -0.26071349820E+02  0.68229410099E+02  0.11188985144E+03  0.13362000800E+03  0.00000000000E+00 0. -1.
        -13    1    4    4    0    0 -0.77649134527E+02 -0.16663739945E+01 -0.54183237397E+02  0.94699462036E+02  0.00000000000E+00 0. -1.
         13    1    4    4    0    0  0.72215618570E+00 -0.44701812479E+02 -0.24878451469E+02  0.51163570008E+02  0.00000000000E+00 0.  1.
         21    1    1    2  502  501  0.39540223993E+02 -0.90133867448E+02  0.52862578718E+02  0.11172285175E+03  0.00000000000E+00 0.  1.
<scales pt_clust_5="13000.00000" pt_clust_6="13000.00000" pt_clust_7="13000.00000" pt_clust_8="13000.00000" pt_clust_9="98.42532"></scales>
<clustering>
<clus scale="   83.412">  7  8 -1 -1</clus>
<clus scale="   87.703">  5  6 -1 -1</clus>
<clus scale="   98.425">  1  9  2 -1</clus>
<clus scale="  124.115">  2  7  1 -1</clus>
<clus scale="  124.115">  2  5  1 -1</clus>
</clustering>
</event>
<event>
 9    1  0.1296032E-005  0.9799245E+02  0.7546771E-02  0.1286653E+00
         -1   -1    0    0    0  501 -0.00000000000E+00  0.00000000000E+00  0.43168064844E+02  0.43168064844E+02  0.00000000000E+00 0.  1.
          1   -1    0    0  502    0  0.00000000000E+00 -0.00000000000E+00 -0.60834882742E+03  0.60834882742E+03  0.00000000000E+00 0. -1.
         23    2    1    2    0    0 -0.31107170530E+02 -0.16827772245E+02 -0.33264461123E+02  0.10162825343E+03  0.89280163214E+02 0.  0.
         23    2    1    2    0    0 -0.85057258584E+01  0.74646289467E+01 -0.43009945091E+03  0.44023682140E+03  0.93246196640E+02 0.  0.
        -11    1    3    3    0    0 -0.49022964369E+02 -0.42144212525E+01 -0.52872234739E+02  0.72225242044E+02  0.00000000000E+00 0. -1.
         11    1    3    3    0    0  0.17915793839E+02 -0.12613350992E+02  0.19607773616E+02  0.29403011382E+02  0.00000000000E+00 0.  1.
        -11    1    4    4    0    0  0.26266924650E+01  0.48570760108E+02 -0.17620838676E+03  0.18279883428E+03  0.00000000000E+00 0. -1.
         11    1    4    4    0    0 -0.11132418323E+02 -0.41106131161E+02 -0.25389106415E+03  0.25743798712E+03  0.00000000000E+00 0.  1.
         21    1    1    2  502  501  0.39612896388E+02  0.93631432981E+01 -0.10181685055E+03  0.10965181744E+03  0.00000000000E+00 0. -1.
<scales pt_clust_5="13000.00000" pt_clust_6="13000.00000" pt_clust_7="13000.00000" pt_clust_8="13000.00000" pt_clust_9="40.70442"></scales>
<clustering>
<clus scale="   40.704">  2  9  1 -1</clus>
<clus scale="   89.280">  5  6 -1 -1</clus>
<clus scale="   93.246">  7  8 -1 -1</clus>
<clus scale="   94.226">  1  5  2 -1</clus>
<clus scale="   40.704">  2  5  1 -1</clus>
</clustering>
</event>
<event>
 9    1  0.2574328E-005  0.5286882E+03  0.7546771E-02  0.1006574E+00
         -2   -1    0    0    0  501 -0.00000000000E+00  0.00000000000E+00  0.49195437478E+03  0.49195437478E+03  0.00000000000E+00 0. -1.
          2   -1    0    0  502    0  0.00000000000E+00 -0.00000000000E+00 -0.72729927416E+03  0.72729927416E+03  0.00000000000E+00 0.  1.
         23    2    1    2    0    0 -0.28059803090E+03 -0.45353999881E+03  0.12808696376E+03  0.55621720526E+03  0.92398721166E+02 0.  0.
         23    2    1    2    0    0  0.27563023859E+03  0.41055526346E+03 -0.29727787395E+03  0.58398761878E+03  0.90220572837E+02 0.  0.
        -11    1    3    3    0    0 -0.24821630592E+03 -0.34871598657E+03  0.75847472330E+02  0.43470336193E+03  0.00000000000E+00 0. -1.
         11    1    3    3    0    0 -0.32381724974E+02 -0.10482401224E+03  0.52239491433E+02  0.12151384332E+03  0.00000000000E+00 0.  1.
        -11    1    4    4    0    0  0.43590389356E+02  0.13517593896E+03 -0.96229059129E+02  0.17155957664E+03  0.00000000000E+00 0. -1.
         11    1    4    4    0    0  0.23203984923E+03  0.27537932451E+03 -0.20104881482E+03  0.41242804213E+03  0.00000000000E+00 0.  1.
         21    1    1    2  502  501  0.49677923087E+01  0.42984735347E+02 -0.66153989198E+02  0.79048824913E+02  0.00000000000E+00 0. -1.
<scales pt_clust_5="13000.00000" pt_clust_6="13000.00000" pt_clust_7="13000.00000" pt_clust_8="13000.00000" pt_clust_9="43.27085"></scales>
<clustering>
<clus scale="   43.271">  2  9  1 -1</clus>
<clus scale="   90.221">  7  8 -1 -1</clus>
<clus scale="   92.399">  5  6 -1 -1</clus>
<clus scale="  528.312">  2  7  1 -1</clus>
<clus scale="   43.271">  2  5  1 -1</clus>
</clustering>
</event>
<event>
 9    1  0.1296032E-005  0.2468263E+03  0.7546771E-02  0.1115392E+00
          1   -1    0    0  502    0  0.00000000000E+00  0.00000000000E+00  0.39927703328E+03  0.39927703328E+03  0.00000000000E+00 0. -1.
         -1   -1    0    0    0  501 -0.00000000000E+00 -0.00000000000E+00 -0.27661174067E+03  0.27661174067E+03  0.00000000000E+00 0.  1.
         23    2    1    2    0    0 -0.18213932598E+03  0.13213668341E+03 -0.12980383246E+03  0.27550100031E+03  0.91743823119E+02 0.  0.
         23    2    1    2    0    0  0.17370255106E+03 -0.17708971831E+03  0.22559429134E+03  0.34733863410E+03  0.90653173567E+02 0.  0.
        -11    1    4    4    0    0  0.28793008713E+02 -0.68399389717E+02  0.28103990241E+02  0.79355832375E+02  0.00000000000E+00 0.  1.
         11    1    4    4    0    0  0.14490954235E+03 -0.10869032859E+03  0.19749030110E+03  0.26798280172E+03  0.00000000000E+00 0. -1.
        -11    1    3    3    0    0 -0.10562839036E+03  0.12546543943E+03 -0.70738533419E+02  0.17861375494E+03  0.00000000000E+00 0. -1.
         11    1    3    3    0    0 -0.76510935623E+02  0.66712439777E+01 -0.59065299038E+02  0.96887245376E+02  0.00000000000E+00 0.  1.
         21    1    1    2  502  501  0.84367749194E+01  0.44953034896E+02  0.26874833731E+02  0.53049139536E+02  0.00000000000E+00 0. -1.
<scales pt_clust_5="13000.00000" pt_clust_6="13000.00000" pt_clust_7="13000.00000" pt_clust_8="13000.00000" pt_clust_9="45.73789"></scales>
<clustering>
<clus scale="   45.738">  1  9  2 -1</clus>
<clus scale="   90.653">  5  6 -1 -1</clus>
<clus scale="   91.744">  7  8 -1 -1</clus>
<clus scale="  246.423">  1  5  2 -1</clus>
<clus scale="   45.738">  1  5  2 -1</clus>
</clustering>
</event>
<event>
 9    1  0.1296032E-005  0.1632054E+03  0.7546771E-02  0.1190971E+00
         -1   -1    0    0    0  501 -0.00000000000E+00  0.00000000000E+00  0.64648810837E+02  0.64648810837E+02  0.00000000000E+00 0.  1.
          1   -1    0    0  502    0  0.00000000000E+00 -0.00000000000E+00 -0.54364340536E+03  0.54364340536E+03  0.00000000000E+00 0. -1.
         23    2    1    2    0    0  0.64733380963E+02  0.74846838790E+02 -0.12161494961E+03  0.19665740855E+03  0.11870754181E+03 0.  0.
         23    2    1    2    0    0 -0.76192694311E+02 -0.11285295433E+03 -0.26501121435E+03  0.31109771178E+03  0.89497075777E+02 0.  0.
        -13    1    3    3    0    0 -0.28538412918E+02  0.50416046207E+02 -0.50442928478E+02  0.76816064468E+02  0.00000000000E+00 0. -1.
         13    1    3    3    0    0  0.93271793881E+02  0.24430792583E+02 -0.71172021134E+02  0.11984134409E+03  0.00000000000E+00 0.  1.
        -13    1    4    4    0    0  0.19169356523E+02 -0.24460522036E+02 -0.34429320933E+02  0.46380594085E+02  0.00000000000E+00 0.  1.
         13    1    4    4    0    0 -0.95362050833E+02 -0.88392432297E+02 -0.23058189342E+03  0.26471711769E+03  0.00000000000E+00 0. -1.
         21    1    1    2  502  501  0.11459313347E+02  0.38006115544E+02 -0.92368430561E+02  0.10053709587E+03  0.00000000000E+00 0. -1.
<scales pt_clust_5="13000.00000" pt_clust_6="13000.00000" pt_clust_7="13000.00000" pt_clust_8="13000.00000" pt_clust_9="39.69610"></scales>
<clustering>
<clus scale="   39.696">  2  9  1 -1</clus>
<clus scale="   89.497">  7  8 -1 -1</clus>
<clus scale="  118.708">  5  6 -1 -1</clus>
<clus scale="  143.368">  2  7  1 -1</clus>
<clus scale="   39.696">  2  5  1 -1</clus>
</clustering>
</event>
<event>
 9    1  0.1296032E-005  0.1473671E+03  0.7546771E-02  0.1203833E+00
         -3   -1    0    0    0  501 -0.00000000000E+00  0.00000000000E+00  0.12666600438E+03  0.12666600438E+03  0.00000000000E+00 0.  1.
          3   -1    0    0  502    0  0.00000000000E+00 -0.00000000000E+00 -0.27166176623E+03  0.27166176623E+03  0.00000000000E+00 0. -1.
         23    2    1    2    0    0 -0.47283183446E+02 -0.11347294826E+03 -0.14335677922E+02  0.15161353571E+03  0.87574785898E+02 0.  0.
         23    2    1    2    0    0  0.88696820414E+02  0.78868248972E+02 -0.64251351075E+02  0.16114149193E+03  0.88039864037E+02 0.  0.
        -11    1    4    4    0    0  0.25423473289E+02  0.75978397295E+02 -0.54879835291E+02  0.97112646813E+02  0.00000000000E+00 0. -1.
         11    1    4    4    0    0  0.63273347125E+02  0.28898516773E+01 -0.93715157847E+01  0.64028845119E+02  0.00000000000E+00 0.  1.
        -11    1    3    3    0    0 -0.62848966330E+02 -0.77873129038E+02  0.17242130239E+02  0.10154559493E+03  0.00000000000E+00 0.  1.
         11    1    3    3    0    0  0.15565782883E+02 -0.35599819224E+02 -0.31577808161E+02  0.50067940779E+02  0.00000000000E+00 0. -1.
         21    1    1    2  502  501 -0.41413636968E+02  0.34604699290E+02 -0.66408732853E+02  0.85572742967E+02  0.00000000000E+00 0. -1.
<scales pt_clust_5="13000.00000" pt_clust_6="13000.00000" pt_clust_7="13000.00000" pt_clust_8="13000.00000" pt_clust_9="53.96827"></scales>
<clustering>
<clus scale="   53.968">  2  9  1 -1</clus>
<clus scale="   87.575">  7  8 -1 -1</clus>
<clus scale="   88.040">  5  6 -1 -1</clus>
<clus scale="  147.090">  1  7  2 -1</clus>
<clus scale="   53.968">  2  5  1 -1</clus>
</clustering>
</event>
<event>
 9    1  0.1296032E-005  0.1055483E+03  0.7546771E-02  0.1273360E+00
         -1   -1    0    0    0  501 -0.00000000000E+00  0.00000000000E+00  0.54291018866E+02  0.54291018866E+02  0.00000000000E+00 0.  1.
          1   -1    0    0  502    0  0.00000000000E+00 -0.00000000000E+00 -0.55960906225E+03  0.55960906225E+03  0.00000000000E+00 0. -1.
         23    2    1    2    0    0  0.53608875967E+02  0.31586777341E+01 -0.72479093261E+02  0.12955615133E+03  0.92992948982E+02 0.  0.
         23    2    1    2    0    0  0.13510892203E+01  0.12999527955E+02 -0.89192102893E+02  0.13595500775E+03  0.10177288315E+03 0.  0.
        -11    1    4    4    0    0  0.23364039937E+02 -0.19991801430E+02  0.73220396486E+01  0.31609535764E+02  0.00000000000E+00 0.  1.
         11    1    4    4    0    0 -0.22012950717E+02  0.32991329384E+02 -0.96514142541E+02  0.10434547199E+03  0.00000000000E+00 0. -1.
        -13    1    3    3    0    0  0.73708314896E+02  0.18802162678E+02 -0.33789460949E+02  0.83235597417E+02  0.00000000000E+00 0.  1.
         13    1    3    3    0    0 -0.20099438930E+02 -0.15643484944E+02 -0.38689632312E+02  0.46320553914E+02  0.00000000000E+00 0. -1.
         21    1    1    2  502  501 -0.54959965187E+02 -0.16158205689E+02 -0.34364684723E+03  0.34838892203E+03  0.00000000000E+00 0. -1.
<scales pt_clust_5="13000.00000" pt_clust_6="13000.00000" pt_clust_7="13000.00000" pt_clust_8="13000.00000" pt_clust_9="57.28600"></scales>
<clustering>
<clus scale="   57.286">  2  9  1 -1</clus>
<clus scale="   92.993">  7  8 -1 -1</clus>
<clus scale="   97.110">  1  7  2 -1</clus>
<clus scale="  101.773">  5  6 -1 -1</clus>
<clus scale="   57.286">  2  5  1 -1</clus>
</clustering>
</event>
<event>
 9    1  0.1296032E-005  0.9865940E+02  0.7546771E-02  0.1284528E+00
          1   -1    0    0  502    0  0.00000000000E+00  0.00000000000E+00  0.49052750747E+03  0.49052750747E+03  0.00000000000E+00 0. -1.
         -1   -1    0    0    0  501 -0.00000000000E+00 -0.00000000000E+00 -0.30039627864E+02  0.30039627864E+02  0.00000000000E+00 0.  1.
         23    2    1    2    0    0 -0.58309552631E+01 -0.28457752167E+02  0.11287366774E+03  0.14923454837E+03  0.93202155871E+02 0.  0.
         23    2    1    2    0    0 -0.20098340180E+02  0.40837918749E+02  0.28420571332E+03  0.30171768501E+03  0.90493066471E+02 0.  0.
        -11    1    3    3    0    0 -0.47968682627E+02 -0.21552219001E+02  0.45872828715E+02  0.69784017305E+02  0.00000000000E+00 0.  1.
         11    1    3    3    0    0  0.42137727364E+02 -0.69055331652E+01  0.67000839025E+02  0.79450531061E+02  0.00000000000E+00 0. -1.
        -13    1    4    4    0    0 -0.49742855303E+02  0.12622467915E+02  0.93380909369E+02  0.10655361366E+03  0.00000000000E+00 0.  1.
         13    1    4    4    0    0  0.29644515123E+02  0.28215450834E+02  0.19082480395E+03  0.19516407135E+03  0.00000000000E+00 0. -1.
         21    1    1    2  502  501  0.25929295443E+02 -0.12380166582E+02  0.63408498549E+02  0.69614901960E+02  0.00000000000E+00 0.  1.
<scales pt_clust_5="13000.00000" pt_clust_6="13000.00000" pt_clust_7="13000.00000" pt_clust_8="13000.00000" pt_clust_9="28.73320"></scales>
<clustering>
<clus scale="   28.733">  1  9  2 -1</clus>
<clus scale="   90.493">  7  8 -1 -1</clus>
<clus scale="   93.202">  5  6 -1 -1</clus>
<clus scale="   96.104">  1  7  2 -1</clus>
<clus scale="   28.733">  1  5  2 -1</clus>
</clustering>
</event>
<event>
 9    1  0.1296032E-005  0.1026868E+03  0.7546771E-02  0.1278067E+00
         -1   -1    0    0    0  501 -0.00000000000E+00  0.00000000000E+00  0.58543825299E+02  0.58543825299E+02  0.00000000000E+00 0.  1.
          1   -1    0    0  502    0  0.00000000000E+00 -0.00000000000E+00 -0.29103248438E+03  0.29103248438E+03  0.00000000000E+00 0. -1.
         23    2    1    2    0    0  0.18313270469E+02 -0.36156151780E+02 -0.20635279619E+02  0.10570628871E+03  0.95422018011E+02 0.  0.
         23    2    1    2    0    0 -0.32643099591E+02  0.16121432310E+02 -0.16019731444E+03  0.18664167973E+03  0.88580271670E+02 0.  0.
        -11    1    4    4    0    0  0.13408528564E+02  0.22155110732E+02 -0.73879783577E+01  0.26929905199E+02  0.00000000000E+00 0.  1.
         11    1    4    4    0    0 -0.46051628155E+02 -0.60336784213E+01 -0.15280933608E+03  0.15971177454E+03  0.00000000000E+00 0. -1.
        -11    1    3    3    0    0  0.20220970262E+02 -0.10108268770E+02  0.36471981707E+02  0.42910024301E+02  0.00000000000E+00 0.  1.
         11    1    3    3    0    0 -0.19076997930E+01 -0.26047883010E+02 -0.57107261326E+02  0.62796264410E+02  0.00000000000E+00 0. -1.
         21    1    1    2  502  501  0.14329829122E+02  0.20034719470E+02 -0.51656065026E+02  0.57228341238E+02  0.00000000000E+00 0. -1.
<scales pt_clust_5="13000.00000" pt_clust_6="13000.00000" pt_clust_7="13000.00000" pt_clust_8="13000.00000" pt_clust_9="24.63197"></scales>
<clustering>
<clus scale="   24.632">  2  9  1 -1</clus>
<clus scale="   88.580">  5  6 -1 -1</clus>
<clus scale="   95.422">  7  8 -1 -1</clus>
<clus scale="   96.362">  2  5  1 -1</clus>
<clus scale="   24.632">  2  5  1 -1</clus>
</clustering>
</event>
<event>
 9    1  0.1296032E-005  0.1170786E+03  0.7546771E-02  0.1254096E+00
          1   -1    0    0  502    0  0.00000000000E+00  0.00000000000E+00  0.63368086832E+03  0.63368086832E+03  0.00000000000E+00 0. -1.
         -1   -1    0    0    0  501 -0.00000000000E+00 -0.00000000000E+00 -0.25972780666E+02  0.25972780666E+02  0.00000000000E+00 0.  1.
         23    2    1    2    0    0 -0.54065526101E+02 -0.15145004262E+02  0.16278096657E+03  0.19384863240E+03  0.89034807461E+02 0.  0.
         23    2    1    2    0    0  0.49119290503E+02 -0.43899281774E+01  0.34272966016E+03  0.36163976397E+03  0.10434425123E+03 0.  0.
        -11    1    4    4    0    0  0.14453662342E+02 -0.48237622940E+02  0.93280511504E+02  0.10600486049E+03  0.00000000000E+00 0. -1.
         11    1    4    4    0    0  0.34665628161E+02  0.43847694763E+02  0.24944914866E+03  0.25563490348E+03  0.00000000000E+00 0.  1.
        -13    1    3    3    0    0  0.68351742793E+01  0.29039024715E+02  0.51549988155E+02  0.59559934877E+02  0.00000000000E+00 0.  1.
         13    1    3    3    0    0 -0.60900700380E+02 -0.44184028977E+02  0.11123097841E+03  0.13428869752E+03  0.00000000000E+00 0. -1.
         21    1    1    2  502  501  0.49462355976E+01  0.19534932440E+02  0.10219746092E+03  0.10416525261E+03  0.00000000000E+00 0.  1.
<scales pt_clust_5="13000.00000" pt_clust_6="13000.00000" pt_clust_7="13000.00000" pt_clust_8="13000.00000" pt_clust_9="20.15140"></scales>
<clustering>
<clus scale="   20.151">  1  9  2 -1</clus>
<clus scale="   89.035">  7  8 -1 -1</clus>
<clus scale="  103.667">  2  7  1 -1</clus>
<clus scale="  104.344">  5  6 -1 -1</clus>
<clus scale="   20.151">  1  5  2 -1</clus>
</clustering>
</event>
<event>
 9    1  0.1513961E-005  0.1372369E+03  0.7546771E-02  0.1220571E+00
         -2   -1    0    0    0  501 -0.00000000000E+00  0.00000000000E+00  0.41931957197E+03  0.41931957197E+03  0.00000000000E+00 0.  1.
          2   -1    0    0  502    0  0.00000000000E+00 -0.00000000000E+00 -0.16595466733E+03  0.16595466733E+03  0.00000000000E+00 0. -1.
         23    2    1    2    0    0 -0.43777519505E+02  0.80444772677E+02  0.37235859020E+03  0.39728325225E+03  0.10390009700E+03 0.  0.
         23    2    1    2    0    0  0.44626034173E+02 -0.58885543525E+02 -0.74983859917E+02  0.13897685549E+03  0.90735863651E+02 0.  0.
        -13    1    3    3    0    0 -0.27558544347E+02  0.10265149254E+03  0.33075559924E+03  0.34741339744E+03  0.00000000000E+00 0.  1.
         13    1    3    3    0    0 -0.16218975158E+02 -0.22206719866E+02  0.41602990961E+02  0.49869854815E+02  0.00000000000E+00 0. -1.
        -13    1    4    4    0    0 -0.93455487479E+01 -0.39406261477E+02 -0.70649338528E+02  0.81434155975E+02  0.00000000000E+00 0.  1.
         13    1    4    4    0    0  0.53971582921E+02 -0.19479282048E+02 -0.43345213891E+01  0.57542699518E+02  0.00000000000E+00 0. -1.
         21    1    1    2  502  501 -0.84851466826E+00 -0.21559229152E+02 -0.44009825648E+02  0.49014131558E+02  0.00000000000E+00 0.  1.
<scales pt_clust_5="13000.00000" pt_clust_6="13000.00000" pt_clust_7="13000.00000" pt_clust_8="13000.00000" pt_clust_9="21.57592"></scales>
<clustering>
<clus scale="   21.576">  2  9  1 -1</clus>
<clus scale="   90.736">  7  8 -1 -1</clus>
<clus scale="  103.900">  5  6 -1 -1</clus>
<clus scale="  127.561">  2  7  1 -1</clus>
<clus scale="   21.576">  2  5  1 -1</clus>
</clustering>
</event>
<event>
 9    1  0.1296032E-005  0.1485530E+03  0.7546771E-02  0.1202596E+00
          1   -1    0    0  502    0  0.00000000000E+00  0.00000000000E+00  0.32235549549E+03  0.32235549549E+03  0.00000000000E+00 0. -1.
         -1   -1    0    0    0  501 -0.00000000000E+00 -0.00000000000E+00 -0.13117166867E+03  0.13117166867E+03  0.00000000000E+00 0.  1.
         23    2    1    2    0    0 -0.47678803016E+01  0.12282872764E+03 -0.49437187741E+02  0.16093606910E+03  0.91360570218E+02 0.  0.
         23    2    1    2    0    0  0.20791575794E+02 -0.95777910479E+02  0.17368767009E+03  0.21864125984E+03  0.89615266568E+02 0.  0.
        -11    1    3    3    0    0 -0.16771516924E+02  0.87035032889E+02 -0.74361417325E+02  0.11569788726E+03  0.00000000000E+00 0.  1.
         11    1    3    3    0    0  0.12003636622E+02  0.35793694750E+02  0.24924229585E+02  0.45238181842E+02  0.00000000000E+00 0. -1.
        -13    1    4    4    0    0 -0.83375630930E+01 -0.93693574786E+02  0.90717238772E+02  0.13068136181E+03  0.00000000000E+00 0.  1.
         13    1    4    4    0    0  0.29129138887E+02 -0.20843356928E+01  0.82970431317E+02  0.87959898024E+02  0.00000000000E+00 0. -1.
         21    1    1    2  502  501 -0.16023695492E+02 -0.27050817160E+02  0.66933344477E+02  0.73949835221E+02  0.00000000000E+00 0.  1.
<scales pt_clust_5="13000.00000" pt_clust_6="13000.00000" pt_clust_7="13000.00000" pt_clust_8="13000.00000" pt_clust_9="31.44051"></scales>
<clustering>
<clus scale="   31.441">  1  9  2 -1</clus>
<clus scale="   89.615">  7  8 -1 -1</clus>
<clus scale="   91.361">  5  6 -1 -1</clus>
<clus scale="  147.486">  1  7  2 -1</clus>
<clus scale="   31.441">  1  5  2 -1</clus>
</clustering>
</event>
<event>
 9    1  0.1296032E-005  0.1128505E+03  0.7546771E-02  0.1255928E+00
          3   -1    0    0  502    0  0.00000000000E+00  0.00000000000E+00  0.70129179265E+02  0.70129179265E+02  0.00000000000E+00 0. -1.
         -3   -1    0    0    0  501 -0.00000000000E+00 -0.00000000000E+00 -0.40070313723E+03  0.40070313723E+03  0.00000000000E+00 0.  1.
         23    2    1    2    0    0 -0.55294804485E+02 -0.46815825316E+02 -0.32328792630E+03  0.34287835328E+03  0.88324656551E+02 0.  0.
         23    2    1    2    0    0  0.34242691318E+02  0.50678592591E+02 -0.86441715992E+01  0.10650735547E+03  0.86765277674E+02 0.  0.
        -11    1    4    4    0    0 -0.27620340000E+02  0.28984815480E+02 -0.86005066150E+01  0.40950841557E+02  0.00000000000E+00 0.  1.
         11    1    4    4    0    0  0.61863031318E+02  0.21693777110E+02 -0.43664984203E-01  0.65556513909E+02  0.00000000000E+00 0. -1.
        -13    1    3    3    0    0 -0.51201794037E+02  0.83307150977E+01 -0.97770420543E+02  0.11068007797E+03  0.00000000000E+00 0. -1.
         13    1    3    3    0    0 -0.40930104483E+01 -0.55146540414E+02 -0.22551750576E+03  0.23219827531E+03  0.00000000000E+00 0.  1.
         21    1    1    2  502  501  0.21052113167E+02 -0.38627672747E+01  0.13581399339E+01  0.21446607748E+02  0.00000000000E+00 0.  1.
<scales pt_clust_5="13000.00000" pt_clust_6="13000.00000" pt_clust_7="13000.00000" pt_clust_8="13000.00000" pt_clust_9="21.40356"></scales>
<clustering>
<clus scale="   21.404">  1  9  2 -1</clus>
<clus scale="   86.765">  5  6 -1 -1</clus>
<clus scale="   88.325">  7  8 -1 -1</clus>
<clus scale="  111.634">  1  5  2 -1</clus>
<clus scale="   21.404">  1  5  2 -1</clus>
</clustering>
</event>
<event>
 9    1  0.1296032E-005  0.1234065E+03  0.7546771E-02  0.1247289E+00
         -2   -1    0    0    0  501 -0.00000000000E+00  0.00000000000E+00  0.71860313560E+02  0.71860313560E+02  0.00000000000E+00 0.  1.
          2   -1    0    0  502    0  0.00000000000E+00 -0.00000000000E+00 -0.24134950844E+03  0.24134950844E+03  0.00000000000E+00 0. -1.
         23    2    1    2    0    0 -0.37077691050E+02  0.11545277717E+02 -0.26327959780E+02  0.97940561463E+02  0.85971759912E+02 0.  0.
         23    2    1    2    0    0  0.60083721036E+02 -0.22785683130E+02 -0.13926052295E+03  0.18936868748E+03  0.11107549529E+03 0.  0.
        -11    1    3    3    0    0  0.26697359557E+02 -0.18947789291E+01 -0.17954727248E+02  0.32229046295E+02  0.00000000000E+00 0. -1.
         11    1    3    3    0    0 -0.63775050608E+02  0.13440056646E+02 -0.83732325323E+01  0.65711515168E+02  0.00000000000E+00 0.  1.
        -11    1    4    4    0    0 -0.10934730097E+01  0.35379239707E+02 -0.76137665150E+02  0.83963267802E+02  0.00000000000E+00 0. -1.
         11    1    4    4    0    0  0.61177194045E+02 -0.58164922837E+02 -0.63122857803E+02  0.10540541968E+03  0.00000000000E+00 0.  1.
         21    1    1    2  502  501 -0.23006029986E+02  0.11240405413E+02 -0.39007121473E+01  0.25900573059E+02  0.00000000000E+00 0.  1.
<scales pt_clust_5="13000.00000" pt_clust_6="13000.00000" pt_clust_7="13000.00000" pt_clust_8="13000.00000" pt_clust_9="25.60516"></scales>
<clustering>
<clus scale="   25.605">  1  9  2 -1</clus>
<clus scale="   85.972">  5  6 -1 -1</clus>
<clus scale="  101.403">  1  5  2 -1</clus>
<clus scale="  111.075">  7  8 -1 -1</clus>
<clus scale="  123.406">  2  5  1 -1</clus>
</clustering>
</event>
<event>
 9    1  0.1296032E-005  0.1600055E+03  0.7546771E-02  0.1188942E+00
          1   -1    0    0  502    0  0.00000000000E+00  0.00000000000E+00  0.24089492765E+03  0.24089492765E+03  0.00000000000E+00 0. -1.
         -1   -1    0    0    0  501 -0.00000000000E+00 -0.00000000000E+00 -0.20940315375E+03  0.20940315375E+03  0.00000000000E+00 0.  1.
         23    2    1    2    0    0 -0.30859425318E+02 -0.11669437733E+03 -0.94627093345E+02  0.17805355875E+03  0.90437277474E+02 0.  0.
         23    2    1    2    0    0  0.56075415198E+02  0.15719115262E+03  0.82697608861E+02  0.20773684377E+03  0.91990168471E+02 0.  0.
        -11    1    3    3    0    0  0.20456762755E+02  0.12674412891E+00 -0.26287444487E+02  0.33309532332E+02  0.00000000000E+00 0. -1.
         11    1    3    3    0    0 -0.51316188074E+02 -0.11682112146E+03 -0.68339648858E+02  0.14474402642E+03  0.00000000000E+00 0.  1.
        -13    1    4    4    0    0  0.52850344171E+02  0.38679200101E+02  0.56098261540E+02  0.86233719317E+02  0.00000000000E+00 0. -1.
         13    1    4    4    0    0  0.32250710274E+01  0.11851195252E+03  0.26599347321E+02  0.12150312445E+03  0.00000000000E+00 0.  1.
         21    1    1    2  502  501 -0.25215989880E+02 -0.40496775290E+02  0.43421258382E+02  0.64507678877E+02  0.00000000000E+00 0. -1.
<scales pt_clust_5="13000.00000" pt_clust_6="13000.00000" pt_clust_7="13000.00000" pt_clust_8="13000.00000" pt_clust_9="47.70571"></scales>
<clustering>
<clus scale="   47.706">  1  9  2 -1</clus>
<clus scale="   90.437">  5  6 -1 -1</clus>
<clus scale="   91.990">  7  8 -1 -1</clus>
<clus scale="  159.118">  2  5  1 -1</clus>
<clus scale="   47.706">  1  5  2 -1</clus>
</clustering>
</event>
<event>
 9    1  0.1296032E-005  0.2688322E+03  0.7546771E-02  0.1101965E+00
          1   -1    0    0  502    0  0.00000000000E+00  0.00000000000E+00  0.91418796723E+03  0.91418796723E+03  0.00000000000E+00 0. -1.
         -1   -1    0    0    0  501 -0.00000000000E+00 -0.00000000000E+00 -0.88654917060E+02  0.88654917060E+02  0.00000000000E+00 0.  1.
         23    2    1    2    0    0  0.17278191328E+03 -0.19484032635E+03  0.34841701099E+03  0.44511984916E+03  0.94450644445E+02 0.  0.
         23    2    1    2    0    0 -0.15380784241E+03  0.18720299831E+03  0.39319616106E+03  0.47134659107E+03  0.94141238990E+02 0.  0.
        -11    1    4    4    0    0 -0.36261855639E+02  0.34982403878E+02  0.16702940279E+03  0.17446349805E+03  0.00000000000E+00 0.  1.
         11    1    4    4    0    0 -0.11754598677E+03  0.15222059443E+03  0.22616675827E+03  0.29688309302E+03  0.00000000000E+00 0. -1.
        -11    1    3    3    0    0  0.97841247286E+02 -0.17328877141E+03  0.25347302078E+03  0.32225840599E+03  0.00000000000E+00 0.  1.
         11    1    3    3    0    0  0.74940665997E+02 -0.21551554943E+02  0.94943990207E+02  0.12286144317E+03  0.00000000000E+00 0. -1.
         21    1    1    2  502  501 -0.18974070872E+02  0.76373280427E+01  0.83919878116E+02  0.86376444058E+02  0.00000000000E+00 0.  1.
<scales pt_clust_5="13000.00000" pt_clust_6="13000.00000" pt_clust_7="13000.00000" pt_clust_8="13000.00000" pt_clust_9="20.45346"></scales>
<clustering>
<clus scale="   20.453">  1  9  2 -1</clus>
<clus scale="   94.141">  5  6 -1 -1</clus>
<clus scale="   94.451">  7  8 -1 -1</clus>
<clus scale="  268.724">  1  5  2 -1</clus>
<clus scale="   20.453">  1  5  2 -1</clus>
</clustering>
</event>
<event>
 9    1  0.1296032E-005  0.1001229E+03  0.7546771E-02  0.1283601E+00
         -2   -1    0    0    0  501 -0.00000000000E+00  0.00000000000E+00  0.13808729571E+03  0.13808729571E+03  0.00000000000E+00 0.  1.
          2   -1    0    0  502    0  0.00000000000E+00 -0.00000000000E+00 -0.10332309766E+03  0.10332309766E+03  0.00000000000E+00 0. -1.
         23    2    1    2    0    0 -0.34658006364E+01 -0.27031622970E+02  0.65101791663E+02  0.12095119233E+03  0.98225389971E+02 0.  0.
         23    2    1    2    0    0 -0.12590655183E+02  0.14123083177E+02 -0.34122370328E+02  0.99512489895E+02  0.91544597939E+02 0.  0.
        -13    1    4    4    0    0 -0.36087083509E+02  0.16445300099E+02  0.17040998012E+02  0.43163886581E+02  0.00000000000E+00 0.  1.
         13    1    4    4    0    0  0.23496428326E+02 -0.23222169219E+01 -0.51163368340E+02  0.56348603314E+02  0.00000000000E+00 0. -1.
        -13    1    3    3    0    0  0.39198969882E+02  0.14696072798E+02  0.21650177042E+02  0.47130287093E+02  0.00000000000E+00 0. -1.
         13    1    3    3    0    0 -0.42664770519E+02 -0.41727695769E+02  0.43451614621E+02  0.73820905242E+02  0.00000000000E+00 0.  1.
         21    1    1    2  502  501  0.16056455819E+02  0.12908539793E+02  0.37847767145E+01  0.20946711146E+02  0.00000000000E+00 0. -1.
<scales pt_clust_5="13000.00000" pt_clust_6="13000.00000" pt_clust_7="13000.00000" pt_clust_8="13000.00000" pt_clust_9="20.60195"></scales>
<clustering>
<clus scale="   20.602">  1  9  2 -1</clus>
<clus scale="   91.545">  5  6 -1 -1</clus>
<clus scale="   93.578">  2  5  1 -1</clus>
<clus scale="   98.225">  7  8 -1 -1</clus>
<clus scale="   93.578">  2  5  1 -1</clus>
</clustering>
</event>
<event>
 9    1  0.1333042E-005  0.9329805E+02  0.7546771E-02  0.1295934E+00
         -2   -1    0    0    0  501 -0.00000000000E+00  0.00000000000E+00  0.30420402846E+02  0.30420402846E+02  0.00000000000E+00 0. -1.
          2   -1    0    0  502    0  0.00000000000E+00 -0.00000000000E+00 -0.79526205867E+03  0.79526205867E+03  0.00000000000E+00 0.  1.
         23    2    1    2    0    0 -0.12571582065E+02 -0.46531770297E+01 -0.58773104267E+02  0.10857286273E+03  0.90300011100E+02 0.  0.
         23    2    1    2    0    0  0.28524694283E+02  0.24254926200E+02 -0.52487766783E+03  0.53416461605E+03  0.91833061736E+02 0.  0.
        -11    1    4    4    0    0 -0.24001194953E+02 -0.19336849882E+02 -0.17416676879E+03  0.17687293312E+03  0.00000000000E+00 0.  1.
         11    1    4    4    0    0  0.52525889236E+02  0.43591776082E+02 -0.35071089904E+03  0.35729168292E+03  0.00000000000E+00 0. -1.
        -13    1    3    3    0    0  0.16461468494E+02 -0.39115633033E+02 -0.44048887855E+02  0.61166307832E+02  0.00000000000E+00 0. -1.
         13    1    3    3    0    0 -0.29033050559E+02  0.34462456004E+02 -0.14724216411E+02  0.47406554900E+02  0.00000000000E+00 0.  1.
         21    1    1    2  502  501 -0.15953112218E+02 -0.19601749170E+02 -0.18119088373E+03  0.18294498273E+03  0.00000000000E+00 0.  1.
<scales pt_clust_5="13000.00000" pt_clust_6="13000.00000" pt_clust_7="13000.00000" pt_clust_8="13000.00000" pt_clust_9="25.27312"></scales>
<clustering>
<clus scale="   25.273">  2  9  1 -1</clus>
<clus scale="   90.300">  7  8 -1 -1</clus>
<clus scale="   91.789">  1  7  2 -1</clus>
<clus scale="   91.833">  5  6 -1 -1</clus>
<clus scale="   25.273">  2  5  1 -1</clus>
</clustering>
</event>
<event>
 9    1  0.1296032E-005  0.1244454E+03  0.7546771E-02  0.1236093E+00
          1   -1    0    0  502    0  0.00000000000E+00  0.00000000000E+00  0.35609725707E+03  0.35609725707E+03  0.00000000000E+00 0. -1.
         -1   -1    0    0    0  501 -0.00000000000E+00 -0.00000000000E+00 -0.15011622468E+03  0.15011622468E+03  0.00000000000E+00 0.  1.
         23    2    1    2    0    0 -0.77188817936E+02 -0.22924361971E+02 -0.98741477802E+02  0.15726889367E+03  0.92195365896E+02 0.  0.
         23    2    1    2    0    0  0.10526961808E+03  0.17069238452E+02  0.25139297514E+03  0.28839004145E+03  0.92721824116E+02 0.  0.
        -13    1    3    3    0    0 -0.43333248251E+02 -0.46691518151E+02 -0.96772683806E+02  0.11585689709E+03  0.00000000000E+00 0.  1.
         13    1    3    3    0    0 -0.33855569685E+02  0.23767156180E+02 -0.19687939957E+01  0.41411996588E+02  0.00000000000E+00 0. -1.
        -13    1    4    4    0    0  0.40825160741E+02  0.20250778295E+02  0.20214987713E+03  0.20722297314E+03  0.00000000000E+00 0. -1.
         13    1    4    4    0    0  0.64444457339E+02 -0.31815398431E+01  0.49243098006E+02  0.81167068314E+02  0.00000000000E+00 0.  1.
         21    1    1    2  502  501 -0.28080800144E+02  0.58551235183E+01  0.53329535051E+02  0.60554546625E+02  0.00000000000E+00 0. -1.
<scales pt_clust_5="13000.00000" pt_clust_6="13000.00000" pt_clust_7="13000.00000" pt_clust_8="13000.00000" pt_clust_9="28.68473"></scales>
<clustering>
<clus scale="   28.685">  1  9  2 -1</clus>
<clus scale="   92.195">  5  6 -1 -1</clus>
<clus scale="   92.722">  7  8 -1 -1</clus>
<clus scale="  124.054">  2  5  1 -1</clus>
<clus scale="   28.685">  1  5  2 -1</clus>
</clustering>
</event>
<event>
 9    1  0.1296032E-005  0.2844197E+03  0.7546771E-02  0.1093307E+00
         -1   -1    0    0    0  501 -0.00000000000E+00  0.00000000000E+00  0.68652173316E+02  0.68652173316E+02  0.00000000000E+00 0.  1.
          1   -1    0    0  502    0  0.00000000000E+00 -0.00000000000E+00 -0.18692359480E+04  0.18692359480E+04  0.00000000000E+00 0. -1.
         23    2    1    2    0    0 -0.92544387889E+02 -0.28933983211E+03 -0.49676858101E+03  0.58959561329E+03  0.92530870258E+02 0.  0.
         23    2    1    2    0    0  0.10375058528E+03  0.19435368908E+03 -0.77801215969E+03  0.81386124325E+03  0.92356170550E+02 0.  0.
        -11    1    3    3    0    0 -0.63526021256E+02 -0.24352698285E+03 -0.33517974084E+03  0.41914962176E+03  0.00000000000E+00 0.  1.
         11    1    3    3    0    0 -0.29018366632E+02 -0.45812849263E+02 -0.16158884017E+03  0.17044599153E+03  0.00000000000E+00 0. -1.
        -13    1    4    4    0    0  0.78515569792E+02  0.54080833861E+02 -0.27559654950E+03  0.29162114016E+03  0.00000000000E+00 0. -1.
         13    1    4    4    0    0  0.25235015490E+02  0.14027285522E+03 -0.50241561019E+03  0.52224010309E+03  0.00000000000E+00 0.  1.
         21    1    1    2  502  501 -0.11206197393E+02  0.94986143034E+02 -0.52580303402E+03  0.53443126482E+03  0.00000000000E+00 0. -1.
<scales pt_clust_5="13000.00000" pt_clust_6="13000.00000" pt_clust_7="13000.00000" pt_clust_8="13000.00000" pt_clust_9="95.64490"></scales>
<clustering>
<clus scale="   92.356">  7  8 -1 -1</clus>
<clus scale="   92.531">  5  6 -1 -1</clus>
<clus scale="   95.645">  2  9  1 -1</clus>
<clus scale="  284.363">  2  7  1 -1</clus>
<clus scale="   95.645">  2  5  1 -1</clus>
</clustering>
</event>
<event>
 9    1  0.1296032E-005  0.9725004E+02  0.7546771E-02  0.1291965E+00
          1   -1    0    0  502    0  0.00000000000E+00  0.00000000000E+00  0.41750631757E+03  0.41750631757E+03  0.00000000000E+00 0. -1.
         -1   -1    0    0    0  501 -0.00000000000E+00 -0.00000000000E+00 -0.43882963728E+02  0.43882963728E+02  0.00000000000E+00 0.  1.
         23    2    1    2    0    0 -0.16129574782E+02  0.40512444276E+01  0.36270920019E+02  0.10453134804E+03  0.96615978600E+02 0.  0.
         23    2    1    2    0    0 -0.66919742727E+01 -0.19924607960E+01  0.20651256277E+03  0.22402671121E+03  0.86555048010E+02 0.  0.
        -13    1    3    3    0    0 -0.47219340137E+02  0.27567787176E+02  0.56656421240E+01  0.54970432720E+02  0.00000000000E+00 0.  1.
         13    1    3    3    0    0  0.31089765356E+02 -0.23516542748E+02  0.30605277895E+02  0.49560915324E+02  0.00000000000E+00 0. -1.
        -13    1    4    4    0    0 -0.44537180981E+02  0.52516996908E+01  0.14167789915E+03  0.14860608314E+03  0.00000000000E+00 0.  1.
         13    1    4    4    0    0  0.37845206709E+02 -0.72441604868E+01  0.64834663614E+02  0.75420628066E+02  0.00000000000E+00 0. -1.
         21    1    1    2  502  501  0.22821549054E+02 -0.20587836317E+01  0.13083987106E+03  0.13283122205E+03  0.00000000000E+00 0. -1.
<scales pt_clust_5="13000.00000" pt_clust_6="13000.00000" pt_clust_7="13000.00000" pt_clust_8="13000.00000" pt_clust_9="22.91422"></scales>
<clustering>
<clus scale="   22.914">  1  9  2 -1</clus>
<clus scale="   86.555">  7  8 -1 -1</clus>
<clus scale="   87.262">  1  7  2 -1</clus>
<clus scale="   96.616">  5  6 -1 -1</clus>
<clus scale="   22.914">  1  5  2 -1</clus>
</clustering>
</event>
<event>
 9    1  0.1296032E-005  0.1347547E+03  0.7546771E-02  0.1220746E+00
         -1   -1    0    0    0  501 -0.00000000000E+00  0.00000000000E+00  0.12128460899E+03  0.12128460899E+03  0.00000000000E+00 0.  1.
          1   -1    0    0  502    0  0.00000000000E+00 -0.00000000000E+00 -0.38708375595E+03  0.38708375595E+03  0.00000000000E+00 0. -1.
         23    2    1    2    0    0 -0.10171517651E+03  0.14034210792E+02  0.55192217428E+02  0.14863370623E+03  0.92210962246E+02 0.  0.
         23    2    1    2    0    0  0.67854986106E+02 -0.14687856765E+02 -0.29644096899E+03  0.31790570150E+03  0.91469965962E+02 0.  0.
        -11    1    4    4    0    0  0.71771423269E+02 -0.39352354255E+02 -0.26717866954E+03  0.27943547814E+03  0.00000000000E+00 0. -1.
         11    1    4    4    0    0 -0.39164371622E+01  0.24664497489E+02 -0.29262299449E+02  0.38470223362E+02  0.00000000000E+00 0.  1.
        -11    1    3    3    0    0 -0.88986363559E+02 -0.21747402276E+02  0.14108478849E+02  0.92685336384E+02  0.00000000000E+00 0.  1.
         11    1    3    3    0    0 -0.12728812951E+02  0.35781613069E+02  0.41083738578E+02  0.55948369847E+02  0.00000000000E+00 0. -1.
         21    1    1    2  502  501  0.33860190403E+02  0.65364597285E+00 -0.24550395396E+02  0.41828957210E+02  0.00000000000E+00 0. -1.
<scales pt_clust_5="13000.00000" pt_clust_6="13000.00000" pt_clust_7="13000.00000" pt_clust_8="13000.00000" pt_clust_9="33.86650"></scales>
<clustering>
<clus scale="   33.866">  2  9  1 -1</clus>
<clus scale="   91.470">  5  6 -1 -1</clus>
<clus scale="   92.211">  7  8 -1 -1</clus>
<clus scale="  134.249">  2  5  1 -1</clus>
<clus scale="   33.866">  2  5  1 -1</clus>
</clustering>
</event>
<event>
 9    1  0.1296032E-005  0.9573669E+02  0.7546771E-02  0.1290014E+00
          2   -1    0    0  502    0  0.00000000000E+00  0.00000000000E+00  0.56503116226E+03  0.56503116226E+03  0.00000000000E+00 0. -1.
         -2   -1    0    0    0  501 -0.00000000000E+00 -0.00000000000E+00 -0.24498131528E+02  0.24498131528E+02  0.00000000000E+00 0.  1.
         23    2    1    2    0    0 -0.14506507119E+02 -0.62456493021E+01  0.12211118860E+03  0.15283238155E+03  0.90538100180E+02 0.  0.
         23    2    1    2    0    0  0.33803026613E+02 -0.50912590448E+01  0.37891900509E+03  0.39129476152E+03  0.91451694632E+02 0.  0.
        -13    1    4    4    0    0 -0.67918567098E+01  0.35109358605E+02  0.20875992983E+03  0.21180062484E+03  0.00000000000E+00 0.  1.
         13    1    4    4    0    0  0.40594883322E+02 -0.40200617649E+02  0.17015907526E+03  0.17949413668E+03  0.00000000000E+00 0. -1.
        -13    1    3    3    0    0 -0.51355436402E+02 -0.14694699864E+02  0.62180593560E+02  0.81974028006E+02  0.00000000000E+00 0.  1.
         13    1    3    3    0    0  0.36848929283E+02  0.84490505618E+01  0.59930595044E+02  0.70858353544E+02  0.00000000000E+00 0. -1.
         21    1    1    2  502  501 -0.19296519493E+02  0.11336908347E+02  0.39502837042E+02  0.45402150718E+02  0.00000000000E+00 0.  1.
<scales pt_clust_5="13000.00000" pt_clust_6="13000.00000" pt_clust_7="13000.00000" pt_clust_8="13000.00000" pt_clust_9="22.38037"></scales>
<clustering>
<clus scale="   22.380">  2  9  1 -1</clus>
<clus scale="   90.538">  7  8 -1 -1</clus>
<clus scale="   91.452">  5  6 -1 -1</clus>
<clus scale="   94.864">  2  7  1 -1</clus>
<clus scale="   95.737">  1  5  2 -1</clus>
</clustering>
</event>
<event>
 9    1  0.1296032E-005  0.1131667E+03  0.7546771E-02  0.1256230E+00
         -3   -1    0    0    0  501 -0.00000000000E+00  0.00000000000E+00  0.33492674430E+03  0.33492674430E+03  0.00000000000E+00 0.  1.
          3   -1    0    0  502    0  0.00000000000E+00 -0.00000000000E+00 -0.79622429083E+02  0.79622429083E+02  0.00000000000E+00 0. -1.
         23    2    1    2    0    0 -0.24272179109E+02 -0.54166889486E+02  0.21611687734E+03  0.24103467558E+03  0.88701857728E+02 0.  0.
         23    2    1    2    0    0  0.10980869575E+02  0.87913580196E+02  0.46896440048E+02  0.13643449298E+03  0.92551162637E+02 0.  0.
        -13    1    3    3    0    0 -0.56615787183E+02 -0.38313276855E+02  0.11612187302E+03  0.13474993112E+03  0.00000000000E+00 0.  1.
         13    1    3    3    0    0  0.32343608074E+02 -0.15853612631E+02  0.99995004320E+02  0.10628474446E+03  0.00000000000E+00 0. -1.
        -13    1    4    4    0    0  0.30583572914E+02 -0.11279911441E+00  0.33332669158E+02  0.45237534074E+02  0.00000000000E+00 0.  1.
         13    1    4    4    0    0 -0.19602703340E+02  0.88026379310E+02  0.13563770890E+02  0.91196958904E+02  0.00000000000E+00 0. -1.
         21    1    1    2  502  501  0.13291309535E+02 -0.33746690709E+02 -0.77090021771E+01  0.37080004821E+02  0.00000000000E+00 0. -1.
<scales pt_clust_5="13000.00000" pt_clust_6="13000.00000" pt_clust_7="13000.00000" pt_clust_8="13000.00000" pt_clust_9="36.26980"></scales>
<clustering>
<clus scale="   36.270">  2  9  1 -1</clus>
<clus scale="   88.702">  5  6 -1 -1</clus>
<clus scale="   92.551">  7  8 -1 -1</clus>
<clus scale="  110.041">  1  5  2 -1</clus>
<clus scale="   36.270">  2  5  1 -1</clus>
</clustering>
</event>
<event>
 9    1  0.1296032E-005  0.1030782E+03  0.7546771E-02  0.1275316E+00
         -2   -1    0    0    0  501 -0.00000000000E+00  0.00000000000E+00  0.27876369883E+03  0.27876369883E+03  0.00000000000E+00 0.  1.
          2   -1    0    0  502    0  0.00000000000E+00 -0.00000000000E+00 -0.84947396274E+02  0.84947396274E+02  0.00000000000E+00 0. -1.
         23    2    1    2    0    0 -0.32312264886E+02 -0.35004531662E+02  0.19835838405E+03  0.22228874688E+03  0.88299709896E+02 0.  0.
         23    2    1    2    0    0  0.56067071999E+02  0.11543543430E+02 -0.36714703287E+00  0.10777507631E+03  0.91315728767E+02 0.  0.
        -13    1    4    4    0    0 -0.67504642756E+01  0.29259093329E+02 -0.23917008056E+02  0.38388625721E+02  0.00000000000E+00 0.  1.
         13    1    4    4    0    0  0.62817536274E+02 -0.17715549899E+02  0.23549861023E+02  0.69386450594E+02  0.00000000000E+00 0. -1.
        -13    1    3    3    0    0 -0.59829515372E+02 -0.19805426831E+02  0.16413704633E+03  0.17582035098E+03  0.00000000000E+00 0.  1.
         13    1    3    3    0    0  0.27517250486E+02 -0.15199104832E+02  0.34221337719E+02  0.46468395897E+02  0.00000000000E+00 0. -1.
         21    1    1    2  502  501 -0.23754807112E+02  0.23460988232E+02 -0.41749344538E+01  0.33647271917E+02  0.00000000000E+00 0.  1.
<scales pt_clust_5="13000.00000" pt_clust_6="13000.00000" pt_clust_7="13000.00000" pt_clust_8="13000.00000" pt_clust_9="33.38726"></scales>
<clustering>
<clus scale="   33.387">  2  9  1 -1</clus>
<clus scale="   88.300">  7  8 -1 -1</clus>
<clus scale="   91.316">  5  6 -1 -1</clus>
<clus scale="  100.416">  1  7  2 -1</clus>
<clus scale="   33.387">  2  5  1 -1</clus>
</clustering>
</event>
<event>
 9    1  0.1296032E-005  0.1038990E+03  0.7546771E-02  0.1272464E+00
          1   -1    0    0  502    0  0.00000000000E+00  0.00000000000E+00  0.17939181451E+02  0.17939181451E+02  0.00000000000E+00 0. -1.
         -1   -1    0    0    0  501 -0.00000000000E+00 -0.00000000000E+00 -0.83642985821E+03  0.83642985821E+03  0.00000000000E+00 0.  1.
         23    2    1    2    0    0 -0.62200218174E+02  0.22533654182E+02 -0.44489036005E+03  0.45892396359E+03  0.91143508729E+02 0.  0.
         23    2    1    2    0    0  0.37232989741E+02 -0.16349829180E+02 -0.24736109803E+03  0.26661207362E+03  0.90779251711E+02 0.  0.
        -11    1    3    3    0    0 -0.25247058903E+02 -0.33881848377E+02 -0.22465395796E+03  0.22859307614E+03  0.00000000000E+00 0.  1.
         11    1    3    3    0    0 -0.36953159271E+02  0.56415502559E+02 -0.22023640209E+03  0.23033088745E+03  0.00000000000E+00 0. -1.
        -11    1    4    4    0    0  0.57990792164E+02  0.12315199886E+02 -0.19164963363E+03  0.20060951671E+03  0.00000000000E+00 0. -1.
         11    1    4    4    0    0 -0.20757802423E+02 -0.28665029066E+02 -0.55711464395E+02  0.66002556904E+02  0.00000000000E+00 0.  1.
         21    1    1    2  502  501  0.24967228433E+02 -0.61838250011E+01 -0.12623921869E+03  0.12883300246E+03  0.00000000000E+00 0.  1.
<scales pt_clust_5="13000.00000" pt_clust_6="13000.00000" pt_clust_7="13000.00000" pt_clust_8="13000.00000" pt_clust_9="25.72163"></scales>
<clustering>
<clus scale="   25.722">  2  9  1 -1</clus>
<clus scale="   90.779">  7  8 -1 -1</clus>
<clus scale="   91.144">  5  6 -1 -1</clus>
<clus scale="  103.580">  1  7  2 -1</clus>
<clus scale="  103.580">  1  5  2 -1</clus>
</clustering>
</event>
<event>
 9    1  0.1296032E-005  0.1263768E+03  0.7546771E-02  0.1245254E+00
         -1   -1    0    0    0  501 -0.00000000000E+00  0.00000000000E+00  0.35802444041E+03  0.35802444041E+03  0.00000000000E+00 0.  1.
          1   -1    0    0  502    0  0.00000000000E+00 -0.00000000000E+00 -0.45572991832E+02  0.45572991832E+02  0.00000000000E+00 0. -1.
         23    2    1    2    0    0  0.24924495728E+02 -0.22562815585E+02  0.17041582897E+03  0.19678018726E+03  0.92469325722E+02 0.  0.
         23    2    1    2    0    0 -0.78862914911E+01  0.37305162922E+02  0.12367722421E+03  0.17775407430E+03  0.12184656896E+03 0.  0.
        -13    1    4    4    0    0  0.10197636206E+02 -0.38721509368E+02  0.12670839249E+02  0.41998776639E+02  0.00000000000E+00 0.  1.
         13    1    4    4    0    0 -0.18083927697E+02  0.76026672289E+02  0.11100638496E+03  0.13575529766E+03  0.00000000000E+00 0. -1.
        -13    1    3    3    0    0 -0.15097627730E+02 -0.23620071125E+02  0.14853064666E+03  0.15115289981E+03  0.00000000000E+00 0.  1.
         13    1    3    3    0    0  0.40022123458E+02  0.10572555395E+01  0.21885182308E+02  0.45627287450E+02  0.00000000000E+00 0. -1.
         21    1    1    2  502  501 -0.17038204237E+02 -0.14742347336E+02  0.18358395396E+02  0.29063170683E+02  0.00000000000E+00 0.  1.
<scales pt_clust_5="13000.00000" pt_clust_6="13000.00000" pt_clust_7="13000.00000" pt_clust_8="13000.00000" pt_clust_9="22.53081"></scales>
<clustering>
<clus scale="   22.531">  2  9  1 -1</clus>
<clus scale="   92.469">  7  8 -1 -1</clus>
<clus scale="   98.362">  1  7  2 -1</clus>
<clus scale="  121.847">  5  6 -1 -1</clus>
<clus scale="   22.531">  2  5  1 -1</clus>
</clustering>
</event>
<event>
 9    1  0.1296032E-005  0.1052202E+03  0.7546771E-02  0.1272963E+00
          2   -1    0    0  502    0  0.00000000000E+00  0.00000000000E+00  0.73101619353E+03  0.73101619353E+03  0.00000000000E+00 0. -1.
         -2   -1    0    0    0  501 -0.00000000000E+00 -0.00000000000E+00 -0.25531908867E+02  0.25531908867E+02  0.00000000000E+00 0.  1.
         23    2    1    2    0    0 -0.14843878498E+02 -0.41700218823E+02  0.14276860120E+03  0.17812379349E+03  0.96881181564E+02 0.  0.
         23    2    1    2    0    0 -0.16215154844E+02  0.38372624944E+02  0.36233182191E+03  0.37562039276E+03  0.89838414358E+02 0.  0.
        -13    1    4    4    0    0  0.14246162855E+02 -0.20882191252E+02  0.47413908034E+02  0.53731720078E+02  0.00000000000E+00 0.  1.
         13    1    4    4    0    0 -0.30461317699E+02  0.59254816196E+02  0.31491791388E+03  0.32188867268E+03  0.00000000000E+00 0. -1.
        -13    1    3    3    0    0  0.14906005748E+02 -0.35469138687E+02  0.71399038746E+01  0.39130896155E+02  0.00000000000E+00 0.  1.
         13    1    3    3    0    0 -0.29749884247E+02 -0.62310801362E+01  0.13562869733E+03  0.13899289734E+03  0.00000000000E+00 0. -1.
         21    1    1    2  502  501  0.31059033342E+02  0.33275938789E+01  0.20038386155E+03  0.20280391614E+03  0.00000000000E+00 0.  1.
<scales pt_clust_5="13000.00000" pt_clust_6="13000.00000" pt_clust_7="13000.00000" pt_clust_8="13000.00000" pt_clust_9="31.23678"></scales>
<clustering>
<clus scale="   31.237">  1  9  2 -1</clus>
<clus scale="   89.838">  5  6 -1 -1</clus>
<clus scale="   96.881">  7  8 -1 -1</clus>
<clus scale="   98.774">  1  5  2 -1</clus>
<clus scale="   31.237">  1  5  2 -1</clus>
</clustering>
</event>
<event>
 9    1  0.1296032E-005  0.1241453E+03  0.7546771E-02  0.1246026E+00
         -1   -1    0    0    0  501 -0.00000000000E+00  0.00000000000E+00  0.64400723111E+02  0.64400723111E+02  0.00000000000E+00 0.  1.
          1   -1    0    0  502    0  0.00000000000E+00 -0.00000000000E+00 -0.36056717384E+03  0.36056717384E+03  0.00000000000E+00 0. -1.
         23    2    1    2    0    0 -0.43326056515E+02 -0.48217438010E+02 -0.88203787400E+02  0.15975468729E+03  0.11635971596E+03 0.  0.
         23    2    1    2    0    0  0.33015020403E+02 -0.15675944419E+02 -0.13456885355E+03  0.16735957867E+03  0.92545801748E+02 0.  0.
        -11    1    4    4    0    0 -0.19983726161E+02 -0.31630217307E+01 -0.10182894388E+03  0.10381949638E+03  0.00000000000E+00 0.  1.
         11    1    4    4    0    0  0.52998746564E+02 -0.12512922689E+02 -0.32739909669E+02  0.63540082284E+02  0.00000000000E+00 0. -1.
        -13    1    3    3    0    0 -0.77790757320E+02 -0.48509501018E+02 -0.38875647008E+02  0.99578559658E+02  0.00000000000E+00 0.  1.
         13    1    3    3    0    0  0.34464700804E+02  0.29206300865E+00 -0.49328140392E+02  0.60176127633E+02  0.00000000000E+00 0. -1.
         21    1    1    2  502  501  0.10311036112E+02  0.63893382429E+02 -0.73393809779E+02  0.97853630989E+02  0.00000000000E+00 0. -1.
<scales pt_clust_5="13000.00000" pt_clust_6="13000.00000" pt_clust_7="13000.00000" pt_clust_8="13000.00000" pt_clust_9="64.72003"></scales>
<clustering>
<clus scale="   64.720">  2  9  1 -1</clus>
<clus scale="   92.546">  5  6 -1 -1</clus>
<clus scale="  102.163">  2  5  1 -1</clus>
<clus scale="  116.360">  7  8 -1 -1</clus>
<clus scale="   64.720">  2  5  1 -1</clus>
</clustering>
</event>
<event>
 9    1  0.1296032E-005  0.9753887E+02  0.7546771E-02  0.1286021E+00
         -3   -1    0    0    0  501 -0.00000000000E+00  0.00000000000E+00  0.38288882838E+03  0.38288882838E+03  0.00000000000E+00 0.  1.
          3   -1    0    0  502    0  0.00000000000E+00 -0.00000000000E+00 -0.87188594833E+02  0.87188594833E+02  0.00000000000E+00 0. -1.
         23    2    1    2    0    0 -0.20912786624E+02  0.29054200670E+02  0.32144607327E+03  0.33599079213E+03  0.90998588721E+02 0.  0.
         23    2    1    2    0    0 -0.12340655812E+02 -0.15279041138E+02 -0.27901535011E+02  0.98028435402E+02  0.91898517983E+02 0.  0.
        -11    1    4    4    0    0 -0.42229854285E+02  0.16517403698E+02  0.15654279783E+01  0.45372191732E+02  0.00000000000E+00 0.  1.
         11    1    4    4    0    0  0.29889198473E+02 -0.31796444836E+02 -0.29466962989E+02  0.52656243670E+02  0.00000000000E+00 0. -1.
        -11    1    3    3    0    0  0.13007041188E+02  0.49053346123E+02  0.11320626590E+03  0.12406076142E+03  0.00000000000E+00 0. -1.
         11    1    3    3    0    0 -0.33919827812E+02 -0.19999145453E+02  0.20823980738E+03  0.21193003070E+03  0.00000000000E+00 0.  1.
         21    1    1    2  502  501  0.33253442435E+02 -0.13775159532E+02  0.21556952834E+01  0.36058195686E+02  0.00000000000E+00 0. -1.
<scales pt_clust_5="13000.00000" pt_clust_6="13000.00000" pt_clust_7="13000.00000" pt_clust_8="13000.00000" pt_clust_9="35.99370"></scales>
<clustering>
<clus scale="   35.994">  2  9  1 -1</clus>
<clus scale="   90.999">  7  8 -1 -1</clus>
<clus scale="   91.899">  5  6 -1 -1</clus>
<clus scale="   96.691">  1  7  2 -1</clus>
<clus scale="   35.994">  2  5  1 -1</clus>
</clustering>
</event>
<event>
 9    1  0.1296032E-005  0.1850952E+03  0.7546771E-02  0.1163069E+00
         -1   -1    0    0    0  501 -0.00000000000E+00  0.00000000000E+00  0.16165669649E+03  0.16165669649E+03  0.00000000000E+00 0.  1.
          1   -1    0    0  502    0  0.00000000000E+00 -0.00000000000E+00 -0.58183597167E+03  0.58183597167E+03  0.00000000000E+00 0. -1.
         23    2    1    2    0    0 -0.25013286977E+02  0.16244167016E+03  0.80565086537E+02  0.20453022657E+03  0.91262915154E+02 0.  0.
         23    2    1    2    0    0  0.27012969862E+02 -0.13390422418E+03 -0.36871623472E+03  0.40387058072E+03  0.92194047718E+02 0.  0.
        -11    1    3    3    0    0 -0.80623574892E+01  0.76479892094E+02  0.87676707552E+02  0.11662495681E+03  0.00000000000E+00 0.  1.
         11    1    3    3    0    0 -0.16950929487E+02  0.85961778067E+02 -0.71116210149E+01  0.87905269765E+02  0.00000000000E+00 0. -1.
        -13    1    4    4    0    0  0.30628447728E+02 -0.47933110624E+02 -0.57123316093E+02  0.80614875462E+02  0.00000000000E+00 0.  1.
         13    1    4    4    0    0 -0.36154778657E+01 -0.85971113555E+02 -0.31159291862E+03  0.32325570526E+03  0.00000000000E+00 0. -1.
         21    1    1    2  502  501 -0.19996828853E+01 -0.28537445982E+02 -0.13202812700E+03  0.13509186087E+03  0.00000000000E+00 0. -1.
<scales pt_clust_5="13000.00000" pt_clust_6="13000.00000" pt_clust_7="13000.00000" pt_clust_8="13000.00000" pt_clust_9="28.60742"></scales>
<clustering>
<clus scale="   28.607">  2  9  1 -1</clus>
<clus scale="   91.263">  5  6 -1 -1</clus>
<clus scale="   92.194">  7  8 -1 -1</clus>
<clus scale="  184.633">  1  5  2 -1</clus>
<clus scale="   28.607">  2  5  1 -1</clus>
</clustering>
</event>
<event>
 9    1  0.1296032E-005  0.9394888E+02  0.7546771E-02  0.1294696E+00
          1   -1    0    0  502    0  0.00000000000E+00  0.00000000000E+00  0.10221076247E+03  0.10221076247E+03  0.00000000000E+00 0. -1.
         -1   -1    0    0    0  501 -0.00000000000E+00 -0.00000000000E+00 -0.20598799217E+03  0.20598799217E+03  0.00000000000E+00 0.  1.
         23    2    1    2    0    0 -0.13922850213E+02 -0.13378793393E+02 -0.15595271228E+03  0.18129576584E+03  0.90410554562E+02 0.  0.
         23    2    1    2    0    0  0.91504101473E+01 -0.68607853439E+01  0.50787390765E+02  0.10606207878E+03  0.92406737378E+02 0.  0.
        -11    1    4    4    0    0 -0.38271001464E+02  0.11806661652E+02  0.11368754879E+02  0.41633104616E+02  0.00000000000E+00 0.  1.
         11    1    4    4    0    0  0.47421411612E+02 -0.18667446996E+02  0.39418635886E+02  0.64428974163E+02  0.00000000000E+00 0. -1.
        -13    1    3    3    0    0 -0.34315641645E+02  0.26519913152E+02 -0.10405330291E+03  0.11272958308E+03  0.00000000000E+00 0. -1.
         13    1    3    3    0    0  0.20392791431E+02 -0.39898706545E+02 -0.51899409368E+02  0.68566182765E+02  0.00000000000E+00 0.  1.
         21    1    1    2  502  501  0.47724400660E+01  0.20239578737E+02  0.13880918048E+01  0.20840910021E+02  0.00000000000E+00 0.  1.
<scales pt_clust_5="13000.00000" pt_clust_6="13000.00000" pt_clust_7="13000.00000" pt_clust_8="13000.00000" pt_clust_9="20.79463"></scales>
<clustering>
<clus scale="   20.795">  1  9  2 -1</clus>
<clus scale="   90.411">  7  8 -1 -1</clus>
<clus scale="   91.986">  2  7  1 -1</clus>
<clus scale="   92.407">  5  6 -1 -1</clus>
<clus scale="   20.795">  1  5  2 -1</clus>
</clustering>
</event>
<event>
 9    1  0.1296032E-005  0.1026814E+03  0.7546771E-02  0.1277060E+00
         -2   -1    0    0    0  501 -0.00000000000E+00  0.00000000000E+00  0.97492325523E+02  0.97492325523E+02  0.00000000000E+00 0.  1.
          2   -1    0    0  502    0  0.00000000000E+00 -0.00000000000E+00 -0.17812987893E+03  0.17812987893E+03  0.00000000000E+00 0. -1.
         23    2    1    2    0    0 -0.42386160122E+02  0.20711484497E+02  0.26728990020E+02  0.10706766265E+03  0.92322767059E+02 0.  0.
         23    2    1    2    0    0  0.26777873475E+02 -0.34109110775E+02 -0.54282343153E+02  0.11162434489E+03  0.87366673557E+02 0.  0.
        -11    1    4    4    0    0  0.28572007795E+02 -0.60597493481E+02 -0.23554268932E+02  0.71015628072E+02  0.00000000000E+00 0.  1.
         11    1    4    4    0    0 -0.17941343197E+01  0.26488382706E+02 -0.30728074221E+02  0.40608716819E+02  0.00000000000E+00 0. -1.
        -11    1    3    3    0    0 -0.38519718697E+02  0.52407195438E+02 -0.59274926080E+00  0.65043325667E+02  0.00000000000E+00 0. -1.
         11    1    3    3    0    0 -0.38664414252E+01 -0.31695710941E+02  0.27321739281E+02  0.42024336981E+02  0.00000000000E+00 0.  1.
         21    1    1    2  502  501  0.15608286647E+02  0.13397626278E+02 -0.53084200274E+02  0.56930196914E+02  0.00000000000E+00 0.  1.
<scales pt_clust_5="13000.00000" pt_clust_6="13000.00000" pt_clust_7="13000.00000" pt_clust_8="13000.00000" pt_clust_9="20.56976"></scales>
<clustering>
<clus scale="   20.570">  2  9  1 -1</clus>
<clus scale="   87.367">  5  6 -1 -1</clus>
<clus scale="   92.323">  7  8 -1 -1</clus>
<clus scale="   98.249">  2  5  1 -1</clus>
<clus scale="   20.570">  2  5  1 -1</clus>
</clustering>
</event>
<event>
 9    1  0.1296032E-005  0.1141000E+03  0.7546771E-02  0.1254562E+00
          4   -1    0    0  502    0  0.00000000000E+00  0.00000000000E+00  0.88635092840E+02  0.88635092840E+02  0.00000000000E+00 0. -1.
         -4   -1    0    0    0  501 -0.00000000000E+00 -0.00000000000E+00 -0.27588275254E+03  0.27588275254E+03  0.00000000000E+00 0.  1.
         23    2    1    2    0    0  0.36783448392E+02 -0.42455146251E+02 -0.97543632500E+02  0.14352307188E+03  0.89042969418E+02 0.  0.
         23    2    1    2    0    0 -0.24387837546E+02  0.76505716175E+02 -0.12152392380E+03  0.17277031602E+03  0.92917311709E+02 0.  0.
        -11    1    4    4    0    0  0.26761234192E+02  0.56613161019E+00 -0.10232525171E+02  0.28656390768E+02  0.00000000000E+00 0. -1.
         11    1    4    4    0    0 -0.51149071738E+02  0.75939584565E+02 -0.11129139862E+03  0.14411392525E+03  0.00000000000E+00 0.  1.
        -13    1    3    3    0    0  0.51659182868E+02 -0.57403786411E+02 -0.51340876118E+02  0.92734844743E+02  0.00000000000E+00 0. -1.
         13    1    3    3    0    0 -0.14875734476E+02  0.14948640160E+02 -0.46202756382E+02  0.50788227141E+02  0.00000000000E+00 0.  1.
         21    1    1    2  502  501 -0.12395610845E+02 -0.34050569924E+02  0.31819896591E+02  0.48224457482E+02  0.00000000000E+00 0. -1.
<scales pt_clust_5="13000.00000" pt_clust_6="13000.00000" pt_clust_7="13000.00000" pt_clust_8="13000.00000" pt_clust_9="36.23662"></scales>
<clustering>
<clus scale="   36.237">  1  9  2 -1</clus>
<clus scale="   89.043">  7  8 -1 -1</clus>
<clus scale="   92.917">  5  6 -1 -1</clus>
<clus scale="  110.968">  2  7  1 -1</clus>
<clus scale="   36.237">  1  5  2 -1</clus>
</clustering>
</event>
<event>
 9    1  0.1296032E-005  0.2548293E+03  0.7546771E-02  0.1110560E+00
         -2   -1    0    0    0  501 -0.00000000000E+00  0.00000000000E+00  0.93992243312E+03  0.93992243312E+03  0.00000000000E+00 0.  1.
          2   -1    0    0  502    0  0.00000000000E+00 -0.00000000000E+00 -0.25630506581E+03  0.25630506581E+03  0.00000000000E+00 0. -1.
         23    2    1    2    0    0  0.21909708109E+03  0.10784387051E+03  0.76231953775E+03  0.80563627048E+03  0.91021378411E+02 0.  0.
         23    2    1    2    0    0 -0.22176562506E+03  0.28876552760E+02 -0.83539844733E+02  0.25375922065E+03  0.86028998876E+02 0.  0.
        -11    1    4    4    0    0 -0.19475623252E+03  0.46045952036E+01 -0.93526306197E+02  0.21609803875E+03  0.00000000000E+00 0. -1.
         11    1    4    4    0    0 -0.27009392542E+02  0.24271957556E+02  0.99864614644E+01  0.37661181894E+02  0.00000000000E+00 0.  1.
        -13    1    3    3    0    0  0.25303367270E+02  0.52015054072E+02  0.20242655000E+03  0.21052870206E+03  0.00000000000E+00 0.  1.
         13    1    3    3    0    0  0.19379371382E+03  0.55828816440E+02  0.55989298775E+03  0.59510756842E+03  0.00000000000E+00 0. -1.
         21    1    1    2  502  501  0.26685439746E+01 -0.13672042327E+03  0.48376742993E+01  0.13683200780E+03  0.00000000000E+00 0. -1.
<scales pt_clust_5="13000.00000" pt_clust_6="13000.00000" pt_clust_7="13000.00000" pt_clust_8="13000.00000" pt_clust_9="136.74646"></scales>
<clustering>
<clus scale="   86.029">  5  6 -1 -1</clus>
<clus scale="   91.021">  7  8 -1 -1</clus>
<clus scale="  136.746">  2  9  1 -1</clus>
<clus scale="  253.089">  2  5  1 -1</clus>
<clus scale="  136.746">  2  5  1 -1</clus>
</clustering>
</event>
<event>
 9    1  0.1296032E-005  0.1892036E+03  0.7546771E-02  0.1190294E+00
          2   -1    0    0  502    0  0.00000000000E+00  0.00000000000E+00  0.70486820007E+03  0.70486820007E+03  0.00000000000E+00 0. -1.
         -2   -1    0    0    0  501 -0.00000000000E+00 -0.00000000000E+00 -0.72427070532E+02  0.72427070532E+02  0.00000000000E+00 0.  1.
         23    2    1    2    0    0  0.25328295078E+02 -0.36807348313E+01  0.10756158337E+03  0.14245412782E+03  0.89825463959E+02 0.  0.
         23    2    1    2    0    0 -0.63168741731E+02  0.16139933230E+03  0.28804435919E+03  0.34779069220E+03  0.89155921377E+02 0.  0.
        -11    1    3    3    0    0  0.26599841069E+02 -0.44287146074E+02  0.49173185227E+02  0.71322542002E+02  0.00000000000E+00 0. -1.
         11    1    3    3    0    0 -0.12715459908E+01  0.40606411243E+02  0.58388398144E+02  0.71131585818E+02  0.00000000000E+00 0.  1.
        -13    1    4    4    0    0 -0.56094474549E+02  0.12396118241E+03  0.14121519729E+03  0.19609869139E+03  0.00000000000E+00 0.  1.
         13    1    4    4    0    0 -0.70742671822E+01  0.37438149891E+02  0.14682916190E+03  0.15169200080E+03  0.00000000000E+00 0. -1.
         21    1    1    2  502  501  0.37840446654E+02 -0.15771859747E+03  0.23683518697E+03  0.28705045058E+03  0.00000000000E+00 0.  1.
<scales pt_clust_5="13000.00000" pt_clust_6="13000.00000" pt_clust_7="13000.00000" pt_clust_8="13000.00000" pt_clust_9="166.88088"></scales>
<clustering>
<clus scale="   89.156">  7  8 -1 -1</clus>
<clus scale="   89.825">  5  6 -1 -1</clus>
<clus scale="   93.401">  2  5  1 -1</clus>
<clus scale="  166.881">  1  9  2 -1</clus>
<clus scale="  166.881">  1  5  2 -1</clus>
</clustering>
</event>
<event>
 9    1  0.1296032E-005  0.1637605E+03  0.7546771E-02  0.1184977E+00
          1   -1    0    0  502    0  0.00000000000E+00  0.00000000000E+00  0.34938235887E+03  0.34938235887E+03  0.00000000000E+00 0. -1.
         -1   -1    0    0    0  501 -0.00000000000E+00 -0.00000000000E+00 -0.25695699373E+03  0.25695699373E+03  0.00000000000E+00 0.  1.
         23    2    1    2    0    0  0.29644795568E+02 -0.14512680220E+03 -0.15926756803E+03  0.23576501095E+03  0.90985600746E+02 0.  0.
         23    2    1    2    0    0 -0.26104011415E+02  0.10635853472E+03  0.27609533783E+02  0.14313449114E+03  0.87929738306E+02 0.  0.
        -11    1    3    3    0    0 -0.13743114568E+02 -0.21116876432E+02  0.47258593959E+01  0.25634535598E+02  0.00000000000E+00 0.  1.
         11    1    3    3    0    0  0.43387910135E+02 -0.12400992576E+03 -0.16399342742E+03  0.21013047535E+03  0.00000000000E+00 0. -1.
        -13    1    4    4    0    0 -0.48296079583E+02  0.88001958175E+02  0.44436190064E+02  0.10977900953E+03  0.00000000000E+00 0.  1.
         13    1    4    4    0    0  0.22192068167E+02  0.18356576550E+02 -0.16826656281E+02  0.33355481615E+02  0.00000000000E+00 0. -1.
         21    1    1    2  502  501 -0.35407841523E+01  0.38768267472E+02  0.22408339939E+03  0.22743985050E+03  0.00000000000E+00 0. -1.
<scales pt_clust_5="13000.00000" pt_clust_6="13000.00000" pt_clust_7="13000.00000" pt_clust_8="13000.00000" pt_clust_9="38.92963"></scales>
<clustering>
<clus scale="   38.930">  1  9  2 -1</clus>
<clus scale="   87.930">  7  8 -1 -1</clus>
<clus scale="   90.986">  5  6 -1 -1</clus>
<clus scale="  162.083">  1  7  2 -1</clus>
<clus scale="   38.930">  1  5  2 -1</clus>
</clustering>
</event>
<event>
 9    1  0.1296032E-005  0.1145374E+03  0.7546771E-02  0.1252769E+00
          1   -1    0    0  502    0  0.00000000000E+00  0.00000000000E+00  0.18227121041E+02  0.18227121041E+02  0.00000000000E+00 0. -1.
         -1   -1    0    0    0  501 -0.00000000000E+00 -0.00000000000E+00 -0.98417712305E+03  0.98417712305E+03  0.00000000000E+00 0.  1.
         23    2    1    2    0    0 -0.34768168861E+02 -0.46676015275E+02 -0.52667239602E+03  0.53802985391E+03  0.93299705278E+02 0.  0.
         23    2    1    2    0    0  0.60521353312E+02  0.55143789016E+02 -0.36770102140E+03  0.38783592166E+03  0.92244183107E+02 0.  0.
        -11    1    4    4    0    0 -0.19413205684E+02 -0.49587101815E+01 -0.10171675826E+03  0.10367140528E+03  0.00000000000E+00 0.  1.
         11    1    4    4    0    0  0.79934558996E+02  0.60102499198E+02 -0.26598426314E+03  0.28416451638E+03  0.00000000000E+00 0. -1.
        -13    1    3    3    0    0  0.13724581608E+02 -0.57206608205E+02 -0.32938421279E+03  0.33459665240E+03  0.00000000000E+00 0.  1.
         13    1    3    3    0    0 -0.48492750469E+02  0.10530592930E+02 -0.19728818323E+03  0.20343320151E+03  0.00000000000E+00 0. -1.
         21    1    1    2  502  501 -0.25753184451E+02 -0.84677737414E+01 -0.71576584584E+02  0.76538468512E+02  0.00000000000E+00 0.  1.
<scales pt_clust_5="13000.00000" pt_clust_6="13000.00000" pt_clust_7="13000.00000" pt_clust_8="13000.00000" pt_clust_9="27.10959"></scales>
<clustering>
<clus scale="   27.110">  1  9  2 -1</clus>
<clus scale="   92.244">  5  6 -1 -1</clus>
<clus scale="   93.300">  7  8 -1 -1</clus>
<clus scale="  113.679">  1  5  2 -1</clus>
<clus scale="   27.110">  1  5  2 -1</clus>
</clustering>
</event>
<event>
 9    1  0.1296032E-005  0.9608252E+02  0.7546771E-02  0.1289003E+00
         -2   -1    0    0    0  501 -0.00000000000E+00  0.00000000000E+00  0.69618020437E+02  0.69618020437E+02  0.00000000000E+00 0.  1.
          2   -1    0    0  502    0  0.00000000000E+00 -0.00000000000E+00 -0.30376387904E+03  0.30376387904E+03  0.00000000000E+00 0. -1.
         23    2    1    2    0    0  0.39714813985E+02  0.53487500086E+02 -0.28554316187E+02  0.11626682646E+03  0.90909003118E+02 0.  0.
         23    2    1    2    0    0 -0.12648976442E+02 -0.15769226590E+02 -0.18287626195E+03  0.20543130686E+03  0.91376307326E+02 0.  0.
        -11    1    4    4    0    0  0.14558810691E+02 -0.29403495482E+02 -0.16869573786E+03  0.17185684882E+03  0.00000000000E+00 0. -1.
         11    1    4    4    0    0 -0.27207787133E+02  0.13634268891E+02 -0.14180524089E+02  0.33574458034E+02  0.00000000000E+00 0.  1.
        -13    1    3    3    0    0 -0.37720598558E+01  0.62335114951E+02 -0.34737419968E+02  0.71460362002E+02  0.00000000000E+00 0.  1.
         13    1    3    3    0    0  0.43486873840E+02 -0.88476148652E+01  0.61831037805E+01  0.44806464462E+02  0.00000000000E+00 0. -1.
         21    1    1    2  502  501 -0.27065837542E+02 -0.37718273495E+02 -0.22715280468E+02  0.51683766156E+02  0.00000000000E+00 0.  1.
<scales pt_clust_5="13000.00000" pt_clust_6="13000.00000" pt_clust_7="13000.00000" pt_clust_8="13000.00000" pt_clust_9="46.42443"></scales>
<clustering>
<clus scale="   46.424">  1  9  2 -1</clus>
<clus scale="   90.909">  7  8 -1 -1</clus>
<clus scale="   91.376">  5  6 -1 -1</clus>
<clus scale="   95.638">  1  7  2 -1</clus>
<clus scale="   96.083">  2  5  1 -1</clus>
</clustering>
</event>
<event>
 9    1  0.1296032E-005  0.8545586E+02  0.7546771E-02  0.1314577E+00
         -1   -1    0    0    0  501 -0.00000000000E+00  0.00000000000E+00  0.19850202630E+03  0.19850202630E+03  0.00000000000E+00 0.  1.
          1   -1    0    0  502    0  0.00000000000E+00 -0.00000000000E+00 -0.81345649042E+02  0.81345649042E+02  0.00000000000E+00 0. -1.
         23    2    1    2    0    0 -0.94835224811E+00 -0.10920623065E+00  0.11156745344E+03  0.14038314231E+03  0.85201048577E+02 0.  0.
         23    2    1    2    0    0 -0.17551014797E+02 -0.10993911971E+02  0.42282912896E+02  0.96897472421E+02  0.84689853099E+02 0.  0.
        -13    1    3    3    0    0  0.22553912928E+02 -0.19235073651E+02  0.55975576087E+01  0.30166201251E+02  0.00000000000E+00 0. -1.
         13    1    3    3    0    0 -0.23502265176E+02  0.19125867421E+02  0.10596989583E+03  0.11021694105E+03  0.00000000000E+00 0.  1.
        -13    1    4    4    0    0  0.22897732670E+02 -0.15997678231E+02 -0.10821496988E+02  0.29955578233E+02  0.00000000000E+00 0. -1.
         13    1    4    4    0    0 -0.40448747467E+02  0.50037662608E+01  0.53104409883E+02  0.66941894188E+02  0.00000000000E+00 0.  1.
         21    1    1    2  502  501  0.18499367045E+02  0.11103118201E+02 -0.36693989078E+02  0.42567060614E+02  0.00000000000E+00 0. -1.
<scales pt_clust_5="13000.00000" pt_clust_6="13000.00000" pt_clust_7="13000.00000" pt_clust_8="13000.00000" pt_clust_9="21.57558"></scales>
<clustering>
<clus scale="   21.576">  2  9  1 -1</clus>
<clus scale="   84.690">  7  8 -1 -1</clus>
<clus scale="   84.946">  2  7  1 -1</clus>
<clus scale="   85.201">  5  6 -1 -1</clus>
<clus scale="   21.576">  2  5  1 -1</clus>
</clustering>
</event>
<event>
 9    1  0.1296032E-005  0.1099117E+03  0.7546771E-02  0.1261811E+00
         -1   -1    0    0    0  501 -0.00000000000E+00  0.00000000000E+00  0.91215060287E+02  0.91215060287E+02  0.00000000000E+00 0.  1.
          1   -1    0    0  502    0  0.00000000000E+00 -0.00000000000E+00 -0.41661745899E+03  0.41661745899E+03  0.00000000000E+00 0. -1.
         23    2    1    2    0    0 -0.53940116658E+02 -0.22348548984E+02  0.39498176559E+02  0.11499003420E+03  0.90849370863E+02 0.  0.
         23    2    1    2    0    0  0.39844043202E+02  0.41522027615E+02 -0.21887359036E+03  0.24488910767E+03  0.93559606344E+02 0.  0.
        -11    1    3    3    0    0 -0.73587698638E+02 -0.49213991991E+01  0.83126165769E+01  0.74219061941E+02  0.00000000000E+00 0. -1.
         11    1    3    3    0    0  0.19647581980E+02 -0.17427149785E+02  0.31185559982E+02  0.40770972256E+02  0.00000000000E+00 0.  1.
        -13    1    4    4    0    0 -0.17181954579E+02  0.19130603450E+02 -0.10636543912E+02  0.27826886601E+02  0.00000000000E+00 0.  1.
         13    1    4    4    0    0  0.57025997781E+02  0.22391424165E+02 -0.20823704645E+03  0.21706222107E+03  0.00000000000E+00 0. -1.
         21    1    1    2  502  501  0.14096073456E+02 -0.19173478632E+02 -0.14602698490E+03  0.14795337741E+03  0.00000000000E+00 0.  1.
<scales pt_clust_5="13000.00000" pt_clust_6="13000.00000" pt_clust_7="13000.00000" pt_clust_8="13000.00000" pt_clust_9="23.79751"></scales>
<clustering>
<clus scale="   23.798">  2  9  1 -1</clus>
<clus scale="   90.849">  5  6 -1 -1</clus>
<clus scale="   93.560">  7  8 -1 -1</clus>
<clus scale="  107.614">  1  5  2 -1</clus>
<clus scale="   23.798">  2  5  1 -1</clus>
</clustering>
</event>
<event>
 9    1  0.1296032E-005  0.1164362E+03  0.7546771E-02  0.1249778E+00
         -1   -1    0    0    0  501 -0.00000000000E+00  0.00000000000E+00  0.16985591766E+03  0.16985591766E+03  0.00000000000E+00 0.  1.
          1   -1    0    0  502    0  0.00000000000E+00 -0.00000000000E+00 -0.34568402622E+03  0.34568402622E+03  0.00000000000E+00 0. -1.
         23    2    1    2    0    0  0.28519944401E+01  0.68610453529E+02  0.12304476126E+03  0.16859093515E+03  0.92560045026E+02 0.  0.
         23    2    1    2    0    0  0.16978378275E+01 -0.96844169131E+02 -0.28667530849E+03  0.31585842861E+03  0.90565659488E+02 0.  0.
        -11    1    3    3    0    0 -0.23491904754E+02  0.80243487997E+02  0.10642593432E+03  0.13534166562E+03  0.00000000000E+00 0.  1.
         11    1    3    3    0    0  0.26343899194E+02 -0.11633034468E+02  0.16618826931E+02  0.33249269530E+02  0.00000000000E+00 0. -1.
        -11    1    4    4    0    0  0.28662593390E+02 -0.24267274808E+01 -0.32640371369E+02  0.43506632934E+02  0.00000000000E+00 0.  1.
         11    1    4    4    0    0 -0.26964755563E+02 -0.94417441650E+02 -0.25403493712E+03  0.27235179568E+03  0.00000000000E+00 0. -1.
         21    1    1    2  502  501 -0.45498322676E+01  0.28233715601E+02 -0.12197561323E+02  0.31090580126E+02  0.00000000000E+00 0.  1.
<scales pt_clust_5="13000.00000" pt_clust_6="13000.00000" pt_clust_7="13000.00000" pt_clust_8="13000.00000" pt_clust_9="28.59797"></scales>
<clustering>
<clus scale="   28.598">  2  9  1 -1</clus>
<clus scale="   90.566">  7  8 -1 -1</clus>
<clus scale="   92.560">  5  6 -1 -1</clus>
<clus scale="  114.857">  2  7  1 -1</clus>
<clus scale="   28.598">  2  5  1 -1</clus>
</clustering>
</event>
<event>
 9    1  0.1296032E-005  0.2119922E+03  0.7546771E-02  0.1140063E+00
          2   -1    0    0  502    0  0.00000000000E+00  0.00000000000E+00  0.51431303777E+03  0.51431303777E+03  0.00000000000E+00 0. -1.
         -2   -1    0    0    0  501 -0.00000000000E+00 -0.00000000000E+00 -0.11667897569E+03  0.11667897569E+03  0.00000000000E+00 0.  1.
         23    2    1    2    0    0  0.15417017116E+03  0.65916659784E+02  0.17118709953E+03  0.25615625152E+03  0.90540346990E+02 0.  0.
         23    2    1    2    0    0 -0.21060099031E+03 -0.52047491283E+02  0.14919738515E+03  0.27816990244E+03  0.89760327652E+02 0.  0.
        -11    1    4    4    0    0 -0.19004054742E+03 -0.73170673268E+02  0.11849036039E+03  0.23560416506E+03  0.00000000000E+00 0.  1.
         11    1    4    4    0    0 -0.20560442897E+02  0.21123181985E+02  0.30707024762E+02  0.42565737384E+02  0.00000000000E+00 0. -1.
        -13    1    3    3    0    0  0.10484462610E+03  0.81223286230E+02  0.91243863461E+02  0.16098155319E+03  0.00000000000E+00 0. -1.
         13    1    3    3    0    0  0.49325545064E+02 -0.15306626446E+02  0.79943236065E+02  0.95174698327E+02  0.00000000000E+00 0.  1.
         21    1    1    2  502  501  0.56430819150E+02 -0.13869168501E+02  0.77249577404E+02  0.96665859505E+02  0.00000000000E+00 0. -1.
<scales pt_clust_5="13000.00000" pt_clust_6="13000.00000" pt_clust_7="13000.00000" pt_clust_8="13000.00000" pt_clust_9="58.11016"></scales>
<clustering>
<clus scale="   58.110">  1  9  2 -1</clus>
<clus scale="   89.760">  5  6 -1 -1</clus>
<clus scale="   90.540">  7  8 -1 -1</clus>
<clus scale="  211.660">  1  5  2 -1</clus>
<clus scale="   58.110">  1  5  2 -1</clus>
</clustering>
</event>
<event>
 9    1  0.1296032E-005  0.1025499E+03  0.7546771E-02  0.1276761E+00
          1   -1    0    0  502    0  0.00000000000E+00  0.00000000000E+00  0.13501981524E+03  0.13501981524E+03  0.00000000000E+00 0. -1.
         -1   -1    0    0    0  501 -0.00000000000E+00 -0.00000000000E+00 -0.50925701211E+03  0.50925701211E+03  0.00000000000E+00 0.  1.
         23    2    1    2    0    0  0.41802708067E+02 -0.76400818789E+02 -0.40855465161E+03  0.42655595416E+03  0.86304850154E+02 0.  0.
         23    2    1    2    0    0 -0.22457202013E+02  0.41206964561E+02  0.98810635426E+02  0.14174570399E+03  0.90144123908E+02 0.  0.
        -11    1    4    4    0    0 -0.56835852993E+02  0.26592641937E+02  0.73400649148E+02  0.96566754558E+02  0.00000000000E+00 0. -1.
         11    1    4    4    0    0  0.34378650980E+02  0.14614322624E+02  0.25409986278E+02  0.45178949430E+02  0.00000000000E+00 0.  1.
        -13    1    3    3    0    0 -0.17271027727E+02 -0.57644652090E+02 -0.21960363354E+03  0.22769925380E+03  0.00000000000E+00 0.  1.
         13    1    3    3    0    0  0.59073735794E+02 -0.18756166699E+02 -0.18895101807E+03  0.19885670036E+03  0.00000000000E+00 0. -1.
         21    1    1    2  502  501 -0.19345506054E+02  0.35193854228E+02 -0.64493180692E+02  0.75975169205E+02  0.00000000000E+00 0.  1.
<scales pt_clust_5="13000.00000" pt_clust_6="13000.00000" pt_clust_7="13000.00000" pt_clust_8="13000.00000" pt_clust_9="40.16038"></scales>
<clustering>
<clus scale="   40.160">  2  9  1 -1</clus>
<clus scale="   86.305">  7  8 -1 -1</clus>
<clus scale="   90.144">  5  6 -1 -1</clus>
<clus scale="   99.192">  2  7  1 -1</clus>
<clus scale="  102.550">  1  5  2 -1</clus>
</clustering>
</event>
<event>
 9    1  0.1296032E-005  0.1351319E+03  0.7546771E-02  0.1220065E+00
         -1   -1    0    0    0  501 -0.00000000000E+00  0.00000000000E+00  0.22800846964E+02  0.22800846964E+02  0.00000000000E+00 0.  1.
          1   -1    0    0  502    0  0.00000000000E+00 -0.00000000000E+00 -0.10086952483E+04  0.10086952483E+04  0.00000000000E+00 0. -1.
         23    2    1    2    0    0  0.73529310403E+02 -0.54870779837E+02 -0.37995942276E+03  0.40137484040E+03  0.91187924598E+02 0.  0.
         23    2    1    2    0    0 -0.72806564867E+02  0.83660053389E+02 -0.48691065983E+03  0.50766255536E+03  0.91320748096E+02 0.  0.
        -11    1    3    3    0    0  0.61081575792E+02 -0.33651228389E+01 -0.10641452177E+03  0.12274499337E+03  0.00000000000E+00 0. -1.
         11    1    3    3    0    0  0.12447734611E+02 -0.51505656998E+02 -0.27354490098E+03  0.27862984703E+03  0.00000000000E+00 0.  1.
        -13    1    4    4    0    0 -0.30568663790E+02  0.17843442342E+02 -0.37764688034E+02  0.51759089084E+02  0.00000000000E+00 0.  1.
         13    1    4    4    0    0 -0.42237901077E+02  0.65816611047E+02 -0.44914597180E+03  0.45590346627E+03  0.00000000000E+00 0. -1.
         21    1    1    2  502  501 -0.72274553599E+00 -0.28789273552E+02 -0.11902431875E+03  0.12245869952E+03  0.00000000000E+00 0.  1.
<scales pt_clust_5="13000.00000" pt_clust_6="13000.00000" pt_clust_7="13000.00000" pt_clust_8="13000.00000" pt_clust_9="28.79834"></scales>
<clustering>
<clus scale="   28.798">  2  9  1 -1</clus>
<clus scale="   91.188">  5  6 -1 -1</clus>
<clus scale="   91.321">  7  8 -1 -1</clus>
<clus scale="  135.042">  1  5  2 -1</clus>
<clus scale="   28.798">  2  5  1 -1</clus>
</clustering>
</event>
<event>
 9    1  0.1296032E-005  0.9865738E+02  0.7546771E-02  0.1284030E+00
         -3   -1    0    0    0  501 -0.00000000000E+00  0.00000000000E+00  0.22973017341E+03  0.22973017341E+03  0.00000000000E+00 0.  1.
          3   -1    0    0  502    0  0.00000000000E+00 -0.00000000000E+00 -0.86174599182E+02  0.86174599182E+02  0.00000000000E+00 0. -1.
         23    2    1    2    0    0 -0.11044237977E+02 -0.41617908815E+02  0.15256268851E+03  0.18280051964E+03  0.91030931702E+02 0.  0.
         23    2    1    2    0    0  0.21232118484E+02  0.24302834684E+02 -0.31300925163E+02  0.10309394298E+03  0.92774902499E+02 0.  0.
        -11    1    3    3    0    0 -0.49900226506E+02 -0.11527147197E+02  0.85361561547E+02  0.99546491237E+02  0.00000000000E+00 0.  1.
         11    1    3    3    0    0  0.38855988529E+02 -0.30090761618E+02  0.67201126967E+02  0.83254028400E+02  0.00000000000E+00 0. -1.
        -13    1    4    4    0    0  0.45808949190E+02  0.42207525356E+02 -0.43142933880E+01  0.62438354799E+02  0.00000000000E+00 0. -1.
         13    1    4    4    0    0 -0.24576830706E+02 -0.17904690673E+02 -0.26986631775E+02  0.40655588179E+02  0.00000000000E+00 0.  1.
         21    1    1    2  502  501 -0.10187880507E+02  0.17315074131E+02  0.22293810873E+02  0.30010309972E+02  0.00000000000E+00 0.  1.
<scales pt_clust_5="13000.00000" pt_clust_6="13000.00000" pt_clust_7="13000.00000" pt_clust_8="13000.00000" pt_clust_9="20.08992"></scales>
<clustering>
<clus scale="   20.090">  1  9  2 -1</clus>
<clus scale="   91.031">  5  6 -1 -1</clus>
<clus scale="   92.775">  7  8 -1 -1</clus>
<clus scale="   97.019">  1  5  2 -1</clus>
<clus scale="   98.657">  2  5  1 -1</clus>
</clustering>
</event>
<event>
 9    1  0.1296032E-005  0.1196314E+03  0.7546771E-02  0.1243952E+00
         -2   -1    0    0    0  501 -0.00000000000E+00  0.00000000000E+00  0.39438007314E+02  0.39438007314E+02  0.00000000000E+00 0.  1.
          2   -1    0    0  502    0  0.00000000000E+00 -0.00000000000E+00 -0.54719701543E+03  0.54719701543E+03  0.00000000000E+00 0. -1.
         23    2    1    2    0    0  0.87513257499E+02 -0.23636982239E+02 -0.15087200351E+03  0.19825739405E+03  0.91248866767E+02 0.  0.
         23    2    1    2    0    0 -0.49452959319E+02  0.33647214511E+02 -0.21866930878E+03  0.24466638179E+03  0.92019788871E+02 0.  0.
        -11    1    3    3    0    0  0.45045079083E+02 -0.13382877772E+02 -0.65227524921E+01  0.47441615351E+02  0.00000000000E+00 0.  1.
         11    1    3    3    0    0  0.42468178416E+02 -0.10254104467E+02 -0.14434925101E+03  0.15081577870E+03  0.00000000000E+00 0. -1.
        -13    1    4    4    0    0  0.82026692708E+01  0.38525565310E+02 -0.14892001642E+03  0.15404114469E+03  0.00000000000E+00 0.  1.
         13    1    4    4    0    0 -0.57655628590E+02 -0.48783507986E+01 -0.69749292362E+02  0.90625237101E+02  0.00000000000E+00 0. -1.
         21    1    1    2  502  501 -0.38060298180E+02 -0.10010232272E+02 -0.13821769583E+03  0.14371124691E+03  0.00000000000E+00 0. -1.
<scales pt_clust_5="13000.00000" pt_clust_6="13000.00000" pt_clust_7="13000.00000" pt_clust_8="13000.00000" pt_clust_9="39.35468"></scales>
<clustering>
<clus scale="   39.355">  2  9  1 -1</clus>
<clus scale="   91.249">  5  6 -1 -1</clus>
<clus scale="   92.020">  7  8 -1 -1</clus>
<clus scale="  119.039">  1  5  2 -1</clus>
<clus scale="   39.355">  2  5  1 -1</clus>
</clustering>
</event>
<event>
 9    1  0.1296032E-005  0.9365988E+02  0.7546771E-02  0.1297106E+00
         -2   -1    0    0    0  501 -0.00000000000E+00  0.00000000000E+00  0.16179016769E+03  0.16179016769E+03  0.00000000000E+00 0. -1.
          2   -1    0    0  502    0  0.00000000000E+00 -0.00000000000E+00 -0.10075544589E+03  0.10075544589E+03  0.00000000000E+00 0.  1.
         23    2    1    2    0    0  0.63188160423E+01  0.14428898818E+02  0.69563623114E+02  0.11337457641E+03  0.88128181405E+02 0.  0.
         23    2    1    2    0    0 -0.11812778006E+02  0.52069265960E+01  0.35683416191E+02  0.10048347946E+03  0.93042837684E+02 0.  0.
        -11    1    3    3    0    0  0.19637629385E+01 -0.35893002627E+02  0.14800183514E+02  0.38874277286E+02  0.00000000000E+00 0.  1.
         11    1    3    3    0    0  0.43550531039E+01  0.50321901445E+02  0.54763439600E+02  0.74500299123E+02  0.00000000000E+00 0. -1.
        -11    1    4    4    0    0 -0.51585575206E+02  0.11595749867E+02  0.13815725008E+02  0.54648030539E+02  0.00000000000E+00 0.  1.
         11    1    4    4    0    0  0.39772797201E+02 -0.63888232709E+01  0.21867691183E+02  0.45835448919E+02  0.00000000000E+00 0. -1.
         21    1    1    2  502  501  0.54939619632E+01 -0.19635825414E+02 -0.44212317500E+02  0.48687557717E+02  0.00000000000E+00 0.  1.
<scales pt_clust_5="13000.00000" pt_clust_6="13000.00000" pt_clust_7="13000.00000" pt_clust_8="13000.00000" pt_clust_9="20.38993"></scales>
<clustering>
<clus scale="   20.390">  2  9  1 -1</clus>
<clus scale="   88.128">  5  6 -1 -1</clus>
<clus scale="   88.779">  1  5  2 -1</clus>
<clus scale="   93.043">  7  8 -1 -1</clus>
<clus scale="   20.390">  2  5  1 -1</clus>
</clustering>
</event>
<event>
 9    1  0.1296032E-005  0.1094297E+03  0.7546771E-02  0.1262349E+00
          1   -1    0    0  502    0  0.00000000000E+00  0.00000000000E+00  0.49655630007E+03  0.49655630007E+03  0.00000000000E+00 0. -1.
         -1   -1    0    0    0  501 -0.00000000000E+00 -0.00000000000E+00 -0.20388987756E+03  0.20388987756E+03  0.00000000000E+00 0.  1.
         23    2    1    2    0    0 -0.29939172141E+02 -0.55970198355E+02 -0.16346343174E+03  0.19801909983E+03  0.91990506299E+02 0.  0.
         23    2    1    2    0    0  0.52746352981E+02  0.27520851948E+02  0.45314441808E+03  0.46584230449E+03  0.90164371973E+02 0.  0.
        -11    1    4    4    0    0 -0.19393065402E+02  0.24673863444E+02  0.83263545659E+02  0.88981506835E+02  0.00000000000E+00 0.  1.
         11    1    4    4    0    0  0.72139418383E+02  0.28469885043E+01  0.36988087242E+03  0.37686079766E+03  0.00000000000E+00 0. -1.
        -11    1    3    3    0    0 -0.30081288636E+00 -0.29041527349E+02  0.69056239184E+00  0.29051293871E+02  0.00000000000E+00 0. -1.
         11    1    3    3    0    0 -0.29638359254E+02 -0.26928671006E+02 -0.16415399413E+03  0.16896780596E+03  0.00000000000E+00 0.  1.
         21    1    1    2  502  501 -0.22807180840E+02  0.28449346407E+02  0.29854361608E+01  0.36584773307E+02  0.00000000000E+00 0.  1.
<scales pt_clust_5="13000.00000" pt_clust_6="13000.00000" pt_clust_7="13000.00000" pt_clust_8="13000.00000" pt_clust_9="36.46276"></scales>
<clustering>
<clus scale="   36.463">  2  9  1 -1</clus>
<clus scale="   90.164">  5  6 -1 -1</clus>
<clus scale="   91.991">  7  8 -1 -1</clus>
<clus scale="  107.899">  1  5  2 -1</clus>
<clus scale="  107.899">  1  5  2 -1</clus>
</clustering>
</event>
<event>
 9    1  0.1296032E-005  0.9696928E+02  0.7546771E-02  0.1287075E+00
          2   -1    0    0  502    0  0.00000000000E+00  0.00000000000E+00  0.40730052238E+03  0.40730052238E+03  0.00000000000E+00 0. -1.
         -2   -1    0    0    0  501 -0.00000000000E+00 -0.00000000000E+00 -0.13638579312E+03  0.13638579312E+03  0.00000000000E+00 0.  1.
         23    2    1    2    0    0  0.35811484987E+02  0.70409502265E+01 -0.85076873482E+02  0.13037646958E+03  0.91803659960E+02 0.  0.
         23    2    1    2    0    0  0.90925528073E+01  0.73071954278E+02  0.18077911401E+03  0.21548703054E+03  0.91276433151E+02 0.  0.
        -11    1    4    4    0    0  0.15879998892E+02 -0.12198929270E+02  0.83861007775E+02  0.86218657292E+02  0.00000000000E+00 0.  1.
         11    1    4    4    0    0 -0.67874460851E+01  0.85270883548E+02  0.96918106240E+02  0.12926837325E+03  0.00000000000E+00 0. -1.
        -13    1    3    3    0    0  0.71941449146E+01  0.38650360386E+02 -0.49683259358E+01  0.39626889123E+02  0.00000000000E+00 0. -1.
         13    1    3    3    0    0  0.28617340073E+02 -0.31609410159E+02 -0.80108547546E+02  0.90749580459E+02  0.00000000000E+00 0.  1.
         21    1    1    2  502  501 -0.44904037795E+02 -0.80112904504E+02  0.17521248873E+03  0.19782281538E+03  0.00000000000E+00 0. -1.
<scales pt_clust_5="13000.00000" pt_clust_6="13000.00000" pt_clust_7="13000.00000" pt_clust_8="13000.00000" pt_clust_9="91.83926"></scales>
<clustering>
<clus scale="   91.276">  5  6 -1 -1</clus>
<clus scale="   91.804">  7  8 -1 -1</clus>
<clus scale="   91.839">  1  9  2 -1</clus>
<clus scale="   96.470">  1  5  2 -1</clus>
<clus scale="   91.839">  1  5  2 -1</clus>
</clustering>
</event>
<event>
 9    1  0.1296032E-005  0.1199916E+03  0.7546771E-02  0.1244417E+00
          1   -1    0    0  502    0  0.00000000000E+00  0.00000000000E+00  0.34437118713E+03  0.34437118713E+03  0.00000000000E+00 0. -1.
         -1   -1    0    0    0  501 -0.00000000000E+00 -0.00000000000E+00 -0.53681824693E+02  0.53681824693E+02  0.00000000000E+00 0.  1.
         23    2    1    2    0    0  0.64286497350E+02  0.50998475664E+02  0.83971935272E+02  0.14905595748E+03  0.91830247110E+02 0.  0.
         23    2    1    2    0    0 -0.49708079426E+02 -0.30230789597E+02  0.15361585485E+03  0.19014466241E+03  0.95772480304E+02 0.  0.
        -11    1    4    4    0    0 -0.21082257409E+02  0.19586600466E+01 -0.81908148966E+01  0.22702144729E+02  0.00000000000E+00 0.  1.
         11    1    4    4    0    0 -0.28625822017E+02 -0.32189449643E+02  0.16180666974E+03  0.16744251768E+03  0.00000000000E+00 0. -1.
        -13    1    3    3    0    0  0.86768497831E+02  0.43870063072E+02  0.78201859370E+02  0.12477533995E+03  0.00000000000E+00 0. -1.
         13    1    3    3    0    0 -0.22482000481E+02  0.71284125921E+01  0.57700759017E+01  0.24280617530E+02  0.00000000000E+00 0.  1.
         21    1    1    2  502  501 -0.14578417924E+02 -0.20767686068E+02  0.53101572325E+02  0.58852391941E+02  0.00000000000E+00 0. -1.
<scales pt_clust_5="13000.00000" pt_clust_6="13000.00000" pt_clust_7="13000.00000" pt_clust_8="13000.00000" pt_clust_9="25.37375"></scales>
<clustering>
<clus scale="   25.374">  1  9  2 -1</clus>
<clus scale="   91.830">  7  8 -1 -1</clus>
<clus scale="   95.772">  5  6 -1 -1</clus>
<clus scale="  116.869">  2  7  1 -1</clus>
<clus scale="   25.374">  1  5  2 -1</clus>
</clustering>
</event>
<event>
 9    1  0.1296032E-005  0.2024973E+03  0.7546771E-02  0.1149006E+00
         -1   -1    0    0    0  501 -0.00000000000E+00  0.00000000000E+00  0.47723174351E+02  0.47723174351E+02  0.00000000000E+00 0.  1.
          1   -1    0    0  502    0  0.00000000000E+00 -0.00000000000E+00 -0.97952166113E+03  0.97952166113E+03  0.00000000000E+00 0. -1.
         23    2    1    2    0    0  0.13557058794E+03 -0.93861585216E+02 -0.37601073123E+03  0.42018062798E+03  0.89321378357E+02 0.  0.
         23    2    1    2    0    0 -0.16056174772E+03  0.89250926262E+02 -0.53258143373E+03  0.57264982656E+03  0.10265981510E+03 0.  0.
        -11    1    4    4    0    0 -0.14035978260E+03  0.11166829772E+03 -0.43559788096E+03  0.47107981403E+03  0.00000000000E+00 0. -1.
         11    1    4    4    0    0 -0.20201965123E+02 -0.22417371462E+02 -0.96983552771E+02  0.10157001253E+03  0.00000000000E+00 0.  1.
        -13    1    3    3    0    0  0.89522334808E+02 -0.23712352698E+02 -0.26705692102E+03  0.28265866901E+03  0.00000000000E+00 0.  1.
         13    1    3    3    0    0  0.46048253129E+02 -0.70149232518E+02 -0.10895381022E+03  0.13752195897E+03  0.00000000000E+00 0. -1.
         21    1    1    2  502  501  0.24991159787E+02  0.46106589540E+01 -0.23206321816E+02  0.34414380943E+02  0.00000000000E+00 0.  1.
<scales pt_clust_5="13000.00000" pt_clust_6="13000.00000" pt_clust_7="13000.00000" pt_clust_8="13000.00000" pt_clust_9="25.41291"></scales>
<clustering>
<clus scale="   25.413">  1  9  2 -1</clus>
<clus scale="   89.321">  7  8 -1 -1</clus>
<clus scale="  102.660">  5  6 -1 -1</clus>
<clus scale="  196.073">  1  7  2 -1</clus>
<clus scale="  202.497">  2  5  1 -1</clus>
</clustering>
</event>
<event>
 9    1  0.1296032E-005  0.1099093E+03  0.7546771E-02  0.1260939E+00
         -1   -1    0    0    0  501 -0.00000000000E+00  0.00000000000E+00  0.14029875646E+03  0.14029875646E+03  0.00000000000E+00 0.  1.
          1   -1    0    0  502    0  0.00000000000E+00 -0.00000000000E+00 -0.18825984326E+03  0.18825984326E+03  0.00000000000E+00 0. -1.
         23    2    1    2    0    0  0.56264162159E+02  0.52083205240E+01  0.18522500028E+02  0.10831062685E+03  0.90528041707E+02 0.  0.
         23    2    1    2    0    0 -0.57726865064E+02 -0.41553515530E+02  0.28103658442E+02  0.11890765676E+03  0.91050148905E+02 0.  0.
        -11    1    3    3    0    0  0.57438091695E+02 -0.17402429432E+02  0.43857096389E+02  0.74333194680E+02  0.00000000000E+00 0.  1.
         11    1    3    3    0    0 -0.11739295364E+01  0.22610749956E+02 -0.25334596361E+02  0.33977432170E+02  0.00000000000E+00 0. -1.
        -13    1    4    4    0    0  0.15054810102E+02 -0.22106864114E+02  0.34096123069E+02  0.43334816908E+02  0.00000000000E+00 0.  1.
         13    1    4    4    0    0 -0.72781675165E+02 -0.19446651416E+02 -0.59924646269E+01  0.75572839853E+02  0.00000000000E+00 0. -1.
         21    1    1    2  502  501  0.14627029050E+01  0.36345195006E+02 -0.94587245276E+02  0.10134031611E+03  0.00000000000E+00 0. -1.
<scales pt_clust_5="13000.00000" pt_clust_6="13000.00000" pt_clust_7="13000.00000" pt_clust_8="13000.00000" pt_clust_9="36.37462"></scales>
<clustering>
<clus scale="   36.375">  2  9  1 -1</clus>
<clus scale="   90.528">  5  6 -1 -1</clus>
<clus scale="   91.050">  7  8 -1 -1</clus>
<clus scale="  109.477">  1  5  2 -1</clus>
<clus scale="   36.375">  2  5  1 -1</clus>
</clustering>
</event>
<event>
 9    1  0.1296032E-005  0.9672243E+02  0.7546771E-02  0.1288055E+00
          1   -1    0    0  502    0  0.00000000000E+00  0.00000000000E+00  0.24696535908E+03  0.24696535908E+03  0.00000000000E+00 0. -1.
         -1   -1    0    0    0  501 -0.00000000000E+00 -0.00000000000E+00 -0.18533675427E+03  0.18533675427E+03  0.00000000000E+00 0.  1.
         23    2    1    2    0    0  0.32151696101E+02 -0.19032961230E+02 -0.13380366689E+03  0.16692325387E+03  0.92541699973E+02 0.  0.
         23    2    1    2    0    0  0.58247419057E+01 -0.76427839455E+01  0.34645983777E+02  0.98028820308E+02  0.91197399384E+02 0.  0.
        -11    1    3    3    0    0  0.48026001764E+02  0.14939089103E+02 -0.11380959941E+03  0.12442788332E+03  0.00000000000E+00 0.  1.
         11    1    3    3    0    0 -0.15874305663E+02 -0.33972050334E+02 -0.19994067484E+02  0.42495370557E+02  0.00000000000E+00 0. -1.
        -13    1    4    4    0    0  0.30562781726E+02 -0.39939717295E+02  0.25253770934E+02  0.56276261344E+02  0.00000000000E+00 0.  1.
         13    1    4    4    0    0 -0.24738039821E+02  0.32296933350E+02  0.93922128425E+01  0.41752558964E+02  0.00000000000E+00 0. -1.
         21    1    1    2  502  501 -0.37976438006E+02  0.26675745176E+02  0.16078628793E+03  0.16735003917E+03  0.00000000000E+00 0. -1.
<scales pt_clust_5="13000.00000" pt_clust_6="13000.00000" pt_clust_7="13000.00000" pt_clust_8="13000.00000" pt_clust_9="46.40911"></scales>
<clustering>
<clus scale="   46.409">  1  9  2 -1</clus>
<clus scale="   91.197">  7  8 -1 -1</clus>
<clus scale="   92.542">  5  6 -1 -1</clus>
<clus scale="   95.437">  1  7  2 -1</clus>
<clus scale="   46.409">  1  5  2 -1</clus>
</clustering>
</event>
<event>
 9    1  0.1296032E-005  0.9382248E+02  0.7546771E-02  0.1293879E+00
         -4   -1    0    0    0  501 -0.00000000000E+00  0.00000000000E+00  0.11808364181E+03  0.11808364181E+03  0.00000000000E+00 0.  1.
          4   -1    0    0  502    0  0.00000000000E+00 -0.00000000000E+00 -0.25301740022E+03  0.25301740022E+03  0.00000000000E+00 0. -1.
         23    2    1    2    0    0  0.11044066157E+02  0.20790755538E+02  0.74405793882E+02  0.12042502917E+03  0.91715530720E+02 0.  0.
         23    2    1    2    0    0 -0.81113949386E+01  0.19159844002E+02 -0.17125904176E+03  0.19540598259E+03  0.91765703274E+02 0.  0.
        -11    1    3    3    0    0 -0.38544251539E+02  0.11009406843E+01  0.17269367790E+02  0.42250472908E+02  0.00000000000E+00 0.  1.
         11    1    3    3    0    0  0.49588317695E+02  0.19689814854E+02  0.57136426092E+02  0.78174556266E+02  0.00000000000E+00 0. -1.
        -11    1    4    4    0    0  0.57380512051E+01  0.36250405400E+02 -0.16939967761E+03  0.17332993941E+03  0.00000000000E+00 0. -1.
         11    1    4    4    0    0 -0.13849446144E+02 -0.17090561398E+02 -0.18593641545E+01  0.22076043179E+02  0.00000000000E+00 0.  1.
         21    1    1    2  502  501 -0.29326712179E+01 -0.39950599540E+02 -0.38080510528E+02  0.55270030271E+02  0.00000000000E+00 0.  1.
<scales pt_clust_5="13000.00000" pt_clust_6="13000.00000" pt_clust_7="13000.00000" pt_clust_8="13000.00000" pt_clust_9="40.05809"></scales>
<clustering>
<clus scale="   40.058">  2  9  1 -1</clus>
<clus scale="   91.716">  5  6 -1 -1</clus>
<clus scale="   91.766">  7  8 -1 -1</clus>
<clus scale="   93.773">  1  5  2 -1</clus>
<clus scale="   40.058">  2  5  1 -1</clus>
</clustering>
</event>
<event>
 9    1  0.1296032E-005  0.1079802E+03  0.7546771E-02  0.1265205E+00
          2   -1    0    0  502    0  0.00000000000E+00  0.00000000000E+00  0.48104485343E+03  0.48104485343E+03  0.00000000000E+00 0. -1.
         -2   -1    0    0    0  501 -0.00000000000E+00 -0.00000000000E+00 -0.61782718523E+02  0.61782718523E+02  0.00000000000E+00 0.  1.
         23    2    1    2    0    0 -0.42763134275E+02  0.45358856950E+02  0.44434408906E+01  0.10998663495E+03  0.90505271364E+02 0.  0.
         23    2    1    2    0    0  0.35252005209E+02 -0.20137442971E+02  0.32311691846E+03  0.33743783211E+03  0.88382843706E+02 0.  0.
        -11    1    4    4    0    0 -0.19959859917E+02  0.10266856929E+02  0.29153477054E+02  0.36793064339E+02  0.00000000000E+00 0.  1.
         11    1    4    4    0    0  0.55211865126E+02 -0.30404299900E+02  0.29396344141E+03  0.30064476777E+03  0.00000000000E+00 0. -1.
        -13    1    3    3    0    0 -0.62594968288E+02  0.14108916189E+02 -0.18075505810E+02  0.66662699325E+02  0.00000000000E+00 0.  1.
         13    1    3    3    0    0  0.19831834013E+02  0.31249940761E+02  0.22518946700E+02  0.43323935629E+02  0.00000000000E+00 0. -1.
         21    1    1    2  502  501  0.75111290664E+01 -0.25221413979E+02  0.91701775554E+02  0.95403104890E+02  0.00000000000E+00 0.  1.
<scales pt_clust_5="13000.00000" pt_clust_6="13000.00000" pt_clust_7="13000.00000" pt_clust_8="13000.00000" pt_clust_9="26.31609"></scales>
<clustering>
<clus scale="   26.316">  1  9  2 -1</clus>
<clus scale="   88.383">  5  6 -1 -1</clus>
<clus scale="   90.505">  7  8 -1 -1</clus>
<clus scale="  106.208">  1  5  2 -1</clus>
<clus scale="   26.316">  1  5  2 -1</clus>
</clustering>
</event>
<event>
 9    1  0.1296032E-005  0.1134845E+03  0.7546771E-02  0.1255534E+00
         -2   -1    0    0    0  501 -0.00000000000E+00  0.00000000000E+00  0.38766444113E+02  0.38766444113E+02  0.00000000000E+00 0.  1.
          2   -1    0    0  502    0  0.00000000000E+00 -0.00000000000E+00 -0.10530864799E+04  0.10530864799E+04  0.00000000000E+00 0. -1.
         23    2    1    2    0    0 -0.44913178620E+02 -0.67119162804E+02 -0.10521964831E+03  0.16170397112E+03  0.92492292950E+02 0.  0.
         23    2    1    2    0    0 -0.28447799901E+02  0.42583210089E+01 -0.47232082098E+03  0.48281271659E+03  0.95884048487E+02 0.  0.
        -11    1    3    3    0    0  0.16103708560E+02 -0.36398213375E+02 -0.79132371885E+02  0.88578166872E+02  0.00000000000E+00 0. -1.
         11    1    3    3    0    0 -0.61016887181E+02 -0.30720949429E+02 -0.26087276423E+02  0.73125804243E+02  0.00000000000E+00 0.  1.
        -11    1    4    4    0    0  0.18374925186E+02  0.37073533305E+02 -0.15765944573E+03  0.16299872875E+03  0.00000000000E+00 0. -1.
         11    1    4    4    0    0 -0.46822725088E+02 -0.32815212296E+02 -0.31466137525E+03  0.31981398784E+03  0.00000000000E+00 0.  1.
         21    1    1    2  502  501  0.73360978522E+02  0.62860841795E+02 -0.43677956652E+03  0.44733623633E+03  0.00000000000E+00 0. -1.
<scales pt_clust_5="13000.00000" pt_clust_6="13000.00000" pt_clust_7="13000.00000" pt_clust_8="13000.00000" pt_clust_9="96.60910"></scales>
<clustering>
<clus scale="   92.492">  5  6 -1 -1</clus>
<clus scale="   95.884">  7  8 -1 -1</clus>
<clus scale="   96.609">  2  9  1 -1</clus>
<clus scale="  110.634">  1  5  2 -1</clus>
<clus scale="   96.609">  2  5  1 -1</clus>
</clustering>
</event>
<event>
 9    1  0.1296032E-005  0.2377564E+03  0.7546771E-02  0.1121504E+00
         -2   -1    0    0    0  501 -0.00000000000E+00  0.00000000000E+00  0.65246504007E+02  0.65246504007E+02  0.00000000000E+00 0.  1.
          2   -1    0    0  502    0  0.00000000000E+00 -0.00000000000E+00 -0.12011976774E+04  0.12011976774E+04  0.00000000000E+00 0. -1.
         23    2    1    2    0    0 -0.22053741825E+03  0.63908514591E+02 -0.27673466876E+03  0.37082413147E+03  0.90594748752E+02 0.  0.
         23    2    1    2    0    0  0.18523245441E+03 -0.57485252783E+02 -0.69933292904E+03  0.73175896087E+03  0.93749745201E+02 0.  0.
        -11    1    4    4    0    0  0.92247271268E+02  0.19215694824E+02 -0.33533183720E+03  0.34831916832E+03  0.00000000000E+00 0.  1.
         11    1    4    4    0    0  0.92985183141E+02 -0.76700947607E+02 -0.36400109184E+03  0.38343979255E+03  0.00000000000E+00 0. -1.
        -13    1    3    3    0    0 -0.25397278095E+02 -0.21827845352E+02 -0.42915664536E+02  0.54435565855E+02  0.00000000000E+00 0. -1.
         13    1    3    3    0    0 -0.19514014016E+03  0.85736359943E+02 -0.23381900422E+03  0.31638856562E+03  0.00000000000E+00 0.  1.
         21    1    1    2  502  501  0.35304963844E+02 -0.64232618078E+01 -0.15988357558E+03  0.16386108905E+03  0.00000000000E+00 0. -1.
<scales pt_clust_5="13000.00000" pt_clust_6="13000.00000" pt_clust_7="13000.00000" pt_clust_8="13000.00000" pt_clust_9="35.88452"></scales>
<clustering>
<clus scale="   35.885">  2  9  1 -1</clus>
<clus scale="   90.595">  7  8 -1 -1</clus>
<clus scale="   93.750">  5  6 -1 -1</clus>
<clus scale="  236.530">  1  7  2 -1</clus>
<clus scale="   35.885">  2  5  1 -1</clus>
</clustering>
</event>
<event>
 9    1  0.1296032E-005  0.9812023E+02  0.7546771E-02  0.1285179E+00
         -2   -1    0    0    0  501 -0.00000000000E+00  0.00000000000E+00  0.35688005322E+03  0.35688005322E+03  0.00000000000E+00 0.  1.
          2   -1    0    0  502    0  0.00000000000E+00 -0.00000000000E+00 -0.67982902744E+02  0.67982902744E+02  0.00000000000E+00 0. -1.
         23    2    1    2    0    0 -0.33842942110E+02 -0.46602267808E+01  0.27849362653E+03  0.29444991018E+03  0.89302783529E+02 0.  0.
         23    2    1    2    0    0  0.50523526919E+02 -0.79019102695E+01  0.21722658041E+02  0.10666074077E+03  0.91047091068E+02 0.  0.
        -11    1    3    3    0    0 -0.39746796755E+02 -0.37524669481E+02  0.22372042454E+03  0.23030140475E+03  0.00000000000E+00 0. -1.
         11    1    3    3    0    0  0.59038546447E+01  0.32864442700E+02  0.54773201982E+02  0.64148505431E+02  0.00000000000E+00 0.  1.
        -11    1    4    4    0    0  0.70310770485E+01 -0.29253787572E+02  0.44024591681E+02  0.53323398282E+02  0.00000000000E+00 0.  1.
         11    1    4    4    0    0  0.43492449870E+02  0.21351877302E+02 -0.22301933640E+02  0.53337342492E+02  0.00000000000E+00 0. -1.
         21    1    1    2  502  501 -0.16680584808E+02  0.12562137050E+02 -0.11319134088E+02  0.23752305011E+02  0.00000000000E+00 0.  1.
<scales pt_clust_5="13000.00000" pt_clust_6="13000.00000" pt_clust_7="13000.00000" pt_clust_8="13000.00000" pt_clust_9="20.88179"></scales>
<clustering>
<clus scale="   20.882">  2  9  1 -1</clus>
<clus scale="   89.303">  5  6 -1 -1</clus>
<clus scale="   91.047">  7  8 -1 -1</clus>
<clus scale="   96.504">  1  5  2 -1</clus>
<clus scale="   20.882">  2  5  1 -1</clus>
</clustering>
</event>
<event>
 9    1  0.1296032E-005  0.1194363E+03  0.7546771E-02  0.1244047E+00
          1   -1    0    0  502    0  0.00000000000E+00  0.00000000000E+00  0.14952701557E+03  0.14952701557E+03  0.00000000000E+00 0. -1.
         -1   -1    0    0    0  501 -0.00000000000E+00 -0.00000000000E+00 -0.22932798573E+03  0.22932798573E+03  0.00000000000E+00 0.  1.
         23    2    1    2    0    0 -0.68345364784E+02 -0.31746208174E+02 -0.15761128189E+03  0.19687350454E+03  0.90768661923E+02 0.  0.
         23    2    1    2    0    0  0.87668535055E+02  0.16069528613E+02  0.34189816166E+02  0.13176306563E+03  0.90821584142E+02 0.  0.
        -11    1    4    4    0    0  0.85923523926E+02 -0.18542442525E+02  0.78844879784E+01  0.88254400963E+02  0.00000000000E+00 0. -1.
         11    1    4    4    0    0  0.17450111287E+01  0.34611971139E+02  0.26305328188E+02  0.43508664666E+02  0.00000000000E+00 0.  1.
        -13    1    3    3    0    0 -0.72556940404E+02  0.70706720938E+00 -0.14435449207E+03  0.16156493718E+03  0.00000000000E+00 0.  1.
         13    1    3    3    0    0  0.42115756202E+01 -0.32453275383E+02 -0.13256789821E+02  0.35308567355E+02  0.00000000000E+00 0. -1.
         21    1    1    2  502  501 -0.19323170271E+02  0.15676679560E+02  0.43620495574E+02  0.50218431134E+02  0.00000000000E+00 0.  1.
<scales pt_clust_5="13000.00000" pt_clust_6="13000.00000" pt_clust_7="13000.00000" pt_clust_8="13000.00000" pt_clust_9="24.88259"></scales>
<clustering>
<clus scale="   24.883">  1  9  2 -1</clus>
<clus scale="   90.769">  7  8 -1 -1</clus>
<clus scale="   90.822">  5  6 -1 -1</clus>
<clus scale="  119.396">  2  7  1 -1</clus>
<clus scale="   24.883">  1  5  2 -1</clus>
</clustering>
</event>
<event>
 9    1  0.1296032E-005  0.1072784E+03  0.7546771E-02  0.1266083E+00
          3   -1    0    0  502    0  0.00000000000E+00  0.00000000000E+00  0.18432006783E+03  0.18432006783E+03  0.00000000000E+00 0. -1.
         -3   -1    0    0    0  501 -0.00000000000E+00 -0.00000000000E+00 -0.20272036920E+03  0.20272036920E+03  0.00000000000E+00 0.  1.
         23    2    1    2    0    0  0.47483395822E+02 -0.36047145231E+02 -0.15699451119E+03  0.19090585738E+03  0.90794825191E+02 0.  0.
         23    2    1    2    0    0 -0.37349020487E+02 -0.31083238522E+00  0.84646305920E+02  0.13029398097E+03  0.91741367015E+02 0.  0.
        -11    1    3    3    0    0  0.39179061988E+01  0.22707969518E+02 -0.70923140357E+01  0.24110221629E+02  0.00000000000E+00 0. -1.
         11    1    3    3    0    0  0.43565489624E+02 -0.58755114749E+02 -0.14990219715E+03  0.16679563575E+03  0.00000000000E+00 0.  1.
        -13    1    4    4    0    0  0.19060700045E+02  0.10098085569E+02 -0.65627250341E+01  0.22546640065E+02  0.00000000000E+00 0.  1.
         13    1    4    4    0    0 -0.56409720532E+02 -0.10408917954E+02  0.91209030954E+02  0.10774734090E+03  0.00000000000E+00 0. -1.
         21    1    1    2  502  501 -0.10134375335E+02  0.36357977616E+02  0.53947903895E+02  0.65840598679E+02  0.00000000000E+00 0.  1.
<scales pt_clust_5="13000.00000" pt_clust_6="13000.00000" pt_clust_7="13000.00000" pt_clust_8="13000.00000" pt_clust_9="37.74398"></scales>
<clustering>
<clus scale="   37.744">  1  9  2 -1</clus>
<clus scale="   90.795">  5  6 -1 -1</clus>
<clus scale="   91.741">  7  8 -1 -1</clus>
<clus scale="  106.470">  2  5  1 -1</clus>
<clus scale="   37.744">  1  5  2 -1</clus>
</clustering>
</event>
<event>
 9    1  0.1296032E-005  0.1658781E+03  0.7546771E-02  0.1184700E+00
          1   -1    0    0  502    0  0.00000000000E+00  0.00000000000E+00  0.37315359716E+03  0.37315359716E+03  0.00000000000E+00 0. -1.
         -1   -1    0    0    0  501 -0.00000000000E+00 -0.00000000000E+00 -0.10302676233E+03  0.10302676233E+03  0.00000000000E+00 0.  1.
         23    2    1    2    0    0  0.37122864150E+02  0.13720187125E+03  0.45402045057E+02  0.17546589269E+03  0.92328074201E+02 0.  0.
         23    2    1    2    0    0 -0.54148165626E+02 -0.12102910371E+03  0.12156199497E+03  0.19491285277E+03  0.75057536371E+02 0.  0.
        -11    1    3    3    0    0  0.58900715276E+02  0.91342960082E+02  0.20482756218E+01  0.10870614541E+03  0.00000000000E+00 0.  1.
         11    1    3    3    0    0 -0.21777851125E+02  0.45858911171E+02  0.43353769435E+02  0.66759747286E+02  0.00000000000E+00 0. -1.
        -11    1    4    4    0    0 -0.36885440405E+02 -0.84343930602E+02  0.12383724993E+03  0.15430521318E+03  0.00000000000E+00 0. -1.
         11    1    4    4    0    0 -0.17262725221E+02 -0.36685173111E+02 -0.22752549546E+01  0.40607639593E+02  0.00000000000E+00 0.  1.
         21    1    1    2  502  501  0.17025301475E+02 -0.16172767540E+02  0.10316279480E+03  0.10580161403E+03  0.00000000000E+00 0. -1.
<scales pt_clust_5="13000.00000" pt_clust_6="13000.00000" pt_clust_7="13000.00000" pt_clust_8="13000.00000" pt_clust_9="23.48232"></scales>
<clustering>
<clus scale="   23.482">  1  9  2 -1</clus>
<clus scale="   75.058">  7  8 -1 -1</clus>
<clus scale="   92.328">  5  6 -1 -1</clus>
<clus scale="  156.923">  1  7  2 -1</clus>
<clus scale="   23.482">  1  5  2 -1</clus>
</clustering>
</event>
<event>
 9    1  0.1296032E-005  0.1057631E+03  0.7546771E-02  0.1271131E+00
         -1   -1    0    0    0  501 -0.00000000000E+00  0.00000000000E+00  0.21346417430E+02  0.21346417430E+02  0.00000000000E+00 0.  1.
          1   -1    0    0  502    0  0.00000000000E+00 -0.00000000000E+00 -0.72038117217E+03  0.72038117217E+03  0.00000000000E+00 0. -1.
         23    2    1    2    0    0  0.57410568435E+02 -0.25362081042E+01 -0.25864375536E+03  0.28202918215E+03  0.96651237333E+02 0.  0.
         23    2    1    2    0    0 -0.27007756110E+02 -0.11435256103E+02 -0.28197944676E+03  0.29779178988E+03  0.91144707762E+02 0.  0.
        -11    1    4    4    0    0  0.10717576983E+02  0.30029518067E+02 -0.16526736370E+03  0.16831500205E+03  0.00000000000E+00 0. -1.
         11    1    4    4    0    0 -0.37725333093E+02 -0.41464774170E+02 -0.11671208305E+03  0.12947678782E+03  0.00000000000E+00 0.  1.
        -13    1    3    3    0    0  0.40649590634E+02  0.31557521759E+02 -0.22647536455E+03  0.23224848147E+03  0.00000000000E+00 0.  1.
         13    1    3    3    0    0  0.16760977802E+02 -0.34093729863E+02 -0.32168390816E+02  0.49780700683E+02  0.00000000000E+00 0. -1.
         21    1    1    2  502  501 -0.30402812325E+02  0.13971464207E+02 -0.15841155262E+03  0.16190661757E+03  0.00000000000E+00 0.  1.
<scales pt_clust_5="13000.00000" pt_clust_6="13000.00000" pt_clust_7="13000.00000" pt_clust_8="13000.00000" pt_clust_9="33.45942"></scales>
<clustering>
<clus scale="   33.459">  2  9  1 -1</clus>
<clus scale="   91.145">  5  6 -1 -1</clus>
<clus scale="   96.651">  7  8 -1 -1</clus>
<clus scale="  100.756">  2  5  1 -1</clus>
<clus scale="   33.459">  2  5  1 -1</clus>
</clustering>
</event>
<event>
 9    1  0.1296032E-005  0.1048180E+03  0.7546771E-02  0.1273427E+00
          1   -1    0    0  502    0  0.00000000000E+00  0.00000000000E+00  0.86317725479E+03  0.86317725479E+03  0.00000000000E+00 0. -1.
         -1   -1    0    0    0  501 -0.00000000000E+00 -0.00000000000E+00 -0.17786086092E+02  0.17786086092E+02  0.00000000000E+00 0.  1.
         23    2    1    2    0    0 -0.12483893816E+02 -0.28823480069E+02  0.22399786050E+03  0.24626932485E+03  0.97400709668E+02 0.  0.
         23    2    1    2    0    0  0.19975213420E+02  0.50304089188E+02  0.48857601420E+03  0.49994250390E+03  0.91139865123E+02 0.  0.
        -11    1    3    3    0    0 -0.44535704390E+02 -0.41611951817E+02  0.18187138261E+03  0.19181288620E+03  0.00000000000E+00 0. -1.
         11    1    3    3    0    0  0.32051810574E+02  0.12788471748E+02  0.42126477887E+02  0.54456438645E+02  0.00000000000E+00 0.  1.
        -11    1    4    4    0    0 -0.32000660467E+02  0.41421718022E+02  0.27639996671E+03  0.28131253543E+03  0.00000000000E+00 0. -1.
         11    1    4    4    0    0  0.51975873888E+02  0.88823711668E+01  0.21217604749E+03  0.21862996847E+03  0.00000000000E+00 0.  1.
         21    1    1    2  502  501 -0.74913196048E+01 -0.21480609120E+02  0.13281729400E+03  0.13475151214E+03  0.00000000000E+00 0.  1.
<scales pt_clust_5="13000.00000" pt_clust_6="13000.00000" pt_clust_7="13000.00000" pt_clust_8="13000.00000" pt_clust_9="22.74943"></scales>
<clustering>
<clus scale="   22.749">  1  9  2 -1</clus>
<clus scale="   91.140">  7  8 -1 -1</clus>
<clus scale="   97.401">  5  6 -1 -1</clus>
<clus scale="   99.027">  1  7  2 -1</clus>
<clus scale="   22.749">  1  5  2 -1</clus>
</clustering>
</event>
<event>
 9    1  0.1296032E-005  0.9580065E+02  0.7546771E-02  0.1290777E+00
         -1   -1    0    0    0  501 -0.00000000000E+00  0.00000000000E+00  0.26539449610E+03  0.26539449610E+03  0.00000000000E+00 0.  1.
          1   -1    0    0  502    0  0.00000000000E+00 -0.00000000000E+00 -0.43871901213E+02  0.43871901213E+02  0.00000000000E+00 0. -1.
         23    2    1    2    0    0 -0.35012430865E+02  0.16116443873E+02  0.13847076838E+03  0.16982531592E+03  0.90448184917E+02 0.  0.
         23    2    1    2    0    0  0.23349500254E+02  0.14884766878E+01  0.67228238878E+02  0.11305276761E+03  0.87828682318E+02 0.  0.
        -11    1    4    4    0    0  0.56030881790E+02 -0.72537869901E+01  0.48027265488E+02  0.74153188537E+02  0.00000000000E+00 0.  1.
         11    1    4    4    0    0 -0.32681381536E+02  0.87422636780E+01  0.19200973390E+02  0.38899579078E+02  0.00000000000E+00 0. -1.
        -13    1    3    3    0    0 -0.31221657978E+02  0.37595345395E+02  0.26187987715E+02  0.55443778937E+02  0.00000000000E+00 0. -1.
         13    1    3    3    0    0 -0.37907728862E+01 -0.21478901521E+02  0.11228278066E+03  0.11438153699E+03  0.00000000000E+00 0.  1.
         21    1    1    2  502  501  0.11662930610E+02 -0.17604920561E+02  0.15823587628E+02  0.26388313774E+02  0.00000000000E+00 0. -1.
<scales pt_clust_5="13000.00000" pt_clust_6="13000.00000" pt_clust_7="13000.00000" pt_clust_8="13000.00000" pt_clust_9="21.11770"></scales>
<clustering>
<clus scale="   21.118">  2  9  1 -1</clus>
<clus scale="   87.829">  5  6 -1 -1</clus>
<clus scale="   90.448">  7  8 -1 -1</clus>
<clus scale="   93.331">  2  5  1 -1</clus>
<clus scale="   21.118">  2  5  1 -1</clus>
</clustering>
</event>
<event>
 9    1  0.1296032E-005  0.1487122E+03  0.7546771E-02  0.1225677E+00
         -1   -1    0    0    0  501 -0.00000000000E+00  0.00000000000E+00  0.30146981814E+03  0.30146981814E+03  0.00000000000E+00 0.  1.
          1   -1    0    0  502    0  0.00000000000E+00 -0.00000000000E+00 -0.39979209610E+03  0.39979209610E+03  0.00000000000E+00 0. -1.
         23    2    1    2    0    0  0.10056944986E+02 -0.98696697336E+01  0.40547460030E+02  0.98812950802E+02  0.89001967441E+02 0.  0.
         23    2    1    2    0    0 -0.33951968898E+02  0.12179116970E+03  0.19423123208E+03  0.25023645574E+03  0.94375246001E+02 0.  0.
        -11    1    3    3    0    0 -0.38616359118E+02 -0.92321137004E+01  0.87111417590E+01  0.40648974227E+02  0.00000000000E+00 0.  1.
         11    1    3    3    0    0  0.48673304104E+02 -0.63755603327E+00  0.31836318271E+02  0.58163976576E+02  0.00000000000E+00 0. -1.
        -13    1    4    4    0    0 -0.96096855454E+01  0.88612827528E+02  0.18873143816E+03  0.20872023143E+03  0.00000000000E+00 0.  1.
         13    1    4    4    0    0 -0.24342283353E+02  0.33178342168E+02  0.54997939230E+01  0.41516224311E+02  0.00000000000E+00 0. -1.
         21    1    1    2  502  501  0.23895023912E+02 -0.11192149996E+03 -0.33310097006E+03  0.35221250770E+03  0.00000000000E+00 0. -1.
<scales pt_clust_5="13000.00000" pt_clust_6="13000.00000" pt_clust_7="13000.00000" pt_clust_8="13000.00000" pt_clust_9="114.92878"></scales>
<clustering>
<clus scale="   89.002">  5  6 -1 -1</clus>
<clus scale="   90.111">  1  5  2 -1</clus>
<clus scale="   94.375">  7  8 -1 -1</clus>
<clus scale="  114.929">  2  9  1 -1</clus>
<clus scale="  114.929">  2  5  1 -1</clus>
</clustering>
</event>
<event>
 9    1  0.1296032E-005  0.1237238E+03  0.7546771E-02  0.1238182E+00
          1   -1    0    0  502    0  0.00000000000E+00  0.00000000000E+00  0.81997618954E+02  0.81997618954E+02  0.00000000000E+00 0. -1.
         -1   -1    0    0    0  501 -0.00000000000E+00 -0.00000000000E+00 -0.28506840585E+03  0.28506840585E+03  0.00000000000E+00 0.  1.
         23    2    1    2    0    0 -0.23255334401E+02 -0.67826032888E+02 -0.16361733931E+03  0.20256279396E+03  0.95498012865E+02 0.  0.
         23    2    1    2    0    0  0.25393409752E+02  0.93155738091E+02 -0.39689151744E+02  0.13908235579E+03  0.91901339101E+02 0.  0.
        -11    1    4    4    0    0 -0.10680562185E+02  0.64167248801E+02  0.15686806976E+02  0.66914767730E+02  0.00000000000E+00 0. -1.
         11    1    4    4    0    0  0.36073971936E+02  0.28988489290E+02 -0.55375958720E+02  0.72167588062E+02  0.00000000000E+00 0.  1.
        -11    1    3    3    0    0 -0.21561475050E+02  0.12363899544E+02 -0.57846037392E+01  0.25519107717E+02  0.00000000000E+00 0. -1.
         11    1    3    3    0    0 -0.16938593506E+01 -0.80189932432E+02 -0.15783273557E+03  0.17704368625E+03  0.00000000000E+00 0.  1.
         21    1    1    2  502  501 -0.21380753510E+01 -0.25329705203E+02  0.23570415301E+00  0.25420875050E+02  0.00000000000E+00 0.  1.
<scales pt_clust_5="13000.00000" pt_clust_6="13000.00000" pt_clust_7="13000.00000" pt_clust_8="13000.00000" pt_clust_9="25.41978"></scales>
<clustering>
<clus scale="   25.420">  1  9  2 -1</clus>
<clus scale="   91.901">  5  6 -1 -1</clus>
<clus scale="   95.498">  7  8 -1 -1</clus>
<clus scale="  120.969">  1  5  2 -1</clus>
<clus scale="   25.420">  1  5  2 -1</clus>
</clustering>
</event>
<event>
 9    1  0.1296032E-005  0.9583148E+02  0.7546771E-02  0.1292643E+00
          1   -1    0    0  502    0  0.00000000000E+00  0.00000000000E+00  0.27048385795E+03  0.27048385795E+03  0.00000000000E+00 0. -1.
         -1   -1    0    0    0  501 -0.00000000000E+00 -0.00000000000E+00 -0.56890556283E+02  0.56890556283E+02  0.00000000000E+00 0.  1.
         23    2    1    2    0    0  0.59802191440E+00  0.16997823735E+02  0.14427697081E+02  0.90166504425E+02  0.87364503290E+02 0.  0.
         23    2    1    2    0    0  0.13721408678E+02 -0.38266090148E+02  0.17194609911E+03  0.19981423753E+03  0.93315045980E+02 0.  0.
        -11    1    4    4    0    0  0.45914696082E+02 -0.31808752314E+02  0.55167390347E+02  0.78507305378E+02  0.00000000000E+00 0. -1.
         11    1    4    4    0    0 -0.32193287404E+02 -0.64573378346E+01  0.11677870877E+03  0.12130693215E+03  0.00000000000E+00 0.  1.
        -13    1    3    3    0    0 -0.26737207593E+01 -0.34534992535E+02 -0.49975236044E+01  0.34996996075E+02  0.00000000000E+00 0.  1.
         13    1    3    3    0    0  0.32717426737E+01  0.51532816270E+02  0.19425220686E+02  0.55169508350E+02  0.00000000000E+00 0. -1.
         21    1    1    2  502  501 -0.14319430593E+02  0.21268266413E+02  0.27219505475E+02  0.37393672286E+02  0.00000000000E+00 0.  1.
<scales pt_clust_5="13000.00000" pt_clust_6="13000.00000" pt_clust_7="13000.00000" pt_clust_8="13000.00000" pt_clust_9="25.63953"></scales>
<clustering>
<clus scale="   25.640">  1  9  2 -1</clus>
<clus scale="   87.365">  7  8 -1 -1</clus>
<clus scale="   90.047">  2  7  1 -1</clus>
<clus scale="   93.315">  5  6 -1 -1</clus>
<clus scale="   25.640">  1  5  2 -1</clus>
</clustering>
</event>
<event>
 9    1  0.1296032E-005  0.1251737E+03  0.7546771E-02  0.1235329E+00
         -1   -1    0    0    0  501 -0.00000000000E+00  0.00000000000E+00  0.73975075970E+02  0.73975075970E+02  0.00000000000E+00 0.  1.
          1   -1    0    0  502    0  0.00000000000E+00 -0.00000000000E+00 -0.53948489902E+03  0.53948489902E+03  0.00000000000E+00 0. -1.
         23    2    1    2    0    0 -0.79828924008E+02  0.49316995936E+02 -0.14040573043E+02  0.13066014277E+03  0.89833802218E+02 0.  0.
         23    2    1    2    0    0  0.32409627020E+02 -0.54272872211E+02 -0.22128490141E+03  0.24772966232E+03  0.91689963577E+02 0.  0.
        -11    1    4    4    0    0 -0.21598938420E+02 -0.17529073462E+02 -0.15538700558E+02  0.31862733284E+02  0.00000000000E+00 0.  1.
         11    1    4    4    0    0  0.54008565441E+02 -0.36743798749E+02 -0.20574620085E+03  0.21586692904E+03  0.00000000000E+00 0. -1.
        -13    1    3    3    0    0 -0.67910059018E+01  0.46691125025E+02 -0.29920647208E+02  0.55869705983E+02  0.00000000000E+00 0. -1.
         13    1    3    3    0    0 -0.73037918106E+02  0.26258709110E+01  0.15880074165E+02  0.74790436787E+02  0.00000000000E+00 0.  1.
         21    1    1    2  502  501  0.47419296988E+02  0.49558762749E+01 -0.23018434860E+03  0.23507016990E+03  0.00000000000E+00 0. -1.
<scales pt_clust_5="13000.00000" pt_clust_6="13000.00000" pt_clust_7="13000.00000" pt_clust_8="13000.00000" pt_clust_9="47.67757"></scales>
<clustering>
<clus scale="   47.678">  2  9  1 -1</clus>
<clus scale="   89.834">  7  8 -1 -1</clus>
<clus scale="   91.690">  5  6 -1 -1</clus>
<clus scale="  123.820">  1  7  2 -1</clus>
<clus scale="   47.678">  2  5  1 -1</clus>
</clustering>
</event>
<event>
 9    1  0.1296032E-005  0.1237546E+03  0.7546771E-02  0.1237577E+00
          3   -1    0    0  502    0  0.00000000000E+00  0.00000000000E+00  0.13685063612E+03  0.13685063612E+03  0.00000000000E+00 0. -1.
         -3   -1    0    0    0  501 -0.00000000000E+00 -0.00000000000E+00 -0.18755868879E+03  0.18755868879E+03  0.00000000000E+00 0.  1.
         23    2    1    2    0    0 -0.14788615144E+02 -0.74719356642E+02 -0.57681467406E+02  0.13243656778E+03  0.91709363797E+02 0.  0.
         23    2    1    2    0    0 -0.56864686141E+01  0.93232190840E+02 -0.41591786422E+02  0.13611102739E+03  0.89842961583E+02 0.  0.
        -11    1    4    4    0    0  0.21744576716E+02  0.42681091609E+02 -0.59021904897E+02  0.76013732017E+02  0.00000000000E+00 0.  1.
         11    1    4    4    0    0 -0.27431045330E+02  0.50551099231E+02  0.17430118475E+02  0.60097295375E+02  0.00000000000E+00 0. -1.
        -13    1    3    3    0    0  0.15296291717E+02 -0.66071128756E+02 -0.71207931631E+02  0.98335853698E+02  0.00000000000E+00 0.  1.
         13    1    3    3    0    0 -0.30084906861E+02 -0.86482278854E+01  0.13526464224E+02  0.34100714081E+02  0.00000000000E+00 0. -1.
         21    1    1    2  502  501  0.20475083758E+02 -0.18512834198E+02  0.48565201160E+02  0.55861729732E+02  0.00000000000E+00 0. -1.
<scales pt_clust_5="13000.00000" pt_clust_6="13000.00000" pt_clust_7="13000.00000" pt_clust_8="13000.00000" pt_clust_9="27.60352"></scales>
<clustering>
<clus scale="   27.604">  1  9  2 -1</clus>
<clus scale="   89.843">  5  6 -1 -1</clus>
<clus scale="   91.709">  7  8 -1 -1</clus>
<clus scale="  122.378">  1  5  2 -1</clus>
<clus scale="   27.604">  1  5  2 -1</clus>
</clustering>
</event>
<event>
 9    1  0.1296032E-005  0.1151135E+03  0.7546771E-02  0.1255091E+00
         -3   -1    0    0    0  501 -0.00000000000E+00  0.00000000000E+00  0.16270742641E+03  0.16270742641E+03  0.00000000000E+00 0.  1.
          3   -1    0    0  502    0  0.00000000000E+00 -0.00000000000E+00 -0.17300913572E+03  0.17300913572E+03  0.00000000000E+00 0. -1.
         23    2    1    2    0    0  0.41096534875E+02  0.50032263691E+02  0.88557876352E+02  0.14873386901E+03  0.10043462420E+03 0.  0.
         23    2    1    2    0    0 -0.42743046071E+02 -0.11459519919E+02 -0.25847669755E+02  0.10439148641E+03  0.90946092930E+02 0.  0.
        -13    1    4    4    0    0 -0.14570925858E+02 -0.36318934551E+02  0.20941732989E+02  0.44383928035E+02  0.00000000000E+00 0.  1.
         13    1    4    4    0    0 -0.28172120213E+02  0.24859414631E+02 -0.46789402744E+02  0.60007558376E+02  0.00000000000E+00 0. -1.
        -13    1    3    3    0    0 -0.16133198632E+01  0.71491311168E+02  0.57145435720E+02  0.91538031425E+02  0.00000000000E+00 0. -1.
         13    1    3    3    0    0  0.42709854738E+02 -0.21459047477E+02  0.31412440632E+02  0.57195837583E+02  0.00000000000E+00 0.  1.
         21    1    1    2  502  501  0.16465111961E+01 -0.38572743772E+02 -0.73011915907E+02  0.82591206709E+02  0.00000000000E+00 0. -1.
<scales pt_clust_5="13000.00000" pt_clust_6="13000.00000" pt_clust_7="13000.00000" pt_clust_8="13000.00000" pt_clust_9="38.60787"></scales>
<clustering>
<clus scale="   38.608">  2  9  1 -1</clus>
<clus scale="   90.946">  5  6 -1 -1</clus>
<clus scale="  100.435">  7  8 -1 -1</clus>
<clus scale="  106.935">  2  5  1 -1</clus>
<clus scale="   38.608">  2  5  1 -1</clus>
</clustering>
</event>
<event>
 9    1  0.1296032E-005  0.9570039E+02  0.7546771E-02  0.1293155E+00
         -1   -1    0    0    0  501 -0.00000000000E+00  0.00000000000E+00  0.20376230418E+03  0.20376230418E+03  0.00000000000E+00 0.  1.
          1   -1    0    0  502    0  0.00000000000E+00 -0.00000000000E+00 -0.20325614521E+03  0.20325614521E+03  0.00000000000E+00 0. -1.
         23    2    1    2    0    0  0.22110463570E+02  0.30234246416E+02  0.15642734841E+03  0.18458964390E+03  0.90558484131E+02 0.  0.
         23    2    1    2    0    0 -0.21626012536E+02  0.23922803221E+02 -0.48797939360E+02  0.10239292991E+03  0.84042181534E+02 0.  0.
        -13    1    4    4    0    0 -0.51846676399E+02  0.24623884609E+02 -0.20391765043E+02  0.60911719959E+02  0.00000000000E+00 0.  1.
         13    1    4    4    0    0  0.30220663863E+02 -0.70108138824E+00 -0.28406174317E+02  0.41481209948E+02  0.00000000000E+00 0. -1.
        -13    1    3    3    0    0  0.37545954309E+02 -0.22003123619E+02  0.70829821554E+02  0.83130618639E+02  0.00000000000E+00 0. -1.
         13    1    3    3    0    0 -0.15435490739E+02  0.52237370036E+02  0.85597526855E+02  0.10145902526E+03  0.00000000000E+00 0.  1.
         21    1    1    2  502  501 -0.48445103437E+00 -0.54157049637E+02 -0.10712325008E+03  0.12003587558E+03  0.00000000000E+00 0. -1.
<scales pt_clust_5="13000.00000" pt_clust_6="13000.00000" pt_clust_7="13000.00000" pt_clust_8="13000.00000" pt_clust_9="54.15922"></scales>
<clustering>
<clus scale="   54.159">  2  9  1 -1</clus>
<clus scale="   84.042">  5  6 -1 -1</clus>
<clus scale="   89.559">  2  5  1 -1</clus>
<clus scale="   90.558">  7  8 -1 -1</clus>
<clus scale="   54.159">  2  5  1 -1</clus>
</clustering>
</event>
<event>
 9    1  0.1296032E-005  0.1242140E+03  0.7546771E-02  0.1236556E+00
         -1   -1    0    0    0  501 -0.00000000000E+00  0.00000000000E+00  0.82116370952E+02  0.82116370952E+02  0.00000000000E+00 0.  1.
          1   -1    0    0  502    0  0.00000000000E+00 -0.00000000000E+00 -0.44488903771E+03  0.44488903771E+03  0.00000000000E+00 0. -1.
         23    2    1    2    0    0  0.56767312981E+02  0.55041361789E+02  0.42614342514E+01  0.12107245411E+03  0.91587662881E+02 0.  0.
         23    2    1    2    0    0 -0.66970241485E+02 -0.82681305630E+02 -0.32819217158E+03  0.35718091124E+03  0.92449393288E+02 0.  0.
        -13    1    3    3    0    0  0.53263585957E+02 -0.33451571369E+01 -0.21009799433E+02  0.57355133489E+02  0.00000000000E+00 0. -1.
         13    1    3    3    0    0  0.35037270238E+01  0.58386518926E+02  0.25271233685E+02  0.63717320622E+02  0.00000000000E+00 0.  1.
        -13    1    4    4    0    0 -0.83978825110E+02 -0.62810777192E+02 -0.30389639381E+03  0.32148196679E+03  0.00000000000E+00 0. -1.
         13    1    4    4    0    0  0.17008583626E+02 -0.19870528438E+02 -0.24295777774E+02  0.35698944452E+02  0.00000000000E+00 0.  1.
         21    1    1    2  502  501  0.10202928503E+02  0.27639943841E+02 -0.38841929430E+02  0.48752043315E+02  0.00000000000E+00 0. -1.
<scales pt_clust_5="13000.00000" pt_clust_6="13000.00000" pt_clust_7="13000.00000" pt_clust_8="13000.00000" pt_clust_9="29.46296"></scales>
<clustering>
<clus scale="   29.463">  2  9  1 -1</clus>
<clus scale="   91.588">  5  6 -1 -1</clus>
<clus scale="   92.449">  7  8 -1 -1</clus>
<clus scale="  123.574">  1  5  2 -1</clus>
<clus scale="   29.463">  2  5  1 -1</clus>
</clustering>
</event>
<event>
 9    1  0.1296032E-005  0.1117925E+03  0.7546771E-02  0.1258130E+00
         -2   -1    0    0    0  501 -0.00000000000E+00  0.00000000000E+00  0.52045112271E+03  0.52045112271E+03  0.00000000000E+00 0.  1.
          2   -1    0    0  502    0  0.00000000000E+00 -0.00000000000E+00 -0.19573686161E+03  0.19573686161E+03  0.00000000000E+00 0. -1.
         23    2    1    2    0    0  0.24369935846E+02  0.54080691955E+02  0.37880187935E+03  0.39400988383E+03  0.90743097459E+02 0.  0.
         23    2    1    2    0    0 -0.11600002369E+03 -0.23854828347E+02  0.69133892047E+02  0.16567501289E+03  0.92971267261E+02 0.  0.
        -11    1    3    3    0    0  0.54466176721E+02  0.20430882396E+02  0.15184566980E+03  0.16260717327E+03  0.00000000000E+00 0. -1.
         11    1    3    3    0    0 -0.30096240875E+02  0.33649809559E+02  0.22695620955E+03  0.23140271055E+03  0.00000000000E+00 0.  1.
        -13    1    4    4    0    0 -0.85380262999E+02 -0.31423617295E+02  0.14367829702E+01  0.90990644459E+02  0.00000000000E+00 0. -1.
         13    1    4    4    0    0 -0.30619760686E+02  0.75687889482E+01  0.67697109076E+02  0.74684368431E+02  0.00000000000E+00 0.  1.
         21    1    1    2  502  501  0.91630087839E+02 -0.30225863608E+02 -0.12322151030E+03  0.15650308760E+03  0.00000000000E+00 0. -1.
<scales pt_clust_5="13000.00000" pt_clust_6="13000.00000" pt_clust_7="13000.00000" pt_clust_8="13000.00000" pt_clust_9="96.48666"></scales>
<clustering>
<clus scale="   90.743">  5  6 -1 -1</clus>
<clus scale="   92.971">  7  8 -1 -1</clus>
<clus scale="   96.487">  2  9  1 -1</clus>
<clus scale="  109.946">  1  5  2 -1</clus>
<clus scale="   96.487">  2  5  1 -1</clus>
</clustering>
</event>
<event>
 9    1  0.1296032E-005  0.9518762E+02  0.7546771E-02  0.1294308E+00
          1   -1    0    0  502    0  0.00000000000E+00  0.00000000000E+00  0.56828405484E+03  0.56828405484E+03  0.00000000000E+00 0. -1.
         -1   -1    0    0    0  501 -0.00000000000E+00 -0.00000000000E+00 -0.44615382809E+02  0.44615382809E+02  0.00000000000E+00 0.  1.
         23    2    1    2    0    0  0.20124181641E+02  0.86502804475E+01  0.19936437882E+02  0.91773834318E+02  0.86862909643E+02 0.  0.
         23    2    1    2    0    0 -0.14935239981E+02  0.20404975787E+02  0.29655801680E+03  0.31185953020E+03  0.93114364178E+02 0.  0.
        -11    1    3    3    0    0  0.39898746471E+02 -0.21896726427E+02 -0.75972038847E+01  0.46142107722E+02  0.00000000000E+00 0.  1.
         11    1    3    3    0    0 -0.19774564831E+02  0.30547006874E+02  0.27533641766E+02  0.45631726596E+02  0.00000000000E+00 0. -1.
        -13    1    4    4    0    0 -0.11676674135E+02  0.52160741707E+02  0.10673528710E+03  0.11937130813E+03  0.00000000000E+00 0.  1.
         13    1    4    4    0    0 -0.32585658459E+01 -0.31755765920E+02  0.18982272971E+03  0.19248822207E+03  0.00000000000E+00 0. -1.
         21    1    1    2  502  501 -0.51889416598E+01 -0.29055256234E+02  0.20717421734E+03  0.20926607313E+03  0.00000000000E+00 0. -1.
<scales pt_clust_5="13000.00000" pt_clust_6="13000.00000" pt_clust_7="13000.00000" pt_clust_8="13000.00000" pt_clust_9="29.51496"></scales>
<clustering>
<clus scale="   29.515">  1  9  2 -1</clus>
<clus scale="   86.863">  5  6 -1 -1</clus>
<clus scale="   89.082">  2  5  1 -1</clus>
<clus scale="   93.114">  7  8 -1 -1</clus>
<clus scale="   29.515">  1  5  2 -1</clus>
</clustering>
</event>
<event>
 9    1  0.1296032E-005  0.9251766E+02  0.7546771E-02  0.1297153E+00
         -1   -1    0    0    0  501 -0.00000000000E+00  0.00000000000E+00  0.10921959438E+03  0.10921959438E+03  0.00000000000E+00 0.  1.
          1   -1    0    0  502    0  0.00000000000E+00 -0.00000000000E+00 -0.18307954365E+03  0.18307954365E+03  0.00000000000E+00 0. -1.
         23    2    1    2    0    0  0.12717980219E+02 -0.17216412985E+02  0.45624635105E+02  0.10442387106E+03  0.91458108563E+02 0.  0.
         23    2    1    2    0    0  0.32395118638E+02  0.54418652861E+00 -0.85617414436E+02  0.12905231206E+03  0.90963826569E+02 0.  0.
        -11    1    4    4    0    0  0.61416890146E+02 -0.85018200138E+01 -0.38511766407E+02  0.72989530006E+02  0.00000000000E+00 0. -1.
         11    1    4    4    0    0 -0.29021771509E+02  0.90460065424E+01 -0.47105648030E+02  0.56062782059E+02  0.00000000000E+00 0.  1.
        -13    1    3    3    0    0 -0.11288902795E+02  0.28796111128E+02  0.42322793362E+02  0.52420169595E+02  0.00000000000E+00 0.  1.
         13    1    3    3    0    0  0.24006883014E+02 -0.46012524113E+02  0.33018417433E+01  0.52003701466E+02  0.00000000000E+00 0. -1.
         21    1    1    2  502  501 -0.45113098856E+02  0.16672226457E+02 -0.33867169946E+02  0.58822954904E+02  0.00000000000E+00 0. -1.
<scales pt_clust_5="13000.00000" pt_clust_6="13000.00000" pt_clust_7="13000.00000" pt_clust_8="13000.00000" pt_clust_9="48.09527"></scales>
<clustering>
<clus scale="   48.095">  2  9  1 -1</clus>
<clus scale="   90.964">  5  6 -1 -1</clus>
<clus scale="   91.458">  7  8 -1 -1</clus>
<clus scale="   92.029">  2  5  1 -1</clus>
<clus scale="   48.095">  2  5  1 -1</clus>
</clustering>
</event>
<event>
 9    1  0.1296032E-005  0.1200992E+03  0.7546771E-02  0.1244059E+00
         -1   -1    0    0    0  501 -0.00000000000E+00  0.00000000000E+00  0.25843193145E+03  0.25843193145E+03  0.00000000000E+00 0.  1.
          1   -1    0    0  502    0  0.00000000000E+00 -0.00000000000E+00 -0.13694947242E+03  0.13694947242E+03  0.00000000000E+00 0. -1.
         23    2    1    2    0    0  0.42010597349E+02  0.38320014225E+02  0.78045520000E+02  0.13196917167E+03  0.89952461324E+02 0.  0.
         23    2    1    2    0    0 -0.58385241092E+02 -0.77955443271E+02  0.11675995537E+03  0.17846895161E+03  0.93447268534E+02 0.  0.
        -11    1    3    3    0    0  0.35241202476E+02  0.16551026037E+02  0.95581880357E+02  0.10320743514E+03  0.00000000000E+00 0. -1.
         11    1    3    3    0    0  0.67693948732E+01  0.21768988187E+02 -0.17536360357E+02  0.28761736530E+02  0.00000000000E+00 0.  1.
        -13    1    4    4    0    0 -0.18717121408E+02 -0.59182277151E+02  0.11932915358E+03  0.13450769293E+03  0.00000000000E+00 0.  1.
         13    1    4    4    0    0 -0.39668119684E+02 -0.18773166120E+02 -0.25691982053E+01  0.43961258682E+02  0.00000000000E+00 0. -1.
         21    1    1    2  502  501  0.16374643743E+02  0.39635429046E+02 -0.73323016342E+02  0.84943280599E+02  0.00000000000E+00 0. -1.
<scales pt_clust_5="13000.00000" pt_clust_6="13000.00000" pt_clust_7="13000.00000" pt_clust_8="13000.00000" pt_clust_9="42.88468"></scales>
<clustering>
<clus scale="   42.885">  2  9  1 -1</clus>
<clus scale="   89.952">  5  6 -1 -1</clus>
<clus scale="   93.447">  7  8 -1 -1</clus>
<clus scale="  117.400">  1  5  2 -1</clus>
<clus scale="   42.885">  2  5  1 -1</clus>
</clustering>
</event>
<event>
 9    1  0.1296032E-005  0.1913800E+03  0.7546771E-02  0.1157535E+00
         -2   -1    0    0    0  501 -0.00000000000E+00  0.00000000000E+00  0.18579496289E+03  0.18579496289E+03  0.00000000000E+00 0.  1.
          2   -1    0    0  502    0  0.00000000000E+00 -0.00000000000E+00 -0.29790965407E+03  0.29790965407E+03  0.00000000000E+00 0. -1.
         23    2    1    2    0    0  0.33055233374E+02  0.17348190782E+03  0.38315961796E+02  0.20077888230E+03  0.87495290459E+02 0.  0.
         23    2    1    2    0    0 -0.91783717974E+01 -0.16069448587E+03 -0.64536301637E+02  0.19286207789E+03  0.84403119379E+02 0.  0.
        -11    1    3    3    0    0 -0.11760378637E+02  0.86437523490E+02 -0.16192228103E+02  0.88723955185E+02  0.00000000000E+00 0. -1.
         11    1    3    3    0    0  0.44815612012E+02  0.87044384334E+02  0.54508189899E+02  0.11205492711E+03  0.00000000000E+00 0.  1.
        -13    1    4    4    0    0  0.29588107261E+02 -0.12649660835E+03 -0.42748946451E+02  0.13676373949E+03  0.00000000000E+00 0. -1.
         13    1    4    4    0    0 -0.38766479058E+02 -0.34197877512E+02 -0.21787355186E+02  0.56098338397E+02  0.00000000000E+00 0.  1.
         21    1    1    2  502  501 -0.23876861577E+02 -0.12787421958E+02 -0.85894351343E+02  0.90063656775E+02  0.00000000000E+00 0. -1.
<scales pt_clust_5="13000.00000" pt_clust_6="13000.00000" pt_clust_7="13000.00000" pt_clust_8="13000.00000" pt_clust_9="27.08547"></scales>
<clustering>
<clus scale="   27.085">  2  9  1 -1</clus>
<clus scale="   84.403">  7  8 -1 -1</clus>
<clus scale="   87.495">  5  6 -1 -1</clus>
<clus scale="  189.986">  2  7  1 -1</clus>
<clus scale="   27.085">  2  5  1 -1</clus>
</clustering>
</event>
<event>
 9    1  0.1296032E-005  0.1593234E+03  0.7546771E-02  0.1189546E+00
          2   -1    0    0  502    0  0.00000000000E+00  0.00000000000E+00  0.13753914969E+04  0.13753914969E+04  0.00000000000E+00 0. -1.
         -2   -1    0    0    0  501 -0.00000000000E+00 -0.00000000000E+00 -0.47658402690E+02  0.47658402690E+02  0.00000000000E+00 0.  1.
         23    2    1    2    0    0  0.12562493191E+03 -0.39722476809E-01  0.15909387199E+03  0.22215133846E+03  0.90877565873E+02 0.  0.
         23    2    1    2    0    0 -0.14547007359E+03  0.80639717368E+02  0.70949745837E+03  0.73431379055E+03  0.90364778730E+02 0.  0.
        -13    1    3    3    0    0  0.12596684416E+03  0.20619544554E+02  0.15549973854E+03  0.20117897538E+03  0.00000000000E+00 0. -1.
         13    1    3    3    0    0 -0.34191225036E+00 -0.20659267031E+02  0.35941334510E+01  0.20972363088E+02  0.00000000000E+00 0.  1.
        -13    1    4    4    0    0 -0.36006373317E+02 -0.11286451883E+02  0.75530479311E+02  0.84431606762E+02  0.00000000000E+00 0.  1.
         13    1    4    4    0    0 -0.10946370027E+03  0.91926169252E+02  0.63396697906E+03  0.64988218379E+03  0.00000000000E+00 0. -1.
         21    1    1    2  502  501  0.19845141677E+02 -0.80599994891E+02  0.45914176388E+03  0.46658477061E+03  0.00000000000E+00 0. -1.
<scales pt_clust_5="13000.00000" pt_clust_6="13000.00000" pt_clust_7="13000.00000" pt_clust_8="13000.00000" pt_clust_9="83.00716"></scales>
<clustering>
<clus scale="   83.007">  1  9  2 -1</clus>
<clus scale="   90.365">  7  8 -1 -1</clus>
<clus scale="   90.878">  5  6 -1 -1</clus>
<clus scale="  159.031">  1  7  2 -1</clus>
<clus scale="   83.007">  1  5  2 -1</clus>
</clustering>
</event>
<event>
 9    1  0.1296032E-005  0.1025927E+03  0.7546771E-02  0.1275367E+00
          1   -1    0    0  502    0  0.00000000000E+00  0.00000000000E+00  0.15075043776E+03  0.15075043776E+03  0.00000000000E+00 0. -1.
         -1   -1    0    0    0  501 -0.00000000000E+00 -0.00000000000E+00 -0.29549762978E+03  0.29549762978E+03  0.00000000000E+00 0.  1.
         23    2    1    2    0    0 -0.51762120440E+02  0.10863311409E+02 -0.23368787486E+03  0.25654739366E+03  0.91701764918E+02 0.  0.
         23    2    1    2    0    0  0.55963564036E+01 -0.53636074288E+01  0.42153753992E+01  0.93057504269E+02  0.92638233044E+02 0.  0.
        -13    1    3    3    0    0 -0.19895758204E+02  0.37190498169E+02 -0.19640350332E+03  0.20088133428E+03  0.00000000000E+00 0.  1.
         13    1    3    3    0    0 -0.31866362236E+02 -0.26327186759E+02 -0.37284371540E+02  0.55666059371E+02  0.00000000000E+00 0. -1.
        -13    1    4    4    0    0  0.48753887008E+02 -0.16760474774E+01 -0.40892968996E+01  0.48953784151E+02  0.00000000000E+00 0. -1.
         13    1    4    4    0    0 -0.43157530605E+02 -0.36875599514E+01  0.83046722988E+01  0.44103720118E+02  0.00000000000E+00 0.  1.
         21    1    1    2  502  501  0.46165764036E+02 -0.54997039807E+01  0.84725307440E+02  0.96643169617E+02  0.00000000000E+00 0. -1.
<scales pt_clust_5="13000.00000" pt_clust_6="13000.00000" pt_clust_7="13000.00000" pt_clust_8="13000.00000" pt_clust_9="46.49220"></scales>
<clustering>
<clus scale="   46.492">  1  9  2 -1</clus>
<clus scale="   91.702">  5  6 -1 -1</clus>
<clus scale="   92.638">  7  8 -1 -1</clus>
<clus scale="  101.748">  2  5  1 -1</clus>
<clus scale="   46.492">  1  5  2 -1</clus>
</clustering>
</event>
<event>
 9    1  0.1296032E-005  0.1340201E+03  0.7546771E-02  0.1222602E+00
         -2   -1    0    0    0  501 -0.00000000000E+00  0.00000000000E+00  0.99290051343E+03  0.99290051343E+03  0.00000000000E+00 0.  1.
          2   -1    0    0  502    0  0.00000000000E+00 -0.00000000000E+00 -0.22712233191E+02  0.22712233191E+02  0.00000000000E+00 0. -1.
         23    2    1    2    0    0 -0.65954975443E+02 -0.83718546276E+02  0.59582623066E+03  0.61222598837E+03  0.91939708050E+02 0.  0.
         23    2    1    2    0    0  0.58084183883E+02  0.63448289650E+02  0.34871445614E+03  0.36976189078E+03  0.87878473319E+02 0.  0.
        -11    1    4    4    0    0  0.81468835813E+02  0.47426537252E+02  0.25566630028E+03  0.27249165995E+03  0.00000000000E+00 0. -1.
         11    1    4    4    0    0 -0.23384651930E+02  0.16021752398E+02  0.93048155861E+02  0.97270230826E+02  0.00000000000E+00 0.  1.
        -11    1    3    3    0    0 -0.10102564231E+01 -0.73550707753E+02  0.35821590802E+03  0.36569025689E+03  0.00000000000E+00 0. -1.
         11    1    3    3    0    0 -0.64944719020E+02 -0.10167838523E+02  0.23761032264E+03  0.24653573148E+03  0.00000000000E+00 0.  1.
         21    1    1    2  502  501  0.78707915598E+01  0.20270256626E+02  0.25647593440E+02  0.33624867475E+02  0.00000000000E+00 0. -1.
<scales pt_clust_5="13000.00000" pt_clust_6="13000.00000" pt_clust_7="13000.00000" pt_clust_8="13000.00000" pt_clust_9="21.74472"></scales>
<clustering>
<clus scale="   21.745">  2  9  1 -1</clus>
<clus scale="   87.878">  5  6 -1 -1</clus>
<clus scale="   91.940">  7  8 -1 -1</clus>
<clus scale="  131.267">  2  5  1 -1</clus>
<clus scale="   21.745">  2  5  1 -1</clus>
</clustering>
</event>
<event>
 9    1  0.1296032E-005  0.9877055E+02  0.7546771E-02  0.1286241E+00
         -2   -1    0    0    0  501 -0.00000000000E+00  0.00000000000E+00  0.14491636257E+03  0.14491636257E+03  0.00000000000E+00 0.  1.
          2   -1    0    0  502    0  0.00000000000E+00 -0.00000000000E+00 -0.16619677522E+03  0.16619677522E+03  0.00000000000E+00 0. -1.
         23    2    1    2    0    0 -0.17221016911E+02 -0.23913623183E+02  0.64438264621E+02  0.11516559586E+03  0.90787662846E+02 0.  0.
         23    2    1    2    0    0  0.50709780034E+02  0.32574250073E+02 -0.20219794411E-01  0.10353147554E+03  0.84179584580E+02 0.  0.
        -13    1    4    4    0    0  0.18506036693E+02 -0.28550608550E+02 -0.43816837080E+01  0.34304661414E+02  0.00000000000E+00 0. -1.
         13    1    4    4    0    0  0.32203743341E+02  0.61124858622E+02  0.43614639136E+01  0.69226814128E+02  0.00000000000E+00 0.  1.
        -13    1    3    3    0    0  0.32646543546E+01  0.33520040044E+02  0.15977849527E+02  0.37276570766E+02  0.00000000000E+00 0.  1.
         13    1    3    3    0    0 -0.20485671266E+02 -0.57433663227E+02  0.48460415094E+02  0.77889025093E+02  0.00000000000E+00 0. -1.
         21    1    1    2  502  501 -0.33488763123E+02 -0.86606268900E+01 -0.85698457472E+02  0.92416066389E+02  0.00000000000E+00 0. -1.
<scales pt_clust_5="13000.00000" pt_clust_6="13000.00000" pt_clust_7="13000.00000" pt_clust_8="13000.00000" pt_clust_9="34.59051"></scales>
<clustering>
<clus scale="   34.591">  2  9  1 -1</clus>
<clus scale="   84.180">  5  6 -1 -1</clus>
<clus scale="   90.788">  7  8 -1 -1</clus>
<clus scale="   92.733">  2  5  1 -1</clus>
<clus scale="   34.591">  2  5  1 -1</clus>
</clustering>
</event>
<event>
 9    1  0.1296032E-005  0.1321833E+03  0.7546771E-02  0.1224664E+00
         -2   -1    0    0    0  501 -0.00000000000E+00  0.00000000000E+00  0.81635852312E+02  0.81635852312E+02  0.00000000000E+00 0. -1.
          2   -1    0    0  502    0  0.00000000000E+00 -0.00000000000E+00 -0.41545938975E+03  0.41545938975E+03  0.00000000000E+00 0.  1.
         23    2    1    2    0    0 -0.89182570679E+02  0.99270018046E+00 -0.12514045277E+02  0.12871550175E+03  0.91959570987E+02 0.  0.
         23    2    1    2    0    0  0.11814376089E+03 -0.11958328258E+02 -0.26773901318E+03  0.30650250899E+03  0.90325295385E+02 0.  0.
        -11    1    4    4    0    0  0.95092402894E+02 -0.18607778313E+02 -0.26523621273E+03  0.28238106000E+03  0.00000000000E+00 0.  1.
         11    1    4    4    0    0  0.23051357993E+02  0.66494500546E+01 -0.25028004502E+01  0.24121448992E+02  0.00000000000E+00 0. -1.
        -13    1    3    3    0    0 -0.56549254548E+02  0.31991353763E+02  0.25504720055E+02  0.69797963084E+02  0.00000000000E+00 0. -1.
         13    1    3    3    0    0 -0.32633316130E+02 -0.30998653582E+02 -0.38018765332E+02  0.58917538671E+02  0.00000000000E+00 0.  1.
         21    1    1    2  502  501 -0.28961190209E+02  0.10965628078E+02 -0.53570478986E+02  0.61877231323E+02  0.00000000000E+00 0. -1.
<scales pt_clust_5="13000.00000" pt_clust_6="13000.00000" pt_clust_7="13000.00000" pt_clust_8="13000.00000" pt_clust_9="30.96765"></scales>
<clustering>
<clus scale="   30.968">  2  9  1 -1</clus>
<clus scale="   90.325">  5  6 -1 -1</clus>
<clus scale="   91.960">  7  8 -1 -1</clus>
<clus scale="  131.052">  2  5  1 -1</clus>
<clus scale="   30.968">  2  5  1 -1</clus>
</clustering>
</event>
<event>
 9    1  0.1296032E-005  0.9301852E+02  0.7546771E-02  0.1297014E+00
         -2   -1    0    0    0  501 -0.00000000000E+00  0.00000000000E+00  0.12621744080E+03  0.12621744080E+03  0.00000000000E+00 0.  1.
          2   -1    0    0  502    0  0.00000000000E+00 -0.00000000000E+00 -0.50663689355E+03  0.50663689355E+03  0.00000000000E+00 0. -1.
         23    2    1    2    0    0 -0.11582534925E+02 -0.11987803220E+02  0.99853180641E+02  0.13477746817E+03  0.88974410364E+02 0.  0.
         23    2    1    2    0    0  0.31340521007E+02  0.32869266653E+02 -0.34293758590E+03  0.35776532425E+03  0.91253616193E+02 0.  0.
        -11    1    3    3    0    0 -0.76439134618E+01 -0.42260647444E+02  0.94476558448E+02  0.10377963110E+03  0.00000000000E+00 0.  1.
         11    1    3    3    0    0 -0.39386214635E+01  0.30272844224E+02  0.53766221929E+01  0.30997837064E+02  0.00000000000E+00 0. -1.
        -11    1    4    4    0    0  0.39545084631E+02 -0.16245145584E+02 -0.85920774056E+02  0.95969254910E+02  0.00000000000E+00 0.  1.
         11    1    4    4    0    0 -0.82045636240E+01  0.49114412238E+02 -0.25701681184E+03  0.26179606934E+03  0.00000000000E+00 0. -1.
         21    1    1    2  502  501 -0.19757986082E+02 -0.20881463433E+02 -0.13733504750E+03  0.14031154194E+03  0.00000000000E+00 0. -1.
<scales pt_clust_5="13000.00000" pt_clust_6="13000.00000" pt_clust_7="13000.00000" pt_clust_8="13000.00000" pt_clust_9="28.74741"></scales>
<clustering>
<clus scale="   28.747">  2  9  1 -1</clus>
<clus scale="   88.974">  5  6 -1 -1</clus>
<clus scale="   90.784">  1  5  2 -1</clus>
<clus scale="   91.254">  7  8 -1 -1</clus>
<clus scale="   28.747">  2  5  1 -1</clus>
</clustering>
</event>
<event>
 9    1  0.1296032E-005  0.2578268E+03  0.7546771E-02  0.1108467E+00
         -2   -1    0    0    0  501 -0.00000000000E+00  0.00000000000E+00  0.38115916916E+03  0.38115916916E+03  0.00000000000E+00 0.  1.
          2   -1    0    0  502    0  0.00000000000E+00 -0.00000000000E+00 -0.24981097995E+03  0.24981097995E+03  0.00000000000E+00 0. -1.
         23    2    1    2    0    0 -0.12103821345E+03  0.22157247885E+03  0.19718954689E+03  0.33320172659E+03  0.91624563871E+02 0.  0.
         23    2    1    2    0    0  0.89428167785E+02 -0.20055649401E+03 -0.20655084181E+02  0.23875430625E+03  0.91414888111E+02 0.  0.
        -11    1    4    4    0    0  0.47441992976E+02 -0.18684429630E+02 -0.86097323468E+01  0.51710522132E+02  0.00000000000E+00 0.  1.
         11    1    4    4    0    0  0.41986174809E+02 -0.18187206438E+03 -0.12045351834E+02  0.18704378412E+03  0.00000000000E+00 0. -1.
        -11    1    3    3    0    0 -0.20107266321E+02  0.71770505458E+01 -0.47394238202E+01  0.21869484484E+02  0.00000000000E+00 0. -1.
         11    1    3    3    0    0 -0.10093094713E+03  0.21439542831E+03  0.20192897071E+03  0.31133224211E+03  0.00000000000E+00 0.  1.
         21    1    1    2  502  501  0.31610045664E+02 -0.21015984841E+02 -0.45186273495E+02  0.59014116261E+02  0.00000000000E+00 0. -1.
<scales pt_clust_5="13000.00000" pt_clust_6="13000.00000" pt_clust_7="13000.00000" pt_clust_8="13000.00000" pt_clust_9="37.95875"></scales>
<clustering>
<clus scale="   37.959">  2  9  1 -1</clus>
<clus scale="   91.415">  5  6 -1 -1</clus>
<clus scale="   91.625">  7  8 -1 -1</clus>
<clus scale="  257.752">  2  5  1 -1</clus>
<clus scale="   37.959">  2  5  1 -1</clus>
</clustering>
</event>
<event>
 9    1  0.1296032E-005  0.1057024E+03  0.7546771E-02  0.1268940E+00
          1   -1    0    0  502    0  0.00000000000E+00  0.00000000000E+00  0.20975745238E+03  0.20975745238E+03  0.00000000000E+00 0. -1.
         -1   -1    0    0    0  501 -0.00000000000E+00 -0.00000000000E+00 -0.10234381765E+03  0.10234381765E+03  0.00000000000E+00 0.  1.
         23    2    1    2    0    0  0.34154150573E+02 -0.42099607678E+02 -0.43419227056E+02  0.11410290792E+03  0.90528235096E+02 0.  0.
         23    2    1    2    0    0 -0.16334906291E+02  0.52630991318E+02  0.13532070664E+03  0.17213212030E+03  0.90999575745E+02 0.  0.
        -11    1    4    4    0    0  0.23371896388E+02  0.35225418835E+02  0.11817862826E+03  0.12551200680E+03  0.00000000000E+00 0. -1.
         11    1    4    4    0    0 -0.39706802679E+02  0.17405572483E+02  0.17142078375E+02  0.46620113507E+02  0.00000000000E+00 0.  1.
        -11    1    3    3    0    0 -0.29135635157E+02 -0.33618537300E+01 -0.22621942295E+02  0.37039702613E+02  0.00000000000E+00 0.  1.
         11    1    3    3    0    0  0.63289785730E+02 -0.38737753948E+02 -0.20797284761E+02  0.77063205306E+02  0.00000000000E+00 0. -1.
         21    1    1    2  502  501 -0.17819244282E+02 -0.10531383640E+02  0.15512155149E+02  0.25866241813E+02  0.00000000000E+00 0. -1.
<scales pt_clust_5="13000.00000" pt_clust_6="13000.00000" pt_clust_7="13000.00000" pt_clust_8="13000.00000" pt_clust_9="20.69868"></scales>
<clustering>
<clus scale="   20.699">  1  9  2 -1</clus>
<clus scale="   90.528">  7  8 -1 -1</clus>
<clus scale="   91.000">  5  6 -1 -1</clus>
<clus scale="  105.297">  2  7  1 -1</clus>
<clus scale="   20.699">  1  5  2 -1</clus>
</clustering>
</event>
<event>
 9    1  0.1296032E-005  0.1105215E+03  0.7546771E-02  0.1260682E+00
          1   -1    0    0  502    0  0.00000000000E+00  0.00000000000E+00  0.22425792981E+03  0.22425792981E+03  0.00000000000E+00 0. -1.
         -1   -1    0    0    0  501 -0.00000000000E+00 -0.00000000000E+00 -0.20303379172E+03  0.20303379172E+03  0.00000000000E+00 0.  1.
         23    2    1    2    0    0  0.38734170080E+02  0.83258346694E+02 -0.96163456086E+02  0.16279390266E+03  0.93926334059E+02 0.  0.
         23    2    1    2    0    0 -0.32096653841E+02 -0.50103658365E+01 -0.26679180609E+02  0.10041845172E+03  0.91196424347E+02 0.  0.
        -11    1    4    4    0    0 -0.35728084661E+02  0.33451612415E+02 -0.35902054589E+02  0.60699785258E+02  0.00000000000E+00 0. -1.
         11    1    4    4    0    0  0.36314308194E+01 -0.38461978251E+02  0.92228739802E+01  0.39718666459E+02  0.00000000000E+00 0.  1.
        -13    1    3    3    0    0 -0.20655797777E+02 -0.60467353692E+01 -0.29490523490E+02  0.36509121684E+02  0.00000000000E+00 0. -1.
         13    1    3    3    0    0  0.59389967857E+02  0.89305082063E+02 -0.66672932596E+02  0.12628478097E+03  0.00000000000E+00 0.  1.
         21    1    1    2  502  501 -0.66375162385E+01 -0.78247980857E+02  0.14406677478E+03  0.16407936715E+03  0.00000000000E+00 0. -1.
<scales pt_clust_5="13000.00000" pt_clust_6="13000.00000" pt_clust_7="13000.00000" pt_clust_8="13000.00000" pt_clust_9="78.52900"></scales>
<clustering>
<clus scale="   78.529">  1  9  2 -1</clus>
<clus scale="   91.196">  5  6 -1 -1</clus>
<clus scale="   93.926">  7  8 -1 -1</clus>
<clus scale="  108.211">  1  5  2 -1</clus>
<clus scale="   78.529">  1  5  2 -1</clus>
</clustering>
</event>
<event>
 9    1  0.1296032E-005  0.1488312E+03  0.7546771E-02  0.1202321E+00
          1   -1    0    0  502    0  0.00000000000E+00  0.00000000000E+00  0.15060498412E+03  0.15060498412E+03  0.00000000000E+00 0. -1.
         -1   -1    0    0    0  501 -0.00000000000E+00 -0.00000000000E+00 -0.58961691443E+03  0.58961691443E+03  0.00000000000E+00 0.  1.
         23    2    1    2    0    0 -0.10863679546E+03  0.20974252875E+02 -0.50643666609E+03  0.52585951140E+03  0.88364338755E+02 0.  0.
         23    2    1    2    0    0  0.11874311476E+03  0.83645976699E+01  0.91300343257E+02  0.17520947571E+03  0.90513611687E+02 0.  0.
        -13    1    3    3    0    0 -0.31386190293E+02 -0.67257781700E+01 -0.35641133689E+02  0.47964772946E+02  0.00000000000E+00 0. -1.
         13    1    3    3    0    0 -0.77250605167E+02  0.27700031045E+02 -0.47079553240E+03  0.47789473846E+03  0.00000000000E+00 0.  1.
        -13    1    4    4    0    0  0.58740072460E+01  0.30522932146E+02  0.51646755359E+01  0.31509160911E+02  0.00000000000E+00 0.  1.
         13    1    4    4    0    0  0.11286910752E+03 -0.22158334477E+02  0.86135667721E+02  0.14370031480E+03  0.00000000000E+00 0. -1.
         21    1    1    2  502  501 -0.10106319303E+02 -0.29338850544E+02 -0.23875607483E+02  0.39152911435E+02  0.00000000000E+00 0.  1.
<scales pt_clust_5="13000.00000" pt_clust_6="13000.00000" pt_clust_7="13000.00000" pt_clust_8="13000.00000" pt_clust_9="31.03072"></scales>
<clustering>
<clus scale="   31.031">  2  9  1 -1</clus>
<clus scale="   88.364">  5  6 -1 -1</clus>
<clus scale="   90.514">  7  8 -1 -1</clus>
<clus scale="  147.534">  2  5  1 -1</clus>
<clus scale="  148.831">  1  5  2 -1</clus>
</clustering>
</event>
<event>
 9    1  0.1296032E-005  0.1283408E+03  0.7546771E-02  0.1230635E+00
          1   -1    0    0  502    0  0.00000000000E+00  0.00000000000E+00  0.57387837760E+02  0.57387837760E+02  0.00000000000E+00 0. -1.
         -1   -1    0    0    0  501 -0.00000000000E+00 -0.00000000000E+00 -0.55741619800E+03  0.55741619800E+03  0.00000000000E+00 0.  1.
         23    2    1    2    0    0 -0.26807310277E+02 -0.11656809369E+03 -0.22567775272E+03  0.27212118373E+03  0.93876185549E+02 0.  0.
         23    2    1    2    0    0 -0.33274985001E+02  0.64524005300E+02 -0.12633061971E+03  0.17466979857E+03  0.96330375105E+02 0.  0.
        -11    1    3    3    0    0  0.23795859775E+02 -0.56606662133E+02 -0.15422895399E+03  0.16600339572E+03  0.00000000000E+00 0.  1.
         11    1    3    3    0    0 -0.50603170052E+02 -0.59961431556E+02 -0.71448798723E+02  0.10611778801E+03  0.00000000000E+00 0. -1.
        -11    1    4    4    0    0 -0.57549810640E+02  0.67711345207E+01 -0.58759792568E+02  0.82526009173E+02  0.00000000000E+00 0.  1.
         11    1    4    4    0    0  0.24274825638E+02  0.57752870779E+02 -0.67570827143E+02  0.92143789393E+02  0.00000000000E+00 0. -1.
         21    1    1    2  502  501  0.60082295278E+02  0.52044088390E+02 -0.14801998782E+03  0.16801305347E+03  0.00000000000E+00 0. -1.
<scales pt_clust_5="13000.00000" pt_clust_6="13000.00000" pt_clust_7="13000.00000" pt_clust_8="13000.00000" pt_clust_9="79.48880"></scales>
<clustering>
<clus scale="   79.489">  2  9  1 -1</clus>
<clus scale="   93.876">  5  6 -1 -1</clus>
<clus scale="   96.330">  7  8 -1 -1</clus>
<clus scale="  126.509">  2  5  1 -1</clus>
<clus scale="  128.341">  1  5  2 -1</clus>
</clustering>
</event>
<event>
 9    1  0.1296032E-005  0.1564004E+03  0.7546771E-02  0.1193922E+00
          1   -1    0    0  502    0  0.00000000000E+00  0.00000000000E+00  0.10423552882E+03  0.10423552882E+03  0.00000000000E+00 0. -1.
         -1   -1    0    0    0  501 -0.00000000000E+00 -0.00000000000E+00 -0.42898511425E+03  0.42898511425E+03  0.00000000000E+00 0.  1.
         23    2    1    2    0    0  0.12824097859E+03 -0.32399542698E+02 -0.27844406168E+03  0.32170340919E+03  0.92013635083E+02 0.  0.
         23    2    1    2    0    0 -0.90700445765E+02  0.74365988658E+02 -0.12147627090E+02  0.14565953809E+03  0.85511783174E+02 0.  0.
        -11    1    4    4    0    0 -0.12910027175E+02  0.16721139987E+02 -0.39720825489E+02  0.44988990894E+02  0.00000000000E+00 0.  1.
         11    1    4    4    0    0 -0.77790418590E+02  0.57644848670E+02  0.27573198399E+02  0.10067054720E+03  0.00000000000E+00 0. -1.
        -13    1    3    3    0    0  0.11006793881E+03 -0.13040620343E+02 -0.27294001361E+03  0.29458659162E+03  0.00000000000E+00 0.  1.
         13    1    3    3    0    0  0.18173039785E+02 -0.19358922355E+02 -0.55040480660E+01  0.27116817566E+02  0.00000000000E+00 0. -1.
         21    1    1    2  502  501 -0.37540532826E+02 -0.41966445960E+02 -0.34157896658E+02  0.65857695795E+02  0.00000000000E+00 0. -1.
<scales pt_clust_5="13000.00000" pt_clust_6="13000.00000" pt_clust_7="13000.00000" pt_clust_8="13000.00000" pt_clust_9="56.30696"></scales>
<clustering>
<clus scale="   56.307">  1  9  2 -1</clus>
<clus scale="   85.512">  5  6 -1 -1</clus>
<clus scale="   92.014">  7  8 -1 -1</clus>
<clus scale="  152.666">  1  5  2 -1</clus>
<clus scale="   56.307">  1  5  2 -1</clus>
</clustering>
</event>
<event>
 9    1  0.1296032E-005  0.1903639E+03  0.7546771E-02  0.1158461E+00
         -2   -1    0    0    0  501 -0.00000000000E+00  0.00000000000E+00  0.42575707174E+02  0.42575707174E+02  0.00000000000E+00 0.  1.
          2   -1    0    0  502    0  0.00000000000E+00 -0.00000000000E+00 -0.12424266703E+04  0.12424266703E+04  0.00000000000E+00 0. -1.
         23    2    1    2    0    0 -0.14004842009E+03  0.41413261000E+02 -0.33688692355E+03  0.37821757935E+03  0.90703472437E+02 0.  0.
         23    2    1    2    0    0  0.16517551428E+03 -0.63716883359E+02 -0.84553477350E+03  0.86893507225E+03  0.93681987863E+02 0.  0.
        -11    1    4    4    0    0 -0.57133423889E+01 -0.20034609695E+02 -0.51676398175E+02  0.55717842701E+02  0.00000000000E+00 0.  1.
         11    1    4    4    0    0  0.17088885667E+03 -0.43682273664E+02 -0.79385837532E+03  0.81321722955E+03  0.00000000000E+00 0. -1.
        -13    1    3    3    0    0 -0.10500951119E+03  0.30121183943E+02 -0.13827242395E+03  0.17622016454E+03  0.00000000000E+00 0.  1.
         13    1    3    3    0    0 -0.35038908900E+02  0.11292077057E+02 -0.19861449960E+03  0.20199741481E+03  0.00000000000E+00 0. -1.
         21    1    1    2  502  501 -0.25127094186E+02  0.22303622359E+02 -0.17429266071E+02  0.37849725869E+02  0.00000000000E+00 0.  1.
<scales pt_clust_5="13000.00000" pt_clust_6="13000.00000" pt_clust_7="13000.00000" pt_clust_8="13000.00000" pt_clust_9="33.59795"></scales>
<clustering>
<clus scale="   33.598">  1  9  2 -1</clus>
<clus scale="   90.703">  7  8 -1 -1</clus>
<clus scale="   93.682">  5  6 -1 -1</clus>
<clus scale="  188.916">  1  7  2 -1</clus>
<clus scale="  190.364">  2  5  1 -1</clus>
</clustering>
</event>
<event>
 9    1  0.1296032E-005  0.1075817E+03  0.7546771E-02  0.1267231E+00
         -3   -1    0    0    0  501 -0.00000000000E+00  0.00000000000E+00  0.31875561853E+03  0.31875561853E+03  0.00000000000E+00 0.  1.
          3   -1    0    0  502    0  0.00000000000E+00 -0.00000000000E+00 -0.61651466352E+02  0.61651466352E+02  0.00000000000E+00 0. -1.
         23    2    1    2    0    0 -0.41992425768E+02  0.13096817705E+02  0.15768882373E+03  0.18950479705E+03  0.95453719251E+02 0.  0.
         23    2    1    2    0    0  0.64252359636E+02  0.29089784095E+02  0.76965194473E+02  0.13818395570E+03  0.90534983271E+02 0.  0.
        -11    1    4    4    0    0  0.31134828690E+02 -0.27813376294E+01 -0.15525788682E+02  0.34902199226E+02  0.00000000000E+00 0.  1.
         11    1    4    4    0    0  0.33117530945E+02  0.31871121724E+02  0.92490983155E+02  0.10328175648E+03  0.00000000000E+00 0. -1.
        -13    1    3    3    0    0 -0.39136961570E+02 -0.36165239940E+02  0.61332391141E+02  0.81248314099E+02  0.00000000000E+00 0. -1.
         13    1    3    3    0    0 -0.28554641976E+01  0.49262057645E+02  0.96356432588E+02  0.10825648295E+03  0.00000000000E+00 0.  1.
         21    1    1    2  502  501 -0.22259933868E+02 -0.42186601800E+02  0.22450133975E+02  0.52718332131E+02  0.00000000000E+00 0. -1.
<scales pt_clust_5="13000.00000" pt_clust_6="13000.00000" pt_clust_7="13000.00000" pt_clust_8="13000.00000" pt_clust_9="47.69920"></scales>
<clustering>
<clus scale="   47.699">  2  9  1 -1</clus>
<clus scale="   90.535">  5  6 -1 -1</clus>
<clus scale="   95.454">  7  8 -1 -1</clus>
<clus scale="  103.242">  2  5  1 -1</clus>
<clus scale="   47.699">  2  5  1 -1</clus>
</clustering>
</event>
<event>
 9    1  0.1296032E-005  0.9864610E+02  0.7546771E-02  0.1283558E+00
          2   -1    0    0  502    0  0.00000000000E+00  0.00000000000E+00  0.45221868980E+02  0.45221868980E+02  0.00000000000E+00 0. -1.
         -2   -1    0    0    0  501 -0.00000000000E+00 -0.00000000000E+00 -0.45890691187E+03  0.45890691187E+03  0.00000000000E+00 0.  1.
         23    2    1    2    0    0  0.28574780726E+02 -0.27112173366E+02 -0.31418721279E+03  0.32968042249E+03  0.91782287262E+02 0.  0.
         23    2    1    2    0    0 -0.35756997769E+02 -0.29186439822E+00 -0.10719657109E+03  0.14509131252E+03  0.91004044090E+02 0.  0.
        -11    1    4    4    0    0  0.52948281005E+01  0.39438712779E+02 -0.34755468252E+02  0.52833605250E+02  0.00000000000E+00 0. -1.
         11    1    4    4    0    0 -0.41051825870E+02 -0.39730577177E+02 -0.72441102837E+02  0.92257707268E+02  0.00000000000E+00 0.  1.
        -13    1    3    3    0    0  0.33512669339E+02 -0.58863898066E+02 -0.21099294468E+03  0.22159891743E+03  0.00000000000E+00 0.  1.
         13    1    3    3    0    0 -0.49378886130E+01  0.31751724700E+02 -0.10319426811E+03  0.10808150506E+03  0.00000000000E+00 0. -1.
         21    1    1    2  502  501  0.71822170432E+01  0.27404037764E+02  0.76987409926E+01  0.29357045838E+02  0.00000000000E+00 0. -1.
<scales pt_clust_5="13000.00000" pt_clust_6="13000.00000" pt_clust_7="13000.00000" pt_clust_8="13000.00000" pt_clust_9="28.32959"></scales>
<clustering>
<clus scale="   28.330">  1  9  2 -1</clus>
<clus scale="   91.004">  5  6 -1 -1</clus>
<clus scale="   91.782">  7  8 -1 -1</clus>
<clus scale="   97.922">  1  5  2 -1</clus>
<clus scale="   28.330">  1  5  2 -1</clus>
</clustering>
</event>
<event>
 9    1  0.1296032E-005  0.1088160E+03  0.7546771E-02  0.1263213E+00
         -2   -1    0    0    0  501 -0.00000000000E+00  0.00000000000E+00  0.33053306132E+02  0.33053306132E+02  0.00000000000E+00 0.  1.
          2   -1    0    0  502    0  0.00000000000E+00 -0.00000000000E+00 -0.75550181558E+03  0.75550181558E+03  0.00000000000E+00 0. -1.
         23    2    1    2    0    0 -0.48780297921E+02  0.23987503561E+02 -0.19584690930E+03  0.22306917298E+03  0.91918040978E+02 0.  0.
         23    2    1    2    0    0  0.63829313567E+02  0.41021000536E+02 -0.20954489043E+03  0.24148357891E+03  0.92996526936E+02 0.  0.
        -11    1    3    3    0    0 -0.60169037969E+02 -0.13046222605E+02 -0.15494844026E+03  0.16673192914E+03  0.00000000000E+00 0. -1.
         11    1    3    3    0    0  0.11388740047E+02  0.37033726166E+02 -0.40898469039E+02  0.56337243839E+02  0.00000000000E+00 0.  1.
        -11    1    4    4    0    0  0.82412987628E+02  0.89120557174E+01 -0.14226729762E+03  0.16465512212E+03  0.00000000000E+00 0.  1.
         11    1    4    4    0    0 -0.18583674061E+02  0.32108944818E+02 -0.67277592810E+02  0.76828456794E+02  0.00000000000E+00 0. -1.
         21    1    1    2  502  501 -0.15049015646E+02 -0.65008504097E+02 -0.31705670972E+03  0.32400236983E+03  0.00000000000E+00 0. -1.
<scales pt_clust_5="13000.00000" pt_clust_6="13000.00000" pt_clust_7="13000.00000" pt_clust_8="13000.00000" pt_clust_9="66.72764"></scales>
<clustering>
<clus scale="   66.728">  2  9  1 -1</clus>
<clus scale="   91.918">  5  6 -1 -1</clus>
<clus scale="   92.997">  7  8 -1 -1</clus>
<clus scale="  107.896">  1  5  2 -1</clus>
<clus scale="   66.728">  2  5  1 -1</clus>
</clustering>
</event>
<event>
 9    1  0.1296032E-005  0.1838719E+03  0.7546771E-02  0.1164294E+00
          2   -1    0    0  502    0  0.00000000000E+00  0.00000000000E+00  0.87662204090E+03  0.87662204090E+03  0.00000000000E+00 0. -1.
         -2   -1    0    0    0  501 -0.00000000000E+00 -0.00000000000E+00 -0.59388403287E+02  0.59388403287E+02  0.00000000000E+00 0.  1.
         23    2    1    2    0    0 -0.51776492716E+02 -0.15106389949E+03  0.27177927459E+03  0.32828496571E+03  0.91683900930E+02 0.  0.
         23    2    1    2    0    0 -0.18059066672E+02  0.16656110237E+03  0.33238890722E+03  0.38297215345E+03  0.90091919531E+02 0.  0.
        -11    1    3    3    0    0 -0.78321435239E+02 -0.11838382543E+03  0.20524794261E+03  0.24955098735E+03  0.00000000000E+00 0.  1.
         11    1    3    3    0    0  0.26544942523E+02 -0.32680074064E+02  0.66531331976E+02  0.78733978363E+02  0.00000000000E+00 0. -1.
        -13    1    4    4    0    0  0.12672968198E+02  0.28089043466E+02  0.14341437348E+03  0.14668769889E+03  0.00000000000E+00 0.  1.
         13    1    4    4    0    0 -0.30732034870E+02  0.13847205890E+03  0.18897453374E+03  0.23628445456E+03  0.00000000000E+00 0. -1.
         21    1    1    2  502  501  0.69835559388E+02 -0.15497202873E+02  0.21306545581E+03  0.22475332503E+03  0.00000000000E+00 0. -1.
<scales pt_clust_5="13000.00000" pt_clust_6="13000.00000" pt_clust_7="13000.00000" pt_clust_8="13000.00000" pt_clust_9="71.53439"></scales>
<clustering>
<clus scale="   71.534">  1  9  2 -1</clus>
<clus scale="   90.092">  7  8 -1 -1</clus>
<clus scale="   91.684">  5  6 -1 -1</clus>
<clus scale="  183.083">  1  7  2 -1</clus>
<clus scale="   71.534">  1  5  2 -1</clus>
</clustering>
</event>
<event>
 9    1  0.1296032E-005  0.1087832E+03  0.7546771E-02  0.1263391E+00
         -2   -1    0    0    0  501 -0.00000000000E+00  0.00000000000E+00  0.24580873049E+03  0.24580873049E+03  0.00000000000E+00 0.  1.
          2   -1    0    0  502    0  0.00000000000E+00 -0.00000000000E+00 -0.97183519718E+02  0.97183519718E+02  0.00000000000E+00 0. -1.
         23    2    1    2    0    0  0.20685985342E+02  0.55285185433E+02  0.16629337822E+03  0.19860278937E+03  0.91132972016E+02 0.  0.
         23    2    1    2    0    0 -0.48254130383E+02 -0.45635211383E+02 -0.24709991531E+02  0.11434429639E+03  0.89738513572E+02 0.  0.
        -11    1    3    3    0    0 -0.11929085590E+02  0.34699416178E+02  0.15371719066E+03  0.15803584173E+03  0.00000000000E+00 0.  1.
         11    1    3    3    0    0  0.32615070932E+02  0.20585769255E+02  0.12576187563E+02  0.40566947646E+02  0.00000000000E+00 0. -1.
        -13    1    4    4    0    0 -0.25177951805E+02  0.25853079842E+02 -0.12772877227E+02  0.38281292912E+02  0.00000000000E+00 0.  1.
         13    1    4    4    0    0 -0.23076178579E+02 -0.71488291224E+02 -0.11937114304E+02  0.76063003476E+02  0.00000000000E+00 0. -1.
         21    1    1    2  502  501  0.27568145041E+02 -0.96499740500E+01  0.70418240808E+01  0.30045164446E+02  0.00000000000E+00 0.  1.
<scales pt_clust_5="13000.00000" pt_clust_6="13000.00000" pt_clust_7="13000.00000" pt_clust_8="13000.00000" pt_clust_9="29.20830"></scales>
<clustering>
<clus scale="   29.208">  2  9  1 -1</clus>
<clus scale="   89.739">  7  8 -1 -1</clus>
<clus scale="   91.133">  5  6 -1 -1</clus>
<clus scale="  107.618">  2  7  1 -1</clus>
<clus scale="   29.208">  2  5  1 -1</clus>
</clustering>
</event>
<event>
 9    1  0.1296032E-005  0.1299957E+03  0.7546771E-02  0.1244640E+00
         -1   -1    0    0    0  501 -0.00000000000E+00  0.00000000000E+00  0.58060069619E+02  0.58060069619E+02  0.00000000000E+00 0.  1.
          1   -1    0    0  502    0  0.00000000000E+00 -0.00000000000E+00 -0.68145563562E+03  0.68145563562E+03  0.00000000000E+00 0. -1.
         23    2    1    2    0    0  0.12665250848E+02  0.30181018576E+01 -0.27969140119E+02  0.95677721717E+02  0.90567301584E+02 0.  0.
         23    2    1    2    0    0  0.78645168242E+02 -0.23411420992E+02 -0.18335185807E+03  0.22127564547E+03  0.92800055499E+02 0.  0.
        -11    1    4    4    0    0 -0.15881417922E+02 -0.23082897033E+02 -0.29346090954E+02  0.40573792341E+02  0.00000000000E+00 0.  1.
         11    1    4    4    0    0  0.94526586165E+02 -0.32852395927E+00 -0.15400576711E+03  0.18070185313E+03  0.00000000000E+00 0. -1.
        -13    1    3    3    0    0  0.34676953163E+02  0.19439014954E+02 -0.47528507979E+02  0.61962290579E+02  0.00000000000E+00 0. -1.
         13    1    3    3    0    0 -0.22011702315E+02 -0.16420913097E+02  0.19559367861E+02  0.33715431138E+02  0.00000000000E+00 0.  1.
         21    1    1    2  502  501 -0.91310419091E+02  0.20393319135E+02 -0.41207456781E+03  0.42256233805E+03  0.00000000000E+00 0. -1.
<scales pt_clust_5="13000.00000" pt_clust_6="13000.00000" pt_clust_7="13000.00000" pt_clust_8="13000.00000" pt_clust_9="91.03315"></scales>
<clustering>
<clus scale="   90.567">  7  8 -1 -1</clus>
<clus scale="   91.498">  1  7  2 -1</clus>
<clus scale="   91.033">  2  9  1 -1</clus>
<clus scale="   92.800">  5  6 -1 -1</clus>
<clus scale="   91.033">  2  5  1 -1</clus>
</clustering>
</event>
<event>
 9    1  0.1296032E-005  0.1151511E+03  0.7546771E-02  0.1254921E+00
         -3   -1    0    0    0  501 -0.00000000000E+00  0.00000000000E+00  0.29397215378E+02  0.29397215378E+02  0.00000000000E+00 0.  1.
          3   -1    0    0  502    0  0.00000000000E+00 -0.00000000000E+00 -0.54603722008E+03  0.54603722008E+03  0.00000000000E+00 0. -1.
         23    2    1    2    0    0 -0.47346016796E+02  0.74795105953E+01 -0.19501792563E+03  0.22025172154E+03  0.90450213580E+02 0.  0.
         23    2    1    2    0    0  0.66856154502E+02 -0.13576184606E+02 -0.21516436926E+03  0.24678041282E+03  0.99753737607E+02 0.  0.
        -11    1    4    4    0    0  0.55560513448E+02 -0.49767751312E+02 -0.95043395158E+02  0.12081823823E+03  0.00000000000E+00 0.  1.
         11    1    4    4    0    0  0.11295641054E+02  0.36191566706E+02 -0.12012097410E+03  0.12596217459E+03  0.00000000000E+00 0. -1.
        -13    1    3    3    0    0 -0.52652387296E+01 -0.39178404907E+02 -0.76307513003E+02  0.85938970733E+02  0.00000000000E+00 0.  1.
         13    1    3    3    0    0 -0.42080778067E+02  0.46657915503E+02 -0.11871041263E+03  0.13431275080E+03  0.00000000000E+00 0. -1.
         21    1    1    2  502  501 -0.19510137706E+02  0.60966740106E+01 -0.10645770981E+03  0.10840230111E+03  0.00000000000E+00 0. -1.
<scales pt_clust_5="13000.00000" pt_clust_6="13000.00000" pt_clust_7="13000.00000" pt_clust_8="13000.00000" pt_clust_9="20.44052"></scales>
<clustering>
<clus scale="   20.441">  2  9  1 -1</clus>
<clus scale="   90.450">  7  8 -1 -1</clus>
<clus scale="   99.754">  5  6 -1 -1</clus>
<clus scale="  107.192">  1  7  2 -1</clus>
<clus scale="   20.441">  2  5  1 -1</clus>
</clustering>
</event>
<event>
 9    1  0.1296032E-005  0.1087647E+03  0.7546771E-02  0.1263662E+00
          1   -1    0    0  502    0  0.00000000000E+00  0.00000000000E+00  0.45884246615E+03  0.45884246615E+03  0.00000000000E+00 0. -1.
         -1   -1    0    0    0  501 -0.00000000000E+00 -0.00000000000E+00 -0.39097970784E+02  0.39097970784E+02  0.00000000000E+00 0.  1.
         23    2    1    2    0    0  0.50584169128E+02  0.37928038183E+01  0.10076819782E+03  0.14493578209E+03  0.90989052690E+02 0.  0.
         23    2    1    2    0    0 -0.62800580127E+02 -0.32429984595E+02  0.21749769293E+03  0.24685741742E+03  0.92939342247E+02 0.  0.
        -11    1    3    3    0    0  0.36553430676E+02  0.22771822301E+02  0.17053687462E+01  0.43100086632E+02  0.00000000000E+00 0.  1.
         11    1    3    3    0    0  0.14030738452E+02 -0.18979018483E+02  0.99062829078E+02  0.10183569546E+03  0.00000000000E+00 0. -1.
        -11    1    4    4    0    0  0.22435777811E+02  0.58723253797E+01  0.47917974043E+02  0.53235144104E+02  0.00000000000E+00 0. -1.
         11    1    4    4    0    0 -0.85236357938E+02 -0.38302309975E+02  0.16957971889E+03  0.19362227331E+03  0.00000000000E+00 0.  1.
         21    1    1    2  502  501  0.12216410999E+02  0.28637180777E+02  0.10147860461E+03  0.10614723743E+03  0.00000000000E+00 0. -1.
<scales pt_clust_5="13000.00000" pt_clust_6="13000.00000" pt_clust_7="13000.00000" pt_clust_8="13000.00000" pt_clust_9="31.13405"></scales>
<clustering>
<clus scale="   31.134">  1  9  2 -1</clus>
<clus scale="   90.989">  5  6 -1 -1</clus>
<clus scale="   92.939">  7  8 -1 -1</clus>
<clus scale="  107.103">  2  5  1 -1</clus>
<clus scale="   31.134">  1  5  2 -1</clus>
</clustering>
</event>
<event>
 9    1  0.1296032E-005  0.9197244E+02  0.7546771E-02  0.1298549E+00
          1   -1    0    0  502    0  0.00000000000E+00  0.00000000000E+00  0.52420324942E+02  0.52420324942E+02  0.00000000000E+00 0. -1.
         -1   -1    0    0    0  501 -0.00000000000E+00 -0.00000000000E+00 -0.40701712649E+03  0.40701712649E+03  0.00000000000E+00 0.  1.
         23    2    1    2    0    0 -0.57477945783E+01 -0.14116961905E+02 -0.30657770012E+03  0.31997398502E+03  0.90339023258E+02 0.  0.
         23    2    1    2    0    0 -0.15516341854E+02  0.92693541053E+01 -0.63731453624E+02  0.11258334716E+03  0.91030951256E+02 0.  0.
        -11    1    4    4    0    0 -0.39488844827E+02  0.36312752448E+02 -0.51673570305E+02  0.74485855866E+02  0.00000000000E+00 0.  1.
         11    1    4    4    0    0  0.23972502972E+02 -0.27043398343E+02 -0.12057883320E+02  0.38097491293E+02  0.00000000000E+00 0. -1.
        -13    1    3    3    0    0  0.19751646846E+02  0.32693004698E+02 -0.12014508827E+03  0.12607062444E+03  0.00000000000E+00 0. -1.
         13    1    3    3    0    0 -0.25499441424E+02 -0.46809966603E+02 -0.18643261185E+03  0.19390336058E+03  0.00000000000E+00 0.  1.
         21    1    1    2  502  501  0.21264136433E+02  0.48476078001E+01  0.15712352194E+02  0.26880119254E+02  0.00000000000E+00 0. -1.
<scales pt_clust_5="13000.00000" pt_clust_6="13000.00000" pt_clust_7="13000.00000" pt_clust_8="13000.00000" pt_clust_9="21.80970"></scales>
<clustering>
<clus scale="   21.810">  1  9  2 -1</clus>
<clus scale="   90.339">  7  8 -1 -1</clus>
<clus scale="   91.031">  5  6 -1 -1</clus>
<clus scale="   91.288">  2  7  1 -1</clus>
<clus scale="   21.810">  1  5  2 -1</clus>
</clustering>
</event>
<event>
 9    1  0.1296032E-005  0.1424394E+03  0.7546771E-02  0.1213466E+00
         -1   -1    0    0    0  501 -0.00000000000E+00  0.00000000000E+00  0.10826101099E+04  0.10826101099E+04  0.00000000000E+00 0.  1.
          1   -1    0    0  502    0  0.00000000000E+00 -0.00000000000E+00 -0.27619825758E+02  0.27619825758E+02  0.00000000000E+00 0. -1.
         23    2    1    2    0    0  0.15437490768E+02  0.10155240454E+03  0.66813362788E+03  0.68021140009E+03  0.75721840426E+02 0.  0.
         23    2    1    2    0    0 -0.74895575332E+01 -0.12831671314E+03  0.30469077500E+03  0.34323875739E+03  0.91951638721E+02 0.  0.
        -11    1    3    3    0    0  0.38864564482E+02  0.95666275936E+02  0.55569253277E+03  0.56520499086E+03  0.00000000000E+00 0.  1.
         11    1    3    3    0    0 -0.23427073714E+02  0.58861286047E+01  0.11244109512E+03  0.11500640923E+03  0.00000000000E+00 0. -1.
        -13    1    4    4    0    0 -0.35326866870E+02 -0.10816036370E+03  0.27576803406E+03  0.29831972849E+03  0.00000000000E+00 0. -1.
         13    1    4    4    0    0  0.27837309337E+02 -0.20156349437E+02  0.28922740938E+02  0.44919028898E+02  0.00000000000E+00 0.  1.
         21    1    1    2  502  501 -0.79479332348E+01  0.26764308596E+02  0.82165881285E+02  0.86779778201E+02  0.00000000000E+00 0.  1.
<scales pt_clust_5="13000.00000" pt_clust_6="13000.00000" pt_clust_7="13000.00000" pt_clust_8="13000.00000" pt_clust_9="27.91949"></scales>
<clustering>
<clus scale="   27.919">  2  9  1 -1</clus>
<clus scale="   75.722">  5  6 -1 -1</clus>
<clus scale="   91.952">  7  8 -1 -1</clus>
<clus scale="  132.543">  1  5  2 -1</clus>
<clus scale="   27.919">  2  5  1 -1</clus>
</clustering>
</event>
<event>
 9    1  0.1296032E-005  0.9267931E+02  0.7546771E-02  0.1298999E+00
         -4   -1    0    0    0  501 -0.00000000000E+00  0.00000000000E+00  0.12768172839E+03  0.12768172839E+03  0.00000000000E+00 0.  1.
          4   -1    0    0  502    0  0.00000000000E+00 -0.00000000000E+00 -0.20619440625E+03  0.20619440625E+03  0.00000000000E+00 0. -1.
         23    2    1    2    0    0  0.23058329837E+01  0.14479326174E+02  0.84288523311E+02  0.12227317080E+03  0.87356770683E+02 0.  0.
         23    2    1    2    0    0 -0.32961961089E+02  0.54642360954E+00 -0.14008100495E+03  0.17059346904E+03  0.91611430915E+02 0.  0.
        -11    1    3    3    0    0 -0.41634792495E+02 -0.17407366022E+01  0.37284138989E+02  0.55915947011E+02  0.00000000000E+00 0.  1.
         11    1    3    3    0    0  0.43940625478E+02  0.16220062776E+02  0.47004384322E+02  0.66357223792E+02  0.00000000000E+00 0. -1.
        -13    1    4    4    0    0 -0.14445417013E+02 -0.42013333811E+02 -0.38021103390E+02  0.58475589725E+02  0.00000000000E+00 0.  1.
         13    1    4    4    0    0 -0.18516544076E+02  0.42559757421E+02 -0.10205990156E+03  0.11211787932E+03  0.00000000000E+00 0. -1.
         21    1    1    2  502  501  0.30656128105E+02 -0.15025749783E+02 -0.22720196219E+02  0.41009494793E+02  0.00000000000E+00 0. -1.
<scales pt_clust_5="13000.00000" pt_clust_6="13000.00000" pt_clust_7="13000.00000" pt_clust_8="13000.00000" pt_clust_9="34.14046"></scales>
<clustering>
<clus scale="   34.140">  2  9  1 -1</clus>
<clus scale="   87.357">  5  6 -1 -1</clus>
<clus scale="   88.476">  1  5  2 -1</clus>
<clus scale="   91.611">  7  8 -1 -1</clus>
<clus scale="   34.140">  2  5  1 -1</clus>
</clustering>
</event>
<event>
 9    1  0.1296032E-005  0.1216341E+03  0.7546771E-02  0.1243904E+00
         -1   -1    0    0    0  501 -0.00000000000E+00  0.00000000000E+00  0.45051766832E+02  0.45051766832E+02  0.00000000000E+00 0.  1.
          1   -1    0    0  502    0  0.00000000000E+00 -0.00000000000E+00 -0.69010588807E+03  0.69010588807E+03  0.00000000000E+00 0. -1.
         23    2    1    2    0    0 -0.10864459929E+03 -0.41967536537E+02 -0.19800021514E+03  0.24709615919E+03  0.91035727127E+02 0.  0.
         23    2    1    2    0    0  0.33227156855E+02  0.39433937145E+02 -0.32814020016E+03  0.34722584962E+03  0.10114702334E+03 0.  0.
        -13    1    4    4    0    0  0.45233570373E+01 -0.32755534790E+02 -0.13627937668E+03  0.14023357062E+03  0.00000000000E+00 0.  1.
         13    1    4    4    0    0  0.28703799818E+02  0.72189471935E+02 -0.19186082348E+03  0.20699227900E+03  0.00000000000E+00 0. -1.
        -13    1    3    3    0    0 -0.10759503500E+03 -0.10290534801E+02 -0.11295734201E+03  0.15633920742E+03  0.00000000000E+00 0.  1.
         13    1    3    3    0    0 -0.10495642902E+01 -0.31677001736E+02 -0.85042873132E+02  0.90756951770E+02  0.00000000000E+00 0. -1.
         21    1    1    2  502  501  0.75417442437E+02  0.25335993916E+01 -0.11891370593E+03  0.14083564608E+03  0.00000000000E+00 0. -1.
<scales pt_clust_5="13000.00000" pt_clust_6="13000.00000" pt_clust_7="13000.00000" pt_clust_8="13000.00000" pt_clust_9="75.45999"></scales>
<clustering>
<clus scale="   75.460">  1  9  2 -1</clus>
<clus scale="   91.036">  7  8 -1 -1</clus>
<clus scale="  101.147">  5  6 -1 -1</clus>
<clus scale="  113.365">  1  7  2 -1</clus>
<clus scale="  121.634">  2  5  1 -1</clus>
</clustering>
</event>
<event>
 9    1  0.1296032E-005  0.1103889E+03  0.7546771E-02  0.1261542E+00
         -2   -1    0    0    0  501 -0.00000000000E+00  0.00000000000E+00  0.10901734878E+03  0.10901734878E+03  0.00000000000E+00 0.  1.
          2   -1    0    0  502    0  0.00000000000E+00 -0.00000000000E+00 -0.16667630427E+03  0.16667630427E+03  0.00000000000E+00 0. -1.
         23    2    1    2    0    0  0.20447093921E+02 -0.59389059186E+02  0.38955794079E+02  0.11673809337E+03  0.90360857400E+02 0.  0.
         23    2    1    2    0    0 -0.83082649039E+01  0.41306213793E+02 -0.72190128791E+02  0.12623091197E+03  0.94591743182E+02 0.  0.
        -11    1    4    4    0    0 -0.32209988727E+02 -0.18205711418E+02 -0.39948498828E+02  0.54450104321E+02  0.00000000000E+00 0.  1.
         11    1    4    4    0    0  0.23901723823E+02  0.59511925210E+02 -0.32241629963E+02  0.71780807648E+02  0.00000000000E+00 0. -1.
        -13    1    3    3    0    0  0.27234157262E+02 -0.39733501129E+02  0.66569629119E+02  0.82170347174E+02  0.00000000000E+00 0.  1.
         13    1    3    3    0    0 -0.67870633409E+01 -0.19655558057E+02 -0.27613835040E+02  0.34567746194E+02  0.00000000000E+00 0. -1.
         21    1    1    2  502  501 -0.12138829017E+02  0.18082845393E+02 -0.24424620779E+02  0.32724647708E+02  0.00000000000E+00 0. -1.
<scales pt_clust_5="13000.00000" pt_clust_6="13000.00000" pt_clust_7="13000.00000" pt_clust_8="13000.00000" pt_clust_9="21.77936"></scales>
<clustering>
<clus scale="   21.779">  2  9  1 -1</clus>
<clus scale="   90.361">  7  8 -1 -1</clus>
<clus scale="   94.592">  5  6 -1 -1</clus>
<clus scale="  106.786">  1  7  2 -1</clus>
<clus scale="   21.779">  2  5  1 -1</clus>
</clustering>
</event>
<event>
 9    1  0.1296032E-005  0.1072120E+03  0.7546771E-02  0.1268956E+00
         -2   -1    0    0    0  501 -0.00000000000E+00  0.00000000000E+00  0.45847959161E+03  0.45847959161E+03  0.00000000000E+00 0.  1.
          2   -1    0    0  502    0  0.00000000000E+00 -0.00000000000E+00 -0.31742407972E+02  0.31742407972E+02  0.00000000000E+00 0. -1.
         23    2    1    2    0    0  0.50283968140E-01  0.44287226292E+02  0.28535883127E+03  0.30577876483E+03  0.10054665332E+03 0.  0.
         23    2    1    2    0    0 -0.80662030058E+01 -0.24772959521E+02  0.11799961659E+03  0.15295312754E+03  0.93765593661E+02 0.  0.
        -11    1    4    4    0    0  0.33875139934E+02 -0.24894525666E+02  0.97693532700E+02  0.10635454313E+03  0.00000000000E+00 0.  1.
         11    1    4    4    0    0 -0.41941342940E+02  0.12156614464E+00  0.20306083893E+02  0.46598584410E+02  0.00000000000E+00 0. -1.
        -13    1    3    3    0    0 -0.48942697177E+02  0.25585782560E+02  0.11579144496E+03  0.12828748420E+03  0.00000000000E+00 0. -1.
         13    1    3    3    0    0  0.48992981146E+02  0.18701443732E+02  0.16956738631E+03  0.17749128063E+03  0.00000000000E+00 0.  1.
         21    1    1    2  502  501  0.80159190376E+01 -0.19514266771E+02  0.23378735770E+02  0.31490107206E+02  0.00000000000E+00 0. -1.
<scales pt_clust_5="13000.00000" pt_clust_6="13000.00000" pt_clust_7="13000.00000" pt_clust_8="13000.00000" pt_clust_9="21.09648"></scales>
<clustering>
<clus scale="   21.096">  2  9  1 -1</clus>
<clus scale="   93.766">  5  6 -1 -1</clus>
<clus scale="  100.547">  7  8 -1 -1</clus>
<clus scale="  100.880">  2  5  1 -1</clus>
<clus scale="   21.096">  2  5  1 -1</clus>
</clustering>
</event>
<event>
 9    1  0.1296032E-005  0.1261681E+03  0.7546771E-02  0.1233652E+00
         -1   -1    0    0    0  501 -0.00000000000E+00  0.00000000000E+00  0.28474527623E+02  0.28474527623E+02  0.00000000000E+00 0.  1.
          1   -1    0    0  502    0  0.00000000000E+00 -0.00000000000E+00 -0.83769966070E+03  0.83769966070E+03  0.00000000000E+00 0. -1.
         23    2    1    2    0    0  0.41901095081E+02 -0.84781522202E+02 -0.25716822844E+03  0.28833064140E+03  0.89752174209E+02 0.  0.
         23    2    1    2    0    0 -0.66345936002E+02  0.54433027222E+02 -0.32657558726E+03  0.34901958428E+03  0.88308087615E+02 0.  0.
        -11    1    3    3    0    0  0.59974383166E+02 -0.22152106131E+02 -0.14736206069E+03  0.16063380520E+03  0.00000000000E+00 0. -1.
         11    1    3    3    0    0 -0.18073288086E+02 -0.62629416071E+02 -0.10980616776E+03  0.12769683621E+03  0.00000000000E+00 0.  1.
        -11    1    4    4    0    0 -0.27239495910E+02  0.40733642447E+02 -0.28886599585E+03  0.29299280421E+03  0.00000000000E+00 0. -1.
         11    1    4    4    0    0 -0.39106440092E+02  0.13699384775E+02 -0.37709591418E+02  0.56026780068E+02  0.00000000000E+00 0.  1.
         21    1    1    2  502  501  0.24444840921E+02  0.30348494980E+02 -0.22548131737E+03  0.22882396264E+03  0.00000000000E+00 0.  1.
<scales pt_clust_5="13000.00000" pt_clust_6="13000.00000" pt_clust_7="13000.00000" pt_clust_8="13000.00000" pt_clust_9="38.96898"></scales>
<clustering>
<clus scale="   38.969">  2  9  1 -1</clus>
<clus scale="   88.308">  7  8 -1 -1</clus>
<clus scale="   89.752">  5  6 -1 -1</clus>
<clus scale="  125.145">  2  7  1 -1</clus>
<clus scale="   38.969">  2  5  1 -1</clus>
</clustering>
</event>
<event>
 9    1  0.1296032E-005  0.1098841E+03  0.7546771E-02  0.1266440E+00
          2   -1    0    0  502    0  0.00000000000E+00  0.00000000000E+00  0.54349880848E+03  0.54349880848E+03  0.00000000000E+00 0. -1.
         -2   -1    0    0    0  501 -0.00000000000E+00 -0.00000000000E+00 -0.81782214717E+02  0.81782214717E+02  0.00000000000E+00 0.  1.
         23    2    1    2    0    0  0.19629148817E+02 -0.53662699020E+02 -0.32443280317E+02  0.10330707416E+03  0.79716976762E+02 0.  0.
         23    2    1    2    0    0 -0.64066922699E+02  0.42622436400E+02  0.38489474267E+03  0.40350255128E+03  0.93536641373E+02 0.  0.
        -11    1    4    4    0    0 -0.43936246156E+02 -0.24879511857E+02  0.14965860981E+03  0.15794645715E+03  0.00000000000E+00 0.  1.
         11    1    4    4    0    0 -0.20130676543E+02  0.67501948258E+02  0.23523613286E+03  0.24555609412E+03  0.00000000000E+00 0. -1.
        -13    1    3    3    0    0 -0.18590009324E+02  0.75582332926E+01  0.67596063088E+01  0.21175637290E+02  0.00000000000E+00 0. -1.
         13    1    3    3    0    0  0.38219158142E+02 -0.61220932312E+02 -0.39202886626E+02  0.82131436869E+02  0.00000000000E+00 0.  1.
         21    1    1    2  502  501  0.44437773882E+02  0.11040262619E+02  0.10926513140E+03  0.11847139776E+03  0.00000000000E+00 0.  1.
<scales pt_clust_5="13000.00000" pt_clust_6="13000.00000" pt_clust_7="13000.00000" pt_clust_8="13000.00000" pt_clust_9="45.78868"></scales>
<clustering>
<clus scale="   45.789">  1  9  2 -1</clus>
<clus scale="   79.717">  7  8 -1 -1</clus>
<clus scale="   93.537">  5  6 -1 -1</clus>
<clus scale="   98.388">  2  7  1 -1</clus>
<clus scale="   45.789">  1  5  2 -1</clus>
</clustering>
</event>
<event>
 9    1  0.1296032E-005  0.1274613E+03  0.7546771E-02  0.1232178E+00
          3   -1    0    0  502    0  0.00000000000E+00  0.00000000000E+00  0.33403761279E+03  0.33403761279E+03  0.00000000000E+00 0. -1.
         -3   -1    0    0    0  501 -0.00000000000E+00 -0.00000000000E+00 -0.12553648371E+03  0.12553648371E+03  0.00000000000E+00 0.  1.
         23    2    1    2    0    0  0.59135915005E+02 -0.43920434868E+02 -0.58677856918E+02  0.14201088065E+03  0.10629176020E+03 0.  0.
         23    2    1    2    0    0 -0.55239512134E+02  0.23556631148E+02  0.12181896799E+03  0.17073201585E+03  0.10345647250E+03 0.  0.
        -11    1    3    3    0    0  0.54586915300E+02 -0.14841481660E+02 -0.85281127417E+02  0.10233704898E+03  0.00000000000E+00 0.  1.
         11    1    3    3    0    0  0.45489997055E+01 -0.29078953208E+02  0.26603270500E+02  0.39673831669E+02  0.00000000000E+00 0. -1.
        -13    1    4    4    0    0 -0.85287961393E+02  0.19057912506E+02  0.10262882545E+03  0.13479583154E+03  0.00000000000E+00 0. -1.
         13    1    4    4    0    0  0.30048449259E+02  0.44987186422E+01  0.19190142547E+02  0.35936184316E+02  0.00000000000E+00 0.  1.
         21    1    1    2  502  501 -0.38964028711E+01  0.20363803720E+02  0.14536001800E+03  0.14683119999E+03  0.00000000000E+00 0. -1.
<scales pt_clust_5="13000.00000" pt_clust_6="13000.00000" pt_clust_7="13000.00000" pt_clust_8="13000.00000" pt_clust_9="20.73322"></scales>
<clustering>
<clus scale="   20.733">  1  9  2 -1</clus>
<clus scale="  103.456">  7  8 -1 -1</clus>
<clus scale="  106.292">  5  6 -1 -1</clus>
<clus scale="  125.107">  1  7  2 -1</clus>
<clus scale="   20.733">  1  5  2 -1</clus>
</clustering>
</event>
<event>
 9    1  0.1296032E-005  0.1065325E+03  0.7546771E-02  0.1267324E+00
          1   -1    0    0  502    0  0.00000000000E+00  0.00000000000E+00  0.16469932286E+03  0.16469932286E+03  0.00000000000E+00 0. -1.
         -1   -1    0    0    0  501 -0.00000000000E+00 -0.00000000000E+00 -0.95028915476E+02  0.95028915476E+02  0.00000000000E+00 0.  1.
         23    2    1    2    0    0  0.44512109821E+02  0.42150628675E+02 -0.13148648124E+02  0.11090401300E+03  0.91481198797E+02 0.  0.
         23    2    1    2    0    0 -0.23518239961E+02 -0.32786618527E+02  0.63578553092E+02  0.11884716426E+03  0.91947518040E+02 0.  0.
        -13    1    3    3    0    0  0.16869943908E+02  0.48786538280E+02  0.29645762953E+02  0.59528082330E+02  0.00000000000E+00 0. -1.
         13    1    3    3    0    0  0.27642165913E+02 -0.66359096051E+01 -0.42794411077E+02  0.51375930669E+02  0.00000000000E+00 0.  1.
        -13    1    4    4    0    0  0.24909700166E+02  0.38868400392E+01 -0.65684249786E+01  0.26052732957E+02  0.00000000000E+00 0.  1.
         13    1    4    4    0    0 -0.48427940127E+02 -0.36673458566E+02  0.70146978071E+02  0.92794431302E+02  0.00000000000E+00 0. -1.
         21    1    1    2  502  501 -0.20993869860E+02 -0.93640101483E+01  0.19240502418E+02  0.29977061081E+02  0.00000000000E+00 0. -1.
<scales pt_clust_5="13000.00000" pt_clust_6="13000.00000" pt_clust_7="13000.00000" pt_clust_8="13000.00000" pt_clust_9="22.98755"></scales>
<clustering>
<clus scale="   22.988">  1  9  2 -1</clus>
<clus scale="   91.481">  5  6 -1 -1</clus>
<clus scale="   91.948">  7  8 -1 -1</clus>
<clus scale="  106.130">  2  5  1 -1</clus>
<clus scale="   22.988">  1  5  2 -1</clus>
</clustering>
</event>
<event>
 9    1  0.1296032E-005  0.1036140E+03  0.7546771E-02  0.1273386E+00
          1   -1    0    0  502    0  0.00000000000E+00  0.00000000000E+00  0.45751182510E+03  0.45751182510E+03  0.00000000000E+00 0. -1.
         -1   -1    0    0    0  501 -0.00000000000E+00 -0.00000000000E+00 -0.36807344588E+02  0.36807344588E+02  0.00000000000E+00 0.  1.
         23    2    1    2    0    0  0.14562665144E+02  0.26429924384E+02  0.14097990214E+03  0.17105158242E+03  0.92047264602E+02 0.  0.
         23    2    1    2    0    0 -0.35999624305E+02 -0.54810706477E+02  0.14136724412E+03  0.18041184202E+03  0.90904062267E+02 0.  0.
        -11    1    3    3    0    0  0.39165434995E+02  0.49193533124E+02  0.83744019407E+02  0.10472342520E+03  0.00000000000E+00 0.  1.
         11    1    3    3    0    0 -0.24602769851E+02 -0.22763608740E+02  0.57235882738E+02  0.66328157218E+02  0.00000000000E+00 0. -1.
        -11    1    4    4    0    0  0.97630122546E+01 -0.31211120253E+02  0.12049309695E+03  0.12485205985E+03  0.00000000000E+00 0.  1.
         11    1    4    4    0    0 -0.45762636560E+02 -0.23599586223E+02  0.20874147168E+02  0.55559782170E+02  0.00000000000E+00 0. -1.
         21    1    1    2  502  501  0.21436959161E+02  0.28380782093E+02  0.13835733425E+03  0.14285574525E+03  0.00000000000E+00 0. -1.
<scales pt_clust_5="13000.00000" pt_clust_6="13000.00000" pt_clust_7="13000.00000" pt_clust_8="13000.00000" pt_clust_9="35.56701"></scales>
<clustering>
<clus scale="   35.567">  1  9  2 -1</clus>
<clus scale="   90.904">  7  8 -1 -1</clus>
<clus scale="   92.047">  5  6 -1 -1</clus>
<clus scale="  102.600">  1  7  2 -1</clus>
<clus scale="   35.567">  1  5  2 -1</clus>
</clustering>
</event>
<event>
 9    1  0.1296032E-005  0.9652026E+02  0.7546771E-02  0.1288060E+00
          3   -1    0    0  502    0  0.00000000000E+00  0.00000000000E+00  0.14127632890E+03  0.14127632890E+03  0.00000000000E+00 0. -1.
         -3   -1    0    0    0  501 -0.00000000000E+00 -0.00000000000E+00 -0.29040565606E+03  0.29040565606E+03  0.00000000000E+00 0.  1.
         23    2    1    2    0    0 -0.40829280947E+02 -0.31985235434E+02 -0.15650747856E+01  0.10454764638E+03  0.90761640778E+02 0.  0.
         23    2    1    2    0    0  0.11136559623E+02  0.22605029022E+02  0.63888938070E+02  0.11340063108E+03  0.90237998784E+02 0.  0.
        -11    1    4    4    0    0 -0.15130471193E+02 -0.28469155456E+02  0.39544032557E+02  0.51021117998E+02  0.00000000000E+00 0. -1.
         11    1    4    4    0    0  0.26267030816E+02  0.51074184478E+02  0.24344905512E+02  0.62379513083E+02  0.00000000000E+00 0.  1.
        -11    1    3    3    0    0 -0.40685035063E+01 -0.58600591882E+02 -0.54694718025E+01  0.58995738926E+02  0.00000000000E+00 0. -1.
         11    1    3    3    0    0 -0.36760777441E+02  0.26615356448E+02  0.39043970169E+01  0.45551907457E+02  0.00000000000E+00 0.  1.
         21    1    1    2  502  501  0.29692721324E+02  0.93802064116E+01 -0.21145319044E+03  0.21373370750E+03  0.00000000000E+00 0.  1.
<scales pt_clust_5="13000.00000" pt_clust_6="13000.00000" pt_clust_7="13000.00000" pt_clust_8="13000.00000" pt_clust_9="31.13914"></scales>
<clustering>
<clus scale="   31.139">  2  9  1 -1</clus>
<clus scale="   90.238">  5  6 -1 -1</clus>
<clus scale="   90.762">  7  8 -1 -1</clus>
<clus scale="   96.028">  1  5  2 -1</clus>
<clus scale="   96.028">  1  5  2 -1</clus>
</clustering>
</event>
<event>
 9    1  0.1296032E-005  0.1278585E+03  0.7546771E-02  0.1230804E+00
         -2   -1    0    0    0  501 -0.00000000000E+00  0.00000000000E+00  0.29550092995E+03  0.29550092995E+03  0.00000000000E+00 0. -1.
          2   -1    0    0  502    0  0.00000000000E+00 -0.00000000000E+00 -0.35704928651E+03  0.35704928651E+03  0.00000000000E+00 0.  1.
         23    2    1    2    0    0  0.86044620165E+02 -0.24607880655E+02  0.26377235742E+03  0.29304584089E+03  0.91053741681E+02 0.  0.
         23    2    1    2    0    0 -0.96798038275E+02  0.77137154770E+01 -0.28862911531E+03  0.31770339196E+03  0.90550082469E+02 0.  0.
        -11    1    4    4    0    0 -0.61158270737E+02 -0.12990216502E+01 -0.26931867801E+03  0.27617851448E+03  0.00000000000E+00 0.  1.
         11    1    4    4    0    0 -0.35639767537E+02  0.90127371272E+01 -0.19310437306E+02  0.41524877478E+02  0.00000000000E+00 0. -1.
        -11    1    3    3    0    0  0.46071744812E+01  0.26281951356E+02  0.29079055578E+02  0.39465915637E+02  0.00000000000E+00 0.  1.
         11    1    3    3    0    0  0.81437445684E+02 -0.50889832011E+02  0.23469330184E+03  0.25357992525E+03  0.00000000000E+00 0. -1.
         21    1    1    2  502  501  0.10753418110E+02  0.16894165178E+02 -0.36691598670E+02  0.41800983613E+02  0.00000000000E+00 0. -1.
<scales pt_clust_5="13000.00000" pt_clust_6="13000.00000" pt_clust_7="13000.00000" pt_clust_8="13000.00000" pt_clust_9="20.02620"></scales>
<clustering>
<clus scale="   20.026">  2  9  1 -1</clus>
<clus scale="   90.550">  5  6 -1 -1</clus>
<clus scale="   91.054">  7  8 -1 -1</clus>
<clus scale="  127.500">  2  5  1 -1</clus>
<clus scale="   20.026">  2  5  1 -1</clus>
</clustering>
</event>
<event>
 9    1  0.1296032E-005  0.1482622E+03  0.7546771E-02  0.1202861E+00
         -1   -1    0    0    0  501 -0.00000000000E+00  0.00000000000E+00  0.17045761107E+03  0.17045761107E+03  0.00000000000E+00 0.  1.
          1   -1    0    0  502    0  0.00000000000E+00 -0.00000000000E+00 -0.46366769370E+03  0.46366769370E+03  0.00000000000E+00 0. -1.
         23    2    1    2    0    0  0.73130187474E+02 -0.88069907242E+02  0.11289815216E+03  0.18511326669E+03  0.91742007071E+02 0.  0.
         23    2    1    2    0    0 -0.95532729495E+02  0.95764009205E+02 -0.31119424950E+03  0.35118700193E+03  0.90516305405E+02 0.  0.
        -11    1    4    4    0    0 -0.54757844711E+02 -0.34083535435E+01 -0.12078471444E+03  0.13266116867E+03  0.00000000000E+00 0.  1.
         11    1    4    4    0    0 -0.40774884784E+02  0.99172362748E+02 -0.19040953505E+03  0.21852583326E+03  0.00000000000E+00 0. -1.
        -11    1    3    3    0    0  0.49222923500E+02 -0.82491386115E+02  0.12507726549E+03  0.15770874206E+03  0.00000000000E+00 0.  1.
         11    1    3    3    0    0  0.23907263974E+02 -0.55785211265E+01 -0.12179113325E+02  0.27404524627E+02  0.00000000000E+00 0. -1.
         21    1    1    2  502  501  0.22402542021E+02 -0.76941019629E+01 -0.94913985295E+02  0.97825036154E+02  0.00000000000E+00 0. -1.
<scales pt_clust_5="13000.00000" pt_clust_6="13000.00000" pt_clust_7="13000.00000" pt_clust_8="13000.00000" pt_clust_9="23.68698"></scales>
<clustering>
<clus scale="   23.687">  2  9  1 -1</clus>
<clus scale="   90.516">  5  6 -1 -1</clus>
<clus scale="   91.742">  7  8 -1 -1</clus>
<clus scale="  147.507">  2  5  1 -1</clus>
<clus scale="   23.687">  2  5  1 -1</clus>
</clustering>
</event>
<event>
 9    1  0.1296032E-005  0.4636955E+03  0.7546771E-02  0.1023728E+00
          2   -1    0    0  502    0  0.00000000000E+00  0.00000000000E+00  0.25146554360E+03  0.25146554360E+03  0.00000000000E+00 0. -1.
         -2   -1    0    0    0  501 -0.00000000000E+00 -0.00000000000E+00 -0.13106318993E+04  0.13106318993E+04  0.00000000000E+00 0.  1.
         23    2    1    2    0    0 -0.43240343361E+03  0.97079397876E+02 -0.80702301646E+03  0.92530217562E+03  0.92199936051E+02 0.  0.
         23    2    1    2    0    0  0.48501572858E+03 -0.35776955734E+02 -0.25288811554E+03  0.55600790639E+03  0.93124354768E+02 0.  0.
        -13    1    3    3    0    0 -0.39814226593E+03  0.10868291090E+03 -0.70327912442E+03  0.81543287025E+03  0.00000000000E+00 0. -1.
         13    1    3    3    0    0 -0.34261167685E+02 -0.11603513021E+02 -0.10374389204E+03  0.10986930536E+03  0.00000000000E+00 0.  1.
        -13    1    4    4    0    0  0.33975708218E+03 -0.59749285421E+02 -0.14874079386E+03  0.37567096742E+03  0.00000000000E+00 0.  1.
         13    1    4    4    0    0  0.14525864640E+03  0.23972329686E+02 -0.10414732168E+03  0.18033693897E+03  0.00000000000E+00 0. -1.
         21    1    1    2  502  501 -0.52612294972E+02 -0.61302442142E+02  0.74477627174E+00  0.80787360933E+02  0.00000000000E+00 0.  1.
<scales pt_clust_5="13000.00000" pt_clust_6="13000.00000" pt_clust_7="13000.00000" pt_clust_8="13000.00000" pt_clust_9="80.78393"></scales>
<clustering>
<clus scale="   80.784">  1  9  2 -1</clus>
<clus scale="   92.200">  5  6 -1 -1</clus>
<clus scale="   93.124">  7  8 -1 -1</clus>
<clus scale="  463.511">  2  5  1 -1</clus>
<clus scale="   80.784">  1  5  2 -1</clus>
</clustering>
</event>
<event>
 9    1  0.1296032E-005  0.9370821E+02  0.7546771E-02  0.1297144E+00
         -2   -1    0    0    0  501 -0.00000000000E+00  0.00000000000E+00  0.20338617481E+03  0.20338617481E+03  0.00000000000E+00 0.  1.
          2   -1    0    0  502    0  0.00000000000E+00 -0.00000000000E+00 -0.34584645035E+03  0.34584645035E+03  0.00000000000E+00 0. -1.
         23    2    1    2    0    0 -0.10179371610E+02  0.12906703279E+02  0.87729648248E+02  0.12938210133E+03  0.93664477610E+02 0.  0.
         23    2    1    2    0    0 -0.16709696317E+02  0.14898357415E+02  0.71319729700E+02  0.11586990847E+03  0.88533365687E+02 0.  0.
        -11    1    4    4    0    0 -0.11562387480E+02 -0.31812727513E+02  0.44518345534E+01  0.34140258742E+02  0.00000000000E+00 0.  1.
         11    1    4    4    0    0 -0.51473088367E+01  0.46711084928E+02  0.66867895147E+02  0.81729649729E+02  0.00000000000E+00 0. -1.
        -13    1    3    3    0    0  0.10542194347E+02 -0.35634867867E+02  0.57775909977E+02  0.68695250514E+02  0.00000000000E+00 0.  1.
         13    1    3    3    0    0 -0.20721565957E+02  0.48541571146E+02  0.29953738271E+02  0.60686850812E+02  0.00000000000E+00 0. -1.
         21    1    1    2  502  501  0.26889067927E+02 -0.27805060694E+02 -0.30150965348E+03  0.30398061536E+03  0.00000000000E+00 0. -1.
<scales pt_clust_5="13000.00000" pt_clust_6="13000.00000" pt_clust_7="13000.00000" pt_clust_8="13000.00000" pt_clust_9="38.68001"></scales>
<clustering>
<clus scale="   38.680">  2  9  1 -1</clus>
<clus scale="   88.533">  5  6 -1 -1</clus>
<clus scale="   88.580">  2  5  1 -1</clus>
<clus scale="   93.664">  7  8 -1 -1</clus>
<clus scale="   38.680">  2  5  1 -1</clus>
</clustering>
</event>
<event>
 9    1  0.1296032E-005  0.9911700E+02  0.7546771E-02  0.1284914E+00
         -1   -1    0    0    0  501 -0.00000000000E+00  0.00000000000E+00  0.17847747720E+03  0.17847747720E+03  0.00000000000E+00 0.  1.
          1   -1    0    0  502    0  0.00000000000E+00 -0.00000000000E+00 -0.12855396712E+03  0.12855396712E+03  0.00000000000E+00 0. -1.
         23    2    1    2    0    0  0.41790603282E+02  0.10936863571E+02  0.11686115421E+03  0.15553479649E+03  0.93104640319E+02 0.  0.
         23    2    1    2    0    0 -0.95396719049E+01  0.11596695495E+02 -0.21843457389E+02  0.91652103073E+02  0.87735298942E+02 0.  0.
        -13    1    4    4    0    0  0.15791892605E+02  0.35165651324E+02 -0.37404899436E+02  0.53713437862E+02  0.00000000000E+00 0. -1.
         13    1    4    4    0    0 -0.25331564510E+02 -0.23568955828E+02  0.15561442048E+02  0.37938665211E+02  0.00000000000E+00 0.  1.
        -13    1    3    3    0    0  0.27710049996E+02 -0.11157896350E+02 -0.55222913715E+01  0.30378301858E+02  0.00000000000E+00 0.  1.
         13    1    3    3    0    0  0.14080553286E+02  0.22094759921E+02  0.12238344558E+03  0.12515649463E+03  0.00000000000E+00 0. -1.
         21    1    1    2  502  501 -0.32250931377E+02 -0.22533559066E+02 -0.45094186739E+02  0.59844544752E+02  0.00000000000E+00 0. -1.
<scales pt_clust_5="13000.00000" pt_clust_6="13000.00000" pt_clust_7="13000.00000" pt_clust_8="13000.00000" pt_clust_9="39.34316"></scales>
<clustering>
<clus scale="   39.343">  2  9  1 -1</clus>
<clus scale="   87.735">  5  6 -1 -1</clus>
<clus scale="   93.105">  7  8 -1 -1</clus>
<clus scale="   94.091">  2  5  1 -1</clus>
<clus scale="   39.343">  2  5  1 -1</clus>
</clustering>
</event>
<event>
 9    1  0.1296032E-005  0.1643109E+03  0.7546771E-02  0.1184543E+00
         -2   -1    0    0    0  501 -0.00000000000E+00  0.00000000000E+00  0.10023987788E+03  0.10023987788E+03  0.00000000000E+00 0.  1.
          2   -1    0    0  502    0  0.00000000000E+00 -0.00000000000E+00 -0.32971236610E+03  0.32971236610E+03  0.00000000000E+00 0. -1.
         23    2    1    2    0    0  0.66026132424E+01 -0.12471875312E+03 -0.70553771585E+02  0.17192622709E+03  0.94775687774E+02 0.  0.
         23    2    1    2    0    0  0.97392819741E+01  0.14738537609E+03 -0.12319373032E+03  0.21267066458E+03  0.90745874190E+02 0.  0.
        -11    1    4    4    0    0 -0.23061778374E+02  0.10813352120E+03 -0.45306852324E+02  0.11948813705E+03  0.00000000000E+00 0.  1.
         11    1    4    4    0    0  0.32801060348E+02  0.39251854896E+02 -0.77886877991E+02  0.93182527525E+02  0.00000000000E+00 0. -1.
        -11    1    3    3    0    0  0.42670546889E+02 -0.10944519762E+03 -0.49678654193E+02  0.12754213240E+03  0.00000000000E+00 0. -1.
         11    1    3    3    0    0 -0.36067933647E+02 -0.15273555504E+02 -0.20875117391E+02  0.44384094689E+02  0.00000000000E+00 0.  1.
         21    1    1    2  502  501 -0.16341895217E+02 -0.22666622971E+02 -0.35724986322E+02  0.45355352318E+02  0.00000000000E+00 0.  1.
<scales pt_clust_5="13000.00000" pt_clust_6="13000.00000" pt_clust_7="13000.00000" pt_clust_8="13000.00000" pt_clust_9="27.94340"></scales>
<clustering>
<clus scale="   27.943">  2  9  1 -1</clus>
<clus scale="   90.746">  5  6 -1 -1</clus>
<clus scale="   94.776">  7  8 -1 -1</clus>
<clus scale="  162.020">  2  5  1 -1</clus>
<clus scale="   27.943">  2  5  1 -1</clus>
</clustering>
</event>
<event>
 9    1  0.1296032E-005  0.1044031E+03  0.7546771E-02  0.1273452E+00
         -1   -1    0    0    0  501 -0.00000000000E+00  0.00000000000E+00  0.32082988564E+03  0.32082988564E+03  0.00000000000E+00 0.  1.
          1   -1    0    0  502    0  0.00000000000E+00 -0.00000000000E+00 -0.23667462837E+03  0.23667462837E+03  0.00000000000E+00 0. -1.
         23    2    1    2    0    0 -0.26588621053E+01  0.21823283085E+02  0.28618780176E+03  0.30292029128E+03  0.96819005138E+02 0.  0.
         23    2    1    2    0    0  0.19975748740E+02 -0.34419051591E+02 -0.20914770776E+03  0.23201979286E+03  0.92231876087E+02 0.  0.
        -11    1    3    3    0    0  0.44324265312E+02 -0.19081826059E+01  0.16362053180E+03  0.16952864089E+03  0.00000000000E+00 0.  1.
         11    1    3    3    0    0 -0.46983127417E+02  0.23731465691E+02  0.12256726997E+03  0.13339165039E+03  0.00000000000E+00 0. -1.
        -13    1    4    4    0    0 -0.36254239704E+02 -0.21352338470E+02 -0.10137820973E+03  0.10976262416E+03  0.00000000000E+00 0.  1.
         13    1    4    4    0    0  0.56229988444E+02 -0.13066713122E+02 -0.10776949803E+03  0.12225716870E+03  0.00000000000E+00 0. -1.
         21    1    1    2  502  501 -0.17316886635E+02  0.12595768507E+02  0.71151632663E+01  0.22564429869E+02  0.00000000000E+00 0. -1.
<scales pt_clust_5="13000.00000" pt_clust_6="13000.00000" pt_clust_7="13000.00000" pt_clust_8="13000.00000" pt_clust_9="21.41327"></scales>
<clustering>
<clus scale="   21.413">  1  9  2 -1</clus>
<clus scale="   92.232">  7  8 -1 -1</clus>
<clus scale="   96.819">  5  6 -1 -1</clus>
<clus scale="  100.164">  2  7  1 -1</clus>
<clus scale="  100.164">  2  5  1 -1</clus>
</clustering>
</event>
<event>
 9    1  0.1296032E-005  0.1323630E+03  0.7546771E-02  0.1240242E+00
          1   -1    0    0  502    0  0.00000000000E+00  0.00000000000E+00  0.39734860699E+03  0.39734860699E+03  0.00000000000E+00 0. -1.
         -1   -1    0    0    0  501 -0.00000000000E+00 -0.00000000000E+00 -0.14168618724E+03  0.14168618724E+03  0.00000000000E+00 0.  1.
         23    2    1    2    0    0  0.21185700835E+02  0.61455742575E+02  0.72536798414E+02  0.13407364839E+03  0.92133131135E+02 0.  0.
         23    2    1    2    0    0  0.29911469654E+02  0.27705787622E+02  0.25993570074E+03  0.27666271406E+03  0.85518314697E+02 0.  0.
        -11    1    4    4    0    0 -0.23857459246E+02  0.32251408160E+02  0.12726888770E+03  0.13344175308E+03  0.00000000000E+00 0. -1.
         11    1    4    4    0    0  0.53768928900E+02 -0.45456205382E+01  0.13266681304E+03  0.14322096098E+03  0.00000000000E+00 0.  1.
        -13    1    3    3    0    0  0.13981174946E+02  0.86020305709E+02  0.56761616333E+02  0.10400407365E+03  0.00000000000E+00 0. -1.
         13    1    3    3    0    0  0.72045258889E+01 -0.24564563134E+02  0.15775182081E+02  0.30069574738E+02  0.00000000000E+00 0.  1.
         21    1    1    2  502  501 -0.51097170489E+02 -0.89161530197E+02 -0.76810079402E+02  0.12829843178E+03  0.00000000000E+00 0.  1.
<scales pt_clust_5="13000.00000" pt_clust_6="13000.00000" pt_clust_7="13000.00000" pt_clust_8="13000.00000" pt_clust_9="95.03395"></scales>
<clustering>
<clus scale="   85.518">  5  6 -1 -1</clus>
<clus scale="   92.133">  7  8 -1 -1</clus>
<clus scale="   94.740">  1  5  2 -1</clus>
<clus scale="   95.034">  2  9  1 -1</clus>
<clus scale="   94.740">  1  5  2 -1</clus>
</clustering>
</event>
<event>
 9    1  0.1296032E-005  0.1430920E+03  0.7546771E-02  0.1209489E+00
         -1   -1    0    0    0  501 -0.00000000000E+00  0.00000000000E+00  0.29306592297E+03  0.29306592297E+03  0.00000000000E+00 0.  1.
          1   -1    0    0  502    0  0.00000000000E+00 -0.00000000000E+00 -0.81649972024E+02  0.81649972024E+02  0.00000000000E+00 0. -1.
         23    2    1    2    0    0  0.79986143755E+02  0.69303534915E+02  0.10764681145E+03  0.17792635021E+03  0.94176360820E+02 0.  0.
         23    2    1    2    0    0 -0.94982642148E+02 -0.53044662565E+02  0.94504416317E+02  0.17280869848E+03  0.95374645641E+02 0.  0.
        -11    1    3    3    0    0  0.10030615258E+03  0.63208354584E+02  0.79781650501E+02  0.14290462585E+03  0.00000000000E+00 0.  1.
         11    1    3    3    0    0 -0.20320008821E+02  0.60951803302E+01  0.27865160950E+02  0.35021724351E+02  0.00000000000E+00 0. -1.
        -11    1    4    4    0    0 -0.77183528197E+02 -0.38651457553E+02  0.11382506661E+03  0.14285439435E+03  0.00000000000E+00 0.  1.
         11    1    4    4    0    0 -0.17799113951E+02 -0.14393205013E+02 -0.19320650297E+02  0.29954304129E+02  0.00000000000E+00 0. -1.
         21    1    1    2  502  501  0.14996498393E+02 -0.16258872349E+02  0.92647231811E+01  0.23980846310E+02  0.00000000000E+00 0. -1.
<scales pt_clust_5="13000.00000" pt_clust_6="13000.00000" pt_clust_7="13000.00000" pt_clust_8="13000.00000" pt_clust_9="22.11890"></scales>
<clustering>
<clus scale="   22.119">  2  9  1 -1</clus>
<clus scale="   94.176">  5  6 -1 -1</clus>
<clus scale="   95.375">  7  8 -1 -1</clus>
<clus scale="  142.296">  1  5  2 -1</clus>
<clus scale="   22.119">  2  5  1 -1</clus>
</clustering>
</event>
<event>
 9    1  0.1296032E-005  0.1601617E+03  0.7546771E-02  0.1190039E+00
          2   -1    0    0  502    0  0.00000000000E+00  0.00000000000E+00  0.30415934675E+03  0.30415934675E+03  0.00000000000E+00 0. -1.
         -2   -1    0    0    0  501 -0.00000000000E+00 -0.00000000000E+00 -0.14823825872E+03  0.14823825872E+03  0.00000000000E+00 0.  1.
         23    2    1    2    0    0  0.88180007897E+02  0.75277837758E+02  0.17735980185E+02  0.14857291869E+03  0.91196932654E+02 0.  0.
         23    2    1    2    0    0 -0.11249321013E+03 -0.74933838141E+02  0.47316019338E+01  0.16817407535E+03  0.99951634003E+02 0.  0.
        -11    1    3    3    0    0  0.73321716318E+02  0.48237815907E+01 -0.33151527269E+01  0.73554967135E+02  0.00000000000E+00 0.  1.
         11    1    3    3    0    0  0.14858291579E+02  0.70454056167E+02  0.21051132912E+02  0.75017951558E+02  0.00000000000E+00 0. -1.
        -13    1    4    4    0    0 -0.51723796272E+02 -0.90693558579E+02  0.11466959339E+02  0.10503410791E+03  0.00000000000E+00 0.  1.
         13    1    4    4    0    0 -0.60769413860E+02  0.15759720437E+02 -0.67353574057E+01  0.63139967442E+02  0.00000000000E+00 0. -1.
         21    1    1    2  502  501  0.24313202236E+02 -0.34399961622E+00  0.13345350591E+03  0.13565061142E+03  0.00000000000E+00 0.  1.
<scales pt_clust_5="13000.00000" pt_clust_6="13000.00000" pt_clust_7="13000.00000" pt_clust_8="13000.00000" pt_clust_9="24.31564"></scales>
<clustering>
<clus scale="   24.316">  1  9  2 -1</clus>
<clus scale="   91.197">  5  6 -1 -1</clus>
<clus scale="   99.952">  7  8 -1 -1</clus>
<clus scale="  154.849">  2  5  1 -1</clus>
<clus scale="   24.316">  1  5  2 -1</clus>
</clustering>
</event>
<event>
 9    1  0.1296032E-005  0.1067843E+03  0.7546771E-02  0.1268356E+00
         -3   -1    0    0    0  501 -0.00000000000E+00  0.00000000000E+00  0.22294321195E+03  0.22294321195E+03  0.00000000000E+00 0.  1.
          3   -1    0    0  502    0  0.00000000000E+00 -0.00000000000E+00 -0.97149502412E+02  0.97149502412E+02  0.00000000000E+00 0. -1.
         23    2    1    2    0    0 -0.43440419493E+02  0.29664439370E+02  0.62652175611E+02  0.12267776091E+03  0.91419302683E+02 0.  0.
         23    2    1    2    0    0 -0.48066636570E+01 -0.75827136917E+02  0.60468639078E+02  0.13058741390E+03  0.87314132005E+02 0.  0.
        -13    1    4    4    0    0 -0.27916426667E+02 -0.13141208396E+01  0.41947126580E+02  0.50404515866E+02  0.00000000000E+00 0.  1.
         13    1    4    4    0    0  0.23109763010E+02 -0.74513016077E+02  0.18521512498E+02  0.80182898030E+02  0.00000000000E+00 0. -1.
        -13    1    3    3    0    0 -0.70441965698E+02  0.83975712872E+01  0.38991113331E+02  0.80949963890E+02  0.00000000000E+00 0.  1.
         13    1    3    3    0    0  0.27001546206E+02  0.21266868083E+02  0.23661062280E+02  0.41727797016E+02  0.00000000000E+00 0. -1.
         21    1    1    2  502  501  0.48247083150E+02  0.46162697547E+02  0.26728948528E+01  0.66827539564E+02  0.00000000000E+00 0.  1.
<scales pt_clust_5="13000.00000" pt_clust_6="13000.00000" pt_clust_7="13000.00000" pt_clust_8="13000.00000" pt_clust_9="66.77406"></scales>
<clustering>
<clus scale="   66.774">  2  9  1 -1</clus>
<clus scale="   87.314">  5  6 -1 -1</clus>
<clus scale="   91.419">  7  8 -1 -1</clus>
<clus scale="  103.292">  2  5  1 -1</clus>
<clus scale="   66.774">  2  5  1 -1</clus>
</clustering>
</event>
<event>
 9    1  0.1296032E-005  0.9433896E+02  0.7546771E-02  0.1293501E+00
         -1   -1    0    0    0  501 -0.00000000000E+00  0.00000000000E+00  0.38724771807E+03  0.38724771807E+03  0.00000000000E+00 0.  1.
          1   -1    0    0  502    0  0.00000000000E+00 -0.00000000000E+00 -0.64899062103E+02  0.64899062103E+02  0.00000000000E+00 0. -1.
         23    2    1    2    0    0 -0.16291643203E+02 -0.33209238123E+02  0.26890266471E+03  0.28679868838E+03  0.92609791258E+02 0.  0.
         23    2    1    2    0    0  0.97845063413E+01  0.11877159161E+02 -0.14752631060E+02  0.93595374006E+02  0.91135341323E+02 0.  0.
        -11    1    4    4    0    0 -0.23545589669E+02 -0.16134888669E+02  0.22460396000E+02  0.36320776612E+02  0.00000000000E+00 0.  1.
         11    1    4    4    0    0  0.33330096010E+02  0.28012047830E+02 -0.37213027060E+02  0.57274597394E+02  0.00000000000E+00 0. -1.
        -11    1    3    3    0    0  0.32872631535E+01 -0.63479649566E+02  0.16507190659E+03  0.17688755285E+03  0.00000000000E+00 0.  1.
         11    1    3    3    0    0 -0.19578906356E+02  0.30270411443E+02  0.10383075811E+03  0.10991113553E+03  0.00000000000E+00 0. -1.
         21    1    1    2  502  501  0.65071368617E+01  0.21332078962E+02  0.68198622320E+02  0.71752717784E+02  0.00000000000E+00 0. -1.
<scales pt_clust_5="13000.00000" pt_clust_6="13000.00000" pt_clust_7="13000.00000" pt_clust_8="13000.00000" pt_clust_9="22.30248"></scales>
<clustering>
<clus scale="   22.302">  1  9  2 -1</clus>
<clus scale="   91.135">  5  6 -1 -1</clus>
<clus scale="   92.610">  7  8 -1 -1</clus>
<clus scale="   92.892">  2  5  1 -1</clus>
<clus scale="   92.892">  2  5  1 -1</clus>
</clustering>
</event>
<event>
 9    1  0.1296032E-005  0.1069995E+03  0.7546771E-02  0.1266395E+00
         -1   -1    0    0    0  501 -0.00000000000E+00  0.00000000000E+00  0.86273921822E+02  0.86273921822E+02  0.00000000000E+00 0.  1.
          1   -1    0    0  502    0  0.00000000000E+00 -0.00000000000E+00 -0.29063530610E+03  0.29063530610E+03  0.00000000000E+00 0. -1.
         23    2    1    2    0    0  0.73273796703E+02 -0.30189066983E+02 -0.31356458519E+01  0.12012420805E+03  0.90219532448E+02 0.  0.
         23    2    1    2    0    0 -0.17311377168E+02  0.74291859760E+01 -0.84410701929E+02  0.12527244506E+03  0.90626388581E+02 0.  0.
        -11    1    3    3    0    0  0.30612716437E+02 -0.60430478228E+02 -0.34657547319E+01  0.67830616704E+02  0.00000000000E+00 0.  1.
         11    1    3    3    0    0  0.42661080265E+02  0.30241411246E+02  0.33010887999E+00  0.52293591342E+02  0.00000000000E+00 0. -1.
        -11    1    4    4    0    0 -0.50024703456E+01  0.45674204212E+02 -0.21744394548E+02  0.50832827329E+02  0.00000000000E+00 0. -1.
         11    1    4    4    0    0 -0.12308906823E+02 -0.38245018236E+02 -0.62666307381E+02  0.74439617730E+02  0.00000000000E+00 0.  1.
         21    1    1    2  502  501 -0.55962419535E+02  0.22759881007E+02 -0.11681503650E+03  0.13151257482E+03  0.00000000000E+00 0.  1.
<scales pt_clust_5="13000.00000" pt_clust_6="13000.00000" pt_clust_7="13000.00000" pt_clust_8="13000.00000" pt_clust_9="60.41361"></scales>
<clustering>
<clus scale="   60.414">  2  9  1 -1</clus>
<clus scale="   90.220">  5  6 -1 -1</clus>
<clus scale="   90.626">  7  8 -1 -1</clus>
<clus scale="  106.655">  1  5  2 -1</clus>
<clus scale="   60.414">  2  5  1 -1</clus>
</clustering>
</event>
<event>
 9    1  0.1296032E-005  0.1376184E+03  0.7546771E-02  0.1217333E+00
         -1   -1    0    0    0  501 -0.00000000000E+00  0.00000000000E+00  0.33343594585E+02  0.33343594585E+02  0.00000000000E+00 0.  1.
          1   -1    0    0  502    0  0.00000000000E+00 -0.00000000000E+00 -0.95830033483E+03  0.95830033483E+03  0.00000000000E+00 0. -1.
         23    2    1    2    0    0  0.82863632548E+02  0.25113209043E+02 -0.17440565150E+03  0.21826890363E+03  0.98625190220E+02 0.  0.
         23    2    1    2    0    0 -0.99138404766E+02 -0.53528292264E+02 -0.56831568532E+03  0.58822096176E+03  0.10162421122E+03 0.  0.
        -13    1    3    3    0    0 -0.15048963179E+02  0.29611373306E+02 -0.43083335625E+02  0.54401089423E+02  0.00000000000E+00 0. -1.
         13    1    3    3    0    0  0.97912595727E+02 -0.44981642627E+01 -0.13132231588E+03  0.16386781420E+03  0.00000000000E+00 0.  1.
        -13    1    4    4    0    0  0.14927344490E+02 -0.32463319208E+02 -0.13256804459E+03  0.13729886800E+03  0.00000000000E+00 0.  1.
         13    1    4    4    0    0 -0.11406574926E+03 -0.21064973056E+02 -0.43574764073E+03  0.45092209376E+03  0.00000000000E+00 0. -1.
         21    1    1    2  502  501  0.16274772218E+02  0.28415083221E+02 -0.18223540342E+03  0.18515406403E+03  0.00000000000E+00 0.  1.
<scales pt_clust_5="13000.00000" pt_clust_6="13000.00000" pt_clust_7="13000.00000" pt_clust_8="13000.00000" pt_clust_9="32.74577"></scales>
<clustering>
<clus scale="   32.746">  2  9  1 -1</clus>
<clus scale="   98.625">  5  6 -1 -1</clus>
<clus scale="  101.624">  7  8 -1 -1</clus>
<clus scale="  135.419">  1  5  2 -1</clus>
<clus scale="   32.746">  2  5  1 -1</clus>
</clustering>
</event>
<event>
 9    1  0.1296032E-005  0.1244903E+03  0.7546771E-02  0.1236708E+00
          1   -1    0    0  502    0  0.00000000000E+00  0.00000000000E+00  0.70810148585E+03  0.70810148585E+03  0.00000000000E+00 0. -1.
         -1   -1    0    0    0  501 -0.00000000000E+00 -0.00000000000E+00 -0.31204915374E+02  0.31204915374E+02  0.00000000000E+00 0.  1.
         23    2    1    2    0    0 -0.53751064756E+02 -0.88041425739E+02  0.23138948172E+03  0.26839182645E+03  0.88614957238E+02 0.  0.
         23    2    1    2    0    0  0.30536553152E+02  0.51983426155E+02  0.31184191726E+03  0.33053839818E+03  0.91517723095E+02 0.  0.
        -13    1    4    4    0    0 -0.24023600658E+02 -0.16384301104E+01  0.14511333628E+03  0.14709758056E+03  0.00000000000E+00 0.  1.
         13    1    4    4    0    0  0.54560153811E+02  0.53621856265E+02  0.16672858098E+03  0.18344081762E+03  0.00000000000E+00 0. -1.
        -13    1    3    3    0    0  0.17134213417E+01 -0.48796548450E+02  0.16982244842E+03  0.17670230033E+03  0.00000000000E+00 0. -1.
         13    1    3    3    0    0 -0.55464486097E+02 -0.39244877289E+02  0.61567033301E+02  0.91689526125E+02  0.00000000000E+00 0.  1.
         21    1    1    2  502  501  0.23214511603E+02  0.36057999584E+02  0.13366517150E+03  0.14037617659E+03  0.00000000000E+00 0.  1.
<scales pt_clust_5="13000.00000" pt_clust_6="13000.00000" pt_clust_7="13000.00000" pt_clust_8="13000.00000" pt_clust_9="42.88465"></scales>
<clustering>
<clus scale="   42.885">  1  9  2 -1</clus>
<clus scale="   88.615">  7  8 -1 -1</clus>
<clus scale="   91.518">  5  6 -1 -1</clus>
<clus scale="  122.372">  2  7  1 -1</clus>
<clus scale="   42.885">  1  5  2 -1</clus>
</clustering>
</event>
<event>
 9    1  0.1296032E-005  0.1145806E+03  0.7546771E-02  0.1252617E+00
          1   -1    0    0  502    0  0.00000000000E+00  0.00000000000E+00  0.51841760509E+03  0.51841760509E+03  0.00000000000E+00 0. -1.
         -1   -1    0    0    0  501 -0.00000000000E+00 -0.00000000000E+00 -0.44229939907E+02  0.44229939907E+02  0.00000000000E+00 0.  1.
         23    2    1    2    0    0 -0.50300673310E+02 -0.46283041159E+02  0.71013195835E+02  0.13444302681E+03  0.91431809788E+02 0.  0.
         23    2    1    2    0    0  0.69270458677E+02  0.28222553526E+02  0.31351735604E+03  0.33479985055E+03  0.90569853779E+02 0.  0.
        -11    1    4    4    0    0 -0.11931089907E+02 -0.19800124093E+02  0.60168881159E+02  0.64456885438E+02  0.00000000000E+00 0.  1.
         11    1    4    4    0    0  0.81201548584E+02  0.48022677619E+02  0.25334847488E+03  0.27034296511E+03  0.00000000000E+00 0. -1.
        -11    1    3    3    0    0 -0.70706210393E+02 -0.20250054892E+02  0.69716909833E+02  0.10134041853E+03  0.00000000000E+00 0.  1.
         11    1    3    3    0    0  0.20405537082E+02 -0.26032986267E+02  0.12962860013E+01  0.33102608281E+02  0.00000000000E+00 0. -1.
         21    1    1    2  502  501 -0.18969785367E+02  0.18060487633E+02  0.89657113303E+02  0.93404667637E+02  0.00000000000E+00 0. -1.
<scales pt_clust_5="13000.00000" pt_clust_6="13000.00000" pt_clust_7="13000.00000" pt_clust_8="13000.00000" pt_clust_9="26.19225"></scales>
<clustering>
<clus scale="   26.192">  1  9  2 -1</clus>
<clus scale="   90.570">  5  6 -1 -1</clus>
<clus scale="   91.432">  7  8 -1 -1</clus>
<clus scale="  113.894">  1  5  2 -1</clus>
<clus scale="   26.192">  1  5  2 -1</clus>
</clustering>
</event>
<event>
 9    1  0.1296032E-005  0.1136153E+03  0.7546771E-02  0.1254469E+00
          1   -1    0    0  502    0  0.00000000000E+00  0.00000000000E+00  0.25587894175E+03  0.25587894175E+03  0.00000000000E+00 0. -1.
         -1   -1    0    0    0  501 -0.00000000000E+00 -0.00000000000E+00 -0.11560474862E+03  0.11560474862E+03  0.00000000000E+00 0.  1.
         23    2    1    2    0    0 -0.19591965757E+02 -0.73636222714E+02 -0.98091916340E+01  0.11884017751E+03  0.90667685156E+02 0.  0.
         23    2    1    2    0    0  0.50568466838E+02  0.42859679592E+02  0.17002863757E+02  0.11258222522E+03  0.89395403055E+02 0.  0.
        -11    1    4    4    0    0  0.60297653452E+01 -0.27145853784E+02 -0.37147479132E+00  0.27809952198E+02  0.00000000000E+00 0. -1.
         11    1    4    4    0    0  0.44538701493E+02  0.70005533376E+02  0.17374338549E+02  0.84772273025E+02  0.00000000000E+00 0.  1.
        -11    1    3    3    0    0  0.22913490910E+02 -0.54398374596E+02  0.21312109991E+02  0.62756810440E+02  0.00000000000E+00 0.  1.
         11    1    3    3    0    0 -0.42505456667E+02 -0.19237848119E+02 -0.31121301625E+02  0.56083367067E+02  0.00000000000E+00 0. -1.
         21    1    1    2  502  501 -0.30976501080E+02  0.30776543122E+02  0.13308052101E+03  0.14006128765E+03  0.00000000000E+00 0. -1.
<scales pt_clust_5="13000.00000" pt_clust_6="13000.00000" pt_clust_7="13000.00000" pt_clust_8="13000.00000" pt_clust_9="43.66623"></scales>
<clustering>
<clus scale="   43.666">  1  9  2 -1</clus>
<clus scale="   89.395">  5  6 -1 -1</clus>
<clus scale="   90.668">  7  8 -1 -1</clus>
<clus scale="  112.603">  1  5  2 -1</clus>
<clus scale="   43.666">  1  5  2 -1</clus>
</clustering>
</event>
<event>
 9    1  0.1296032E-005  0.9551703E+02  0.7546771E-02  0.1303094E+00
          1   -1    0    0  502    0  0.00000000000E+00  0.00000000000E+00  0.36084174889E+03  0.36084174889E+03  0.00000000000E+00 0. -1.
         -1   -1    0    0    0  501 -0.00000000000E+00 -0.00000000000E+00 -0.11245652071E+03  0.11245652071E+03  0.00000000000E+00 0.  1.
         23    2    1    2    0    0 -0.33997986021E+02 -0.10786623365E+02 -0.71777308678E+02  0.12148220844E+03  0.91289268965E+02 0.  0.
         23    2    1    2    0    0 -0.57237779639E+01 -0.35186473758E+02  0.12477911539E+03  0.14720417104E+03  0.69486622919E+02 0.  0.
        -11    1    4    4    0    0 -0.35331844161E+02 -0.56314659866E+01  0.65747866201E+02  0.74852084346E+02  0.00000000000E+00 0. -1.
         11    1    4    4    0    0  0.29608066197E+02 -0.29555007772E+02  0.59031249189E+02  0.72352086695E+02  0.00000000000E+00 0.  1.
        -11    1    3    3    0    0  0.97347900618E+00  0.25907867053E+02  0.78508027435E+01  0.27088749331E+02  0.00000000000E+00 0. -1.
         11    1    3    3    0    0 -0.34971465027E+02 -0.36694490418E+02 -0.79628111421E+02  0.94393459104E+02  0.00000000000E+00 0.  1.
         21    1    1    2  502  501  0.39721763984E+02  0.45973097123E+02  0.19538342147E+03  0.20461189012E+03  0.00000000000E+00 0. -1.
<scales pt_clust_5="13000.00000" pt_clust_6="13000.00000" pt_clust_7="13000.00000" pt_clust_8="13000.00000" pt_clust_9="60.75643"></scales>
<clustering>
<clus scale="   60.756">  1  9  2 -1</clus>
<clus scale="   69.487">  5  6 -1 -1</clus>
<clus scale="   74.954">  1  5  2 -1</clus>
<clus scale="   91.289">  7  8 -1 -1</clus>
<clus scale="   60.756">  1  5  2 -1</clus>
</clustering>
</event>
<event>
 9    1  0.1296032E-005  0.1018772E+03  0.7546771E-02  0.1276441E+00
          2   -1    0    0  502    0  0.00000000000E+00  0.00000000000E+00  0.40695533507E+03  0.40695533507E+03  0.00000000000E+00 0. -1.
         -2   -1    0    0    0  501 -0.00000000000E+00 -0.00000000000E+00 -0.40376425972E+02  0.40376425972E+02  0.00000000000E+00 0.  1.
         23    2    1    2    0    0 -0.42822959591E+02  0.58313638864E+01  0.97381519038E+02  0.14053949010E+03  0.91653572507E+02 0.  0.
         23    2    1    2    0    0  0.34414469698E+02 -0.43545463987E+02  0.17757742966E+03  0.20735750242E+03  0.91557780256E+02 0.  0.
        -13    1    4    4    0    0 -0.21228313380E+02 -0.41109854602E+02  0.11284866531E+03  0.12196508802E+03  0.00000000000E+00 0.  1.
         13    1    4    4    0    0  0.55642783079E+02 -0.24356093848E+01  0.64728764358E+02  0.85392414401E+02  0.00000000000E+00 0. -1.
        -13    1    3    3    0    0 -0.61311282548E+02  0.22451398501E+02  0.36556125272E+02  0.74829733109E+02  0.00000000000E+00 0.  1.
         13    1    3    3    0    0  0.18488322957E+02 -0.16620034615E+02  0.60825393767E+02  0.65709756986E+02  0.00000000000E+00 0. -1.
         21    1    1    2  502  501  0.84084898928E+01  0.37714100101E+02  0.91619960393E+02  0.99434768522E+02  0.00000000000E+00 0. -1.
<scales pt_clust_5="13000.00000" pt_clust_6="13000.00000" pt_clust_7="13000.00000" pt_clust_8="13000.00000" pt_clust_9="38.64008"></scales>
<clustering>
<clus scale="   38.640">  1  9  2 -1</clus>
<clus scale="   91.558">  5  6 -1 -1</clus>
<clus scale="   91.654">  7  8 -1 -1</clus>
<clus scale="  101.791">  1  5  2 -1</clus>
<clus scale="   38.640">  1  5  2 -1</clus>
</clustering>
</event>
<event>
 9    1  0.1296032E-005  0.1606111E+03  0.7546771E-02  0.1188084E+00
         -2   -1    0    0    0  501 -0.00000000000E+00  0.00000000000E+00  0.27434395623E+03  0.27434395623E+03  0.00000000000E+00 0.  1.
          2   -1    0    0  502    0  0.00000000000E+00 -0.00000000000E+00 -0.19364546481E+03  0.19364546481E+03  0.00000000000E+00 0. -1.
         23    2    1    2    0    0 -0.37713359877E+02 -0.15396732922E+03  0.14576206057E+03  0.23322297617E+03  0.89544080384E+02 0.  0.
         23    2    1    2    0    0 -0.31134818805E+02  0.86550164057E+02 -0.48945791095E+02  0.13706829424E+03  0.89060198633E+02 0.  0.
        -13    1    3    3    0    0 -0.63602921792E+02 -0.73236954730E+02  0.84232371390E+02  0.12846818901E+03  0.00000000000E+00 0.  1.
         13    1    3    3    0    0  0.25889561915E+02 -0.80730374495E+02  0.61529689180E+02  0.10475478716E+03  0.00000000000E+00 0. -1.
        -13    1    4    4    0    0 -0.45871318721E+02  0.21388923746E+02  0.54655501640E+01  0.50907132887E+02  0.00000000000E+00 0.  1.
         13    1    4    4    0    0  0.14736499915E+02  0.65161240311E+02 -0.54411341259E+02  0.86161161356E+02  0.00000000000E+00 0. -1.
         21    1    1    2  502  501  0.68848178683E+02  0.67417165168E+02 -0.16117778054E+02  0.97698150630E+02  0.00000000000E+00 0. -1.
<scales pt_clust_5="13000.00000" pt_clust_6="13000.00000" pt_clust_7="13000.00000" pt_clust_8="13000.00000" pt_clust_9="96.35946"></scales>
<clustering>
<clus scale="   89.060">  7  8 -1 -1</clus>
<clus scale="   89.544">  5  6 -1 -1</clus>
<clus scale="   96.359">  2  9  1 -1</clus>
<clus scale="  160.342">  2  7  1 -1</clus>
<clus scale="   96.359">  2  5  1 -1</clus>
</clustering>
</event>
<event>
 9    1  0.1296032E-005  0.9564095E+02  0.7546771E-02  0.1295471E+00
          2   -1    0    0  502    0  0.00000000000E+00  0.00000000000E+00  0.69162804104E+03  0.69162804104E+03  0.00000000000E+00 0. -1.
         -2   -1    0    0    0  501 -0.00000000000E+00 -0.00000000000E+00 -0.39063356368E+02  0.39063356368E+02  0.00000000000E+00 0.  1.
         23    2    1    2    0    0 -0.14930078014E+02 -0.26321590065E+02  0.25149850259E+02  0.89537139109E+02  0.80427924122E+02 0.  0.
         23    2    1    2    0    0  0.40973970454E+02  0.10113344646E+02  0.51499917971E+03  0.52462842007E+03  0.90717572986E+02 0.  0.
        -11    1    4    4    0    0  0.14673556160E+01 -0.37835499002E+02  0.20407624666E+03  0.20755913029E+03  0.00000000000E+00 0.  1.
         11    1    4    4    0    0  0.39506614838E+02  0.47948843648E+02  0.31092293305E+03  0.31706928978E+03  0.00000000000E+00 0. -1.
        -11    1    3    3    0    0 -0.33791876908E+02 -0.39120185458E+02 -0.47812899261E+01  0.51914743461E+02  0.00000000000E+00 0.  1.
         11    1    3    3    0    0  0.18861798893E+02  0.12798595393E+02  0.29931140185E+02  0.37622395648E+02  0.00000000000E+00 0. -1.
         21    1    1    2  502  501 -0.26043892439E+02  0.16208245419E+02  0.11241565470E+03  0.11652583823E+03  0.00000000000E+00 0. -1.
<scales pt_clust_5="13000.00000" pt_clust_6="13000.00000" pt_clust_7="13000.00000" pt_clust_8="13000.00000" pt_clust_9="30.67559"></scales>
<clustering>
<clus scale="   30.676">  1  9  2 -1</clus>
<clus scale="   80.428">  7  8 -1 -1</clus>
<clus scale="   85.943">  2  7  1 -1</clus>
<clus scale="   90.718">  5  6 -1 -1</clus>
<clus scale="   30.676">  1  5  2 -1</clus>
</clustering>
</event>
<event>
 9    1  0.1296032E-005  0.9729925E+02  0.7546771E-02  0.1286475E+00
          2   -1    0    0  502    0  0.00000000000E+00  0.00000000000E+00  0.33015277314E+03  0.33015277314E+03  0.00000000000E+00 0. -1.
         -2   -1    0    0    0  501 -0.00000000000E+00 -0.00000000000E+00 -0.11006394204E+03  0.11006394204E+03  0.00000000000E+00 0.  1.
         23    2    1    2    0    0 -0.20732653516E+02  0.14577165347E+02 -0.43495744990E+02  0.10621437048E+03  0.93526873111E+02 0.  0.
         23    2    1    2    0    0  0.30868080790E+00 -0.41364410518E+02  0.42079918457E+02  0.10995099228E+03  0.92776028292E+02 0.  0.
        -11    1    3    3    0    0  0.48765961573E+01 -0.37221044601E+02 -0.26612215291E+02  0.46015186124E+02  0.00000000000E+00 0.  1.
         11    1    3    3    0    0 -0.25609249673E+02  0.51798209948E+02 -0.16883529698E+02  0.60199184361E+02  0.00000000000E+00 0. -1.
        -11    1    4    4    0    0 -0.17444952109E+02 -0.16018116370E+02  0.66461013632E+02  0.70554749941E+02  0.00000000000E+00 0. -1.
         11    1    4    4    0    0  0.17753632917E+02 -0.25346294148E+02 -0.24381095176E+02  0.39396242343E+02  0.00000000000E+00 0.  1.
         21    1    1    2  502  501  0.20423972708E+02  0.26787245171E+02  0.22150465764E+03  0.22405135242E+03  0.00000000000E+00 0.  1.
<scales pt_clust_5="13000.00000" pt_clust_6="13000.00000" pt_clust_7="13000.00000" pt_clust_8="13000.00000" pt_clust_9="33.68524"></scales>
<clustering>
<clus scale="   33.685">  1  9  2 -1</clus>
<clus scale="   92.776">  7  8 -1 -1</clus>
<clus scale="   93.527">  5  6 -1 -1</clus>
<clus scale="   96.578">  1  7  2 -1</clus>
<clus scale="   33.685">  1  5  2 -1</clus>
</clustering>
</event>
<event>
 9    1  0.1296032E-005  0.1060592E+03  0.7546771E-02  0.1270687E+00
         -2   -1    0    0    0  501 -0.00000000000E+00  0.00000000000E+00  0.29516968450E+03  0.29516968450E+03  0.00000000000E+00 0.  1.
          2   -1    0    0  502    0  0.00000000000E+00 -0.00000000000E+00 -0.18769026041E+03  0.18769026041E+03  0.00000000000E+00 0. -1.
         23    2    1    2    0    0 -0.86583723329E+02 -0.76241560106E+02  0.15220894821E+03  0.21367809273E+03  0.95818822607E+02 0.  0.
         23    2    1    2    0    0  0.40446666694E+02  0.26851390442E+01 -0.11924717115E+03  0.15476133481E+03  0.89933531611E+02 0.  0.
        -11    1    3    3    0    0 -0.38968214461E+01 -0.55612384579E+02  0.97787220052E+02  0.11256226251E+03  0.00000000000E+00 0. -1.
         11    1    3    3    0    0 -0.82686901883E+02 -0.20629175527E+02  0.54421728158E+02  0.10111583022E+03  0.00000000000E+00 0.  1.
        -11    1    4    4    0    0  0.24883390446E+02  0.23947542550E+02 -0.12335077475E+03  0.12809403400E+03  0.00000000000E+00 0. -1.
         11    1    4    4    0    0  0.15563276248E+02 -0.21262403505E+02  0.41036036006E+01  0.26667300818E+02  0.00000000000E+00 0.  1.
         21    1    1    2  502  501  0.46137056635E+02  0.73556421062E+02  0.74517647031E+02  0.11442051736E+03  0.00000000000E+00 0.  1.
<scales pt_clust_5="13000.00000" pt_clust_6="13000.00000" pt_clust_7="13000.00000" pt_clust_8="13000.00000" pt_clust_9="86.82842"></scales>
<clustering>
<clus scale="   86.828">  1  9  2 -1</clus>
<clus scale="   89.934">  7  8 -1 -1</clus>
<clus scale="   95.819">  5  6 -1 -1</clus>
<clus scale="  100.774">  2  7  1 -1</clus>
<clus scale="  100.774">  2  5  1 -1</clus>
</clustering>
</event>
<event>
 9    1  0.1296032E-005  0.1621606E+03  0.7546771E-02  0.1186928E+00
          1   -1    0    0  502    0  0.00000000000E+00  0.00000000000E+00  0.79645880802E+02  0.79645880802E+02  0.00000000000E+00 0. -1.
         -1   -1    0    0    0  501 -0.00000000000E+00 -0.00000000000E+00 -0.59086548621E+03  0.59086548621E+03  0.00000000000E+00 0.  1.
         23    2    1    2    0    0 -0.12975667007E+03 -0.39175764841E+02 -0.44081369052E+03  0.46929628224E+03  0.86895090749E+02 0.  0.
         23    2    1    2    0    0  0.12956767178E+03  0.13331808080E+02 -0.45516788533E+02  0.16533452692E+03  0.91094506277E+02 0.  0.
        -13    1    4    4    0    0  0.10202968242E+03 -0.12114771659E+02 -0.66479140993E+02  0.12237769394E+03  0.00000000000E+00 0. -1.
         13    1    4    4    0    0  0.27537989369E+02  0.25446579740E+02  0.20962352460E+02  0.42956832979E+02  0.00000000000E+00 0.  1.
        -13    1    3    3    0    0 -0.10779248631E+03 -0.58045807364E+02 -0.27566900202E+03  0.30163211787E+03  0.00000000000E+00 0. -1.
         13    1    3    3    0    0 -0.21964183755E+02  0.18870042524E+02 -0.16514468850E+03  0.16766416437E+03  0.00000000000E+00 0.  1.
         21    1    1    2  502  501  0.18899828157E+00  0.25843956760E+02 -0.24889126350E+02  0.35880557853E+02  0.00000000000E+00 0.  1.
<scales pt_clust_5="13000.00000" pt_clust_6="13000.00000" pt_clust_7="13000.00000" pt_clust_8="13000.00000" pt_clust_9="25.84465"></scales>
<clustering>
<clus scale="   25.845">  1  9  2 -1</clus>
<clus scale="   86.895">  7  8 -1 -1</clus>
<clus scale="   91.095">  5  6 -1 -1</clus>
<clus scale="  159.839">  2  7  1 -1</clus>
<clus scale="   25.845">  1  5  2 -1</clus>
</clustering>
</event>
<event>
 9    1  0.1296032E-005  0.9886205E+02  0.7546771E-02  0.1283077E+00
         -3   -1    0    0    0  501 -0.00000000000E+00  0.00000000000E+00  0.22862067585E+03  0.22862067585E+03  0.00000000000E+00 0.  1.
          3   -1    0    0  502    0  0.00000000000E+00 -0.00000000000E+00 -0.70349161807E+02  0.70349161807E+02  0.00000000000E+00 0. -1.
         23    2    1    2    0    0  0.40423014352E+02  0.21768707976E+02  0.12741043682E+03  0.16378477476E+03  0.92109371382E+02 0.  0.
         23    2    1    2    0    0 -0.21843522129E+02  0.99957424653E+01  0.26551643482E+02  0.98134434532E+02  0.91369158598E+02 0.  0.
        -11    1    3    3    0    0 -0.17826255422E+02  0.11241192094E+02 -0.23064849127E+01  0.21200463549E+02  0.00000000000E+00 0.  1.
         11    1    3    3    0    0  0.58249269774E+02  0.10527515883E+02  0.12971692173E+03  0.14258431121E+03  0.00000000000E+00 0. -1.
        -13    1    4    4    0    0 -0.15835050287E+02 -0.37598903885E+02  0.29071810415E+02  0.50095873600E+02  0.00000000000E+00 0. -1.
         13    1    4    4    0    0 -0.60084718422E+01  0.47594646350E+02 -0.25201669332E+01  0.48038560932E+02  0.00000000000E+00 0.  1.
         21    1    1    2  502  501 -0.18579492223E+02 -0.31764450442E+02  0.43094337434E+01  0.37050628366E+02  0.00000000000E+00 0.  1.
<scales pt_clust_5="13000.00000" pt_clust_6="13000.00000" pt_clust_7="13000.00000" pt_clust_8="13000.00000" pt_clust_9="36.79916"></scales>
<clustering>
<clus scale="   36.799">  2  9  1 -1</clus>
<clus scale="   91.369">  7  8 -1 -1</clus>
<clus scale="   92.109">  5  6 -1 -1</clus>
<clus scale="   98.173">  2  7  1 -1</clus>
<clus scale="   36.799">  2  5  1 -1</clus>
</clustering>
</event>
<event>
 9    1  0.1296032E-005  0.1065394E+03  0.7546771E-02  0.1268134E+00
          1   -1    0    0  502    0  0.00000000000E+00  0.00000000000E+00  0.11284098159E+03  0.11284098159E+03  0.00000000000E+00 0. -1.
         -1   -1    0    0    0  501 -0.00000000000E+00 -0.00000000000E+00 -0.15922013673E+03  0.15922013673E+03  0.00000000000E+00 0.  1.
         23    2    1    2    0    0 -0.10520907169E+02  0.44584706640E+02 -0.54675572188E+02  0.11566555716E+03  0.91052827336E+02 0.  0.
         23    2    1    2    0    0  0.44892284717E+02 -0.46828764559E+02 -0.15114254267E+02  0.11474838932E+03  0.93437154022E+02 0.  0.
        -11    1    4    4    0    0  0.67952525541E+02 -0.56612051541E+02 -0.85764543793E+01  0.88859584046E+02  0.00000000000E+00 0.  1.
         11    1    4    4    0    0 -0.23060240824E+02  0.97832869819E+01 -0.65377998873E+01  0.25888805272E+02  0.00000000000E+00 0. -1.
        -11    1    3    3    0    0  0.37830454549E+02  0.26728220474E+01 -0.19414423283E+02  0.42605247335E+02  0.00000000000E+00 0.  1.
         11    1    3    3    0    0 -0.48351361718E+02  0.41911884592E+02 -0.35261148906E+02  0.73060309828E+02  0.00000000000E+00 0. -1.
         21    1    1    2  502  501 -0.34371377548E+02  0.22440579193E+01  0.23410671312E+02  0.41647171834E+02  0.00000000000E+00 0. -1.
<scales pt_clust_5="13000.00000" pt_clust_6="13000.00000" pt_clust_7="13000.00000" pt_clust_8="13000.00000" pt_clust_9="34.44456"></scales>
<clustering>
<clus scale="   34.445">  1  9  2 -1</clus>
<clus scale="   91.053">  7  8 -1 -1</clus>
<clus scale="   93.437">  5  6 -1 -1</clus>
<clus scale="  104.455">  2  7  1 -1</clus>
<clus scale="   34.445">  1  5  2 -1</clus>
</clustering>
</event>
<event>
 9    1  0.1296032E-005  0.2155971E+03  0.7546771E-02  0.1137827E+00
         -1   -1    0    0    0  501 -0.00000000000E+00  0.00000000000E+00  0.59793217821E+03  0.59793217821E+03  0.00000000000E+00 0.  1.
          1   -1    0    0  502    0  0.00000000000E+00 -0.00000000000E+00 -0.35239825630E+03  0.35239825630E+03  0.00000000000E+00 0. -1.
         23    2    1    2    0    0 -0.16886183885E+03 -0.10421324846E+03  0.51839975404E+03  0.56381164037E+03  0.98846037117E+02 0.  0.
         23    2    1    2    0    0  0.10902941382E+03  0.32610760433E+02 -0.25138845620E+03  0.29076853015E+03  0.91647735618E+02 0.  0.
        -13    1    3    3    0    0 -0.10015909823E+03 -0.54512736583E+02  0.16627207092E+03  0.20161816629E+03  0.00000000000E+00 0. -1.
         13    1    3    3    0    0 -0.68702740613E+02 -0.49700511876E+02  0.35212768312E+03  0.36219347408E+03  0.00000000000E+00 0.  1.
        -13    1    4    4    0    0  0.57010610630E+02  0.45965453854E+02 -0.21164423294E+03  0.22395605374E+03  0.00000000000E+00 0. -1.
         13    1    4    4    0    0  0.52018803186E+02 -0.13354693421E+02 -0.39744223260E+02  0.66812476408E+02  0.00000000000E+00 0.  1.
         21    1    1    2  502  501  0.59832425030E+02  0.71602488027E+02 -0.21477375935E+02  0.95750263987E+02  0.00000000000E+00 0. -1.
<scales pt_clust_5="13000.00000" pt_clust_6="13000.00000" pt_clust_7="13000.00000" pt_clust_8="13000.00000" pt_clust_9="93.31042"></scales>
<clustering>
<clus scale="   91.648">  7  8 -1 -1</clus>
<clus scale="   93.310">  2  9  1 -1</clus>
<clus scale="   98.846">  5  6 -1 -1</clus>
<clus scale="  212.393">  2  7  1 -1</clus>
<clus scale="   93.310">  2  5  1 -1</clus>
</clustering>
</event>
<event>
 9    1  0.1296032E-005  0.2251188E+03  0.7546771E-02  0.1132220E+00
          1   -1    0    0  502    0  0.00000000000E+00  0.00000000000E+00  0.54132488029E+03  0.54132488029E+03  0.00000000000E+00 0. -1.
         -1   -1    0    0    0  501 -0.00000000000E+00 -0.00000000000E+00 -0.17501802056E+03  0.17501802056E+03  0.00000000000E+00 0.  1.
         23    2    1    2    0    0  0.15665674066E+03 -0.10176920433E+03 -0.36355084122E+02  0.22283600543E+03  0.11591327720E+03 0.  0.
         23    2    1    2    0    0 -0.20061306480E+03  0.91949434177E+02  0.35397136914E+03  0.42717923615E+03  0.92119864392E+02 0.  0.
        -13    1    3    3    0    0  0.14201718646E+01  0.20697696827E+02 -0.11018676648E+02  0.23490908393E+02  0.00000000000E+00 0. -1.
         13    1    3    3    0    0  0.15523656879E+03 -0.12246690116E+03 -0.25336407474E+02  0.19934509704E+03  0.00000000000E+00 0.  1.
        -13    1    4    4    0    0 -0.14991826165E+03  0.46860156541E+02  0.17177946180E+03  0.23276499510E+03  0.00000000000E+00 0.  1.
         13    1    4    4    0    0 -0.50694803145E+02  0.45089277636E+02  0.18219190734E+03  0.19441424105E+03  0.00000000000E+00 0. -1.
         21    1    1    2  502  501  0.43956324136E+02  0.98197701527E+01  0.48690574708E+02  0.66327659259E+02  0.00000000000E+00 0.  1.
<scales pt_clust_5="13000.00000" pt_clust_6="13000.00000" pt_clust_7="13000.00000" pt_clust_8="13000.00000" pt_clust_9="45.03983"></scales>
<clustering>
<clus scale="   45.040">  1  9  2 -1</clus>
<clus scale="   92.120">  7  8 -1 -1</clus>
<clus scale="  115.913">  5  6 -1 -1</clus>
<clus scale="  213.843">  1  7  2 -1</clus>
<clus scale="   45.040">  1  5  2 -1</clus>
</clustering>
</event>
<event>
 9    1  0.1296032E-005  0.9621506E+02  0.7546771E-02  0.1294825E+00
          1   -1    0    0  502    0  0.00000000000E+00  0.00000000000E+00  0.31785207010E+03  0.31785207010E+03  0.00000000000E+00 0. -1.
         -1   -1    0    0    0  501 -0.00000000000E+00 -0.00000000000E+00 -0.39152324857E+02  0.39152324857E+02  0.00000000000E+00 0.  1.
         23    2    1    2    0    0 -0.10490029285E+02 -0.13052491703E+02  0.66985347499E+02  0.10945284044E+03  0.84926316578E+02 0.  0.
         23    2    1    2    0    0 -0.10816352507E+02  0.24006093667E+01  0.12636450284E+03  0.15893987886E+03  0.95766074923E+02 0.  0.
        -11    1    4    4    0    0 -0.32159886746E+02 -0.31874658994E+02  0.10245430004E+03  0.11201399823E+03  0.00000000000E+00 0.  1.
         11    1    4    4    0    0  0.21343534239E+02  0.34275268361E+02  0.23910202793E+02  0.46925880627E+02  0.00000000000E+00 0. -1.
        -13    1    3    3    0    0 -0.39278294948E+02 -0.31714970676E+02  0.50438097538E+02  0.71362633796E+02  0.00000000000E+00 0.  1.
         13    1    3    3    0    0  0.28788265662E+02  0.18662478972E+02  0.16547249961E+02  0.38090206648E+02  0.00000000000E+00 0. -1.
         21    1    1    2  502  501  0.21306381793E+02  0.10651882337E+02  0.85349894911E+02  0.88611675662E+02  0.00000000000E+00 0.  1.
<scales pt_clust_5="13000.00000" pt_clust_6="13000.00000" pt_clust_7="13000.00000" pt_clust_8="13000.00000" pt_clust_9="23.82067"></scales>
<clustering>
<clus scale="   23.821">  1  9  2 -1</clus>
<clus scale="   84.926">  7  8 -1 -1</clus>
<clus scale="   85.432">  2  7  1 -1</clus>
<clus scale="   95.766">  5  6 -1 -1</clus>
<clus scale="   23.821">  1  5  2 -1</clus>
</clustering>
</event>
<event>
 9    1  0.1296032E-005  0.1232345E+03  0.7546771E-02  0.1237877E+00
         -2   -1    0    0    0  501 -0.00000000000E+00  0.00000000000E+00  0.68823072392E+02  0.68823072392E+02  0.00000000000E+00 0.  1.
          2   -1    0    0  502    0  0.00000000000E+00 -0.00000000000E+00 -0.94158535095E+03  0.94158535095E+03  0.00000000000E+00 0. -1.
         23    2    1    2    0    0  0.86462662873E+02 -0.24094555025E+02 -0.18877860405E+02  0.12987004528E+03  0.91943000790E+02 0.  0.
         23    2    1    2    0    0 -0.72885263602E+01  0.76743383308E+02 -0.47763610813E+03  0.49246205335E+03  0.91869215171E+02 0.  0.
        -11    1    3    3    0    0  0.71759532219E+02  0.15372314334E+02 -0.39095972076E+02  0.83151870363E+02  0.00000000000E+00 0.  1.
         11    1    3    3    0    0  0.14703130654E+02 -0.39466869358E+02  0.20218111671E+02  0.46718174916E+02  0.00000000000E+00 0. -1.
        -13    1    4    4    0    0 -0.45190737963E+02  0.62855501719E+02 -0.26716356341E+03  0.27815353046E+03  0.00000000000E+00 0. -1.
         13    1    4    4    0    0  0.37902211602E+02  0.13887881589E+02 -0.21047254473E+03  0.21430852289E+03  0.00000000000E+00 0.  1.
         21    1    1    2  502  501 -0.79174136513E+02 -0.52648828283E+02 -0.37624831002E+03  0.38807632472E+03  0.00000000000E+00 0. -1.
<scales pt_clust_5="13000.00000" pt_clust_6="13000.00000" pt_clust_7="13000.00000" pt_clust_8="13000.00000" pt_clust_9="95.08124"></scales>
<clustering>
<clus scale="   91.869">  7  8 -1 -1</clus>
<clus scale="   91.943">  5  6 -1 -1</clus>
<clus scale="   95.081">  2  9  1 -1</clus>
<clus scale="  123.179">  2  7  1 -1</clus>
<clus scale="   95.081">  2  5  1 -1</clus>
</clustering>
</event>
<event>
 9    1  0.1296032E-005  0.2094909E+03  0.7546771E-02  0.1142265E+00
         -1   -1    0    0    0  501 -0.00000000000E+00  0.00000000000E+00  0.34645344355E+03  0.34645344355E+03  0.00000000000E+00 0.  1.
          1   -1    0    0  502    0  0.00000000000E+00 -0.00000000000E+00 -0.31059460898E+03  0.31059460898E+03  0.00000000000E+00 0. -1.
         23    2    1    2    0    0  0.13523977049E+03  0.96257340066E+02  0.97736664187E+02  0.21324388350E+03  0.91461616461E+02 0.  0.
         23    2    1    2    0    0 -0.18248899321E+03 -0.11041123925E+03  0.11498687347E+03  0.26019059353E+03  0.94785492000E+02 0.  0.
        -11    1    4    4    0    0 -0.10203195724E+03 -0.11332755469E+03  0.67933048538E+02  0.16693877331E+03  0.00000000000E+00 0. -1.
         11    1    4    4    0    0 -0.80457035972E+02  0.29163154424E+01  0.47053824933E+02  0.93251820218E+02  0.00000000000E+00 0.  1.
        -13    1    3    3    0    0 -0.38970565036E+01  0.37520486927E+02  0.12037119566E+02  0.39596290686E+02  0.00000000000E+00 0. -1.
         13    1    3    3    0    0  0.13913682699E+03  0.58736853139E+02  0.85699544620E+02  0.17364759281E+03  0.00000000000E+00 0.  1.
         21    1    1    2  502  501  0.47249222726E+02  0.14153899183E+02 -0.17686470309E+03  0.18361357550E+03  0.00000000000E+00 0.  1.
<scales pt_clust_5="13000.00000" pt_clust_6="13000.00000" pt_clust_7="13000.00000" pt_clust_8="13000.00000" pt_clust_9="49.32364"></scales>
<clustering>
<clus scale="   49.324">  2  9  1 -1</clus>
<clus scale="   91.462">  7  8 -1 -1</clus>
<clus scale="   94.785">  5  6 -1 -1</clus>
<clus scale="  208.008">  1  7  2 -1</clus>
<clus scale="   49.324">  2  5  1 -1</clus>
</clustering>
</event>
<event>
 9    1  0.1296032E-005  0.9639747E+02  0.7546771E-02  0.1288803E+00
         -1   -1    0    0    0  501 -0.00000000000E+00  0.00000000000E+00  0.10991239867E+03  0.10991239867E+03  0.00000000000E+00 0.  1.
          1   -1    0    0  502    0  0.00000000000E+00 -0.00000000000E+00 -0.16666050393E+03  0.16666050393E+03  0.00000000000E+00 0. -1.
         23    2    1    2    0    0 -0.17878795522E+02  0.10711817348E+02  0.54662557368E+02  0.11000903115E+03  0.93164356903E+02 0.  0.
         23    2    1    2    0    0  0.29556099139E+02 -0.30067642079E+02 -0.94683640036E+02  0.13844269339E+03  0.91781052326E+02 0.  0.
        -11    1    3    3    0    0 -0.33056916518E+02  0.42338021215E+02  0.52107646616E+02  0.74836318763E+02  0.00000000000E+00 0.  1.
         11    1    3    3    0    0  0.15178120996E+02 -0.31626203867E+02  0.25549107517E+01  0.35172712391E+02  0.00000000000E+00 0. -1.
        -11    1    4    4    0    0 -0.28834533286E+02 -0.29399872830E+02 -0.50814481595E+02  0.65405614224E+02  0.00000000000E+00 0.  1.
         11    1    4    4    0    0  0.58390632425E+02 -0.66776924901E+00 -0.43869158441E+02  0.73037079166E+02  0.00000000000E+00 0. -1.
         21    1    1    2  502  501 -0.11677303618E+02  0.19355824731E+02 -0.16727022593E+02  0.28121178062E+02  0.00000000000E+00 0. -1.
<scales pt_clust_5="13000.00000" pt_clust_6="13000.00000" pt_clust_7="13000.00000" pt_clust_8="13000.00000" pt_clust_9="22.60547"></scales>
<clustering>
<clus scale="   22.605">  2  9  1 -1</clus>
<clus scale="   91.781">  7  8 -1 -1</clus>
<clus scale="   93.164">  5  6 -1 -1</clus>
<clus scale="   95.061">  2  7  1 -1</clus>
<clus scale="   22.605">  2  5  1 -1</clus>
</clustering>
</event>
<event>
 9    1  0.1296032E-005  0.9477299E+02  0.7546771E-02  0.1293307E+00
          1   -1    0    0  502    0  0.00000000000E+00  0.00000000000E+00  0.55338636467E+03  0.55338636467E+03  0.00000000000E+00 0. -1.
         -1   -1    0    0    0  501 -0.00000000000E+00 -0.00000000000E+00 -0.29442343369E+02  0.29442343369E+02  0.00000000000E+00 0.  1.
         23    2    1    2    0    0  0.28910958796E+02  0.33327129749E+02  0.17675986564E+03  0.20341686046E+03  0.90486617255E+02 0.  0.
         23    2    1    2    0    0  0.10657105910E+02  0.79637456645E+01  0.18918876592E+03  0.21138473275E+03  0.93349456024E+02 0.  0.
        -11    1    4    4    0    0  0.17250159312E+02 -0.37366394830E+02  0.49485147040E+02  0.64362995863E+02  0.00000000000E+00 0.  1.
         11    1    4    4    0    0 -0.65930534021E+01  0.45330140495E+02  0.13970361888E+03  0.14702173689E+03  0.00000000000E+00 0. -1.
        -13    1    3    3    0    0 -0.25081407835E+02  0.30382668396E+02  0.39050291626E+02  0.55471693988E+02  0.00000000000E+00 0. -1.
         13    1    3    3    0    0  0.53992366631E+02  0.29444613539E+01  0.13770957401E+03  0.14794516647E+03  0.00000000000E+00 0.  1.
         21    1    1    2  502  501 -0.39568064707E+02 -0.41290875414E+02  0.15799538974E+03  0.16802711483E+03  0.00000000000E+00 0.  1.
<scales pt_clust_5="13000.00000" pt_clust_6="13000.00000" pt_clust_7="13000.00000" pt_clust_8="13000.00000" pt_clust_9="57.18888"></scales>
<clustering>
<clus scale="   57.189">  1  9  2 -1</clus>
<clus scale="   90.487">  7  8 -1 -1</clus>
<clus scale="   91.954">  2  7  1 -1</clus>
<clus scale="   93.349">  5  6 -1 -1</clus>
<clus scale="   57.189">  1  5  2 -1</clus>
</clustering>
</event>
<event>
 9    1  0.1296032E-005  0.1882521E+03  0.7546771E-02  0.1160086E+00
          1   -1    0    0  502    0  0.00000000000E+00  0.00000000000E+00  0.86086383511E+03  0.86086383511E+03  0.00000000000E+00 0. -1.
         -1   -1    0    0    0  501 -0.00000000000E+00 -0.00000000000E+00 -0.64979441704E+02  0.64979441704E+02  0.00000000000E+00 0.  1.
         23    2    1    2    0    0  0.13951558867E+03  0.75156155188E+02  0.19607192442E+03  0.26821346648E+03  0.91548986409E+02 0.  0.
         23    2    1    2    0    0 -0.17029003924E+03 -0.45358493610E+02  0.33615093944E+03  0.39051116701E+03  0.91899004723E+02 0.  0.
        -11    1    4    4    0    0 -0.94582126322E+02  0.21622418996E+02  0.14896186357E+03  0.17777216999E+03  0.00000000000E+00 0.  1.
         11    1    4    4    0    0 -0.75707912921E+02 -0.66980912606E+02  0.18718907587E+03  0.21273899703E+03  0.00000000000E+00 0. -1.
        -11    1    3    3    0    0  0.86677505600E+02  0.37406139938E+02  0.46673109948E+02  0.10531186293E+03  0.00000000000E+00 0.  1.
         11    1    3    3    0    0  0.52838083072E+02  0.37750015249E+02  0.14939881447E+03  0.16290160355E+03  0.00000000000E+00 0. -1.
         21    1    1    2  502  501  0.30774450571E+02 -0.29797661577E+02  0.26366152955E+03  0.26711864332E+03  0.00000000000E+00 0.  1.
<scales pt_clust_5="13000.00000" pt_clust_6="13000.00000" pt_clust_7="13000.00000" pt_clust_8="13000.00000" pt_clust_9="42.83652"></scales>
<clustering>
<clus scale="   42.837">  1  9  2 -1</clus>
<clus scale="   91.549">  7  8 -1 -1</clus>
<clus scale="   91.899">  5  6 -1 -1</clus>
<clus scale="  188.082">  2  7  1 -1</clus>
<clus scale="   42.837">  1  5  2 -1</clus>
</clustering>
</event>
<event>
 9    1  0.1296032E-005  0.1339365E+03  0.7546771E-02  0.1222143E+00
          1   -1    0    0  502    0  0.00000000000E+00  0.00000000000E+00  0.14813030376E+03  0.14813030376E+03  0.00000000000E+00 0. -1.
         -1   -1    0    0    0  501 -0.00000000000E+00 -0.00000000000E+00 -0.66734195279E+03  0.66734195279E+03  0.00000000000E+00 0.  1.
         23    2    1    2    0    0  0.94860298615E+01 -0.99849226691E+02 -0.59022651179E+03  0.60556245606E+03  0.90987362475E+02 0.  0.
         23    2    1    2    0    0 -0.19220985987E+02  0.70629087445E+02 -0.14539449377E+02  0.11898056297E+03  0.92666415067E+02 0.  0.
        -13    1    4    4    0    0 -0.26304780412E+02 -0.78209626976E+01 -0.27845040256E+02  0.39095462613E+02  0.00000000000E+00 0.  1.
         13    1    4    4    0    0  0.70837944250E+01  0.78450050143E+02  0.13305590879E+02  0.79885100360E+02  0.00000000000E+00 0. -1.
        -13    1    3    3    0    0  0.48277698356E+02 -0.67137504701E+02 -0.41389744620E+03  0.42207733494E+03  0.00000000000E+00 0.  1.
         13    1    3    3    0    0 -0.38791668494E+02 -0.32711721990E+02 -0.17632906559E+03  0.18348512112E+03  0.00000000000E+00 0. -1.
         21    1    1    2  502  501  0.97349561260E+01  0.29220139246E+02  0.85554312146E+02  0.90929237515E+02  0.00000000000E+00 0. -1.
<scales pt_clust_5="13000.00000" pt_clust_6="13000.00000" pt_clust_7="13000.00000" pt_clust_8="13000.00000" pt_clust_9="30.79912"></scales>
<clustering>
<clus scale="   30.799">  1  9  2 -1</clus>
<clus scale="   90.987">  7  8 -1 -1</clus>
<clus scale="   92.666">  5  6 -1 -1</clus>
<clus scale="  132.780">  2  7  1 -1</clus>
<clus scale="   30.799">  1  5  2 -1</clus>
</clustering>
</event>
<event>
 9    1  0.1296032E-005  0.1292705E+03  0.7546771E-02  0.1237054E+00
         -2   -1    0    0    0  501 -0.00000000000E+00  0.00000000000E+00  0.34028412497E+03  0.34028412497E+03  0.00000000000E+00 0.  1.
          2   -1    0    0  502    0  0.00000000000E+00 -0.00000000000E+00 -0.28049015322E+03  0.28049015322E+03  0.00000000000E+00 0. -1.
         23    2    1    2    0    0 -0.78696635177E+02  0.24783855411E+02  0.19784769357E+03  0.23095226779E+03  0.85952546606E+02 0.  0.
         23    2    1    2    0    0  0.11553683238E+02 -0.56058670405E+02  0.87451394749E+02  0.15246395250E+03  0.11100201910E+03 0.  0.
        -11    1    3    3    0    0 -0.87099328820E+02 -0.80146062982E+00  0.17562016950E+03  0.19603412804E+03  0.00000000000E+00 0.  1.
         11    1    3    3    0    0  0.84026936428E+01  0.25585316041E+02  0.22227524072E+02  0.34918139752E+02  0.00000000000E+00 0. -1.
        -13    1    4    4    0    0  0.56527483421E+02 -0.38053913191E+02  0.23174352101E+02  0.71975740957E+02  0.00000000000E+00 0. -1.
         13    1    4    4    0    0 -0.44973800183E+02 -0.18004757214E+02  0.64277042647E+02  0.80488211539E+02  0.00000000000E+00 0.  1.
         21    1    1    2  502  501  0.67142951940E+02  0.31274814994E+02 -0.22550511658E+03  0.23735805790E+03  0.00000000000E+00 0. -1.
<scales pt_clust_5="13000.00000" pt_clust_6="13000.00000" pt_clust_7="13000.00000" pt_clust_8="13000.00000" pt_clust_9="74.06949"></scales>
<clustering>
<clus scale="   74.069">  2  9  1 -1</clus>
<clus scale="   85.953">  5  6 -1 -1</clus>
<clus scale="  108.523">  1  5  2 -1</clus>
<clus scale="  111.002">  7  8 -1 -1</clus>
<clus scale="   74.069">  2  5  1 -1</clus>
</clustering>
</event>
<event>
 9    1  0.1296032E-005  0.2270517E+03  0.7546771E-02  0.1128859E+00
          2   -1    0    0  502    0  0.00000000000E+00  0.00000000000E+00  0.20310673784E+04  0.20310673784E+04  0.00000000000E+00 0. -1.
         -2   -1    0    0    0  501 -0.00000000000E+00 -0.00000000000E+00 -0.46651733315E+02  0.46651733315E+02  0.00000000000E+00 0.  1.
         23    2    1    2    0    0 -0.63145094555E+02  0.17435916206E+03  0.41872673601E+03  0.46674975452E+03  0.90193312033E+02 0.  0.
         23    2    1    2    0    0  0.41101426700E+02 -0.26522621306E+03  0.10795181964E+04  0.11158888525E+04  0.88397530709E+02 0.  0.
        -13    1    3    3    0    0 -0.39848023628E+02  0.17532232650E+03  0.33958189138E+03  0.38424164807E+03  0.00000000000E+00 0.  1.
         13    1    3    3    0    0 -0.23297070927E+02 -0.96316443414E+00  0.79144844627E+02  0.82508106454E+02  0.00000000000E+00 0. -1.
        -13    1    4    4    0    0  0.34402593513E+02 -0.34910351746E+02  0.13343631902E+03  0.14215316504E+03  0.00000000000E+00 0.  1.
         13    1    4    4    0    0  0.66988331868E+01 -0.23031586131E+03  0.94608187734E+03  0.97373568743E+03  0.00000000000E+00 0. -1.
         21    1    1    2  502  501  0.22043667855E+02  0.90867050997E+02  0.48617071271E+03  0.49508050471E+03  0.00000000000E+00 0. -1.
<scales pt_clust_5="13000.00000" pt_clust_6="13000.00000" pt_clust_7="13000.00000" pt_clust_8="13000.00000" pt_clust_9="93.50264"></scales>
<clustering>
<clus scale="   88.398">  7  8 -1 -1</clus>
<clus scale="   90.193">  5  6 -1 -1</clus>
<clus scale="   93.503">  1  9  2 -1</clus>
<clus scale="  226.344">  1  7  2 -1</clus>
<clus scale="   93.503">  1  5  2 -1</clus>
</clustering>
</event>
<event>
 9    1  0.1296032E-005  0.1454494E+03  0.7546771E-02  0.1210444E+00
          2   -1    0    0  502    0  0.00000000000E+00  0.00000000000E+00  0.46892640465E+03  0.46892640465E+03  0.00000000000E+00 0. -1.
         -2   -1    0    0    0  501 -0.00000000000E+00 -0.00000000000E+00 -0.10431653288E+03  0.10431653288E+03  0.00000000000E+00 0.  1.
         23    2    1    2    0    0  0.28928660002E+02  0.93018400544E+02 -0.27570727327E+02  0.13688498621E+03  0.92130691065E+02 0.  0.
         23    2    1    2    0    0 -0.62807251872E+02 -0.66926890548E+02  0.34035450808E+03  0.36916814859E+03  0.10963562924E+03 0.  0.
        -11    1    3    3    0    0  0.13345122535E+02  0.79599082692E+02 -0.58543306092E+02  0.99706694605E+02  0.00000000000E+00 0.  1.
         11    1    3    3    0    0  0.15583537466E+02  0.13419317851E+02  0.30972578765E+02  0.37178291608E+02  0.00000000000E+00 0. -1.
        -13    1    4    4    0    0 -0.41621312450E+01 -0.20159830439E+02 -0.62499969839E-01  0.20585091841E+02  0.00000000000E+00 0.  1.
         13    1    4    4    0    0 -0.58645120627E+02 -0.46767060109E+02  0.34041700805E+03  0.34858305675E+03  0.00000000000E+00 0. -1.
         21    1    1    2  502  501  0.33878591870E+02 -0.26091509996E+02  0.51826091008E+02  0.67189802724E+02  0.00000000000E+00 0.  1.
<scales pt_clust_5="13000.00000" pt_clust_6="13000.00000" pt_clust_7="13000.00000" pt_clust_8="13000.00000" pt_clust_9="42.76127"></scales>
<clustering>
<clus scale="   42.761">  1  9  2 -1</clus>
<clus scale="   92.131">  5  6 -1 -1</clus>
<clus scale="  109.636">  7  8 -1 -1</clus>
<clus scale="  132.754">  2  5  1 -1</clus>
<clus scale="   42.761">  1  5  2 -1</clus>
</clustering>
</event>
<event>
 9    1  0.1296032E-005  0.2157184E+03  0.7546771E-02  0.1137256E+00
          1   -1    0    0  502    0  0.00000000000E+00  0.00000000000E+00  0.16026232428E+04  0.16026232428E+04  0.00000000000E+00 0. -1.
         -1   -1    0    0    0  501 -0.00000000000E+00 -0.00000000000E+00 -0.46773673977E+02  0.46773673977E+02  0.00000000000E+00 0.  1.
         23    2    1    2    0    0 -0.48732446514E+02 -0.19157040342E+03  0.65085342504E+03  0.68597471287E+03  0.88752774649E+02 0.  0.
         23    2    1    2    0    0  0.90938346895E+02  0.17439298436E+03  0.88922431785E+03  0.91520237143E+03  0.90514072264E+02 0.  0.
        -11    1    4    4    0    0 -0.79139917854E+01  0.40280936147E+02  0.91819342679E+02  0.10057821222E+03  0.00000000000E+00 0.  1.
         11    1    4    4    0    0  0.98852338681E+02  0.13411204821E+03  0.79740497518E+03  0.81462415921E+03  0.00000000000E+00 0. -1.
        -13    1    3    3    0    0 -0.50899533546E+02 -0.41328842808E+02  0.22682556046E+03  0.23611156397E+03  0.00000000000E+00 0. -1.
         13    1    3    3    0    0  0.21670870315E+01 -0.15024156061E+03  0.42402786458E+03  0.44986314890E+03  0.00000000000E+00 0.  1.
         21    1    1    2  502  501 -0.42205900381E+02  0.17177419059E+02  0.15771825961E+02  0.48219832504E+02  0.00000000000E+00 0.  1.
<scales pt_clust_5="13000.00000" pt_clust_6="13000.00000" pt_clust_7="13000.00000" pt_clust_8="13000.00000" pt_clust_9="45.56755"></scales>
<clustering>
<clus scale="   45.568">  2  9  1 -1</clus>
<clus scale="   88.753">  7  8 -1 -1</clus>
<clus scale="   90.514">  5  6 -1 -1</clus>
<clus scale="  214.985">  2  7  1 -1</clus>
<clus scale="  215.718">  1  5  2 -1</clus>
</clustering>
</event>
<event>
 9    1  0.1296032E-005  0.1868667E+03  0.7546771E-02  0.1161566E+00
          1   -1    0    0  502    0  0.00000000000E+00  0.00000000000E+00  0.28447473570E+03  0.28447473570E+03  0.00000000000E+00 0. -1.
         -1   -1    0    0    0  501 -0.00000000000E+00 -0.00000000000E+00 -0.22677035244E+03  0.22677035244E+03  0.00000000000E+00 0.  1.
         23    2    1    2    0    0 -0.15801173030E+03  0.14141374489E+02 -0.12201159564E+03  0.22049951373E+03  0.92550098334E+02 0.  0.
         23    2    1    2    0    0  0.17702642758E+03  0.33107840145E+00  0.13570998298E+03  0.24067024832E+03  0.90368707373E+02 0.  0.
        -11    1    4    4    0    0  0.88557174184E+02  0.44928601023E+02  0.60477673950E+02  0.11626909020E+03  0.00000000000E+00 0.  1.
         11    1    4    4    0    0  0.88469253400E+02 -0.44597522621E+02  0.75232309029E+02  0.12440115813E+03  0.00000000000E+00 0. -1.
        -13    1    3    3    0    0 -0.46503395885E+02 -0.31860720211E+02 -0.12856317136E+02  0.57818303430E+02  0.00000000000E+00 0. -1.
         13    1    3    3    0    0 -0.11150833441E+03  0.46002094700E+02 -0.10915527850E+03  0.16268121030E+03  0.00000000000E+00 0.  1.
         21    1    1    2  502  501 -0.19014697286E+02 -0.14472452890E+02  0.44005995919E+02  0.50075326083E+02  0.00000000000E+00 0. -1.
<scales pt_clust_5="13000.00000" pt_clust_6="13000.00000" pt_clust_7="13000.00000" pt_clust_8="13000.00000" pt_clust_9="23.89583"></scales>
<clustering>
<clus scale="   23.896">  1  9  2 -1</clus>
<clus scale="   90.369">  5  6 -1 -1</clus>
<clus scale="   92.550">  7  8 -1 -1</clus>
<clus scale="  185.796">  1  5  2 -1</clus>
<clus scale="   23.896">  1  5  2 -1</clus>
</clustering>
</event>
<event>
 9    1  0.1296032E-005  0.3215634E+03  0.7546771E-02  0.1075026E+00
         -1   -1    0    0    0  501 -0.00000000000E+00  0.00000000000E+00  0.11805849559E+04  0.11805849559E+04  0.00000000000E+00 0.  1.
          1   -1    0    0  502    0  0.00000000000E+00 -0.00000000000E+00 -0.10535154749E+03  0.10535154749E+03  0.00000000000E+00 0. -1.
         23    2    1    2    0    0 -0.26609268606E+03 -0.12417348359E+03  0.48878698683E+03  0.57715527109E+03  0.89281111375E+02 0.  0.
         23    2    1    2    0    0  0.28392711119E+03  0.15394417233E+03  0.58436500050E+03  0.67401497080E+03  0.92197149591E+02 0.  0.
        -11    1    4    4    0    0  0.13938693250E+03  0.65819739076E+02  0.18870346317E+03  0.24365950015E+03  0.00000000000E+00 0. -1.
         11    1    4    4    0    0  0.14454017869E+03  0.88124433251E+02  0.39566153734E+03  0.43035547065E+03  0.00000000000E+00 0.  1.
        -11    1    3    3    0    0 -0.34579826365E+02 -0.37201318434E+02  0.14513262045E+03  0.15376338968E+03  0.00000000000E+00 0. -1.
         11    1    3    3    0    0 -0.23151285970E+03 -0.86972165159E+02  0.34365436638E+03  0.42339188142E+03  0.00000000000E+00 0.  1.
         21    1    1    2  502  501 -0.17834425121E+02 -0.29770688733E+02  0.20814211091E+01  0.34766261532E+02  0.00000000000E+00 0.  1.
<scales pt_clust_5="13000.00000" pt_clust_6="13000.00000" pt_clust_7="13000.00000" pt_clust_8="13000.00000" pt_clust_9="34.70390"></scales>
<clustering>
<clus scale="   34.704">  2  9  1 -1</clus>
<clus scale="   89.281">  7  8 -1 -1</clus>
<clus scale="   92.197">  5  6 -1 -1</clus>
<clus scale="  320.739">  1  7  2 -1</clus>
<clus scale="   34.704">  2  5  1 -1</clus>
</clustering>
</event>
<event>
 9    1  0.1296032E-005  0.1709565E+03  0.7546771E-02  0.1177112E+00
         -2   -1    0    0    0  501 -0.00000000000E+00  0.00000000000E+00  0.24320143299E+03  0.24320143299E+03  0.00000000000E+00 0.  1.
          2   -1    0    0  502    0  0.00000000000E+00 -0.00000000000E+00 -0.30856608873E+03  0.30856608873E+03  0.00000000000E+00 0. -1.
         23    2    1    2    0    0  0.69558284338E+01 -0.11680910840E+03  0.16587728585E+03  0.22277708253E+03  0.91769293269E+02 0.  0.
         23    2    1    2    0    0 -0.20509572560E+02  0.14680073555E+03 -0.23892595624E+03  0.29519331269E+03  0.89902062072E+02 0.  0.
        -11    1    3    3    0    0  0.17289407489E+02 -0.31687777399E+02  0.12044576903E+03  0.12573870575E+03  0.00000000000E+00 0.  1.
         11    1    3    3    0    0 -0.10333579055E+02 -0.85121331001E+02  0.45431516819E+02  0.97038376779E+02  0.00000000000E+00 0. -1.
        -13    1    4    4    0    0 -0.26155259639E+02  0.11510662071E+02 -0.12117153292E+02  0.31038981169E+02  0.00000000000E+00 0.  1.
         13    1    4    4    0    0  0.56456870794E+01  0.13529007347E+03 -0.22680880295E+03  0.26415433152E+03  0.00000000000E+00 0. -1.
         21    1    1    2  502  501  0.13553744126E+02 -0.29991627145E+02  0.76840146619E+01  0.33797126505E+02  0.00000000000E+00 0.  1.
<scales pt_clust_5="13000.00000" pt_clust_6="13000.00000" pt_clust_7="13000.00000" pt_clust_8="13000.00000" pt_clust_9="32.91203"></scales>
<clustering>
<clus scale="   32.912">  1  9  2 -1</clus>
<clus scale="   89.902">  7  8 -1 -1</clus>
<clus scale="   91.769">  5  6 -1 -1</clus>
<clus scale="  169.961">  2  7  1 -1</clus>
<clus scale="  169.961">  2  5  1 -1</clus>
</clustering>
</event>
<event>
 9    1  0.1296032E-005  0.9482865E+02  0.7546771E-02  0.1293197E+00
         -1   -1    0    0    0  501 -0.00000000000E+00  0.00000000000E+00  0.14309299029E+03  0.14309299029E+03  0.00000000000E+00 0.  1.
          1   -1    0    0  502    0  0.00000000000E+00 -0.00000000000E+00 -0.26012421020E+03  0.26012421020E+03  0.00000000000E+00 0. -1.
         23    2    1    2    0    0  0.73463952572E+01  0.49433657523E+01  0.64792037097E+02  0.11123042035E+03  0.89976618919E+02 0.  0.
         23    2    1    2    0    0 -0.43035796822E+02  0.12630877925E+00  0.42440775385E+01  0.10245976896E+03  0.92886469941E+02 0.  0.
        -11    1    3    3    0    0  0.21952627534E+02  0.33765012152E+02  0.67715549949E+02  0.78786988813E+02  0.00000000000E+00 0.  1.
         11    1    3    3    0    0 -0.14606232277E+02 -0.28821646400E+02 -0.29235128525E+01  0.32443431538E+02  0.00000000000E+00 0. -1.
        -13    1    4    4    0    0 -0.97965179613E+01  0.38301071166E+02  0.26049813096E+02  0.47344868560E+02  0.00000000000E+00 0.  1.
         13    1    4    4    0    0 -0.33239278861E+02 -0.38174762386E+02 -0.21805735557E+02  0.55114900396E+02  0.00000000000E+00 0. -1.
         21    1    1    2  502  501  0.35689401565E+02 -0.50696745315E+01 -0.18606733454E+03  0.18952701118E+03  0.00000000000E+00 0. -1.
<scales pt_clust_5="13000.00000" pt_clust_6="13000.00000" pt_clust_7="13000.00000" pt_clust_8="13000.00000" pt_clust_9="36.04768"></scales>
<clustering>
<clus scale="   36.048">  2  9  1 -1</clus>
<clus scale="   89.977">  5  6 -1 -1</clus>
<clus scale="   91.980">  1  5  2 -1</clus>
<clus scale="   92.886">  7  8 -1 -1</clus>
<clus scale="   36.048">  2  5  1 -1</clus>
</clustering>
</event>
<event>
 9    1  0.1296032E-005  0.1285279E+03  0.7546771E-02  0.1229816E+00
          1   -1    0    0  502    0  0.00000000000E+00  0.00000000000E+00  0.74775196181E+03  0.74775196181E+03  0.00000000000E+00 0. -1.
         -1   -1    0    0    0  501 -0.00000000000E+00 -0.00000000000E+00 -0.43515156116E+02  0.43515156116E+02  0.00000000000E+00 0.  1.
         23    2    1    2    0    0 -0.52339544850E+02  0.64767616601E+02  0.14656837643E+03  0.19207100266E+03  0.92058182564E+02 0.  0.
         23    2    1    2    0    0  0.29371769387E+02 -0.98884042734E+02  0.22417280617E+03  0.26317412214E+03  0.91468119011E+02 0.  0.
        -13    1    3    3    0    0 -0.41993844771E+02  0.88049856764E+02  0.10504991138E+03  0.14335879518E+03  0.00000000000E+00 0.  1.
         13    1    3    3    0    0 -0.10345700079E+02 -0.23282240163E+02  0.41518465045E+02  0.48712207472E+02  0.00000000000E+00 0. -1.
        -13    1    4    4    0    0  0.52482704517E+02 -0.93267373836E+02  0.14314628616E+03  0.17872911497E+03  0.00000000000E+00 0. -1.
         13    1    4    4    0    0 -0.23110935130E+02 -0.56166688986E+01  0.81026520005E+02  0.84445007172E+02  0.00000000000E+00 0.  1.
         21    1    1    2  502  501  0.22967775463E+02  0.34116426133E+02  0.33349562310E+03  0.33602199313E+03  0.00000000000E+00 0.  1.
<scales pt_clust_5="13000.00000" pt_clust_6="13000.00000" pt_clust_7="13000.00000" pt_clust_8="13000.00000" pt_clust_9="41.12723"></scales>
<clustering>
<clus scale="   41.127">  1  9  2 -1</clus>
<clus scale="   91.468">  7  8 -1 -1</clus>
<clus scale="   92.058">  5  6 -1 -1</clus>
<clus scale="  128.106">  1  7  2 -1</clus>
<clus scale="   41.127">  1  5  2 -1</clus>
</clustering>
</event>
<event>
 9    1  0.1296032E-005  0.1463334E+03  0.7546771E-02  0.1218583E+00
         -2   -1    0    0    0  501 -0.00000000000E+00  0.00000000000E+00  0.15983806993E+03  0.15983806993E+03  0.00000000000E+00 0.  1.
          2   -1    0    0  502    0  0.00000000000E+00 -0.00000000000E+00 -0.29879490521E+03  0.29879490521E+03  0.00000000000E+00 0. -1.
         23    2    1    2    0    0  0.52954616647E+02  0.26300658922E+02  0.24784484195E+02  0.11247370026E+03  0.92412913109E+02 0.  0.
         23    2    1    2    0    0  0.35245467882E+02 -0.10547757178E+03  0.32528549189E+00  0.14375846139E+03  0.91096807046E+02 0.  0.
        -13    1    3    3    0    0  0.25685589515E+02  0.14966776320E+01 -0.34273063103E+02  0.42855949495E+02  0.00000000000E+00 0. -1.
         13    1    3    3    0    0  0.27269027132E+02  0.24803981290E+02  0.59057547298E+02  0.69617750764E+02  0.00000000000E+00 0.  1.
        -13    1    4    4    0    0  0.60205182235E+02 -0.70221701292E+02  0.22511471849E+02  0.95197256605E+02  0.00000000000E+00 0. -1.
         13    1    4    4    0    0 -0.24959714353E+02 -0.35255870490E+02 -0.22186186357E+02  0.48561204780E+02  0.00000000000E+00 0.  1.
         21    1    1    2  502  501 -0.88200084529E+02  0.79176912860E+02 -0.16406660496E+03  0.20240081350E+03  0.00000000000E+00 0.  1.
<scales pt_clust_5="13000.00000" pt_clust_6="13000.00000" pt_clust_7="13000.00000" pt_clust_8="13000.00000" pt_clust_9="114.51999"></scales>
<clustering>
<clus scale="   91.097">  7  8 -1 -1</clus>
<clus scale="   92.413">  5  6 -1 -1</clus>
<clus scale="  109.709">  1  5  2 -1</clus>
<clus scale="  114.520">  2  9  1 -1</clus>
<clus scale="  114.520">  2  5  1 -1</clus>
</clustering>
</event>
<event>
 9    1  0.1296032E-005  0.9601046E+02  0.7546771E-02  0.1289039E+00
         -2   -1    0    0    0  501 -0.00000000000E+00  0.00000000000E+00  0.91561381957E+02  0.91561381957E+02  0.00000000000E+00 0.  1.
          2   -1    0    0  502    0  0.00000000000E+00 -0.00000000000E+00 -0.13607933635E+03  0.13607933635E+03  0.00000000000E+00 0. -1.
         23    2    1    2    0    0 -0.76441607782E+01 -0.22244385977E+02  0.65995970053E+01  0.94143131505E+02  0.90918252444E+02 0.  0.
         23    2    1    2    0    0 -0.17158740060E+01  0.42493866323E+02 -0.37416152821E+02  0.10731782308E+03  0.91150829730E+02 0.  0.
        -11    1    3    3    0    0 -0.15541037802E+02  0.33472141624E+02  0.83723986735E+01  0.37841844305E+02  0.00000000000E+00 0. -1.
         11    1    3    3    0    0  0.78968770238E+01 -0.55716527601E+02 -0.17728016682E+01  0.56301287200E+02  0.00000000000E+00 0.  1.
        -13    1    4    4    0    0 -0.33423153483E+02 -0.13649116500E+02 -0.13861566592E+02  0.38672323415E+02  0.00000000000E+00 0.  1.
         13    1    4    4    0    0  0.31707279477E+02  0.56142982824E+02 -0.23554586229E+02  0.68645499667E+02  0.00000000000E+00 0. -1.
         21    1    1    2  502  501  0.93600347842E+01 -0.20249480346E+02 -0.13701398579E+02  0.26179763721E+02  0.00000000000E+00 0. -1.
<scales pt_clust_5="13000.00000" pt_clust_6="13000.00000" pt_clust_7="13000.00000" pt_clust_8="13000.00000" pt_clust_9="22.30811"></scales>
<clustering>
<clus scale="   22.308">  2  9  1 -1</clus>
<clus scale="   90.918">  5  6 -1 -1</clus>
<clus scale="   91.151">  7  8 -1 -1</clus>
<clus scale="   95.790">  1  5  2 -1</clus>
<clus scale="   22.308">  2  5  1 -1</clus>
</clustering>
</event>
<event>
 9    1  0.1296032E-005  0.1304515E+03  0.7546771E-02  0.1229338E+00
         -1   -1    0    0    0  501 -0.00000000000E+00  0.00000000000E+00  0.17381473519E+03  0.17381473519E+03  0.00000000000E+00 0.  1.
          1   -1    0    0  502    0  0.00000000000E+00 -0.00000000000E+00 -0.33061776667E+03  0.33061776667E+03  0.00000000000E+00 0. -1.
         23    2    1    2    0    0 -0.27064141036E+02 -0.82404972749E+02  0.10645898571E+03  0.16003544016E+03  0.82187463805E+02 0.  0.
         23    2    1    2    0    0  0.32106808716E+02  0.13601510737E+03 -0.18541420598E+03  0.24974107012E+03  0.91984877721E+02 0.  0.
        -13    1    4    4    0    0 -0.12313630766E+02  0.16407406428E+02  0.44476992012E+01  0.20990724535E+02  0.00000000000E+00 0.  1.
         13    1    4    4    0    0  0.44420439482E+02  0.11960770094E+03 -0.18986190518E+03  0.22875034559E+03  0.00000000000E+00 0. -1.
        -13    1    3    3    0    0 -0.38089151553E+02 -0.30789628568E+01  0.24219232602E+02  0.45241957364E+02  0.00000000000E+00 0.  1.
         13    1    3    3    0    0  0.11025010517E+02 -0.79326009893E+02  0.82239753104E+02  0.11479348280E+03  0.00000000000E+00 0. -1.
         21    1    1    2  502  501 -0.50426676803E+01 -0.53610134616E+02 -0.77847811209E+02  0.94655991574E+02  0.00000000000E+00 0. -1.
<scales pt_clust_5="13000.00000" pt_clust_6="13000.00000" pt_clust_7="13000.00000" pt_clust_8="13000.00000" pt_clust_9="53.84677"></scales>
<clustering>
<clus scale="   53.847">  2  9  1 -1</clus>
<clus scale="   82.187">  7  8 -1 -1</clus>
<clus scale="   91.985">  5  6 -1 -1</clus>
<clus scale="  123.738">  1  7  2 -1</clus>
<clus scale="   53.847">  2  5  1 -1</clus>
</clustering>
</event>
<event>
 9    1  0.1296032E-005  0.9511025E+02  0.7546771E-02  0.1291126E+00
          1   -1    0    0  502    0  0.00000000000E+00  0.00000000000E+00  0.93428851747E+02  0.93428851747E+02  0.00000000000E+00 0. -1.
         -1   -1    0    0    0  501 -0.00000000000E+00 -0.00000000000E+00 -0.26321644810E+03  0.26321644810E+03  0.00000000000E+00 0.  1.
         23    2    1    2    0    0  0.20689290362E+02  0.89956254537E+01 -0.18251718543E+03  0.20489087265E+03  0.90325958101E+02 0.  0.
         23    2    1    2    0    0 -0.42764164823E+02 -0.32431636666E+02 -0.18388619983E+02  0.10697843320E+03  0.90695418714E+02 0.  0.
        -11    1    4    4    0    0 -0.20542129567E+02 -0.10835569809E+02  0.36898756699E+02  0.43599391121E+02  0.00000000000E+00 0. -1.
         11    1    4    4    0    0 -0.22222035257E+02 -0.21596066857E+02 -0.55287376683E+02  0.63379042081E+02  0.00000000000E+00 0.  1.
        -13    1    3    3    0    0  0.14695053373E+02 -0.40069596845E+02 -0.69839882951E+02  0.81848191401E+02  0.00000000000E+00 0.  1.
         13    1    3    3    0    0  0.59942369890E+01  0.49065222298E+02 -0.11267730247E+03  0.12304268125E+03  0.00000000000E+00 0. -1.
         21    1    1    2  502  501  0.22074874462E+02  0.23436011213E+02  0.31118209051E+02  0.44775993999E+02  0.00000000000E+00 0.  1.
<scales pt_clust_5="13000.00000" pt_clust_6="13000.00000" pt_clust_7="13000.00000" pt_clust_8="13000.00000" pt_clust_9="32.19545"></scales>
<clustering>
<clus scale="   32.195">  1  9  2 -1</clus>
<clus scale="   90.326">  7  8 -1 -1</clus>
<clus scale="   90.695">  5  6 -1 -1</clus>
<clus scale="   94.758">  2  7  1 -1</clus>
<clus scale="   32.195">  1  5  2 -1</clus>
</clustering>
</event>
<event>
 9    1  0.1296032E-005  0.1267287E+03  0.7546771E-02  0.1236572E+00
          2   -1    0    0  502    0  0.00000000000E+00  0.00000000000E+00  0.31397243548E+03  0.31397243548E+03  0.00000000000E+00 0. -1.
         -2   -1    0    0    0  501 -0.00000000000E+00 -0.00000000000E+00 -0.21357995182E+03  0.21357995182E+03  0.00000000000E+00 0.  1.
         23    2    1    2    0    0 -0.43003508338E+02  0.68231146625E+02 -0.14733960047E+03  0.19228600103E+03  0.93595711576E+02 0.  0.
         23    2    1    2    0    0  0.39091452607E+02 -0.13240979908E+03  0.19811631890E+03  0.25405106894E+03  0.78939047735E+02 0.  0.
        -11    1    4    4    0    0 -0.63907522055E+00 -0.24392262314E+02  0.99622735005E+02  0.10256744224E+03  0.00000000000E+00 0.  1.
         11    1    4    4    0    0  0.39730527827E+02 -0.10801753677E+03  0.98493583895E+02  0.15148362670E+03  0.00000000000E+00 0. -1.
        -13    1    3    3    0    0 -0.55018109028E+02  0.36037755728E+02 -0.14331849600E+03  0.15768926233E+03  0.00000000000E+00 0.  1.
         13    1    3    3    0    0  0.12014600689E+02  0.32193390897E+02 -0.40211044676E+01  0.34596738695E+02  0.00000000000E+00 0. -1.
         21    1    1    2  502  501  0.39120557318E+01  0.64178652455E+02  0.49615765226E+02  0.81215317336E+02  0.00000000000E+00 0. -1.
<scales pt_clust_5="13000.00000" pt_clust_6="13000.00000" pt_clust_7="13000.00000" pt_clust_8="13000.00000" pt_clust_9="64.29777"></scales>
<clustering>
<clus scale="   64.298">  1  9  2 -1</clus>
<clus scale="   78.939">  5  6 -1 -1</clus>
<clus scale="   93.596">  7  8 -1 -1</clus>
<clus scale="  116.324">  1  5  2 -1</clus>
<clus scale="   64.298">  1  5  2 -1</clus>
</clustering>
</event>
<event>
 9    1  0.1296032E-005  0.9916406E+02  0.7546771E-02  0.1283935E+00
         -1   -1    0    0    0  501 -0.00000000000E+00  0.00000000000E+00  0.40253748622E+03  0.40253748622E+03  0.00000000000E+00 0.  1.
          1   -1    0    0  502    0  0.00000000000E+00 -0.00000000000E+00 -0.51885065457E+02  0.51885065457E+02  0.00000000000E+00 0. -1.
         23    2    1    2    0    0  0.18965109824E+02 -0.42211180036E+02  0.26106304677E+03  0.27931049946E+03  0.87857735061E+02 0.  0.
         23    2    1    2    0    0 -0.13062536117E+02  0.18074652542E+02  0.10860668014E+03  0.14382195365E+03  0.91607971630E+02 0.  0.
        -11    1    3    3    0    0  0.13244421859E+02  0.16728724370E+02  0.14650567942E+02  0.25882505104E+02  0.00000000000E+00 0. -1.
         11    1    3    3    0    0  0.57206879646E+01 -0.58939904406E+02  0.24641247882E+03  0.25342799435E+03  0.00000000000E+00 0.  1.
        -11    1    4    4    0    0 -0.47475489092E+02  0.21649350648E+02  0.35997626815E+02  0.63391210623E+02  0.00000000000E+00 0. -1.
         11    1    4    4    0    0  0.34412952975E+02 -0.35746981059E+01  0.72609053325E+02  0.80430743026E+02  0.00000000000E+00 0.  1.
         21    1    1    2  502  501 -0.59025737066E+01  0.24136527494E+02 -0.19017306140E+02  0.31290098572E+02  0.00000000000E+00 0. -1.
<scales pt_clust_5="13000.00000" pt_clust_6="13000.00000" pt_clust_7="13000.00000" pt_clust_8="13000.00000" pt_clust_9="24.84778"></scales>
<clustering>
<clus scale="   24.848">  2  9  1 -1</clus>
<clus scale="   87.858">  5  6 -1 -1</clus>
<clus scale="   91.608">  7  8 -1 -1</clus>
<clus scale="   95.710">  1  5  2 -1</clus>
<clus scale="   24.848">  2  5  1 -1</clus>
</clustering>
</event>
<event>
 9    1  0.1296032E-005  0.9569827E+02  0.7546771E-02  0.1289750E+00
          3   -1    0    0  502    0  0.00000000000E+00  0.00000000000E+00  0.21982705865E+02  0.21982705865E+02  0.00000000000E+00 0. -1.
         -3   -1    0    0    0  501 -0.00000000000E+00 -0.00000000000E+00 -0.71144911364E+03  0.71144911364E+03  0.00000000000E+00 0.  1.
         23    2    1    2    0    0  0.19367355380E+02 -0.12064161392E+02 -0.43052956503E+03  0.44069938946E+03  0.91321449097E+02 0.  0.
         23    2    1    2    0    0 -0.21209508300E+02  0.43847429670E+02 -0.17842930169E+03  0.20615856657E+03  0.91059862380E+02 0.  0.
        -13    1    4    4    0    0 -0.48417926854E+02  0.55334277957E+02 -0.12123149852E+03  0.14178594497E+03  0.00000000000E+00 0. -1.
         13    1    4    4    0    0  0.27208418554E+02 -0.11486848287E+02 -0.57197803170E+02  0.64372621596E+02  0.00000000000E+00 0.  1.
        -13    1    3    3    0    0  0.19234492397E+02  0.38766666854E+02 -0.20271628600E+03  0.20728413535E+03  0.00000000000E+00 0. -1.
         13    1    3    3    0    0  0.13286298349E+00 -0.50830828246E+02 -0.22781327902E+03  0.23341525411E+03  0.00000000000E+00 0.  1.
         21    1    1    2  502  501  0.18421529199E+01 -0.31783268278E+02 -0.80507541064E+02  0.86573863481E+02  0.00000000000E+00 0.  1.
<scales pt_clust_5="13000.00000" pt_clust_6="13000.00000" pt_clust_7="13000.00000" pt_clust_8="13000.00000" pt_clust_9="31.83661"></scales>
<clustering>
<clus scale="   31.837">  1  9  2 -1</clus>
<clus scale="   91.060">  5  6 -1 -1</clus>
<clus scale="   91.321">  7  8 -1 -1</clus>
<clus scale="   95.449">  1  5  2 -1</clus>
<clus scale="   31.837">  1  5  2 -1</clus>
</clustering>
</event>
<event>
 9    1  0.1296032E-005  0.1272160E+03  0.7546771E-02  0.1233056E+00
          2   -1    0    0  502    0  0.00000000000E+00  0.00000000000E+00  0.73969498232E+03  0.73969498232E+03  0.00000000000E+00 0. -1.
         -2   -1    0    0    0  501 -0.00000000000E+00 -0.00000000000E+00 -0.25619447470E+02  0.25619447470E+02  0.00000000000E+00 0.  1.
         23    2    1    2    0    0  0.61716152984E+01  0.75875831684E+02  0.26594472903E+03  0.28996114692E+03  0.86923168106E+02 0.  0.
         23    2    1    2    0    0 -0.34345785105E+01 -0.98835631419E+02  0.39307894351E+03  0.41564272000E+03  0.92019218072E+02 0.  0.
        -11    1    4    4    0    0  0.34106844351E+02 -0.68865653746E+02  0.15790052750E+03  0.17560846130E+03  0.00000000000E+00 0.  1.
         11    1    4    4    0    0 -0.37541422862E+02 -0.29969977673E+02  0.23517841601E+03  0.24003425870E+03  0.00000000000E+00 0. -1.
        -11    1    3    3    0    0 -0.30617633409E+02  0.13740066011E+02  0.14725866358E+03  0.15103424409E+03  0.00000000000E+00 0. -1.
         11    1    3    3    0    0  0.36789248708E+02  0.62135765672E+02  0.11868606545E+03  0.13892690283E+03  0.00000000000E+00 0.  1.
         21    1    1    2  502  501 -0.27370367880E+01  0.22959799735E+02  0.55051862320E+02  0.59710562878E+02  0.00000000000E+00 0. -1.
<scales pt_clust_5="13000.00000" pt_clust_6="13000.00000" pt_clust_7="13000.00000" pt_clust_8="13000.00000" pt_clust_9="23.12237"></scales>
<clustering>
<clus scale="   23.122">  2  9  1 -1</clus>
<clus scale="   86.923">  7  8 -1 -1</clus>
<clus scale="   92.019">  5  6 -1 -1</clus>
<clus scale="  123.580">  2  7  1 -1</clus>
<clus scale="  127.216">  1  5  2 -1</clus>
</clustering>
</event>
<event>
 9    1  0.1296032E-005  0.1163950E+03  0.7546771E-02  0.1259750E+00
         -1   -1    0    0    0  501 -0.00000000000E+00  0.00000000000E+00  0.43492700283E+03  0.43492700283E+03  0.00000000000E+00 0.  1.
          1   -1    0    0  502    0  0.00000000000E+00 -0.00000000000E+00 -0.71194284754E+02  0.71194284754E+02  0.00000000000E+00 0. -1.
         23    2    1    2    0    0  0.38121873121E+01 -0.14666339116E+02  0.26251098862E+03  0.27859549726E+03  0.92053232827E+02 0.  0.
         23    2    1    2    0    0 -0.17956443609E+01  0.36567727995E+02  0.13901101341E+03  0.18380202948E+03  0.11453689852E+03 0.  0.
        -11    1    4    4    0    0 -0.37871887845E+01 -0.39060570354E+02  0.75225041871E+02  0.84846201328E+02  0.00000000000E+00 0.  1.
         11    1    4    4    0    0  0.19915444236E+01  0.75628298349E+02  0.63785971539E+02  0.98955828153E+02  0.00000000000E+00 0. -1.
        -11    1    3    3    0    0  0.33713526461E+02 -0.37728749766E+02  0.10408631702E+03  0.11573254432E+03  0.00000000000E+00 0.  1.
         11    1    3    3    0    0 -0.29901339149E+02  0.23062410650E+02  0.15842467160E+03  0.16286295294E+03  0.00000000000E+00 0. -1.
         21    1    1    2  502  501 -0.20165429512E+01 -0.21901388878E+02 -0.37789283953E+02  0.43723760840E+02  0.00000000000E+00 0. -1.
<scales pt_clust_5="13000.00000" pt_clust_6="13000.00000" pt_clust_7="13000.00000" pt_clust_8="13000.00000" pt_clust_9="21.99403"></scales>
<clustering>
<clus scale="   21.994">  2  9  1 -1</clus>
<clus scale="   92.053">  7  8 -1 -1</clus>
<clus scale="   94.355">  1  7  2 -1</clus>
<clus scale="  114.537">  5  6 -1 -1</clus>
<clus scale="   21.994">  2  5  1 -1</clus>
</clustering>
</event>
<event>
 9    1  0.1296032E-005  0.9805382E+02  0.7546771E-02  0.1284646E+00
         -1   -1    0    0    0  501 -0.00000000000E+00  0.00000000000E+00  0.66069627976E+02  0.66069627976E+02  0.00000000000E+00 0.  1.
          1   -1    0    0  502    0  0.00000000000E+00 -0.00000000000E+00 -0.21371036784E+03  0.21371036784E+03  0.00000000000E+00 0. -1.
         23    2    1    2    0    0 -0.11072354557E+02 -0.40300337204E+02 -0.22625935634E+02  0.10314900740E+03  0.91548187037E+02 0.  0.
         23    2    1    2    0    0  0.18320639893E+02  0.19996547871E+02 -0.71617623300E+02  0.11904591715E+03  0.91144602969E+02 0.  0.
        -13    1    4    4    0    0  0.41123647077E+02  0.40020998247E+02 -0.23182819263E+02  0.61889237825E+02  0.00000000000E+00 0. -1.
         13    1    4    4    0    0 -0.22803007184E+02 -0.20024450375E+02 -0.48434804037E+02  0.57156679326E+02  0.00000000000E+00 0.  1.
        -13    1    3    3    0    0  0.32791252474E+02 -0.41023599319E+02  0.25284738502E+01  0.52579417265E+02  0.00000000000E+00 0.  1.
         13    1    3    3    0    0 -0.43863607030E+02  0.72326211492E+00 -0.25154409484E+02  0.50569590134E+02  0.00000000000E+00 0. -1.
         21    1    1    2  502  501 -0.72482853369E+01  0.20303789333E+02 -0.53397180929E+02  0.57585071267E+02  0.00000000000E+00 0. -1.
<scales pt_clust_5="13000.00000" pt_clust_6="13000.00000" pt_clust_7="13000.00000" pt_clust_8="13000.00000" pt_clust_9="21.55879"></scales>
<clustering>
<clus scale="   21.559">  2  9  1 -1</clus>
<clus scale="   91.145">  5  6 -1 -1</clus>
<clus scale="   91.548">  7  8 -1 -1</clus>
<clus scale="   97.677">  2  5  1 -1</clus>
<clus scale="   21.559">  2  5  1 -1</clus>
</clustering>
</event>
<event>
 9    1  0.1296032E-005  0.1073020E+03  0.7546771E-02  0.1266420E+00
         -1   -1    0    0    0  501 -0.00000000000E+00  0.00000000000E+00  0.24806781031E+03  0.24806781031E+03  0.00000000000E+00 0.  1.
          1   -1    0    0  502    0  0.00000000000E+00 -0.00000000000E+00 -0.16051033278E+03  0.16051033278E+03  0.00000000000E+00 0. -1.
         23    2    1    2    0    0  0.62088054208E+02  0.28157307830E+02  0.14921830376E+03  0.18822750964E+03  0.92280727924E+02 0.  0.
         23    2    1    2    0    0 -0.34964380991E+02  0.50726083563E+02  0.10685304641E+02  0.10993213076E+03  0.90417112019E+02 0.  0.
        -13    1    3    3    0    0 -0.20489961169E+02  0.19038005273E+02  0.60668260669E+02  0.66805104641E+02  0.00000000000E+00 0. -1.
         13    1    3    3    0    0  0.82578015377E+02  0.91193025575E+01  0.88550043095E+02  0.12142240500E+03  0.00000000000E+00 0.  1.
        -13    1    4    4    0    0 -0.45812334370E+02  0.72045019939E+02  0.10418459392E+02  0.86010459681E+02  0.00000000000E+00 0.  1.
         13    1    4    4    0    0  0.10847953379E+02 -0.21318936375E+02  0.26684524936E+00  0.23921671076E+02  0.00000000000E+00 0. -1.
         21    1    1    2  502  501 -0.27123673216E+02 -0.78883391394E+02 -0.72346130870E+02  0.11041850270E+03  0.00000000000E+00 0. -1.
<scales pt_clust_5="13000.00000" pt_clust_6="13000.00000" pt_clust_7="13000.00000" pt_clust_8="13000.00000" pt_clust_9="83.41632"></scales>
<clustering>
<clus scale="   83.416">  2  9  1 -1</clus>
<clus scale="   90.417">  7  8 -1 -1</clus>
<clus scale="   92.281">  5  6 -1 -1</clus>
<clus scale="  105.704">  2  7  1 -1</clus>
<clus scale="   83.416">  2  5  1 -1</clus>
</clustering>
</event>
<event>
 9    1  0.1296032E-005  0.1522770E+03  0.7546771E-02  0.1198882E+00
          1   -1    0    0  502    0  0.00000000000E+00  0.00000000000E+00  0.15278425932E+03  0.15278425932E+03  0.00000000000E+00 0. -1.
         -1   -1    0    0    0  501 -0.00000000000E+00 -0.00000000000E+00 -0.17174037676E+03  0.17174037676E+03  0.00000000000E+00 0.  1.
         23    2    1    2    0    0 -0.61641075888E+02  0.98509525040E+02 -0.15457299066E+02  0.14977346444E+03  0.93217025241E+02 0.  0.
         23    2    1    2    0    0  0.47929586635E+02 -0.11545632117E+03  0.23322654780E+01  0.15218570299E+03  0.86761981067E+02 0.  0.
        -11    1    3    3    0    0 -0.16937198613E+02 -0.12719266567E+02 -0.20923010233E+02  0.29772819753E+02  0.00000000000E+00 0. -1.
         11    1    3    3    0    0 -0.44703877275E+02  0.11122879161E+03  0.54657111664E+01  0.12000064468E+03  0.00000000000E+00 0.  1.
        -13    1    4    4    0    0  0.28429654261E+02  0.36373990842E+01 -0.11153175966E+02  0.30754987361E+02  0.00000000000E+00 0.  1.
         13    1    4    4    0    0  0.19499932375E+02 -0.11909372026E+03  0.13485441444E+02  0.12143071563E+03  0.00000000000E+00 0. -1.
         21    1    1    2  502  501  0.13711489253E+02  0.16946796132E+02 -0.58310838510E+01  0.22565468654E+02  0.00000000000E+00 0.  1.
<scales pt_clust_5="13000.00000" pt_clust_6="13000.00000" pt_clust_7="13000.00000" pt_clust_8="13000.00000" pt_clust_9="21.79906"></scales>
<clustering>
<clus scale="   21.799">  2  9  1 -1</clus>
<clus scale="   86.762">  7  8 -1 -1</clus>
<clus scale="   93.217">  5  6 -1 -1</clus>
<clus scale="  148.413">  1  7  2 -1</clus>
<clus scale="  148.413">  1  5  2 -1</clus>
</clustering>
</event>
<event>
 9    1  0.1296032E-005  0.1209821E+03  0.7546771E-02  0.1248599E+00
          2   -1    0    0  502    0  0.00000000000E+00  0.00000000000E+00  0.25514635207E+03  0.25514635207E+03  0.00000000000E+00 0.  1.
         -2   -1    0    0    0  501 -0.00000000000E+00 -0.00000000000E+00 -0.75508176552E+02  0.75508176552E+02  0.00000000000E+00 0. -1.
         23    2    1    2    0    0 -0.78122776557E+01  0.46580163756E+02  0.42338618098E+02  0.12648844101E+03  0.10943502085E+03 0.  0.
         23    2    1    2    0    0 -0.14512926425E+02 -0.56972089248E+02  0.62168772288E+02  0.12510255792E+03  0.91264723549E+02 0.  0.
        -13    1    4    4    0    0  0.26896722770E+02 -0.45128300156E+02  0.62992330420E+02  0.82024574747E+02  0.00000000000E+00 0.  1.
         13    1    4    4    0    0 -0.41409649195E+02 -0.11843789092E+02 -0.82355813237E+00  0.43077983176E+02  0.00000000000E+00 0. -1.
        -13    1    3    3    0    0 -0.82975627693E+00  0.77606583084E+02  0.54770260086E+01  0.77804036190E+02  0.00000000000E+00 0.  1.
         13    1    3    3    0    0 -0.69825213788E+01 -0.31026419329E+02  0.36861592090E+02  0.48684404819E+02  0.00000000000E+00 0. -1.
         21    1    1    2  502  501  0.22325204081E+02  0.10391925492E+02  0.75130785133E+02  0.79063529693E+02  0.00000000000E+00 0. -1.
<scales pt_clust_5="13000.00000" pt_clust_6="13000.00000" pt_clust_7="13000.00000" pt_clust_8="13000.00000" pt_clust_9="24.62533"></scales>
<clustering>
<clus scale="   24.625">  1  9  2 -1</clus>
<clus scale="   91.265">  5  6 -1 -1</clus>
<clus scale="  104.833">  1  5  2 -1</clus>
<clus scale="  109.435">  7  8 -1 -1</clus>
<clus scale="   24.625">  1  5  2 -1</clus>
</clustering>
</event>
<event>
 9    1  0.1296032E-005  0.9744633E+02  0.7546771E-02  0.1286379E+00
         -3   -1    0    0    0  501 -0.00000000000E+00  0.00000000000E+00  0.27702831982E+03  0.27702831982E+03  0.00000000000E+00 0.  1.
          3   -1    0    0  502    0  0.00000000000E+00 -0.00000000000E+00 -0.87270850959E+02  0.87270850959E+02  0.00000000000E+00 0. -1.
         23    2    1    2    0    0  0.70943151567E+01 -0.29079788586E+02  0.18890122100E+03  0.21134937255E+03  0.89938437662E+02 0.  0.
         23    2    1    2    0    0  0.19900435202E+02  0.60731066660E+02 -0.64931855526E+00  0.11132304384E+03  0.91148827183E+02 0.  0.
        -11    1    4    4    0    0  0.52721885972E+02  0.57641675093E+02  0.28711844376E+01  0.78169071045E+02  0.00000000000E+00 0. -1.
         11    1    4    4    0    0 -0.32821450770E+02  0.30893915663E+01 -0.35205029929E+01  0.33153972797E+02  0.00000000000E+00 0.  1.
        -13    1    3    3    0    0  0.30731501732E+02  0.30200295530E+01  0.17751041360E+02  0.35618046642E+02  0.00000000000E+00 0. -1.
         13    1    3    3    0    0 -0.23637186575E+02 -0.32099818139E+02  0.17115017964E+03  0.17573132591E+03  0.00000000000E+00 0.  1.
         21    1    1    2  502  501 -0.26994750359E+02 -0.31651278074E+02  0.15055664148E+01  0.41626754388E+02  0.00000000000E+00 0.  1.
<scales pt_clust_5="13000.00000" pt_clust_6="13000.00000" pt_clust_7="13000.00000" pt_clust_8="13000.00000" pt_clust_9="41.59952"></scales>
<clustering>
<clus scale="   41.600">  2  9  1 -1</clus>
<clus scale="   89.938">  7  8 -1 -1</clus>
<clus scale="   91.149">  5  6 -1 -1</clus>
<clus scale="   96.315">  1  7  2 -1</clus>
<clus scale="   41.600">  2  5  1 -1</clus>
</clustering>
</event>
<event>
 9    1  0.1296032E-005  0.9384719E+02  0.7546771E-02  0.1298910E+00
         -2   -1    0    0    0  501 -0.00000000000E+00  0.00000000000E+00  0.87746395274E+02  0.87746395274E+02  0.00000000000E+00 0.  1.
          2   -1    0    0  502    0  0.00000000000E+00 -0.00000000000E+00 -0.25851956973E+03  0.25851956973E+03  0.00000000000E+00 0. -1.
         23    2    1    2    0    0 -0.76501850296E+01  0.21488548125E+02  0.40237771662E+02  0.10328118000E+03  0.92345226415E+02 0.  0.
         23    2    1    2    0    0 -0.43098316929E+01  0.11970575906E+02 -0.14073791061E+03  0.16423928037E+03  0.83698939047E+02 0.  0.
        -11    1    4    4    0    0 -0.68508310674E+01  0.33493634155E+02 -0.16202695186E+02  0.37832324096E+02  0.00000000000E+00 0.  1.
         11    1    4    4    0    0  0.25409993745E+01 -0.21523058249E+02 -0.12453521542E+03  0.12640695628E+03  0.00000000000E+00 0. -1.
        -13    1    3    3    0    0  0.30431081962E+02  0.39307447463E+02  0.35255076736E+02  0.60942978358E+02  0.00000000000E+00 0.  1.
         13    1    3    3    0    0 -0.38081266991E+02 -0.17818899338E+02  0.49826949260E+01  0.42338201639E+02  0.00000000000E+00 0. -1.
         21    1    1    2  502  501  0.11960016722E+02 -0.33459124031E+02 -0.70273035512E+02  0.78745504640E+02  0.00000000000E+00 0. -1.
<scales pt_clust_5="13000.00000" pt_clust_6="13000.00000" pt_clust_7="13000.00000" pt_clust_8="13000.00000" pt_clust_9="35.53245"></scales>
<clustering>
<clus scale="   35.532">  2  9  1 -1</clus>
<clus scale="   83.699">  5  6 -1 -1</clus>
<clus scale="   85.353">  2  5  1 -1</clus>
<clus scale="   92.345">  7  8 -1 -1</clus>
<clus scale="   35.532">  2  5  1 -1</clus>
</clustering>
</event>
<event>
 9    1  0.1296032E-005  0.1181760E+03  0.7546771E-02  0.1247315E+00
         -1   -1    0    0    0  501 -0.00000000000E+00  0.00000000000E+00  0.16531682778E+03  0.16531682778E+03  0.00000000000E+00 0.  1.
          1   -1    0    0  502    0  0.00000000000E+00 -0.00000000000E+00 -0.14833235753E+03  0.14833235753E+03  0.00000000000E+00 0. -1.
         23    2    1    2    0    0  0.64545429570E+01  0.75831738168E+02  0.84149434374E+02  0.14542024529E+03  0.90960468311E+02 0.  0.
         23    2    1    2    0    0 -0.29379178149E+02 -0.70588426499E+02 -0.23205640084E+02  0.11837461838E+03  0.87339489813E+02 0.  0.
        -11    1    4    4    0    0 -0.45433272149E+02 -0.41554144885E+02 -0.47073738324E+02  0.77503974189E+02  0.00000000000E+00 0. -1.
         11    1    4    4    0    0  0.16054094000E+02 -0.29034281613E+02  0.23868098240E+02  0.40870644191E+02  0.00000000000E+00 0.  1.
        -13    1    3    3    0    0  0.48466427454E+02  0.37893293300E+02  0.50283335610E+02  0.79456340888E+02  0.00000000000E+00 0.  1.
         13    1    3    3    0    0 -0.42011884497E+02  0.37938444868E+02  0.33866098765E+02  0.65963904399E+02  0.00000000000E+00 0. -1.
         21    1    1    2  502  501  0.22924635192E+02 -0.52433116691E+01 -0.43959324045E+02  0.49854321642E+02  0.00000000000E+00 0.  1.
<scales pt_clust_5="13000.00000" pt_clust_6="13000.00000" pt_clust_7="13000.00000" pt_clust_8="13000.00000" pt_clust_9="23.51662"></scales>
<clustering>
<clus scale="   23.517">  2  9  1 -1</clus>
<clus scale="   87.339">  5  6 -1 -1</clus>
<clus scale="   90.960">  7  8 -1 -1</clus>
<clus scale="  115.412">  2  5  1 -1</clus>
<clus scale="   23.517">  2  5  1 -1</clus>
</clustering>
</event>
<event>
 9    1  0.1296032E-005  0.1218790E+03  0.7546771E-02  0.1240800E+00
          4   -1    0    0  502    0  0.00000000000E+00  0.00000000000E+00  0.18524171386E+03  0.18524171386E+03  0.00000000000E+00 0. -1.
         -4   -1    0    0    0  501 -0.00000000000E+00 -0.00000000000E+00 -0.98560036670E+02  0.98560036670E+02  0.00000000000E+00 0.  1.
         23    2    1    2    0    0 -0.18532925519E+02  0.67296333475E+02  0.18475080173E+02  0.11610695113E+03  0.90924307458E+02 0.  0.
         23    2    1    2    0    0  0.18707614256E+02 -0.88077509979E+02  0.46967413005E+02  0.13797963912E+03  0.93406746711E+02 0.  0.
        -11    1    4    4    0    0 -0.16452202312E+02 -0.67697472193E+02 -0.74464662580E+01  0.70064774045E+02  0.00000000000E+00 0.  1.
         11    1    4    4    0    0  0.35159816568E+02 -0.20380037785E+02  0.54413879263E+02  0.67914865071E+02  0.00000000000E+00 0. -1.
        -13    1    3    3    0    0 -0.51746371702E+02  0.26784703842E+02 -0.54381541677E+01  0.58520772936E+02  0.00000000000E+00 0.  1.
         13    1    3    3    0    0  0.33213446183E+02  0.40511629632E+02  0.23913234340E+02  0.57586178198E+02  0.00000000000E+00 0. -1.
         21    1    1    2  502  501 -0.17468873718E+00  0.20781176504E+02  0.21239184017E+02  0.29715160285E+02  0.00000000000E+00 0. -1.
<scales pt_clust_5="13000.00000" pt_clust_6="13000.00000" pt_clust_7="13000.00000" pt_clust_8="13000.00000" pt_clust_9="20.78191"></scales>
<clustering>
<clus scale="   20.782">  1  9  2 -1</clus>
<clus scale="   90.924">  7  8 -1 -1</clus>
<clus scale="   93.407">  5  6 -1 -1</clus>
<clus scale="  119.987">  2  7  1 -1</clus>
<clus scale="   20.782">  1  5  2 -1</clus>
</clustering>
</event>
<event>
 9    1  0.1296032E-005  0.1071544E+03  0.7546771E-02  0.1266727E+00
         -2   -1    0    0    0  501 -0.00000000000E+00  0.00000000000E+00  0.66816001179E+02  0.66816001179E+02  0.00000000000E+00 0.  1.
          2   -1    0    0  502    0  0.00000000000E+00 -0.00000000000E+00 -0.36688840917E+03  0.36688840917E+03  0.00000000000E+00 0. -1.
         23    2    1    2    0    0 -0.36530177251E+02 -0.18430817898E+02 -0.43844913921E+02  0.11032562067E+03  0.92602468660E+02 0.  0.
         23    2    1    2    0    0  0.69756439118E+02  0.18763794395E+02 -0.72669841754E+02  0.13683789048E+03  0.90695433130E+02 0.  0.
        -11    1    3    3    0    0  0.26981667044E+02 -0.45753082308E+01  0.64717223435E+01  0.28121646324E+02  0.00000000000E+00 0. -1.
         11    1    3    3    0    0 -0.63511844295E+02 -0.13855509667E+02 -0.50316636264E+02  0.82203974350E+02  0.00000000000E+00 0.  1.
        -13    1    4    4    0    0  0.92963284494E+01  0.35296096810E+02  0.52078938143E+01  0.36869476951E+02  0.00000000000E+00 0.  1.
         13    1    4    4    0    0  0.60460110669E+02 -0.16532302416E+02 -0.77877735569E+02  0.99968413524E+02  0.00000000000E+00 0. -1.
         21    1    1    2  502  501 -0.33226261867E+02 -0.33297649688E+00 -0.18355765231E+03  0.18654089920E+03  0.00000000000E+00 0. -1.
<scales pt_clust_5="13000.00000" pt_clust_6="13000.00000" pt_clust_7="13000.00000" pt_clust_8="13000.00000" pt_clust_9="33.22793"></scales>
<clustering>
<clus scale="   33.228">  2  9  1 -1</clus>
<clus scale="   90.695">  7  8 -1 -1</clus>
<clus scale="   92.602">  5  6 -1 -1</clus>
<clus scale="  105.511">  2  7  1 -1</clus>
<clus scale="   33.228">  2  5  1 -1</clus>
</clustering>
</event>
<event>
 9    1  0.1296032E-005  0.1335109E+03  0.7546771E-02  0.1223757E+00
          3   -1    0    0  502    0  0.00000000000E+00  0.00000000000E+00  0.54107690941E+02  0.54107690941E+02  0.00000000000E+00 0. -1.
         -3   -1    0    0    0  501 -0.00000000000E+00 -0.00000000000E+00 -0.77979893651E+03  0.77979893651E+03  0.00000000000E+00 0.  1.
         23    2    1    2    0    0  0.71957973569E+01  0.98969656926E+02 -0.52287785665E+03  0.54005357893E+03  0.91705194207E+02 0.  0.
         23    2    1    2    0    0  0.27744710615E+02 -0.76473509450E+02 -0.21585797563E+03  0.25029760121E+03  0.97140397942E+02 0.  0.
        -11    1    3    3    0    0  0.47647968355E+02  0.40788156357E+02 -0.20537792791E+03  0.21474192851E+03  0.00000000000E+00 0. -1.
         11    1    3    3    0    0 -0.40452170998E+02  0.58181500569E+02 -0.31749992874E+03  0.32531165042E+03  0.00000000000E+00 0.  1.
        -13    1    4    4    0    0 -0.34870579450E+02 -0.20734275234E+02 -0.94086646766E+02  0.10246055134E+03  0.00000000000E+00 0.  1.
         13    1    4    4    0    0  0.62615290065E+02 -0.55739234216E+02 -0.12177132886E+03  0.14783704987E+03  0.00000000000E+00 0. -1.
         21    1    1    2  502  501 -0.34940507972E+02 -0.22496147476E+02  0.13044586710E+02  0.43555447318E+02  0.00000000000E+00 0. -1.
<scales pt_clust_5="13000.00000" pt_clust_6="13000.00000" pt_clust_7="13000.00000" pt_clust_8="13000.00000" pt_clust_9="41.55618"></scales>
<clustering>
<clus scale="   41.556">  1  9  2 -1</clus>
<clus scale="   91.705">  5  6 -1 -1</clus>
<clus scale="   97.140">  7  8 -1 -1</clus>
<clus scale="  129.610">  2  5  1 -1</clus>
<clus scale="   41.556">  1  5  2 -1</clus>
</clustering>
</event>
<event>
 9    1  0.1296032E-005  0.1021486E+03  0.7546771E-02  0.1279155E+00
          1   -1    0    0  502    0  0.00000000000E+00  0.00000000000E+00  0.62790529560E+03  0.62790529560E+03  0.00000000000E+00 0. -1.
         -1   -1    0    0    0  501 -0.00000000000E+00 -0.00000000000E+00 -0.42747068543E+02  0.42747068543E+02  0.00000000000E+00 0.  1.
         23    2    1    2    0    0  0.41283786582E+02 -0.17888261535E+02  0.69034096635E+02  0.12529506807E+03  0.94386474932E+02 0.  0.
         23    2    1    2    0    0 -0.33799428688E+02 -0.42402740087E+02  0.21801035075E+03  0.24111586872E+03  0.87566862254E+02 0.  0.
        -13    1    4    4    0    0 -0.58054853839E+01 -0.53114190980E+02  0.19798631049E+03  0.20506925681E+03  0.00000000000E+00 0. -1.
         13    1    4    4    0    0 -0.27993943304E+02  0.10711450893E+02  0.20024040260E+02  0.36046611911E+02  0.00000000000E+00 0.  1.
        -13    1    3    3    0    0 -0.21268606274E+02 -0.27254864070E+02  0.46940810238E+02  0.58297692014E+02  0.00000000000E+00 0. -1.
         13    1    3    3    0    0  0.62552392857E+02  0.93666025345E+01  0.22093286397E+02  0.66997376060E+02  0.00000000000E+00 0.  1.
         21    1    1    2  502  501 -0.74843578939E+01  0.60291001622E+02  0.29811377967E+03  0.30424142735E+03  0.00000000000E+00 0. -1.
<scales pt_clust_5="13000.00000" pt_clust_6="13000.00000" pt_clust_7="13000.00000" pt_clust_8="13000.00000" pt_clust_9="60.75377"></scales>
<clustering>
<clus scale="   60.754">  1  9  2 -1</clus>
<clus scale="   87.567">  5  6 -1 -1</clus>
<clus scale="   94.386">  7  8 -1 -1</clus>
<clus scale="   95.883">  1  5  2 -1</clus>
<clus scale="   60.754">  1  5  2 -1</clus>
</clustering>
</event>
<event>
 9    1  0.1296032E-005  0.1445580E+03  0.7546771E-02  0.1208728E+00
         -1   -1    0    0    0  501 -0.00000000000E+00  0.00000000000E+00  0.41057703001E+03  0.41057703001E+03  0.00000000000E+00 0.  1.
          1   -1    0    0  502    0  0.00000000000E+00 -0.00000000000E+00 -0.11575820622E+03  0.11575820622E+03  0.00000000000E+00 0. -1.
         23    2    1    2    0    0 -0.32381184816E+02 -0.10692068095E+03  0.30732202190E+03  0.33812014126E+03  0.86010648396E+02 0.  0.
         23    2    1    2    0    0 -0.11082910757E+01  0.10977503523E+03 -0.34749205104E+02  0.14790905125E+03  0.92832071592E+02 0.  0.
        -13    1    3    3    0    0  0.56563630353E+01 -0.95896026111E+02  0.17069777593E+03  0.19587182792E+03  0.00000000000E+00 0.  1.
         13    1    3    3    0    0 -0.38037547851E+02 -0.11024654841E+02  0.13662424597E+03  0.14224831334E+03  0.00000000000E+00 0. -1.
        -13    1    4    4    0    0  0.31309716861E+02  0.23734990658E+02  0.16537392305E+02  0.42627848828E+02  0.00000000000E+00 0.  1.
         13    1    4    4    0    0 -0.32418007937E+02  0.86040044572E+02 -0.51286597410E+02  0.10528120242E+03  0.00000000000E+00 0. -1.
         21    1    1    2  502  501  0.33489475891E+02 -0.28543542776E+01  0.22246006991E+02  0.40306043726E+02  0.00000000000E+00 0. -1.
<scales pt_clust_5="13000.00000" pt_clust_6="13000.00000" pt_clust_7="13000.00000" pt_clust_8="13000.00000" pt_clust_9="33.61090"></scales>
<clustering>
<clus scale="   33.611">  2  9  1 -1</clus>
<clus scale="   86.011">  5  6 -1 -1</clus>
<clus scale="   92.832">  7  8 -1 -1</clus>
<clus scale="  140.275">  1  5  2 -1</clus>
<clus scale="   33.611">  2  5  1 -1</clus>
</clustering>
</event>
<event>
 9    1  0.1296032E-005  0.1019511E+03  0.7546771E-02  0.1276481E+00
         -2   -1    0    0    0  501 -0.00000000000E+00  0.00000000000E+00  0.47209638697E+03  0.47209638697E+03  0.00000000000E+00 0.  1.
          2   -1    0    0  502    0  0.00000000000E+00 -0.00000000000E+00 -0.31452365532E+02  0.31452365532E+02  0.00000000000E+00 0. -1.
         23    2    1    2    0    0 -0.19949590945E+02 -0.16918913340E+02  0.16845725320E+03  0.19364678154E+03  0.91853111202E+02 0.  0.
         23    2    1    2    0    0  0.53818179835E+02  0.29089641672E+02  0.22246101575E+03  0.24851908733E+03  0.92359241607E+02 0.  0.
        -11    1    4    4    0    0  0.46409216395E+01 -0.21587743682E+02  0.92889787593E+01  0.23955249056E+02  0.00000000000E+00 0. -1.
         11    1    4    4    0    0  0.49177258195E+02  0.50677385354E+02  0.21317203699E+03  0.22456383828E+03  0.00000000000E+00 0.  1.
        -13    1    3    3    0    0  0.27917998262E+01  0.34962444067E+02  0.92246222414E+02  0.98689068245E+02  0.00000000000E+00 0.  1.
         13    1    3    3    0    0 -0.22741390771E+02 -0.51881357407E+02  0.76211030783E+02  0.94957713292E+02  0.00000000000E+00 0. -1.
         21    1    1    2  502  501 -0.33868588890E+02 -0.12170728332E+02  0.49725752495E+02  0.61382883629E+02  0.00000000000E+00 0. -1.
<scales pt_clust_5="13000.00000" pt_clust_6="13000.00000" pt_clust_7="13000.00000" pt_clust_8="13000.00000" pt_clust_9="35.98900"></scales>
<clustering>
<clus scale="   35.989">  2  9  1 -1</clus>
<clus scale="   91.853">  7  8 -1 -1</clus>
<clus scale="   92.359">  5  6 -1 -1</clus>
<clus scale="  101.493">  1  7  2 -1</clus>
<clus scale="   35.989">  2  5  1 -1</clus>
</clustering>
</event>
<event>
 9    1  0.1296032E-005  0.1191923E+03  0.7546771E-02  0.1245126E+00
         -1   -1    0    0    0  501 -0.00000000000E+00  0.00000000000E+00  0.53506998430E+02  0.53506998430E+02  0.00000000000E+00 0.  1.
          1   -1    0    0  502    0  0.00000000000E+00 -0.00000000000E+00 -0.51205400062E+03  0.51205400062E+03  0.00000000000E+00 0. -1.
         23    2    1    2    0    0  0.51223616922E+02 -0.57586287136E+02 -0.61438202375E+02  0.13673504882E+03  0.94772261066E+02 0.  0.
         23    2    1    2    0    0 -0.50189592387E+02  0.25158698045E+02 -0.20102257839E+03  0.23007378301E+03  0.96808642883E+02 0.  0.
        -11    1    4    4    0    0 -0.69971567298E+01  0.50823353240E+02 -0.14972529573E+03  0.15827077310E+03  0.00000000000E+00 0. -1.
         11    1    4    4    0    0 -0.43192435657E+02 -0.25664655195E+02 -0.51297282661E+02  0.71803009914E+02  0.00000000000E+00 0.  1.
        -13    1    3    3    0    0  0.68855877162E+02 -0.71751810452E+02 -0.47968097458E+02  0.11041011048E+03  0.00000000000E+00 0.  1.
         13    1    3    3    0    0 -0.17632260240E+02  0.14165523315E+02 -0.13470104917E+02  0.26324938337E+02  0.00000000000E+00 0. -1.
         21    1    1    2  502  501 -0.10340245352E+01  0.32427589091E+02 -0.19608622143E+03  0.19875216722E+03  0.00000000000E+00 0. -1.
<scales pt_clust_5="13000.00000" pt_clust_6="13000.00000" pt_clust_7="13000.00000" pt_clust_8="13000.00000" pt_clust_9="32.44407"></scales>
<clustering>
<clus scale="   32.444">  2  9  1 -1</clus>
<clus scale="   94.772">  7  8 -1 -1</clus>
<clus scale="   96.809">  5  6 -1 -1</clus>
<clus scale="  117.544">  1  7  2 -1</clus>
<clus scale="   32.444">  2  5  1 -1</clus>
</clustering>
</event>
<event>
 9    1  0.1296032E-005  0.1087568E+03  0.7546771E-02  0.1263932E+00
          1   -1    0    0  502    0  0.00000000000E+00  0.00000000000E+00  0.78681863082E+03  0.78681863082E+03  0.00000000000E+00 0. -1.
         -1   -1    0    0    0  501 -0.00000000000E+00 -0.00000000000E+00 -0.32705740020E+02  0.32705740020E+02  0.00000000000E+00 0.  1.
         23    2    1    2    0    0 -0.11942121792E+02 -0.32130430079E+02  0.18265509451E+03  0.20704001217E+03  0.91256256122E+02 0.  0.
         23    2    1    2    0    0  0.27857977329E+02  0.79754109476E+02  0.17926518023E+03  0.21709040652E+03  0.88631004070E+02 0.  0.
        -11    1    3    3    0    0  0.22120979390E+02  0.20378063836E+02  0.32077380767E+02  0.43972281857E+02  0.00000000000E+00 0.  1.
         11    1    3    3    0    0 -0.34063101182E+02 -0.52508493914E+02  0.15057771374E+03  0.16306773031E+03  0.00000000000E+00 0. -1.
        -13    1    4    4    0    0  0.51422751425E+02  0.82244306954E+02  0.15717117059E+03  0.18469218244E+03  0.00000000000E+00 0.  1.
         13    1    4    4    0    0 -0.23564774097E+02 -0.24901974779E+01  0.22094009643E+02  0.32398224084E+02  0.00000000000E+00 0. -1.
         21    1    1    2  502  501 -0.15915855537E+02 -0.47623679397E+02  0.39219261606E+03  0.39539395214E+03  0.00000000000E+00 0. -1.
<scales pt_clust_5="13000.00000" pt_clust_6="13000.00000" pt_clust_7="13000.00000" pt_clust_8="13000.00000" pt_clust_9="50.21284"></scales>
<clustering>
<clus scale="   50.213">  1  9  2 -1</clus>
<clus scale="   88.631">  7  8 -1 -1</clus>
<clus scale="   91.256">  5  6 -1 -1</clus>
<clus scale="  106.564">  1  7  2 -1</clus>
<clus scale="   50.213">  1  5  2 -1</clus>
</clustering>
</event>
<event>
 9    1  0.1296032E-005  0.1181610E+03  0.7546771E-02  0.1252683E+00
         -1   -1    0    0    0  501 -0.00000000000E+00  0.00000000000E+00  0.64136990816E+03  0.64136990816E+03  0.00000000000E+00 0.  1.
          1   -1    0    0  502    0  0.00000000000E+00 -0.00000000000E+00 -0.31003180484E+02  0.31003180484E+02  0.00000000000E+00 0. -1.
         23    2    1    2    0    0 -0.16589228643E+02 -0.42934270380E+02  0.31225027413E+03  0.32784942810E+03  0.88693064723E+02 0.  0.
         23    2    1    2    0    0  0.18829574257E+02  0.63433137983E+02  0.29907923744E+03  0.32388026755E+03  0.10522224850E+03 0.  0.
        -11    1    3    3    0    0  0.30013003096E+02  0.19851961280E+01  0.15334914403E+03  0.15627117883E+03  0.00000000000E+00 0. -1.
         11    1    3    3    0    0 -0.46602231739E+02 -0.44919466508E+02  0.15890113010E+03  0.17157824927E+03  0.00000000000E+00 0.  1.
        -13    1    4    4    0    0  0.51120915771E+02  0.72838488232E+02  0.19149610897E+03  0.21116238573E+03  0.00000000000E+00 0. -1.
         13    1    4    4    0    0 -0.32291341515E+02 -0.94053502489E+01  0.10758312847E+03  0.11271788182E+03  0.00000000000E+00 0.  1.
         21    1    1    2  502  501 -0.22403456132E+01 -0.20498867603E+02 -0.96278389711E+00  0.20643392994E+02  0.00000000000E+00 0. -1.
<scales pt_clust_5="13000.00000" pt_clust_6="13000.00000" pt_clust_7="13000.00000" pt_clust_8="13000.00000" pt_clust_9="20.62093"></scales>
<clustering>
<clus scale="   20.621">  2  9  1 -1</clus>
<clus scale="   88.693">  5  6 -1 -1</clus>
<clus scale="  103.715">  1  5  2 -1</clus>
<clus scale="  105.222">  7  8 -1 -1</clus>
<clus scale="   20.621">  2  5  1 -1</clus>
</clustering>
</event>
<event>
 9    1  0.1296032E-005  0.1132590E+03  0.7546771E-02  0.1254899E+00
          3   -1    0    0  502    0  0.00000000000E+00  0.00000000000E+00  0.41747514832E+03  0.41747514832E+03  0.00000000000E+00 0. -1.
         -3   -1    0    0    0  501 -0.00000000000E+00 -0.00000000000E+00 -0.64068514742E+02  0.64068514742E+02  0.00000000000E+00 0.  1.
         23    2    1    2    0    0 -0.67388818997E+02  0.25483145065E+02  0.17269007009E+02  0.11680703525E+03  0.90305156403E+02 0.  0.
         23    2    1    2    0    0  0.53383005015E+02 -0.82879336068E+01  0.19497722100E+03  0.22184471683E+03  0.90997398917E+02 0.  0.
        -11    1    4    4    0    0  0.37362447255E+02  0.34291415900E+02  0.55711726902E+02  0.75336911164E+02  0.00000000000E+00 0.  1.
         11    1    4    4    0    0  0.16020557760E+02 -0.42579349507E+02  0.13926549410E+03  0.14650780567E+03  0.00000000000E+00 0. -1.
        -13    1    3    3    0    0 -0.18163772825E+02  0.32793141484E+02 -0.30119693308E+02  0.48088550577E+02  0.00000000000E+00 0.  1.
         13    1    3    3    0    0 -0.49225046172E+02 -0.73099964192E+01  0.47388700317E+02  0.68718484675E+02  0.00000000000E+00 0. -1.
         21    1    1    2  502  501  0.14005813982E+02 -0.17195211458E+02  0.14116040557E+03  0.14289191098E+03  0.00000000000E+00 0. -1.
<scales pt_clust_5="13000.00000" pt_clust_6="13000.00000" pt_clust_7="13000.00000" pt_clust_8="13000.00000" pt_clust_9="22.17742"></scales>
<clustering>
<clus scale="   22.177">  1  9  2 -1</clus>
<clus scale="   90.305">  7  8 -1 -1</clus>
<clus scale="   90.997">  5  6 -1 -1</clus>
<clus scale="  112.704">  2  7  1 -1</clus>
<clus scale="   22.177">  1  5  2 -1</clus>
</clustering>
</event>
<event>
 9    1  0.1296032E-005  0.1001363E+03  0.7546771E-02  0.1280849E+00
         -2   -1    0    0    0  501 -0.00000000000E+00  0.00000000000E+00  0.30747112867E+03  0.30747112867E+03  0.00000000000E+00 0.  1.
          2   -1    0    0  502    0  0.00000000000E+00 -0.00000000000E+00 -0.12501518565E+03  0.12501518565E+03  0.00000000000E+00 0. -1.
         23    2    1    2    0    0 -0.22277418723E+02 -0.46014265352E+02  0.18988974705E+03  0.21805001538E+03  0.94202426573E+02 0.  0.
         23    2    1    2    0    0  0.25676893331E+02 -0.14175007705E+02  0.67532990651E+02  0.11823689497E+03  0.92514997764E+02 0.  0.
        -11    1    3    3    0    0 -0.20385641343E+02  0.27117603501E+02  0.55868530154E+02  0.65362309125E+02  0.00000000000E+00 0. -1.
         11    1    3    3    0    0 -0.18917773799E+01 -0.73131868853E+02  0.13402121690E+03  0.15268770626E+03  0.00000000000E+00 0.  1.
        -13    1    4    4    0    0 -0.82195066074E+01 -0.40453376467E+02  0.38518995311E+01  0.41459294331E+02  0.00000000000E+00 0.  1.
         13    1    4    4    0    0  0.33896399938E+02  0.26278368762E+02  0.63681091120E+02  0.76777600638E+02  0.00000000000E+00 0. -1.
         21    1    1    2  502  501 -0.33994746085E+01  0.60189273057E+02 -0.74966794683E+02  0.96199403968E+02  0.00000000000E+00 0. -1.
<scales pt_clust_5="13000.00000" pt_clust_6="13000.00000" pt_clust_7="13000.00000" pt_clust_8="13000.00000" pt_clust_9="60.28520"></scales>
<clustering>
<clus scale="   60.285">  2  9  1 -1</clus>
<clus scale="   92.515">  7  8 -1 -1</clus>
<clus scale="   94.202">  5  6 -1 -1</clus>
<clus scale="   98.551">  2  7  1 -1</clus>
<clus scale="   60.285">  2  5  1 -1</clus>
</clustering>
</event>
<event>
 9    1  0.1296032E-005  0.1078377E+03  0.7546771E-02  0.1264846E+00
         -1   -1    0    0    0  501 -0.00000000000E+00  0.00000000000E+00  0.41246214110E+03  0.41246214110E+03  0.00000000000E+00 0.  1.
          1   -1    0    0  502    0  0.00000000000E+00 -0.00000000000E+00 -0.14587441171E+03  0.14587441171E+03  0.00000000000E+00 0. -1.
         23    2    1    2    0    0 -0.53222705349E+01 -0.65194452372E+02  0.34413518719E+03  0.36102177869E+03  0.87344458589E+02 0.  0.
         23    2    1    2    0    0 -0.23740640672E+02  0.52252084533E+02  0.96579775477E+01  0.10448726933E+03  0.86777961277E+02 0.  0.
        -13    1    4    4    0    0 -0.53848431381E+02  0.17180795086E+02  0.13478324928E+02  0.58107646010E+02  0.00000000000E+00 0.  1.
         13    1    4    4    0    0  0.30107790709E+02  0.35071289447E+02 -0.38203473802E+01  0.46379623316E+02  0.00000000000E+00 0. -1.
        -13    1    3    3    0    0  0.23732584153E+02 -0.71527779500E+02  0.19724414250E+03  0.21115091887E+03  0.00000000000E+00 0. -1.
         13    1    3    3    0    0 -0.29054854687E+02  0.63333271276E+01  0.14689104469E+03  0.14987085982E+03  0.00000000000E+00 0.  1.
         21    1    1    2  502  501  0.29062911207E+02  0.12942367840E+02 -0.87205435341E+02  0.92827504793E+02  0.00000000000E+00 0. -1.
<scales pt_clust_5="13000.00000" pt_clust_6="13000.00000" pt_clust_7="13000.00000" pt_clust_8="13000.00000" pt_clust_9="31.81443"></scales>
<clustering>
<clus scale="   31.814">  2  9  1 -1</clus>
<clus scale="   86.778">  5  6 -1 -1</clus>
<clus scale="   87.344">  7  8 -1 -1</clus>
<clus scale="  107.379">  2  5  1 -1</clus>
<clus scale="   31.814">  2  5  1 -1</clus>
</clustering>
</event>
<event>
 9    1  0.1296032E-005  0.1774789E+03  0.7546771E-02  0.1170330E+00
          1   -1    0    0  502    0  0.00000000000E+00  0.00000000000E+00  0.29849908615E+03  0.29849908615E+03  0.00000000000E+00 0. -1.
         -1   -1    0    0    0  501 -0.00000000000E+00 -0.00000000000E+00 -0.25706991412E+03  0.25706991412E+03  0.00000000000E+00 0.  1.
         23    2    1    2    0    0 -0.15224357346E+03  0.34500519315E+02 -0.18326392643E+03  0.25766419572E+03  0.91851943550E+02 0.  0.
         23    2    1    2    0    0  0.12652792979E+03 -0.33348383680E+02  0.15042488725E+03  0.21930207597E+03  0.91347261089E+02 0.  0.
        -13    1    3    3    0    0 -0.67289973513E+02  0.58811472130E+02 -0.11693888519E+03  0.14717823432E+03  0.00000000000E+00 0.  1.
         13    1    3    3    0    0 -0.84953599943E+02 -0.24310952815E+02 -0.66325041240E+02  0.11048596140E+03  0.00000000000E+00 0. -1.
        -13    1    4    4    0    0  0.14540333898E+02  0.19623686821E+02 -0.90602355135E-02  0.24423563958E+02  0.00000000000E+00 0.  1.
         13    1    4    4    0    0  0.11198759590E+03 -0.52972070501E+02  0.15043394749E+03  0.19487851201E+03  0.00000000000E+00 0. -1.
         21    1    1    2  502  501  0.25715643662E+02 -0.11521356351E+01  0.74268211208E+02  0.78602728588E+02  0.00000000000E+00 0. -1.
<scales pt_clust_5="13000.00000" pt_clust_6="13000.00000" pt_clust_7="13000.00000" pt_clust_8="13000.00000" pt_clust_9="25.74144"></scales>
<clustering>
<clus scale="   25.741">  1  9  2 -1</clus>
<clus scale="   91.347">  7  8 -1 -1</clus>
<clus scale="   91.852">  5  6 -1 -1</clus>
<clus scale="  177.218">  1  7  2 -1</clus>
<clus scale="   25.741">  1  5  2 -1</clus>
</clustering>
</event>
<event>
 9    1  0.1296032E-005  0.8789251E+02  0.7546771E-02  0.1308628E+00
          1   -1    0    0  502    0  0.00000000000E+00  0.00000000000E+00  0.74034986057E+03  0.74034986057E+03  0.00000000000E+00 0. -1.
         -1   -1    0    0    0  501 -0.00000000000E+00 -0.00000000000E+00 -0.29859964359E+02  0.29859964359E+02  0.00000000000E+00 0.  1.
         23    2    1    2    0    0  0.46024846290E+01 -0.10076313423E+02  0.69687330730E+02  0.11193740536E+03  0.86896166191E+02 0.  0.
         23    2    1    2    0    0  0.91204465769E+01 -0.39780763251E+02  0.46710083833E+03  0.47703683545E+03  0.87836538715E+02 0.  0.
        -11    1    4    4    0    0  0.30801560090E+02  0.16591759989E+02  0.13324089440E+03  0.13775760794E+03  0.00000000000E+00 0.  1.
         11    1    4    4    0    0 -0.21681113513E+02 -0.56372523240E+02  0.33385994393E+03  0.33927922751E+03  0.00000000000E+00 0. -1.
        -13    1    3    3    0    0  0.42646236616E+02  0.94004853372E+01  0.26016005056E+02  0.50832107385E+02  0.00000000000E+00 0.  1.
         13    1    3    3    0    0 -0.38043751987E+02 -0.19476798760E+02  0.43671325674E+02  0.61105297980E+02  0.00000000000E+00 0. -1.
         21    1    1    2  502  501 -0.13722931206E+02  0.49857076673E+02  0.17370172716E+03  0.18123558412E+03  0.00000000000E+00 0.  1.
<scales pt_clust_5="13000.00000" pt_clust_6="13000.00000" pt_clust_7="13000.00000" pt_clust_8="13000.00000" pt_clust_9="51.71119"></scales>
<clustering>
<clus scale="   51.711">  1  9  2 -1</clus>
<clus scale="   86.896">  7  8 -1 -1</clus>
<clus scale="   86.953">  2  7  1 -1</clus>
<clus scale="   87.837">  5  6 -1 -1</clus>
<clus scale="   51.711">  1  5  2 -1</clus>
</clustering>
</event>
<event>
 9    1  0.1296032E-005  0.1223200E+03  0.7546771E-02  0.1247362E+00
          2   -1    0    0  502    0  0.00000000000E+00  0.00000000000E+00  0.27362344821E+03  0.27362344821E+03  0.00000000000E+00 0. -1.
         -2   -1    0    0    0  501 -0.00000000000E+00 -0.00000000000E+00 -0.15540020814E+03  0.15540020814E+03  0.00000000000E+00 0.  1.
         23    2    1    2    0    0  0.34305510491E+02 -0.73539946346E+02 -0.82509793853E+02  0.14933066088E+03  0.94375783116E+02 0.  0.
         23    2    1    2    0    0 -0.67264965612E+02  0.42055688723E+02  0.39747124798E+02  0.11237877881E+03  0.68963029554E+02 0.  0.
        -11    1    4    4    0    0 -0.61525285679E+01  0.38775906083E+02  0.32078818969E+02  0.50699853321E+02  0.00000000000E+00 0. -1.
         11    1    4    4    0    0 -0.61112437045E+02  0.32797826397E+01  0.76683058292E+01  0.61678925493E+02  0.00000000000E+00 0.  1.
        -13    1    3    3    0    0  0.31043632140E+02 -0.38429729473E+02 -0.98819452006E+02  0.11048002217E+03  0.00000000000E+00 0.  1.
         13    1    3    3    0    0  0.32618783516E+01 -0.35110216872E+02  0.16309658153E+02  0.38850638711E+02  0.00000000000E+00 0. -1.
         21    1    1    2  502  501  0.32959455121E+02  0.31484257623E+02  0.16098590912E+03  0.16731421666E+03  0.00000000000E+00 0. -1.
<scales pt_clust_5="13000.00000" pt_clust_6="13000.00000" pt_clust_7="13000.00000" pt_clust_8="13000.00000" pt_clust_9="45.58052"></scales>
<clustering>
<clus scale="   45.581">  1  9  2 -1</clus>
<clus scale="   68.963">  5  6 -1 -1</clus>
<clus scale="   94.376">  7  8 -1 -1</clus>
<clus scale="  103.977">  1  5  2 -1</clus>
<clus scale="   45.581">  1  5  2 -1</clus>
</clustering>
</event>
<event>
 9    1  0.1296032E-005  0.9412971E+02  0.7546771E-02  0.1294221E+00
         -3   -1    0    0    0  501 -0.00000000000E+00  0.00000000000E+00  0.16570183162E+03  0.16570183162E+03  0.00000000000E+00 0.  1.
          3   -1    0    0  502    0  0.00000000000E+00 -0.00000000000E+00 -0.78364104772E+02  0.78364104772E+02  0.00000000000E+00 0. -1.
         23    2    1    2    0    0  0.91853510100E+01  0.14318039530E+02  0.54060295176E+02  0.10985786768E+03  0.94110884845E+02 0.  0.
         23    2    1    2    0    0  0.12340892642E+02  0.14341121413E+02  0.24607714150E+02  0.97331373182E+02  0.92249071622E+02 0.  0.
        -11    1    4    4    0    0 -0.24018029957E+02  0.40289705736E+02  0.23930773705E+02  0.52657459884E+02  0.00000000000E+00 0.  1.
         11    1    4    4    0    0  0.36358922600E+02 -0.25948584323E+02  0.67694044487E+00  0.44673913298E+02  0.00000000000E+00 0. -1.
        -13    1    3    3    0    0  0.51704082817E+02  0.10807152245E+02  0.26828048925E+02  0.59243994875E+02  0.00000000000E+00 0.  1.
         13    1    3    3    0    0 -0.42518731807E+02  0.35108872851E+01  0.27232246251E+02  0.50613872800E+02  0.00000000000E+00 0. -1.
         21    1    1    2  502  501 -0.21526243652E+02 -0.28659160943E+02  0.86697175222E+01  0.36876695536E+02  0.00000000000E+00 0. -1.
<scales pt_clust_5="13000.00000" pt_clust_6="13000.00000" pt_clust_7="13000.00000" pt_clust_8="13000.00000" pt_clust_9="35.84308"></scales>
<clustering>
<clus scale="   35.843">  2  9  1 -1</clus>
<clus scale="   92.249">  5  6 -1 -1</clus>
<clus scale="   92.268">  2  5  1 -1</clus>
<clus scale="   94.111">  7  8 -1 -1</clus>
<clus scale="   35.843">  2  5  1 -1</clus>
</clustering>
</event>
<event>
 9    1  0.1296032E-005  0.1295236E+03  0.7546771E-02  0.1246321E+00
         -1   -1    0    0    0  501 -0.00000000000E+00  0.00000000000E+00  0.51438482979E+02  0.51438482979E+02  0.00000000000E+00 0.  1.
          1   -1    0    0  502    0  0.00000000000E+00 -0.00000000000E+00 -0.50110358618E+03  0.50110358618E+03  0.00000000000E+00 0. -1.
         23    2    1    2    0    0 -0.29603205668E+02 -0.31228754677E+02 -0.10920665885E+03  0.17251470956E+03  0.12642644413E+03 0.  0.
         23    2    1    2    0    0  0.26549054896E+02 -0.15641460920E+02 -0.31268238920E+03  0.32545947356E+03  0.84876880220E+02 0.  0.
        -11    1    4    4    0    0 -0.15420647785E+02  0.25402451173E+02 -0.13846111570E+03  0.14161412876E+03  0.00000000000E+00 0.  1.
         11    1    4    4    0    0  0.41969702681E+02 -0.41043912093E+02 -0.17422127350E+03  0.18384534480E+03  0.00000000000E+00 0. -1.
        -13    1    3    3    0    0  0.47927033938E+02  0.45691446138E+01 -0.38436018532E+02  0.61605236670E+02  0.00000000000E+00 0.  1.
         13    1    3    3    0    0 -0.77530239605E+02 -0.35797899291E+02 -0.70770640314E+02  0.11090947289E+03  0.00000000000E+00 0. -1.
         21    1    1    2  502  501  0.30541507716E+01  0.46870215597E+02 -0.27776055155E+02  0.54567886042E+02  0.00000000000E+00 0. -1.
<scales pt_clust_5="13000.00000" pt_clust_6="13000.00000" pt_clust_7="13000.00000" pt_clust_8="13000.00000" pt_clust_9="46.96962"></scales>
<clustering>
<clus scale="   46.970">  1  9  2 -1</clus>
<clus scale="   84.877">  5  6 -1 -1</clus>
<clus scale="   89.425">  2  5  1 -1</clus>
<clus scale="  126.426">  7  8 -1 -1</clus>
<clus scale="   89.425">  2  5  1 -1</clus>
</clustering>
</event>
<event>
 9    1  0.1296032E-005  0.2193050E+03  0.7546771E-02  0.1134490E+00
          1   -1    0    0  502    0  0.00000000000E+00  0.00000000000E+00  0.32425043956E+03  0.32425043956E+03  0.00000000000E+00 0. -1.
         -1   -1    0    0    0  501 -0.00000000000E+00 -0.00000000000E+00 -0.23316274242E+03  0.23316274242E+03  0.00000000000E+00 0.  1.
         23    2    1    2    0    0  0.20314987033E+03  0.13747528049E+03 -0.21134647575E+02  0.26303792144E+03  0.92590238277E+02 0.  0.
         23    2    1    2    0    0 -0.11840298739E+03 -0.87131366709E+02  0.79387820731E+02  0.19047795649E+03  0.91478321704E+02 0.  0.
        -11    1    3    3    0    0  0.33706662976E+02  0.57873525523E+02 -0.34527112309E+02  0.75349887656E+02  0.00000000000E+00 0. -1.
         11    1    3    3    0    0  0.16944320736E+03  0.79601754966E+02  0.13392464734E+02  0.18768803378E+03  0.00000000000E+00 0.  1.
        -11    1    4    4    0    0 -0.80302677327E+02 -0.98272735782E+02  0.36533473739E+02  0.13206341389E+03  0.00000000000E+00 0.  1.
         11    1    4    4    0    0 -0.38100310059E+02  0.11141369073E+02  0.42854346992E+02  0.58414542603E+02  0.00000000000E+00 0. -1.
         21    1    1    2  502  501 -0.84746882945E+02 -0.50343913780E+02  0.32834523988E+02  0.10389730405E+03  0.00000000000E+00 0. -1.
<scales pt_clust_5="13000.00000" pt_clust_6="13000.00000" pt_clust_7="13000.00000" pt_clust_8="13000.00000" pt_clust_9="98.57253"></scales>
<clustering>
<clus scale="   91.478">  7  8 -1 -1</clus>
<clus scale="   92.590">  5  6 -1 -1</clus>
<clus scale="   98.573">  1  9  2 -1</clus>
<clus scale="  218.838">  1  7  2 -1</clus>
<clus scale="   98.573">  1  5  2 -1</clus>
</clustering>
</event>
<event>
 9    1  0.1296032E-005  0.1148084E+03  0.7546771E-02  0.1252173E+00
          1   -1    0    0  502    0  0.00000000000E+00  0.00000000000E+00  0.93985726948E+02  0.93985726948E+02  0.00000000000E+00 0. -1.
         -1   -1    0    0    0  501 -0.00000000000E+00 -0.00000000000E+00 -0.58421608379E+03  0.58421608379E+03  0.00000000000E+00 0.  1.
         23    2    1    2    0    0 -0.30310310687E+02 -0.52753283583E+02 -0.51281313256E+03  0.52534042662E+03  0.96455331921E+02 0.  0.
         23    2    1    2    0    0  0.53218282257E+02  0.58121691742E+02  0.61584763214E+01  0.12416726314E+03  0.95756283282E+02 0.  0.
        -11    1    3    3    0    0 -0.33260721978E+02 -0.79750678360E+02 -0.36863231484E+03  0.37862412742E+03  0.00000000000E+00 0.  1.
         11    1    3    3    0    0  0.29504112909E+01  0.26997394777E+02 -0.14418081772E+03  0.14671629920E+03  0.00000000000E+00 0. -1.
        -11    1    4    4    0    0 -0.30770244644E+01  0.33042782852E+02  0.41489858117E+02  0.53129106003E+02  0.00000000000E+00 0. -1.
         11    1    4    4    0    0  0.56295306722E+02  0.25078908890E+02 -0.35331381795E+02  0.71038157138E+02  0.00000000000E+00 0.  1.
         21    1    1    2  502  501 -0.22907971570E+02 -0.53684081593E+01  0.16424299398E+02  0.28694120972E+02  0.00000000000E+00 0.  1.
<scales pt_clust_5="13000.00000" pt_clust_6="13000.00000" pt_clust_7="13000.00000" pt_clust_8="13000.00000" pt_clust_9="23.52860"></scales>
<clustering>
<clus scale="   23.529">  1  9  2 -1</clus>
<clus scale="   95.756">  7  8 -1 -1</clus>
<clus scale="   96.455">  5  6 -1 -1</clus>
<clus scale="  114.222">  1  7  2 -1</clus>
<clus scale="   23.529">  1  5  2 -1</clus>
</clustering>
</event>
<event>
 9    1  0.1296032E-005  0.9740997E+02  0.7546771E-02  0.1288907E+00
         -1   -1    0    0    0  501 -0.00000000000E+00  0.00000000000E+00  0.53394997772E+02  0.53394997772E+02  0.00000000000E+00 0.  1.
          1   -1    0    0  502    0  0.00000000000E+00 -0.00000000000E+00 -0.59846141231E+03  0.59846141231E+03  0.00000000000E+00 0. -1.
         23    2    1    2    0    0 -0.72142923704E+01  0.19152375038E+02 -0.43416241179E+02  0.10441309493E+03  0.92726829503E+02 0.  0.
         23    2    1    2    0    0  0.86293126221E+02  0.77243847711E+01 -0.20205613946E+03  0.23642497594E+03  0.86970776711E+02 0.  0.
        -11    1    4    4    0    0  0.34973552061E+02 -0.63304348244E+01 -0.17133741208E+03  0.17498494943E+03  0.00000000000E+00 0. -1.
         11    1    4    4    0    0  0.51319574159E+02  0.14054819596E+02 -0.30718727381E+02  0.61440026511E+02  0.00000000000E+00 0.  1.
        -13    1    3    3    0    0 -0.30846965309E+02 -0.13620124824E+02  0.12034417279E+02  0.35803215893E+02  0.00000000000E+00 0.  1.
         13    1    3    3    0    0  0.23632672939E+02  0.32772499863E+02 -0.55450658458E+02  0.68609879032E+02  0.00000000000E+00 0. -1.
         21    1    1    2  502  501 -0.79078833850E+02 -0.26876759809E+02 -0.29959403390E+03  0.31101833922E+03  0.00000000000E+00 0.  1.
<scales pt_clust_5="13000.00000" pt_clust_6="13000.00000" pt_clust_7="13000.00000" pt_clust_8="13000.00000" pt_clust_9="83.52139"></scales>
<clustering>
<clus scale="   83.521">  2  9  1 -1</clus>
<clus scale="   86.971">  5  6 -1 -1</clus>
<clus scale="   91.948">  2  5  1 -1</clus>
<clus scale="   92.727">  7  8 -1 -1</clus>
<clus scale="   83.521">  2  5  1 -1</clus>
</clustering>
</event>
<event>
 9    1  0.1296032E-005  0.1159523E+03  0.7546771E-02  0.1251268E+00
         -1   -1    0    0    0  501 -0.00000000000E+00  0.00000000000E+00  0.35397121272E+03  0.35397121272E+03  0.00000000000E+00 0.  1.
          1   -1    0    0  502    0  0.00000000000E+00 -0.00000000000E+00 -0.28318971756E+03  0.28318971756E+03  0.00000000000E+00 0. -1.
         23    2    1    2    0    0  0.59990623183E+02  0.27769583315E+02  0.32135572832E+03  0.34142814664E+03  0.94517990693E+02 0.  0.
         23    2    1    2    0    0 -0.85196404725E+02 -0.35684631325E+02 -0.22046941267E+03  0.25567932405E+03  0.90737723888E+02 0.  0.
        -13    1    3    3    0    0  0.82984127044E+02  0.22182252504E+02  0.28796322921E+03  0.30050164566E+03  0.00000000000E+00 0.  1.
         13    1    3    3    0    0 -0.22993503861E+02  0.55873308106E+01  0.33392499108E+02  0.40926500975E+02  0.00000000000E+00 0. -1.
        -13    1    4    4    0    0 -0.31192974874E+02  0.28467627114E+02 -0.48191682682E+02  0.64076873790E+02  0.00000000000E+00 0.  1.
         13    1    4    4    0    0 -0.54003429850E+02 -0.64152258439E+02 -0.17227772999E+03  0.19160245026E+03  0.00000000000E+00 0. -1.
         21    1    1    2  502  501  0.25205781541E+02  0.79150480101E+01 -0.30104820497E+02  0.40053459591E+02  0.00000000000E+00 0.  1.
<scales pt_clust_5="13000.00000" pt_clust_6="13000.00000" pt_clust_7="13000.00000" pt_clust_8="13000.00000" pt_clust_9="26.41930"></scales>
<clustering>
<clus scale="   26.419">  2  9  1 -1</clus>
<clus scale="   90.738">  7  8 -1 -1</clus>
<clus scale="   94.518">  5  6 -1 -1</clus>
<clus scale="  112.892">  2  7  1 -1</clus>
<clus scale="   26.419">  2  5  1 -1</clus>
</clustering>
</event>
<event>
 9    1  0.1296032E-005  0.1098775E+03  0.7546771E-02  0.1263799E+00
         -1   -1    0    0    0  501 -0.00000000000E+00  0.00000000000E+00  0.97047676045E+02  0.97047676045E+02  0.00000000000E+00 0.  1.
          1   -1    0    0  502    0  0.00000000000E+00 -0.00000000000E+00 -0.20626443974E+03  0.20626443974E+03  0.00000000000E+00 0. -1.
         23    2    1    2    0    0  0.33890575247E+02  0.38732429515E+02  0.15515630635E+02  0.10522084495E+03  0.90453961941E+02 0.  0.
         23    2    1    2    0    0 -0.52271835167E+02 -0.15022760524E+02 -0.60136226269E+02  0.12686849324E+03  0.97576743042E+02 0.  0.
        -11    1    3    3    0    0 -0.26623705725E+02  0.28211861596E+02 -0.77185347876E+01  0.39551316293E+02  0.00000000000E+00 0. -1.
         11    1    3    3    0    0  0.60514280972E+02  0.10520567919E+02  0.23234165423E+02  0.65669528656E+02  0.00000000000E+00 0.  1.
        -11    1    4    4    0    0 -0.51372035186E+02  0.54355147740E+01 -0.81997896255E+02  0.96913806086E+02  0.00000000000E+00 0. -1.
         11    1    4    4    0    0 -0.89979998069E+00 -0.20458275298E+02  0.21861669985E+02  0.29954687158E+02  0.00000000000E+00 0.  1.
         21    1    1    2  502  501  0.18381259919E+02 -0.23709668991E+02 -0.64596168060E+02  0.71222777592E+02  0.00000000000E+00 0. -1.
<scales pt_clust_5="13000.00000" pt_clust_6="13000.00000" pt_clust_7="13000.00000" pt_clust_8="13000.00000" pt_clust_9="30.00032"></scales>
<clustering>
<clus scale="   30.000">  2  9  1 -1</clus>
<clus scale="   90.454">  5  6 -1 -1</clus>
<clus scale="   97.577">  7  8 -1 -1</clus>
<clus scale="  103.604">  1  5  2 -1</clus>
<clus scale="   30.000">  2  5  1 -1</clus>
</clustering>
</event>
<event>
 9    1  0.1296032E-005  0.1018059E+03  0.7546771E-02  0.1277116E+00
          2   -1    0    0  502    0  0.00000000000E+00  0.00000000000E+00  0.32111722817E+03  0.32111722817E+03  0.00000000000E+00 0. -1.
         -2   -1    0    0    0  501 -0.00000000000E+00 -0.00000000000E+00 -0.67531042895E+02  0.67531042895E+02  0.00000000000E+00 0.  1.
         23    2    1    2    0    0  0.59412827121E+02  0.57095501734E+01  0.53898882194E+01  0.11004594920E+03  0.92296137782E+02 0.  0.
         23    2    1    2    0    0 -0.38472163649E+02 -0.10181194746E+02  0.22980409167E+03  0.25037502638E+03  0.91071231368E+02 0.  0.
        -13    1    3    3    0    0 -0.24408616835E+00  0.36551042752E+02 -0.15517249525E+02  0.39709234910E+02  0.00000000000E+00 0.  1.
         13    1    3    3    0    0  0.59656913290E+02 -0.30841492579E+02  0.20907137745E+02  0.70336714285E+02  0.00000000000E+00 0. -1.
        -13    1    4    4    0    0 -0.67274464234E+02 -0.12020134726E+02  0.18350327948E+03  0.19581570610E+03  0.00000000000E+00 0. -1.
         13    1    4    4    0    0  0.28802300586E+02  0.18389399806E+01  0.46300812188E+02  0.54559320272E+02  0.00000000000E+00 0.  1.
         21    1    1    2  502  501 -0.20940663473E+02  0.44716445722E+01  0.18392205385E+02  0.28227295492E+02  0.00000000000E+00 0.  1.
<scales pt_clust_5="13000.00000" pt_clust_6="13000.00000" pt_clust_7="13000.00000" pt_clust_8="13000.00000" pt_clust_9="21.41278"></scales>
<clustering>
<clus scale="   21.413">  2  9  1 -1</clus>
<clus scale="   91.071">  7  8 -1 -1</clus>
<clus scale="   92.296">  5  6 -1 -1</clus>
<clus scale="  100.697">  1  7  2 -1</clus>
<clus scale="  100.697">  1  5  2 -1</clus>
</clustering>
</event>
<event>
 9    1  0.1296032E-005  0.1183999E+03  0.7546771E-02  0.1245970E+00
          1   -1    0    0  502    0  0.00000000000E+00  0.00000000000E+00  0.16818424658E+03  0.16818424658E+03  0.00000000000E+00 0. -1.
         -1   -1    0    0    0  501 -0.00000000000E+00 -0.00000000000E+00 -0.24211018503E+03  0.24211018503E+03  0.00000000000E+00 0.  1.
         23    2    1    2    0    0  0.29510941017E+02  0.65171941362E+02 -0.15551820667E+03  0.19392926277E+03  0.91128309378E+02 0.  0.
         23    2    1    2    0    0 -0.78837269216E+02 -0.74888985243E+02  0.86569538341E+02  0.16584506578E+03  0.90479974281E+02 0.  0.
        -11    1    4    4    0    0 -0.13269245034E+02 -0.37695161004E+02  0.80921331608E+02  0.90251093822E+02  0.00000000000E+00 0. -1.
         11    1    4    4    0    0 -0.65568024182E+02 -0.37193824239E+02  0.56482067328E+01  0.75593971954E+02  0.00000000000E+00 0.  1.
        -13    1    3    3    0    0  0.55651563452E+02  0.20699559850E+02 -0.54946621179E+02  0.80899316879E+02  0.00000000000E+00 0.  1.
         13    1    3    3    0    0 -0.26140622435E+02  0.44472381512E+02 -0.10057158549E+03  0.11302994589E+03  0.00000000000E+00 0. -1.
         21    1    1    2  502  501  0.49326328199E+02  0.97170438807E+01 -0.49772701227E+01  0.50520103061E+02  0.00000000000E+00 0.  1.
<scales pt_clust_5="13000.00000" pt_clust_6="13000.00000" pt_clust_7="13000.00000" pt_clust_8="13000.00000" pt_clust_9="50.27432"></scales>
<clustering>
<clus scale="   50.274">  1  9  2 -1</clus>
<clus scale="   90.480">  5  6 -1 -1</clus>
<clus scale="   91.128">  7  8 -1 -1</clus>
<clus scale="  117.902">  1  5  2 -1</clus>
<clus scale="   50.274">  1  5  2 -1</clus>
</clustering>
</event>
<event>
 9    1  0.1296032E-005  0.1016903E+03  0.7546771E-02  0.1277545E+00
         -1   -1    0    0    0  501 -0.00000000000E+00  0.00000000000E+00  0.25248793298E+03  0.25248793298E+03  0.00000000000E+00 0.  1.
          1   -1    0    0  502    0  0.00000000000E+00 -0.00000000000E+00 -0.82741366494E+02  0.82741366494E+02  0.00000000000E+00 0. -1.
         23    2    1    2    0    0  0.51886627438E+01 -0.61117858348E+02  0.15424168449E+03  0.18858712415E+03  0.89511403357E+02 0.  0.
         23    2    1    2    0    0 -0.71534385869E+01  0.11276430312E+02  0.25871215574E+02  0.95696231773E+02  0.91159856384E+02 0.  0.
        -13    1    4    4    0    0  0.29797060069E+02  0.10655868575E+01  0.44111145582E+02  0.53242778183E+02  0.00000000000E+00 0.  1.
         13    1    4    4    0    0 -0.36950498656E+02  0.10210843454E+02 -0.18239930008E+02  0.42453453590E+02  0.00000000000E+00 0. -1.
        -13    1    3    3    0    0  0.32755949222E+02 -0.53177232057E+02  0.48651254971E+02  0.79168900643E+02  0.00000000000E+00 0. -1.
         13    1    3    3    0    0 -0.27567286478E+02 -0.79406262912E+01  0.10559042952E+03  0.10941822351E+03  0.00000000000E+00 0.  1.
         21    1    1    2  502  501  0.19647758431E+01  0.49841428037E+02 -0.10366333574E+02  0.50945943554E+02  0.00000000000E+00 0. -1.
<scales pt_clust_5="13000.00000" pt_clust_6="13000.00000" pt_clust_7="13000.00000" pt_clust_8="13000.00000" pt_clust_9="49.88014"></scales>
<clustering>
<clus scale="   49.880">  2  9  1 -1</clus>
<clus scale="   89.511">  7  8 -1 -1</clus>
<clus scale="   91.160">  5  6 -1 -1</clus>
<clus scale="  100.215">  1  7  2 -1</clus>
<clus scale="   49.880">  2  5  1 -1</clus>
</clustering>
</event>
<event>
 9    1  0.1296032E-005  0.1654425E+03  0.7546771E-02  0.1183735E+00
         -2   -1    0    0    0  501 -0.00000000000E+00  0.00000000000E+00  0.25046974032E+03  0.25046974032E+03  0.00000000000E+00 0.  1.
          2   -1    0    0  502    0  0.00000000000E+00 -0.00000000000E+00 -0.14063872538E+03  0.14063872538E+03  0.00000000000E+00 0. -1.
         23    2    1    2    0    0  0.45361409770E+02 -0.14159951896E+03  0.93010851888E+02  0.19499692706E+03  0.85233219630E+02 0.  0.
         23    2    1    2    0    0 -0.22359460360E+02  0.12232168322E+03  0.37907795654E+02  0.15943166846E+03  0.92297975519E+02 0.  0.
        -13    1    4    4    0    0  0.32092052388E+02  0.78704581089E+02  0.23618771300E+02  0.88216536253E+02  0.00000000000E+00 0.  1.
         13    1    4    4    0    0 -0.54451512748E+02  0.43617102130E+02  0.14289024354E+02  0.71215132210E+02  0.00000000000E+00 0. -1.
        -13    1    3    3    0    0  0.28656245117E+01 -0.45125072876E+02  0.75685712851E+02  0.88163547659E+02  0.00000000000E+00 0.  1.
         13    1    3    3    0    0  0.42495785258E+02 -0.96474446088E+02  0.17325139037E+02  0.10683337941E+03  0.00000000000E+00 0. -1.
         21    1    1    2  502  501 -0.23001949410E+02  0.19277835745E+02 -0.21087632598E+02  0.36679870178E+02  0.00000000000E+00 0.  1.
<scales pt_clust_5="13000.00000" pt_clust_6="13000.00000" pt_clust_7="13000.00000" pt_clust_8="13000.00000" pt_clust_9="30.01207"></scales>
<clustering>
<clus scale="   30.012">  2  9  1 -1</clus>
<clus scale="   85.233">  7  8 -1 -1</clus>
<clus scale="   92.298">  5  6 -1 -1</clus>
<clus scale="  161.608">  1  7  2 -1</clus>
<clus scale="   30.012">  2  5  1 -1</clus>
</clustering>
</event>
<event>
 9    1  0.1296032E-005  0.1208935E+03  0.7546771E-02  0.1245484E+00
         -1   -1    0    0    0  501 -0.00000000000E+00  0.00000000000E+00  0.21678835956E+03  0.21678835956E+03  0.00000000000E+00 0.  1.
          1   -1    0    0  502    0  0.00000000000E+00 -0.00000000000E+00 -0.29618495090E+03  0.29618495090E+03  0.00000000000E+00 0. -1.
         23    2    1    2    0    0 -0.33376116910E+02 -0.71400443415E+02  0.17558057350E+03  0.20827303084E+03  0.79606086997E+02 0.  0.
         23    2    1    2    0    0  0.53381182613E+02  0.58725229670E+02 -0.13153026545E+03  0.17900222607E+03  0.91887882501E+02 0.  0.
        -11    1    4    4    0    0  0.67165796655E+02  0.24516005679E+02 -0.12116988673E+03  0.14069264453E+03  0.00000000000E+00 0. -1.
         11    1    4    4    0    0 -0.13784614042E+02  0.34209223992E+02 -0.10360378722E+02  0.38309581538E+02  0.00000000000E+00 0.  1.
        -11    1    3    3    0    0 -0.12508278985E+01 -0.70980344284E+02  0.15398468011E+03  0.16956136221E+03  0.00000000000E+00 0.  1.
         11    1    3    3    0    0 -0.32125289012E+02 -0.42009913062E+00  0.21595893388E+02  0.38711668636E+02  0.00000000000E+00 0. -1.
         21    1    1    2  502  501 -0.20005065703E+02  0.12675213744E+02 -0.12344689938E+03  0.12569805354E+03  0.00000000000E+00 0. -1.
<scales pt_clust_5="13000.00000" pt_clust_6="13000.00000" pt_clust_7="13000.00000" pt_clust_8="13000.00000" pt_clust_9="23.68256"></scales>
<clustering>
<clus scale="   23.683">  2  9  1 -1</clus>
<clus scale="   79.606">  7  8 -1 -1</clus>
<clus scale="   91.888">  5  6 -1 -1</clus>
<clus scale="  111.844">  1  7  2 -1</clus>
<clus scale="   23.683">  2  5  1 -1</clus>
</clustering>
</event>
<event>
 9    1  0.1296032E-005  0.1612176E+03  0.7546771E-02  0.1187872E+00
          4   -1    0    0  502    0  0.00000000000E+00  0.00000000000E+00  0.26384547892E+03  0.26384547892E+03  0.00000000000E+00 0. -1.
         -4   -1    0    0    0  501 -0.00000000000E+00 -0.00000000000E+00 -0.14894062640E+03  0.14894062640E+03  0.00000000000E+00 0.  1.
         23    2    1    2    0    0  0.11236449288E+03 -0.57436782544E+02 -0.43235011168E+02  0.16312997604E+03  0.93900796826E+02 0.  0.
         23    2    1    2    0    0 -0.13157856448E+03  0.63897037845E+02  0.14827876720E+03  0.22711379865E+03  0.90544655599E+02 0.  0.
        -11    1    4    4    0    0 -0.75813798719E+02  0.28654088643E+02  0.20951644269E+02  0.83712366289E+02  0.00000000000E+00 0.  1.
         11    1    4    4    0    0 -0.55764765765E+02  0.35242949202E+02  0.12732712293E+03  0.14340143236E+03  0.00000000000E+00 0. -1.
        -11    1    3    3    0    0  0.12013073010E+03 -0.28313958136E+02 -0.19909442761E+02  0.12501783253E+03  0.00000000000E+00 0.  1.
         11    1    3    3    0    0 -0.77662372169E+01 -0.29122824408E+02 -0.23325568407E+02  0.38112143517E+02  0.00000000000E+00 0. -1.
         21    1    1    2  502  501  0.19214071606E+02 -0.64602553015E+01  0.98610964883E+01  0.22542330629E+02  0.00000000000E+00 0.  1.
<scales pt_clust_5="13000.00000" pt_clust_6="13000.00000" pt_clust_7="13000.00000" pt_clust_8="13000.00000" pt_clust_9="20.27105"></scales>
<clustering>
<clus scale="   20.271">  1  9  2 -1</clus>
<clus scale="   90.545">  5  6 -1 -1</clus>
<clus scale="   93.901">  7  8 -1 -1</clus>
<clus scale="  159.286">  1  5  2 -1</clus>
<clus scale="   20.271">  1  5  2 -1</clus>
</clustering>
</event>
<event>
 9    1  0.1296032E-005  0.1224083E+03  0.7546771E-02  0.1241441E+00
          1   -1    0    0  502    0  0.00000000000E+00  0.00000000000E+00  0.13522709514E+03  0.13522709514E+03  0.00000000000E+00 0. -1.
         -1   -1    0    0    0  501 -0.00000000000E+00 -0.00000000000E+00 -0.13807779561E+03  0.13807779561E+03  0.00000000000E+00 0.  1.
         23    2    1    2    0    0 -0.65611500500E+02  0.43106490078E+02 -0.10383840445E+02  0.12061405464E+03  0.90977401314E+02 0.  0.
         23    2    1    2    0    0  0.69580734093E+02 -0.13568564815E+02 -0.33739721467E+01  0.12095428087E+03  0.97943707630E+02 0.  0.
        -13    1    4    4    0    0 -0.92470237867E+01 -0.36250252493E+02 -0.98106778672E+01  0.38676060489E+02  0.00000000000E+00 0. -1.
         13    1    4    4    0    0  0.78827757880E+02  0.22681687679E+02  0.64367057206E+01  0.82278220380E+02  0.00000000000E+00 0.  1.
        -13    1    3    3    0    0 -0.22356002974E+02  0.46878239032E+02 -0.42090184770E+02  0.66850159444E+02  0.00000000000E+00 0.  1.
         13    1    3    3    0    0 -0.43255497526E+02 -0.37717489539E+01  0.31706344325E+02  0.53763895198E+02  0.00000000000E+00 0. -1.
         21    1    1    2  502  501 -0.39692335926E+01 -0.29537925263E+02  0.10907112122E+02  0.31736555248E+02  0.00000000000E+00 0.  1.
<scales pt_clust_5="13000.00000" pt_clust_6="13000.00000" pt_clust_7="13000.00000" pt_clust_8="13000.00000" pt_clust_9="29.80342"></scales>
<clustering>
<clus scale="   29.803">  1  9  2 -1</clus>
<clus scale="   90.977">  7  8 -1 -1</clus>
<clus scale="   97.944">  5  6 -1 -1</clus>
<clus scale="  116.909">  2  7  1 -1</clus>
<clus scale="   29.803">  1  5  2 -1</clus>
</clustering>
</event>
<event>
 9    1  0.1296032E-005  0.1474026E+03  0.7546771E-02  0.1204384E+00
         -2   -1    0    0    0  501 -0.00000000000E+00  0.00000000000E+00  0.76837365392E+02  0.76837365392E+02  0.00000000000E+00 0.  1.
          2   -1    0    0  502    0  0.00000000000E+00 -0.00000000000E+00 -0.42153589814E+03  0.42153589814E+03  0.00000000000E+00 0. -1.
         23    2    1    2    0    0  0.51189683055E+02  0.10511103303E+03 -0.73905473606E+02  0.16730829665E+03  0.94134659830E+02 0.  0.
         23    2    1    2    0    0 -0.65606553733E+02 -0.87784745112E+02 -0.14453287471E+03  0.20280865871E+03  0.90726064663E+02 0.  0.
        -11    1    3    3    0    0 -0.37937531713E+01  0.92946098937E+02 -0.54115535861E+02  0.10761905543E+03  0.00000000000E+00 0.  1.
         11    1    3    3    0    0  0.54983436226E+02  0.12164934098E+02 -0.19789937745E+02  0.59689241215E+02  0.00000000000E+00 0. -1.
        -13    1    4    4    0    0 -0.58220832000E+02 -0.23608975067E+02 -0.11655920812E+03  0.13241260507E+03  0.00000000000E+00 0. -1.
         13    1    4    4    0    0 -0.73857217327E+01 -0.64175770045E+02 -0.27973666588E+02  0.70396053645E+02  0.00000000000E+00 0.  1.
         21    1    1    2  502  501  0.14416870678E+02 -0.17326287922E+02 -0.12626018443E+03  0.12825630817E+03  0.00000000000E+00 0.  1.
<scales pt_clust_5="13000.00000" pt_clust_6="13000.00000" pt_clust_7="13000.00000" pt_clust_8="13000.00000" pt_clust_9="22.53988"></scales>
<clustering>
<clus scale="   22.540">  2  9  1 -1</clus>
<clus scale="   90.726">  7  8 -1 -1</clus>
<clus scale="   94.135">  5  6 -1 -1</clus>
<clus scale="  145.249">  2  7  1 -1</clus>
<clus scale="   22.540">  2  5  1 -1</clus>
</clustering>
</event>
<event>
 9    1  0.1296032E-005  0.1241907E+03  0.7546771E-02  0.1239054E+00
          3   -1    0    0  502    0  0.00000000000E+00  0.00000000000E+00  0.56784066231E+03  0.56784066231E+03  0.00000000000E+00 0. -1.
         -3   -1    0    0    0  501 -0.00000000000E+00 -0.00000000000E+00 -0.53853308045E+02  0.53853308045E+02  0.00000000000E+00 0.  1.
         23    2    1    2    0    0 -0.89991845143E+02 -0.56102373393E+02  0.88979591088E+02  0.16066423643E+03  0.81545206748E+02 0.  0.
         23    2    1    2    0    0  0.54233654527E+02 -0.25079846133E+01  0.20772985045E+03  0.23316241811E+03  0.90914482775E+02 0.  0.
        -11    1    3    3    0    0 -0.13407210689E+02 -0.27536277002E+02  0.70496274945E+02  0.76861724094E+02  0.00000000000E+00 0. -1.
         11    1    3    3    0    0 -0.76584634454E+02 -0.28566096392E+02  0.18483316143E+02  0.83802512332E+02  0.00000000000E+00 0.  1.
        -11    1    4    4    0    0  0.23202203137E+02  0.43385599547E+02  0.11597770471E+03  0.12598206407E+03  0.00000000000E+00 0. -1.
         11    1    4    4    0    0  0.31031451389E+02 -0.45893584160E+02  0.91752145742E+02  0.10718035403E+03  0.00000000000E+00 0.  1.
         21    1    1    2  502  501  0.35758190616E+02  0.58610358007E+02  0.21727791272E+03  0.22786731582E+03  0.00000000000E+00 0. -1.
<scales pt_clust_5="13000.00000" pt_clust_6="13000.00000" pt_clust_7="13000.00000" pt_clust_8="13000.00000" pt_clust_9="68.65728"></scales>
<clustering>
<clus scale="   68.657">  1  9  2 -1</clus>
<clus scale="   81.545">  5  6 -1 -1</clus>
<clus scale="   90.914">  7  8 -1 -1</clus>
<clus scale="  117.505">  2  5  1 -1</clus>
<clus scale="   68.657">  1  5  2 -1</clus>
</clustering>
</event>
<event>
 9    1  0.1575054E-005  0.9839132E+02  0.7546771E-02  0.1285645E+00
          3   -1    0    0  502    0  0.00000000000E+00  0.00000000000E+00  0.14645533806E+03  0.14645533806E+03  0.00000000000E+00 0. -1.
         -3   -1    0    0    0  501 -0.00000000000E+00 -0.00000000000E+00 -0.23865319854E+03  0.23865319854E+03  0.00000000000E+00 0.  1.
         23    2    1    2    0    0 -0.71256440082E+01  0.32029405353E+02 -0.18893699384E+03  0.21212000975E+03  0.90670024194E+02 0.  0.
         23    2    1    2    0    0 -0.10721609845E+02  0.11294411189E+02  0.73960779348E+02  0.12088928539E+03  0.94347791698E+02 0.  0.
        -11    1    3    3    0    0  0.18665698671E+02  0.30335906886E+02 -0.18186912677E+03  0.18532418845E+03  0.00000000000E+00 0.  1.
         11    1    3    3    0    0 -0.25791342680E+02  0.16934984671E+01 -0.70678670672E+01  0.26795821300E+02  0.00000000000E+00 0. -1.
        -13    1    4    4    0    0 -0.17038005237E+02 -0.39837411837E+02  0.41494107568E+02  0.59992282563E+02  0.00000000000E+00 0. -1.
         13    1    4    4    0    0  0.63163953928E+01  0.51131823025E+02  0.32466671780E+02  0.60897002826E+02  0.00000000000E+00 0.  1.
         21    1    1    2  502  501  0.17847253853E+02 -0.43323816541E+02  0.22778354005E+02  0.52099241463E+02  0.00000000000E+00 0. -1.
<scales pt_clust_5="13000.00000" pt_clust_6="13000.00000" pt_clust_7="13000.00000" pt_clust_8="13000.00000" pt_clust_9="46.85592"></scales>
<clustering>
<clus scale="   46.856">  1  9  2 -1</clus>
<clus scale="   90.670">  5  6 -1 -1</clus>
<clus scale="   94.348">  7  8 -1 -1</clus>
<clus scale="   94.870">  2  5  1 -1</clus>
<clus scale="   46.856">  1  5  2 -1</clus>
</clustering>
</event>
<event>
 9    1  0.1296032E-005  0.9755039E+02  0.7546771E-02  0.1290513E+00
         -1   -1    0    0    0  501 -0.00000000000E+00  0.00000000000E+00  0.56148925274E+03  0.56148925274E+03  0.00000000000E+00 0.  1.
          1   -1    0    0  502    0  0.00000000000E+00 -0.00000000000E+00 -0.78542480480E+02  0.78542480480E+02  0.00000000000E+00 0. -1.
         23    2    1    2    0    0 -0.44283738423E+01  0.13483795030E+01  0.27727085452E+03  0.29078323243E+03  0.87489044314E+02 0.  0.
         23    2    1    2    0    0 -0.85971040601E+01 -0.35695736660E+02  0.26225673598E+03  0.28178893505E+03  0.96323997705E+02 0.  0.
        -11    1    3    3    0    0 -0.23362472076E+02 -0.35973052982E+02  0.17712790953E+03  0.18224752941E+03  0.00000000000E+00 0.  1.
         11    1    3    3    0    0  0.18934098234E+02  0.37321432485E+02  0.10014294499E+03  0.10853570302E+03  0.00000000000E+00 0. -1.
        -11    1    4    4    0    0 -0.24359757477E+02  0.67157221596E+01  0.12919697536E+02  0.28379874787E+02  0.00000000000E+00 0. -1.
         11    1    4    4    0    0  0.15762653417E+02 -0.42411458820E+02  0.24933703844E+03  0.25340906026E+03  0.00000000000E+00 0.  1.
         21    1    1    2  502  501  0.13025477902E+02  0.34347357157E+02 -0.56580818236E+02  0.67459565745E+02  0.00000000000E+00 0. -1.
<scales pt_clust_5="13000.00000" pt_clust_6="13000.00000" pt_clust_7="13000.00000" pt_clust_8="13000.00000" pt_clust_9="36.73423"></scales>
<clustering>
<clus scale="   36.734">  2  9  1 -1</clus>
<clus scale="   87.489">  5  6 -1 -1</clus>
<clus scale="   88.837">  1  5  2 -1</clus>
<clus scale="   96.324">  7  8 -1 -1</clus>
<clus scale="   36.734">  2  5  1 -1</clus>
</clustering>
</event>
<event>
 9    1  0.1296032E-005  0.1645666E+03  0.7546771E-02  0.1184030E+00
          1   -1    0    0  502    0  0.00000000000E+00  0.00000000000E+00  0.75658320238E+03  0.75658320238E+03  0.00000000000E+00 0. -1.
         -1   -1    0    0    0  501 -0.00000000000E+00 -0.00000000000E+00 -0.41190769856E+02  0.41190769856E+02  0.00000000000E+00 0.  1.
         23    2    1    2    0    0 -0.13895068632E+03  0.76000218418E+01  0.28645897864E+03  0.33249250664E+03  0.95537777691E+02 0.  0.
         23    2    1    2    0    0  0.12591300325E+03 -0.24617554420E+02  0.36743308934E+03  0.40015180696E+03  0.93028410179E+02 0.  0.
        -11    1    4    4    0    0  0.18956519836E+02  0.27465101406E+02  0.41920237950E+02  0.53581599353E+02  0.00000000000E+00 0.  1.
         11    1    4    4    0    0  0.10695648341E+03 -0.52082655825E+02  0.32551285139E+03  0.34657020761E+03  0.00000000000E+00 0. -1.
        -13    1    3    3    0    0 -0.11688141910E+03  0.45081293414E+02  0.20999565446E+03  0.24452354496E+03  0.00000000000E+00 0.  1.
         13    1    3    3    0    0 -0.22069267218E+02 -0.37481271573E+02  0.76463324186E+02  0.87968961685E+02  0.00000000000E+00 0. -1.
         21    1    1    2  502  501  0.13037683072E+02  0.17017532578E+02  0.61500364539E+02  0.65129658631E+02  0.00000000000E+00 0. -1.
<scales pt_clust_5="13000.00000" pt_clust_6="13000.00000" pt_clust_7="13000.00000" pt_clust_8="13000.00000" pt_clust_9="21.43776"></scales>
<clustering>
<clus scale="   21.438">  1  9  2 -1</clus>
<clus scale="   93.028">  5  6 -1 -1</clus>
<clus scale="   95.538">  7  8 -1 -1</clus>
<clus scale="  163.123">  1  5  2 -1</clus>
<clus scale="   21.438">  1  5  2 -1</clus>
</clustering>
</event>
<event>
 9    1  0.1296032E-005  0.1328854E+03  0.7546771E-02  0.1223570E+00
         -1   -1    0    0    0  501 -0.00000000000E+00  0.00000000000E+00  0.73553938253E+02  0.73553938253E+02  0.00000000000E+00 0.  1.
          1   -1    0    0  502    0  0.00000000000E+00 -0.00000000000E+00 -0.31684600134E+03  0.31684600134E+03  0.00000000000E+00 0. -1.
         23    2    1    2    0    0  0.70089716537E+02  0.83596811863E+02 -0.82182635739E+02  0.16381599919E+03  0.90447225811E+02 0.  0.
         23    2    1    2    0    0 -0.63211767619E+02 -0.57813640518E+02 -0.96894618699E+02  0.15704531979E+03  0.89087152502E+02 0.  0.
        -11    1    4    4    0    0 -0.30674470810E+02 -0.45127967285E+02 -0.55241383615E+00  0.54568871637E+02  0.00000000000E+00 0.  1.
         11    1    4    4    0    0 -0.32537296810E+02 -0.12685673234E+02 -0.96342204863E+02  0.10247644816E+03  0.00000000000E+00 0. -1.
        -13    1    3    3    0    0  0.30422350713E+02  0.33931950104E+02  0.14751378385E+02  0.47900937621E+02  0.00000000000E+00 0. -1.
         13    1    3    3    0    0  0.39667365824E+02  0.49664861759E+02 -0.96934014124E+02  0.11591506157E+03  0.00000000000E+00 0.  1.
         21    1    1    2  502  501 -0.68779489173E+01 -0.25783171344E+02 -0.64214808650E+02  0.69538620607E+02  0.00000000000E+00 0. -1.
<scales pt_clust_5="13000.00000" pt_clust_6="13000.00000" pt_clust_7="13000.00000" pt_clust_8="13000.00000" pt_clust_9="26.68479"></scales>
<clustering>
<clus scale="   26.685">  2  9  1 -1</clus>
<clus scale="   89.087">  5  6 -1 -1</clus>
<clus scale="   90.447">  7  8 -1 -1</clus>
<clus scale="  131.963">  2  5  1 -1</clus>
<clus scale="   26.685">  2  5  1 -1</clus>
</clustering>
</event>
<event>
 9    1  0.1296032E-005  0.9415606E+02  0.7546771E-02  0.1293304E+00
          1   -1    0    0  502    0  0.00000000000E+00  0.00000000000E+00  0.94908980006E+02  0.94908980006E+02  0.00000000000E+00 0. -1.
         -1   -1    0    0    0  501 -0.00000000000E+00 -0.00000000000E+00 -0.32949998600E+03  0.32949998600E+03  0.00000000000E+00 0.  1.
         23    2    1    2    0    0  0.79351120125E+01  0.16426238268E+02 -0.27049202495E+03  0.28608878774E+03  0.91367782108E+02 0.  0.
         23    2    1    2    0    0 -0.77898091501E+01 -0.42208424595E+02  0.10027815147E+02  0.10179395591E+03  0.91756308500E+02 0.  0.
        -11    1    4    4    0    0  0.15953553837E+01  0.28832265962E+02 -0.27450285422E+01  0.29006549278E+02  0.00000000000E+00 0.  1.
         11    1    4    4    0    0 -0.93851645339E+01 -0.71040690558E+02  0.12772843690E+02  0.72787406631E+02  0.00000000000E+00 0. -1.
        -13    1    3    3    0    0 -0.36814439243E+02 -0.94146334569E+01 -0.77736947253E+02  0.86527286032E+02  0.00000000000E+00 0.  1.
         13    1    3    3    0    0  0.44749551256E+02  0.25840871725E+02 -0.19275507769E+03  0.19956150171E+03  0.00000000000E+00 0. -1.
         21    1    1    2  502  501 -0.14530286236E+00  0.25782186327E+02  0.25873203800E+02  0.36526222356E+02  0.00000000000E+00 0. -1.
<scales pt_clust_5="13000.00000" pt_clust_6="13000.00000" pt_clust_7="13000.00000" pt_clust_8="13000.00000" pt_clust_9="25.78260"></scales>
<clustering>
<clus scale="   25.783">  1  9  2 -1</clus>
<clus scale="   91.368">  7  8 -1 -1</clus>
<clus scale="   91.756">  5  6 -1 -1</clus>
<clus scale="   93.777">  2  7  1 -1</clus>
<clus scale="   25.783">  1  5  2 -1</clus>
</clustering>
</event>
<event>
 9    1  0.1296032E-005  0.1843148E+03  0.7546771E-02  0.1163844E+00
          1   -1    0    0  502    0  0.00000000000E+00  0.00000000000E+00  0.51896716820E+03  0.51896716820E+03  0.00000000000E+00 0. -1.
         -1   -1    0    0    0  501 -0.00000000000E+00 -0.00000000000E+00 -0.11179755189E+03  0.11179755189E+03  0.00000000000E+00 0.  1.
         23    2    1    2    0    0 -0.51255145777E+02 -0.15672996423E+03  0.20942505497E+02  0.19000766106E+03  0.92048634260E+02 0.  0.
         23    2    1    2    0    0  0.17827157628E+02  0.14564351248E+03  0.28038883200E+03  0.32921298225E+03  0.90738361766E+02 0.  0.
        -11    1    3    3    0    0 -0.20829734256E+02 -0.85902589138E+02 -0.34677454897E+02  0.94950821629E+02  0.00000000000E+00 0.  1.
         11    1    3    3    0    0 -0.30425411521E+02 -0.70827375089E+02  0.55619960394E+02  0.95056839430E+02  0.00000000000E+00 0. -1.
        -11    1    4    4    0    0  0.44187537053E+02  0.56226103579E+02  0.74842097224E+02  0.10351450464E+03  0.00000000000E+00 0.  1.
         11    1    4    4    0    0 -0.26360379425E+02  0.89417408903E+02  0.20554673477E+03  0.22569847761E+03  0.00000000000E+00 0. -1.
         21    1    1    2  502  501  0.33427988149E+02  0.11086451745E+02  0.10583827881E+03  0.11154407679E+03  0.00000000000E+00 0. -1.
<scales pt_clust_5="13000.00000" pt_clust_6="13000.00000" pt_clust_7="13000.00000" pt_clust_8="13000.00000" pt_clust_9="35.21846"></scales>
<clustering>
<clus scale="   35.218">  1  9  2 -1</clus>
<clus scale="   90.738">  7  8 -1 -1</clus>
<clus scale="   92.049">  5  6 -1 -1</clus>
<clus scale="  183.664">  1  7  2 -1</clus>
<clus scale="   35.218">  1  5  2 -1</clus>
</clustering>
</event>
<event>
 9    1  0.1296032E-005  0.1097963E+03  0.7546771E-02  0.1261971E+00
         -1   -1    0    0    0  501 -0.00000000000E+00  0.00000000000E+00  0.12414933689E+03  0.12414933689E+03  0.00000000000E+00 0.  1.
          1   -1    0    0  502    0  0.00000000000E+00 -0.00000000000E+00 -0.23263275129E+03  0.23263275129E+03  0.00000000000E+00 0. -1.
         23    2    1    2    0    0  0.21982033202E+02  0.50447402164E+02  0.68931604261E+02  0.12620430481E+03  0.90265222079E+02 0.  0.
         23    2    1    2    0    0 -0.26165093005E+02 -0.73308030196E+02 -0.12962215182E+03  0.17743397448E+03  0.92855983499E+02 0.  0.
        -11    1    4    4    0    0 -0.15322689217E+02  0.16919819288E+02 -0.56012517313E+02  0.60485264199E+02  0.00000000000E+00 0.  1.
         11    1    4    4    0    0 -0.10842403788E+02 -0.90227849484E+02 -0.73609634512E+02  0.11694871028E+03  0.00000000000E+00 0. -1.
        -11    1    3    3    0    0 -0.23278025015E+02  0.41496430086E+02  0.56848870776E+01  0.47918035223E+02  0.00000000000E+00 0. -1.
         11    1    3    3    0    0  0.45260058217E+02  0.89509720777E+01  0.63246717183E+02  0.78286269584E+02  0.00000000000E+00 0.  1.
         21    1    1    2  502  501  0.41830598034E+01  0.22860628032E+02 -0.47792866833E+02  0.53143808892E+02  0.00000000000E+00 0.  1.
<scales pt_clust_5="13000.00000" pt_clust_6="13000.00000" pt_clust_7="13000.00000" pt_clust_8="13000.00000" pt_clust_9="23.24019"></scales>
<clustering>
<clus scale="   23.240">  2  9  1 -1</clus>
<clus scale="   90.265">  7  8 -1 -1</clus>
<clus scale="   92.856">  5  6 -1 -1</clus>
<clus scale="  107.614">  1  7  2 -1</clus>
<clus scale="   23.240">  2  5  1 -1</clus>
</clustering>
</event>
<event>
 9    1  0.1296032E-005  0.1028004E+03  0.7546771E-02  0.1280162E+00
         -2   -1    0    0    0  501 -0.00000000000E+00  0.00000000000E+00  0.36587082865E+02  0.36587082865E+02  0.00000000000E+00 0.  1.
          2   -1    0    0  502    0  0.00000000000E+00 -0.00000000000E+00 -0.37895690528E+03  0.37895690528E+03  0.00000000000E+00 0. -1.
         23    2    1    2    0    0  0.13356364741E+02 -0.33521254281E+01 -0.11920561149E+03  0.15599571812E+03  0.99674756265E+02 0.  0.
         23    2    1    2    0    0 -0.27331646330E+02  0.27325083206E+02 -0.12850346598E+03  0.16090412254E+03  0.88788044339E+02 0.  0.
        -11    1    4    4    0    0  0.17834983970E+02  0.35966755340E+02 -0.97504107214E+02  0.10544546015E+03  0.00000000000E+00 0. -1.
         11    1    4    4    0    0 -0.45166630300E+02 -0.86416721340E+01 -0.30999358768E+02  0.55458662388E+02  0.00000000000E+00 0.  1.
        -11    1    3    3    0    0 -0.25936780140E+02 -0.36929108597E+02 -0.34653380122E+02  0.56897560402E+02  0.00000000000E+00 0.  1.
         11    1    3    3    0    0  0.39293144881E+02  0.33576983169E+02 -0.84552231370E+02  0.99098157718E+02  0.00000000000E+00 0. -1.
         21    1    1    2  502  501  0.13975281589E+02 -0.23972957778E+02 -0.94660744940E+02  0.98644147483E+02  0.00000000000E+00 0. -1.
<scales pt_clust_5="13000.00000" pt_clust_6="13000.00000" pt_clust_7="13000.00000" pt_clust_8="13000.00000" pt_clust_9="27.74908"></scales>
<clustering>
<clus scale="   27.749">  2  9  1 -1</clus>
<clus scale="   88.788">  5  6 -1 -1</clus>
<clus scale="   92.283">  2  5  1 -1</clus>
<clus scale="   99.675">  7  8 -1 -1</clus>
<clus scale="   27.749">  2  5  1 -1</clus>
</clustering>
</event>
<event>
 9    1  0.1296032E-005  0.2278742E+03  0.7546771E-02  0.1128958E+00
         -2   -1    0    0    0  501 -0.00000000000E+00  0.00000000000E+00  0.47303840633E+02  0.47303840633E+02  0.00000000000E+00 0.  1.
          2   -1    0    0  502    0  0.00000000000E+00 -0.00000000000E+00 -0.12189860907E+04  0.12189860907E+04  0.00000000000E+00 0. -1.
         23    2    1    2    0    0  0.10013689386E+03  0.18680692693E+03 -0.55354115693E+03  0.59990778292E+03  0.92505730321E+02 0.  0.
         23    2    1    2    0    0 -0.73028774993E+02 -0.19232183359E+03 -0.55859267427E+03  0.60072182178E+03  0.80746775541E+02 0.  0.
        -11    1    4    4    0    0 -0.88968665988E+02 -0.17547350964E+03 -0.47931151628E+03  0.51811765628E+03  0.00000000000E+00 0.  1.
         11    1    4    4    0    0  0.15939890995E+02 -0.16848323943E+02 -0.79281157994E+02  0.82604165498E+02  0.00000000000E+00 0. -1.
        -13    1    3    3    0    0  0.12169683922E+02  0.48097385586E+02 -0.50767798045E+02  0.70984709799E+02  0.00000000000E+00 0.  1.
         13    1    3    3    0    0  0.87967209933E+02  0.13870954134E+03 -0.50277335888E+03  0.52892307312E+03  0.00000000000E+00 0. -1.
         21    1    1    2  502  501 -0.27108118863E+02  0.55149066588E+01 -0.59548418904E+02  0.65660326664E+02  0.00000000000E+00 0.  1.
<scales pt_clust_5="13000.00000" pt_clust_6="13000.00000" pt_clust_7="13000.00000" pt_clust_8="13000.00000" pt_clust_9="27.66341"></scales>
<clustering>
<clus scale="   27.663">  1  9  2 -1</clus>
<clus scale="   80.747">  5  6 -1 -1</clus>
<clus scale="   92.506">  7  8 -1 -1</clus>
<clus scale="  223.359">  2  5  1 -1</clus>
<clus scale="  223.359">  2  5  1 -1</clus>
</clustering>
</event>
<event>
 9    1  0.1296032E-005  0.2023020E+03  0.7546771E-02  0.1147882E+00
         -1   -1    0    0    0  501 -0.00000000000E+00  0.00000000000E+00  0.20671377969E+03  0.20671377969E+03  0.00000000000E+00 0.  1.
          1   -1    0    0  502    0  0.00000000000E+00 -0.00000000000E+00 -0.43244362299E+03  0.43244362299E+03  0.00000000000E+00 0. -1.
         23    2    1    2    0    0 -0.21128233934E+03 -0.70035979074E+02  0.13262698804E+02  0.24163381247E+03  0.93089928922E+02 0.  0.
         23    2    1    2    0    0  0.91669366285E+02  0.11369154132E+03 -0.71190887634E+02  0.18688060628E+03  0.92342727053E+02 0.  0.
        -11    1    4    4    0    0  0.17310752469E+02 -0.14107374374E+02 -0.21225516243E+02  0.30809133427E+02  0.00000000000E+00 0.  1.
         11    1    4    4    0    0  0.74358613816E+02  0.12779891569E+03 -0.49965371391E+02  0.15607147285E+03  0.00000000000E+00 0. -1.
        -13    1    3    3    0    0 -0.61684089657E+02 -0.54689694259E+02 -0.25580761786E+02  0.86314917300E+02  0.00000000000E+00 0. -1.
         13    1    3    3    0    0 -0.14959824968E+03 -0.15346284816E+02  0.38843460590E+02  0.15531889517E+03  0.00000000000E+00 0.  1.
         21    1    1    2  502  501  0.11961297305E+03 -0.43655562241E+02 -0.16780165448E+03  0.21064298394E+03  0.00000000000E+00 0. -1.
<scales pt_clust_5="13000.00000" pt_clust_6="13000.00000" pt_clust_7="13000.00000" pt_clust_8="13000.00000" pt_clust_9="127.33056"></scales>
<clustering>
<clus scale="   92.343">  5  6 -1 -1</clus>
<clus scale="   93.090">  7  8 -1 -1</clus>
<clus scale="  127.331">  2  9  1 -1</clus>
<clus scale="  201.959">  2  5  1 -1</clus>
<clus scale="  127.331">  2  5  1 -1</clus>
</clustering>
</event>
<event>
 9    1  0.1296032E-005  0.9886136E+02  0.7546771E-02  0.1283167E+00
         -1   -1    0    0    0  501 -0.00000000000E+00  0.00000000000E+00  0.31001928016E+03  0.31001928016E+03  0.00000000000E+00 0.  1.
          1   -1    0    0  502    0  0.00000000000E+00 -0.00000000000E+00 -0.10666386228E+03  0.10666386228E+03  0.00000000000E+00 0. -1.
         23    2    1    2    0    0  0.25438938504E+02  0.29133868887E+02  0.20176079704E+03  0.22489774800E+03  0.91518609708E+02 0.  0.
         23    2    1    2    0    0  0.23658901091E+02 -0.42970872342E+02  0.54760648806E+02  0.11810577008E+03  0.92433786016E+02 0.  0.
        -11    1    3    3    0    0  0.49945606337E+02  0.27155125413E+02  0.66804025947E+02  0.87719680296E+02  0.00000000000E+00 0.  1.
         11    1    3    3    0    0 -0.24506667832E+02  0.19787434744E+01  0.13495677109E+03  0.13717806770E+03  0.00000000000E+00 0. -1.
        -13    1    4    4    0    0  0.40726107334E+02 -0.59912693857E+02  0.59316207348E+02  0.93629905255E+02  0.00000000000E+00 0.  1.
         13    1    4    4    0    0 -0.17067206243E+02  0.16941821515E+02 -0.45555585427E+01  0.24475864823E+02  0.00000000000E+00 0. -1.
         21    1    1    2  502  501 -0.49097839596E+02  0.13837003454E+02 -0.53166027959E+02  0.73679624365E+02  0.00000000000E+00 0. -1.
<scales pt_clust_5="13000.00000" pt_clust_6="13000.00000" pt_clust_7="13000.00000" pt_clust_8="13000.00000" pt_clust_9="51.01040"></scales>
<clustering>
<clus scale="   51.010">  2  9  1 -1</clus>
<clus scale="   91.519">  5  6 -1 -1</clus>
<clus scale="   92.434">  7  8 -1 -1</clus>
<clus scale="   98.006">  1  5  2 -1</clus>
<clus scale="   51.010">  2  5  1 -1</clus>
</clustering>
</event>
<event>
 9    1  0.1296032E-005  0.1385362E+03  0.7546771E-02  0.1215441E+00
          2   -1    0    0  502    0  0.00000000000E+00  0.00000000000E+00  0.96815306477E+02  0.96815306477E+02  0.00000000000E+00 0. -1.
         -2   -1    0    0    0  501 -0.00000000000E+00 -0.00000000000E+00 -0.29718360286E+03  0.29718360286E+03  0.00000000000E+00 0.  1.
         23    2    1    2    0    0 -0.92566148512E+02  0.48492144905E+02 -0.15650654865E+03  0.20915116990E+03  0.91268461874E+02 0.  0.
         23    2    1    2    0    0  0.72510882323E+02 -0.77522917603E+02 -0.50062797340E+02  0.14902243440E+03  0.91835567547E+02 0.  0.
        -11    1    3    3    0    0 -0.55360840678E+02  0.42877914834E+02 -0.28281312872E+02  0.75519341356E+02  0.00000000000E+00 0. -1.
         11    1    3    3    0    0 -0.37205307834E+02  0.56142300706E+01 -0.12822523577E+03  0.13363182854E+03  0.00000000000E+00 0.  1.
        -11    1    4    4    0    0  0.22170346880E+02  0.18223200074E+02 -0.24820420396E+02  0.37942885636E+02  0.00000000000E+00 0.  1.
         11    1    4    4    0    0  0.50340535443E+02 -0.95746117677E+02 -0.25242376944E+02  0.11107954876E+03  0.00000000000E+00 0. -1.
         21    1    1    2  502  501  0.20055266188E+02  0.29030772699E+02  0.62010496019E+01  0.35825305045E+02  0.00000000000E+00 0. -1.
<scales pt_clust_5="13000.00000" pt_clust_6="13000.00000" pt_clust_7="13000.00000" pt_clust_8="13000.00000" pt_clust_9="35.28455"></scales>
<clustering>
<clus scale="   35.285">  1  9  2 -1</clus>
<clus scale="   91.268">  5  6 -1 -1</clus>
<clus scale="   91.836">  7  8 -1 -1</clus>
<clus scale="  138.161">  2  5  1 -1</clus>
<clus scale="   35.285">  1  5  2 -1</clus>
</clustering>
</event>
<event>
 9    1  0.1296032E-005  0.1006048E+03  0.7546771E-02  0.1279337E+00
          2   -1    0    0  502    0  0.00000000000E+00  0.00000000000E+00  0.22911067746E+03  0.22911067746E+03  0.00000000000E+00 0. -1.
         -2   -1    0    0    0  501 -0.00000000000E+00 -0.00000000000E+00 -0.17716918058E+03  0.17716918058E+03  0.00000000000E+00 0.  1.
         23    2    1    2    0    0  0.15640670325E+02 -0.31878981136E+02 -0.13274929095E+03  0.16586172302E+03  0.92880767163E+02 0.  0.
         23    2    1    2    0    0 -0.10047994286E+02  0.66482674593E+02  0.11301419842E+03  0.16062949487E+03  0.92242709023E+02 0.  0.
        -13    1    3    3    0    0  0.10101695185E+02 -0.58135192030E+02 -0.12452145949E+03  0.13779455240E+03  0.00000000000E+00 0. -1.
         13    1    3    3    0    0  0.55389751403E+01  0.26256210894E+02 -0.82278314649E+01  0.28067170622E+02  0.00000000000E+00 0.  1.
        -13    1    4    4    0    0 -0.19285615789E+02  0.87125811171E+02  0.75805089775E+02  0.11708652179E+03  0.00000000000E+00 0.  1.
         13    1    4    4    0    0  0.92376215025E+01 -0.20643136578E+02  0.37209108644E+02  0.43542973083E+02  0.00000000000E+00 0. -1.
         21    1    1    2  502  501 -0.55926760389E+01 -0.34603693456E+02  0.71676589421E+02  0.79788640151E+02  0.00000000000E+00 0. -1.
<scales pt_clust_5="13000.00000" pt_clust_6="13000.00000" pt_clust_7="13000.00000" pt_clust_8="13000.00000" pt_clust_9="35.05273"></scales>
<clustering>
<clus scale="   35.053">  1  9  2 -1</clus>
<clus scale="   92.243">  7  8 -1 -1</clus>
<clus scale="   92.881">  5  6 -1 -1</clus>
<clus scale="  100.016">  1  7  2 -1</clus>
<clus scale="   35.053">  1  5  2 -1</clus>
</clustering>
</event>
<event>
 9    1  0.1296032E-005  0.1387132E+03  0.7546771E-02  0.1215260E+00
         -2   -1    0    0    0  501 -0.00000000000E+00  0.00000000000E+00  0.17143590386E+03  0.17143590386E+03  0.00000000000E+00 0.  1.
          2   -1    0    0  502    0  0.00000000000E+00 -0.00000000000E+00 -0.13201189512E+03  0.13201189512E+03  0.00000000000E+00 0. -1.
         23    2    1    2    0    0 -0.94246959293E+02  0.13039708721E+02  0.28924280055E+02  0.13584197876E+03  0.92541373863E+02 0.  0.
         23    2    1    2    0    0  0.11089898382E+03 -0.24507687827E+02  0.15434820318E+02  0.14679333371E+03  0.91710619716E+02 0.  0.
        -11    1    4    4    0    0  0.11603187309E+03  0.32384549953E+01  0.34268934463E+01  0.11612763134E+03  0.00000000000E+00 0.  1.
         11    1    4    4    0    0 -0.51328892694E+01 -0.27746142822E+02  0.12007926872E+02  0.30665702364E+02  0.00000000000E+00 0. -1.
        -11    1    3    3    0    0 -0.50143038791E+02  0.41110718973E+02 -0.16140841879E+02  0.66820223961E+02  0.00000000000E+00 0. -1.
         11    1    3    3    0    0 -0.44103920502E+02 -0.28071010252E+02  0.45065121934E+02  0.69021754796E+02  0.00000000000E+00 0.  1.
         21    1    1    2  502  501 -0.16652024526E+02  0.11467979105E+02 -0.49350916315E+01  0.20812486516E+02  0.00000000000E+00 0. -1.
<scales pt_clust_5="13000.00000" pt_clust_6="13000.00000" pt_clust_7="13000.00000" pt_clust_8="13000.00000" pt_clust_9="20.21891"></scales>
<clustering>
<clus scale="   20.219">  2  9  1 -1</clus>
<clus scale="   91.711">  5  6 -1 -1</clus>
<clus scale="   92.541">  7  8 -1 -1</clus>
<clus scale="  138.160">  2  5  1 -1</clus>
<clus scale="   20.219">  2  5  1 -1</clus>
</clustering>
</event>
<event>
 9    1  0.1296032E-005  0.9453078E+02  0.7546771E-02  0.1296056E+00
          1   -1    0    0  502    0  0.00000000000E+00  0.00000000000E+00  0.69299745231E+02  0.69299745231E+02  0.00000000000E+00 0. -1.
         -1   -1    0    0    0  501 -0.00000000000E+00 -0.00000000000E+00 -0.17798528177E+03  0.17798528177E+03  0.00000000000E+00 0.  1.
         23    2    1    2    0    0 -0.83808334911E+00 -0.19233749526E+02 -0.62415238440E+02  0.10951397177E+03  0.87903404478E+02 0.  0.
         23    2    1    2    0    0 -0.45382451208E+00 -0.13503286915E+02 -0.43733321084E+02  0.10491045826E+03  0.94398390689E+02 0.  0.
        -11    1    4    4    0    0 -0.27149103131E+02 -0.24350021498E+02 -0.61180421347E+02  0.71225285566E+02  0.00000000000E+00 0.  1.
         11    1    4    4    0    0  0.26695278619E+02  0.10846734583E+02  0.17447100263E+02  0.33685172692E+02  0.00000000000E+00 0. -1.
        -13    1    3    3    0    0 -0.37372975821E+01 -0.54168350524E+02 -0.44177764549E+02  0.69998946222E+02  0.00000000000E+00 0.  1.
         13    1    3    3    0    0  0.28992142330E+01  0.34934600998E+02 -0.18237473892E+02  0.39515025548E+02  0.00000000000E+00 0. -1.
         21    1    1    2  502  501  0.12919078612E+01  0.32737036441E+02 -0.25369770120E+01  0.32860596970E+02  0.00000000000E+00 0. -1.
<scales pt_clust_5="13000.00000" pt_clust_6="13000.00000" pt_clust_7="13000.00000" pt_clust_8="13000.00000" pt_clust_9="32.76252"></scales>
<clustering>
<clus scale="   32.763">  1  9  2 -1</clus>
<clus scale="   87.903">  7  8 -1 -1</clus>
<clus scale="   88.046">  2  7  1 -1</clus>
<clus scale="   94.398">  5  6 -1 -1</clus>
<clus scale="   32.763">  1  5  2 -1</clus>
</clustering>
</event>
<event>
 9    1  0.1296032E-005  0.9668711E+02  0.7546771E-02  0.1288647E+00
          2   -1    0    0  502    0  0.00000000000E+00  0.00000000000E+00  0.19505162524E+03  0.19505162524E+03  0.00000000000E+00 0. -1.
         -2   -1    0    0    0  501 -0.00000000000E+00 -0.00000000000E+00 -0.89284915521E+02  0.89284915521E+02  0.00000000000E+00 0.  1.
         23    2    1    2    0    0  0.14605581696E+01 -0.14136867946E+02  0.33249321399E+01  0.90527874819E+02  0.89343475867E+02 0.  0.
         23    2    1    2    0    0 -0.12887644720E+02  0.55221015833E+02  0.33738919096E+02  0.11294725192E+03  0.91669597347E+02 0.  0.
        -11    1    3    3    0    0  0.91670421993E+01  0.36330634301E+02  0.10647778725E+02  0.38952854108E+02  0.00000000000E+00 0. -1.
         11    1    3    3    0    0 -0.77064840297E+01 -0.50467502248E+02 -0.73228465847E+01  0.51575020711E+02  0.00000000000E+00 0.  1.
        -13    1    4    4    0    0  0.30278096127E+02  0.18390738010E+02  0.42720517822E+02  0.55497972870E+02  0.00000000000E+00 0. -1.
         13    1    4    4    0    0 -0.43165740847E+02  0.36830277822E+02 -0.89815987260E+01  0.57449279047E+02  0.00000000000E+00 0.  1.
         21    1    1    2  502  501  0.11427086551E+02 -0.41084147886E+02  0.68702858486E+02  0.80861414029E+02  0.00000000000E+00 0. -1.
<scales pt_clust_5="13000.00000" pt_clust_6="13000.00000" pt_clust_7="13000.00000" pt_clust_8="13000.00000" pt_clust_9="42.64370"></scales>
<clustering>
<clus scale="   42.644">  1  9  2 -1</clus>
<clus scale="   89.343">  5  6 -1 -1</clus>
<clus scale="   91.670">  7  8 -1 -1</clus>
<clus scale="   94.485">  2  5  1 -1</clus>
<clus scale="   42.644">  1  5  2 -1</clus>
</clustering>
</event>
<event>
 9    1  0.1296032E-005  0.1304666E+03  0.7546771E-02  0.1226929E+00
         -2   -1    0    0    0  501 -0.00000000000E+00  0.00000000000E+00  0.74185854386E+02  0.74185854386E+02  0.00000000000E+00 0.  1.
          2   -1    0    0  502    0  0.00000000000E+00 -0.00000000000E+00 -0.55427002043E+03  0.55427002043E+03  0.00000000000E+00 0. -1.
         23    2    1    2    0    0  0.15660294043E+02 -0.90963338673E+02 -0.10362458329E+02  0.13080520779E+03  0.92103463840E+02 0.  0.
         23    2    1    2    0    0 -0.39331555753E+02  0.83283795651E+02 -0.31653541959E+03  0.34245613464E+03  0.92727398327E+02 0.  0.
        -11    1    4    4    0    0 -0.41405090245E+02  0.44819503554E+01 -0.18039841444E+03  0.18514334260E+03  0.00000000000E+00 0. -1.
         11    1    4    4    0    0  0.20735344922E+01  0.78801845295E+02 -0.13613700515E+03  0.15731279204E+03  0.00000000000E+00 0.  1.
        -13    1    3    3    0    0  0.28745581873E+01 -0.66291031148E+02  0.36941013467E+02  0.75943415589E+02  0.00000000000E+00 0.  1.
         13    1    3    3    0    0  0.12785735856E+02 -0.24672307526E+02 -0.47303471796E+02  0.54861792205E+02  0.00000000000E+00 0. -1.
         21    1    1    2  502  501  0.23671261710E+02  0.76795430225E+01 -0.15318628812E+03  0.15519453238E+03  0.00000000000E+00 0. -1.
<scales pt_clust_5="13000.00000" pt_clust_6="13000.00000" pt_clust_7="13000.00000" pt_clust_8="13000.00000" pt_clust_9="24.88582"></scales>
<clustering>
<clus scale="   24.886">  2  9  1 -1</clus>
<clus scale="   92.103">  7  8 -1 -1</clus>
<clus scale="   92.727">  5  6 -1 -1</clus>
<clus scale="  130.024">  1  7  2 -1</clus>
<clus scale="   24.886">  2  5  1 -1</clus>
</clustering>
</event>
<event>
 9    1  0.1296032E-005  0.9335312E+02  0.7546771E-02  0.1297308E+00
          2   -1    0    0  502    0  0.00000000000E+00  0.00000000000E+00  0.21001623399E+03  0.21001623399E+03  0.00000000000E+00 0. -1.
         -2   -1    0    0    0  501 -0.00000000000E+00 -0.00000000000E+00 -0.87112582794E+02  0.87112582794E+02  0.00000000000E+00 0.  1.
         23    2    1    2    0    0  0.15757652342E+02  0.16885924158E+02 -0.33127880907E+02  0.95978840877E+02  0.87069187206E+02 0.  0.
         23    2    1    2    0    0 -0.21191645108E+02  0.14602488984E+02  0.11125075011E+03  0.14613755117E+03  0.91198333071E+02 0.  0.
        -11    1    3    3    0    0 -0.16075819550E+02  0.38746331254E+02 -0.38563893937E+02  0.56981436235E+02  0.00000000000E+00 0.  1.
         11    1    3    3    0    0  0.31833471892E+02 -0.21860407096E+02  0.54360130303E+01  0.38997404641E+02  0.00000000000E+00 0. -1.
        -11    1    4    4    0    0  0.18669239336E+02 -0.19625589159E+02  0.81226455392E+02  0.85623836067E+02  0.00000000000E+00 0. -1.
         11    1    4    4    0    0 -0.39860884445E+02  0.34228078143E+02  0.30024294713E+02  0.60513715099E+02  0.00000000000E+00 0.  1.
         21    1    1    2  502  501  0.54339927660E+01 -0.31488413142E+02  0.44780782001E+02  0.55012424744E+02  0.00000000000E+00 0. -1.
<scales pt_clust_5="13000.00000" pt_clust_6="13000.00000" pt_clust_7="13000.00000" pt_clust_8="13000.00000" pt_clust_9="31.95385"></scales>
<clustering>
<clus scale="   31.954">  1  9  2 -1</clus>
<clus scale="   87.069">  5  6 -1 -1</clus>
<clus scale="   89.324">  2  5  1 -1</clus>
<clus scale="   91.198">  7  8 -1 -1</clus>
<clus scale="   31.954">  1  5  2 -1</clus>
</clustering>
</event>
<event>
 9    1  0.1296032E-005  0.1318484E+03  0.7546771E-02  0.1224933E+00
         -1   -1    0    0    0  501 -0.00000000000E+00  0.00000000000E+00  0.27107533688E+03  0.27107533688E+03  0.00000000000E+00 0.  1.
          1   -1    0    0  502    0  0.00000000000E+00 -0.00000000000E+00 -0.27509184467E+03  0.27509184467E+03  0.00000000000E+00 0. -1.
         23    2    1    2    0    0 -0.22423604888E+02  0.10090398441E+03  0.18301002434E+03  0.22923468032E+03  0.91495560150E+02 0.  0.
         23    2    1    2    0    0  0.77407968524E+02 -0.43824152873E+02 -0.16921685012E+02  0.12927044746E+03  0.92260257942E+02 0.  0.
        -11    1    4    4    0    0  0.30955750050E+02  0.28071505457E+02 -0.12247732291E+02  0.43546237794E+02  0.00000000000E+00 0.  1.
         11    1    4    4    0    0  0.46452218475E+02 -0.71895658330E+02 -0.46739527212E+01  0.85724209661E+02  0.00000000000E+00 0. -1.
        -13    1    3    3    0    0 -0.25716143926E+02 -0.10393670271E+01  0.85017991805E+01  0.27104998276E+02  0.00000000000E+00 0. -1.
         13    1    3    3    0    0  0.32925390375E+01  0.10194335144E+03  0.17450822516E+03  0.20212968204E+03  0.00000000000E+00 0.  1.
         21    1    1    2  502  501 -0.54984363636E+02 -0.57079831540E+02 -0.17010484712E+03  0.18766205377E+03  0.00000000000E+00 0. -1.
<scales pt_clust_5="13000.00000" pt_clust_6="13000.00000" pt_clust_7="13000.00000" pt_clust_8="13000.00000" pt_clust_9="79.25520"></scales>
<clustering>
<clus scale="   79.255">  2  9  1 -1</clus>
<clus scale="   91.496">  7  8 -1 -1</clus>
<clus scale="   92.260">  5  6 -1 -1</clus>
<clus scale="  131.314">  1  7  2 -1</clus>
<clus scale="   79.255">  2  5  1 -1</clus>
</clustering>
</event>
<event>
 9    1  0.1296032E-005  0.1448058E+03  0.7546771E-02  0.1207295E+00
          2   -1    0    0  502    0  0.00000000000E+00  0.00000000000E+00  0.20145226926E+03  0.20145226926E+03  0.00000000000E+00 0. -1.
         -2   -1    0    0    0  501 -0.00000000000E+00 -0.00000000000E+00 -0.23310778466E+03  0.23310778466E+03  0.00000000000E+00 0.  1.
         23    2    1    2    0    0 -0.10418530746E+03  0.45433710537E+02 -0.16785501741E+03  0.22304475448E+03  0.93031474716E+02 0.  0.
         23    2    1    2    0    0  0.80340064074E+02 -0.57784183636E+02  0.11062638802E+03  0.17443277016E+03  0.91624537127E+02 0.  0.
        -11    1    4    4    0    0  0.40795173467E+02  0.12657520906E+02  0.74639088008E+02  0.85996816641E+02  0.00000000000E+00 0. -1.
         11    1    4    4    0    0  0.39544890607E+02 -0.70441704542E+02  0.35987300013E+02  0.88435953515E+02  0.00000000000E+00 0.  1.
        -13    1    3    3    0    0 -0.21821208277E+02 -0.11815176920E+02  0.29250659848E+01  0.24986387241E+02  0.00000000000E+00 0. -1.
         13    1    3    3    0    0 -0.82364099186E+02  0.57248887457E+02 -0.17078008340E+03  0.19805836724E+03  0.00000000000E+00 0.  1.
         21    1    1    2  502  501  0.23845243390E+02  0.12350473098E+02  0.25573114000E+02  0.37082529279E+02  0.00000000000E+00 0. -1.
<scales pt_clust_5="13000.00000" pt_clust_6="13000.00000" pt_clust_7="13000.00000" pt_clust_8="13000.00000" pt_clust_9="26.85386"></scales>
<clustering>
<clus scale="   26.854">  1  9  2 -1</clus>
<clus scale="   91.625">  5  6 -1 -1</clus>
<clus scale="   93.031">  7  8 -1 -1</clus>
<clus scale="  143.906">  1  5  2 -1</clus>
<clus scale="   26.854">  1  5  2 -1</clus>
</clustering>
</event>
<event>
 9    1  0.1296032E-005  0.1242231E+03  0.7546771E-02  0.1236350E+00
          3   -1    0    0  502    0  0.00000000000E+00  0.00000000000E+00  0.31153412961E+03  0.31153412961E+03  0.00000000000E+00 0. -1.
         -3   -1    0    0    0  501 -0.00000000000E+00 -0.00000000000E+00 -0.10000684489E+03  0.10000684489E+03  0.00000000000E+00 0.  1.
         23    2    1    2    0    0  0.92483295271E+02  0.71124845099E+01 -0.20213502799E+02  0.13140126616E+03  0.90851305509E+02 0.  0.
         23    2    1    2    0    0 -0.59832355317E+02  0.24110806141E+02  0.15327710951E+03  0.18959951548E+03  0.91065153892E+02 0.  0.
        -13    1    4    4    0    0 -0.13129613670E+02  0.17949236370E+02 -0.63815998146E+01  0.23136262827E+02  0.00000000000E+00 0.  1.
         13    1    4    4    0    0 -0.46702741647E+02  0.61615697710E+01  0.15965870933E+03  0.16646325265E+03  0.00000000000E+00 0. -1.
        -13    1    3    3    0    0 -0.92426717991E+01  0.19893205553E+02 -0.18762703103E+02  0.28865301608E+02  0.00000000000E+00 0. -1.
         13    1    3    3    0    0  0.10172596707E+03 -0.12780721043E+02 -0.14507996954E+01  0.10253596455E+03  0.00000000000E+00 0.  1.
         21    1    1    2  502  501 -0.32650939954E+02 -0.31223290651E+02  0.78463678000E+02  0.90540192866E+02  0.00000000000E+00 0. -1.
<scales pt_clust_5="13000.00000" pt_clust_6="13000.00000" pt_clust_7="13000.00000" pt_clust_8="13000.00000" pt_clust_9="45.17718"></scales>
<clustering>
<clus scale="   45.177">  1  9  2 -1</clus>
<clus scale="   90.851">  7  8 -1 -1</clus>
<clus scale="   91.065">  5  6 -1 -1</clus>
<clus scale="  124.066">  2  7  1 -1</clus>
<clus scale="   45.177">  1  5  2 -1</clus>
</clustering>
</event>
<event>
 9    1  0.1296032E-005  0.9671637E+02  0.7546771E-02  0.1288806E+00
         -1   -1    0    0    0  501 -0.00000000000E+00  0.00000000000E+00  0.39425141888E+02  0.39425141888E+02  0.00000000000E+00 0.  1.
          1   -1    0    0  502    0  0.00000000000E+00 -0.00000000000E+00 -0.37105821884E+03  0.37105821884E+03  0.00000000000E+00 0. -1.
         23    2    1    2    0    0 -0.71063548579E+01 -0.91299812817E+01 -0.83874483841E+02  0.12203164973E+03  0.87880246119E+02 0.  0.
         23    2    1    2    0    0  0.49842453558E+02  0.97328375922E+01 -0.19053125698E+03  0.21702548634E+03  0.90658168593E+02 0.  0.
        -11    1    4    4    0    0  0.41947689609E+02 -0.27217512735E+02 -0.47074068425E+02  0.68675829672E+02  0.00000000000E+00 0.  1.
         11    1    4    4    0    0  0.78947639492E+01  0.36950350327E+02 -0.14345718855E+03  0.14834965667E+03  0.00000000000E+00 0. -1.
        -13    1    3    3    0    0  0.12477819229E+00  0.30077087175E+02 -0.75531437736E+02  0.81299722195E+02  0.00000000000E+00 0.  1.
         13    1    3    3    0    0 -0.72311330502E+01 -0.39207068457E+02 -0.83430461057E+01  0.40731927532E+02  0.00000000000E+00 0. -1.
         21    1    1    2  502  501 -0.42736098700E+02 -0.60285631056E+00 -0.57227336129E+02  0.71426224653E+02  0.00000000000E+00 0.  1.
<scales pt_clust_5="13000.00000" pt_clust_6="13000.00000" pt_clust_7="13000.00000" pt_clust_8="13000.00000" pt_clust_9="42.74035"></scales>
<clustering>
<clus scale="   42.740">  1  9  2 -1</clus>
<clus scale="   87.880">  7  8 -1 -1</clus>
<clus scale="   90.658">  5  6 -1 -1</clus>
<clus scale="   94.117">  1  7  2 -1</clus>
<clus scale="   96.716">  2  5  1 -1</clus>
</clustering>
</event>
<event>
 9    1  0.1296032E-005  0.1112001E+03  0.7546771E-02  0.1261227E+00
          3   -1    0    0  502    0  0.00000000000E+00  0.00000000000E+00  0.60015934258E+02  0.60015934258E+02  0.00000000000E+00 0. -1.
         -3   -1    0    0    0  501 -0.00000000000E+00 -0.00000000000E+00 -0.36856472435E+03  0.36856472435E+03  0.00000000000E+00 0.  1.
         23    2    1    2    0    0 -0.23816033917E+01 -0.63043793843E+02 -0.26511195263E+03  0.28540015807E+03  0.84786265530E+02 0.  0.
         23    2    1    2    0    0 -0.21969691161E+02  0.58102814042E+02 -0.31227730606E+02  0.11549546635E+03  0.92224873327E+02 0.  0.
        -11    1    4    4    0    0  0.17056249876E+02  0.57032590877E+02 -0.44432224329E+02  0.74282263299E+02  0.00000000000E+00 0.  1.
         11    1    4    4    0    0 -0.39025941038E+02  0.10702231644E+01  0.13204493723E+02  0.41213203054E+02  0.00000000000E+00 0. -1.
        -13    1    3    3    0    0 -0.20633861676E+02  0.13522904618E+02 -0.40799962470E+02  0.47678738810E+02  0.00000000000E+00 0.  1.
         13    1    3    3    0    0  0.18252258284E+02 -0.76566698461E+02 -0.22431199015E+03  0.23772141926E+03  0.00000000000E+00 0. -1.
         21    1    1    2  502  501  0.24351294553E+02  0.49409798014E+01 -0.12209106866E+02  0.27685034193E+02  0.00000000000E+00 0.  1.
<scales pt_clust_5="13000.00000" pt_clust_6="13000.00000" pt_clust_7="13000.00000" pt_clust_8="13000.00000" pt_clust_9="24.84751"></scales>
<clustering>
<clus scale="   24.848">  1  9  2 -1</clus>
<clus scale="   84.786">  7  8 -1 -1</clus>
<clus scale="   92.225">  5  6 -1 -1</clus>
<clus scale="  105.113">  2  7  1 -1</clus>
<clus scale="   24.848">  1  5  2 -1</clus>
</clustering>
</event>
<event>
 9    1  0.1296032E-005  0.9530075E+02  0.7546771E-02  0.1290990E+00
         -1   -1    0    0    0  501 -0.00000000000E+00  0.00000000000E+00  0.62147861474E+02  0.62147861474E+02  0.00000000000E+00 0.  1.
          1   -1    0    0  502    0  0.00000000000E+00 -0.00000000000E+00 -0.35862602356E+03  0.35862602356E+03  0.00000000000E+00 0. -1.
         23    2    1    2    0    0 -0.33070455940E+02 -0.29061335800E+00 -0.22304453728E+02  0.99932099709E+02  0.91625304277E+02 0.  0.
         23    2    1    2    0    0  0.12063379079E+01 -0.40781289313E+02 -0.10847024103E+03  0.14717583503E+03  0.90721355914E+02 0.  0.
        -13    1    3    3    0    0 -0.54536003029E+02  0.76725798730E+01  0.14170551372E+02  0.56866937973E+02  0.00000000000E+00 0.  1.
         13    1    3    3    0    0  0.21465547089E+02 -0.79631932310E+01 -0.36475005100E+02  0.43065161736E+02  0.00000000000E+00 0. -1.
        -13    1    4    4    0    0  0.42136380602E+02 -0.40452351423E+02 -0.60040295068E+02  0.83765770680E+02  0.00000000000E+00 0. -1.
         13    1    4    4    0    0 -0.40930042694E+02 -0.32893788959E+00 -0.48429945964E+02  0.63410064352E+02  0.00000000000E+00 0.  1.
         21    1    1    2  502  501  0.31864118032E+02  0.41071902671E+02 -0.16570346732E+03  0.17366595029E+03  0.00000000000E+00 0. -1.
<scales pt_clust_5="13000.00000" pt_clust_6="13000.00000" pt_clust_7="13000.00000" pt_clust_8="13000.00000" pt_clust_9="51.98291"></scales>
<clustering>
<clus scale="   51.983">  2  9  1 -1</clus>
<clus scale="   90.721">  7  8 -1 -1</clus>
<clus scale="   91.625">  5  6 -1 -1</clus>
<clus scale="   94.432">  2  7  1 -1</clus>
<clus scale="   51.983">  2  5  1 -1</clus>
</clustering>
</event>
<event>
 9    1  0.1296032E-005  0.9604431E+02  0.7546771E-02  0.1289892E+00
         -2   -1    0    0    0  501 -0.00000000000E+00  0.00000000000E+00  0.23581656707E+03  0.23581656707E+03  0.00000000000E+00 0.  1.
          2   -1    0    0  502    0  0.00000000000E+00 -0.00000000000E+00 -0.10667989075E+03  0.10667989075E+03  0.00000000000E+00 0. -1.
         23    2    1    2    0    0  0.14185167618E+02  0.16378403096E+02  0.11188624640E+03  0.14734534939E+03  0.93395121857E+02 0.  0.
         23    2    1    2    0    0  0.28539165957E+02 -0.30578646738E+02  0.72423373000E+02  0.12393966801E+03  0.91467801546E+02 0.  0.
        -11    1    4    4    0    0  0.14910815575E+02  0.21068612146E+02 -0.83271261323E+01  0.27121206988E+02  0.00000000000E+00 0. -1.
         11    1    4    4    0    0  0.13628350382E+02 -0.51647258884E+02  0.80750499132E+02  0.96818461021E+02  0.00000000000E+00 0.  1.
        -13    1    3    3    0    0  0.30525273932E+02 -0.19774417543E+01 -0.21752188728E+01  0.30666499664E+02  0.00000000000E+00 0.  1.
         13    1    3    3    0    0 -0.16340106314E+02  0.18355844850E+02  0.11406146527E+03  0.11667884973E+03  0.00000000000E+00 0. -1.
         21    1    1    2  502  501 -0.42724333575E+02  0.14200243642E+02 -0.55172943079E+02  0.71211440422E+02  0.00000000000E+00 0. -1.
<scales pt_clust_5="13000.00000" pt_clust_6="13000.00000" pt_clust_7="13000.00000" pt_clust_8="13000.00000" pt_clust_9="45.02239"></scales>
<clustering>
<clus scale="   45.022">  2  9  1 -1</clus>
<clus scale="   91.468">  5  6 -1 -1</clus>
<clus scale="   93.395">  7  8 -1 -1</clus>
<clus scale="   94.171">  2  5  1 -1</clus>
<clus scale="   45.022">  2  5  1 -1</clus>
</clustering>
</event>
<event>
 9    1  0.1296032E-005  0.1102229E+03  0.7546771E-02  0.1261046E+00
         -1   -1    0    0    0  501 -0.00000000000E+00  0.00000000000E+00  0.22744931570E+03  0.22744931570E+03  0.00000000000E+00 0.  1.
          1   -1    0    0  502    0  0.00000000000E+00 -0.00000000000E+00 -0.10909867259E+03  0.10909867259E+03  0.00000000000E+00 0. -1.
         23    2    1    2    0    0 -0.23019406167E+02 -0.63373494602E+02  0.12663240970E+03  0.16996272917E+03  0.91134347211E+02 0.  0.
         23    2    1    2    0    0  0.30769989456E+02  0.34269634061E+02  0.38438339062E+02  0.11099861944E+03  0.93391581731E+02 0.  0.
        -11    1    3    3    0    0 -0.56466198193E+02 -0.25002106359E+02  0.78781781798E+02  0.10010047954E+03  0.00000000000E+00 0.  1.
         11    1    3    3    0    0  0.33446792026E+02 -0.38371388244E+02  0.47850627899E+02  0.69862249627E+02  0.00000000000E+00 0. -1.
        -11    1    4    4    0    0 -0.14572060681E+02 -0.19397891293E+02 -0.93805186764E+01  0.26011867864E+02  0.00000000000E+00 0. -1.
         11    1    4    4    0    0  0.45342050138E+02  0.53667525354E+02  0.47818857739E+02  0.84986751578E+02  0.00000000000E+00 0.  1.
         21    1    1    2  502  501 -0.77505832891E+01  0.29103860542E+02 -0.46720105648E+02  0.55586639685E+02  0.00000000000E+00 0. -1.
<scales pt_clust_5="13000.00000" pt_clust_6="13000.00000" pt_clust_7="13000.00000" pt_clust_8="13000.00000" pt_clust_9="30.11820"></scales>
<clustering>
<clus scale="   30.118">  2  9  1 -1</clus>
<clus scale="   91.134">  5  6 -1 -1</clus>
<clus scale="   93.392">  7  8 -1 -1</clus>
<clus scale="  108.317">  1  5  2 -1</clus>
<clus scale="   30.118">  2  5  1 -1</clus>
</clustering>
</event>
<event>
 9    1  0.1296032E-005  0.9244539E+02  0.7546771E-02  0.1298943E+00
         -1   -1    0    0    0  501 -0.00000000000E+00  0.00000000000E+00  0.47058003685E+02  0.47058003685E+02  0.00000000000E+00 0.  1.
          1   -1    0    0  502    0  0.00000000000E+00 -0.00000000000E+00 -0.48290294575E+03  0.48290294575E+03  0.00000000000E+00 0. -1.
         23    2    1    2    0    0  0.79425078811E+01  0.62325215678E+01 -0.29381443135E+02  0.95932720613E+02  0.90762822383E+02 0.  0.
         23    2    1    2    0    0 -0.56066606771E+02 -0.29422858113E+01 -0.27504385658E+03  0.29403581138E+03  0.87497507915E+02 0.  0.
        -11    1    3    3    0    0  0.10035624466E+02 -0.28003023667E+02  0.19972983363E+02  0.35830198957E+02  0.00000000000E+00 0.  1.
         11    1    3    3    0    0 -0.20931165845E+01  0.34235545234E+02 -0.49354426497E+02  0.60102521656E+02  0.00000000000E+00 0. -1.
        -13    1    4    4    0    0 -0.61092800825E+02  0.27813922761E+02 -0.22743387685E+03  0.23713311230E+03  0.00000000000E+00 0. -1.
         13    1    4    4    0    0  0.50261940535E+01 -0.30756208572E+02 -0.47609979734E+02  0.56902699081E+02  0.00000000000E+00 0.  1.
         21    1    1    2  502  501  0.48124098890E+02 -0.32902357564E+01 -0.13141964235E+03  0.13999241744E+03  0.00000000000E+00 0.  1.
<scales pt_clust_5="13000.00000" pt_clust_6="13000.00000" pt_clust_7="13000.00000" pt_clust_8="13000.00000" pt_clust_9="48.23644"></scales>
<clustering>
<clus scale="   48.236">  2  9  1 -1</clus>
<clus scale="   87.498">  7  8 -1 -1</clus>
<clus scale="   89.242">  2  7  1 -1</clus>
<clus scale="   90.763">  5  6 -1 -1</clus>
<clus scale="   48.236">  2  5  1 -1</clus>
</clustering>
</event>
<event>
 9    1  0.1296032E-005  0.9349883E+02  0.7546771E-02  0.1294786E+00
          1   -1    0    0  502    0  0.00000000000E+00  0.00000000000E+00  0.13295625270E+03  0.13295625270E+03  0.00000000000E+00 0. -1.
         -1   -1    0    0    0  501 -0.00000000000E+00 -0.00000000000E+00 -0.28033883650E+03  0.28033883650E+03  0.00000000000E+00 0.  1.
         23    2    1    2    0    0  0.61159395477E+01  0.15908901571E+02 -0.23607526395E+03  0.25369764669E+03  0.91326161744E+02 0.  0.
         23    2    1    2    0    0 -0.37475357592E+02 -0.19615309559E+02  0.70745773171E+02  0.12327607097E+03  0.91667128555E+02 0.  0.
        -11    1    4    4    0    0 -0.64014801779E+02 -0.25550691901E+02  0.32133110498E+02  0.76047810578E+02  0.00000000000E+00 0. -1.
         11    1    4    4    0    0  0.26539444187E+02  0.59353823422E+01  0.38612662673E+02  0.47228260396E+02  0.00000000000E+00 0.  1.
        -13    1    3    3    0    0  0.34092790732E+01  0.42664462955E+02 -0.21584016292E+03  0.22004284926E+03  0.00000000000E+00 0.  1.
         13    1    3    3    0    0  0.27066604745E+01 -0.26755561384E+02 -0.20235101036E+02  0.33654797427E+02  0.00000000000E+00 0. -1.
         21    1    1    2  502  501  0.31359418044E+02  0.37064079875E+01  0.17946906982E+02  0.36321371539E+02  0.00000000000E+00 0.  1.
<scales pt_clust_5="13000.00000" pt_clust_6="13000.00000" pt_clust_7="13000.00000" pt_clust_8="13000.00000" pt_clust_9="31.57769"></scales>
<clustering>
<clus scale="   31.578">  1  9  2 -1</clus>
<clus scale="   91.326">  7  8 -1 -1</clus>
<clus scale="   91.667">  5  6 -1 -1</clus>
<clus scale="   93.165">  2  7  1 -1</clus>
<clus scale="   31.578">  1  5  2 -1</clus>
</clustering>
</event>
<event>
 9    1  0.1296032E-005  0.9560360E+02  0.7546771E-02  0.1291626E+00
         -1   -1    0    0    0  501 -0.00000000000E+00  0.00000000000E+00  0.37523620788E+02  0.37523620788E+02  0.00000000000E+00 0.  1.
          1   -1    0    0  502    0  0.00000000000E+00 -0.00000000000E+00 -0.36621343888E+03  0.36621343888E+03  0.00000000000E+00 0. -1.
         23    2    1    2    0    0 -0.51222842049E+01 -0.12210740392E+02 -0.11184224865E+03  0.14610938365E+03  0.93080198919E+02 0.  0.
         23    2    1    2    0    0 -0.31237681096E+02  0.25985004253E+02 -0.13661014158E+03  0.16846590028E+03  0.89818793194E+02 0.  0.
        -11    1    4    4    0    0 -0.27814710743E+02 -0.20407579046E+02 -0.13827208785E+02  0.37166101746E+02  0.00000000000E+00 0.  1.
         11    1    4    4    0    0 -0.34229703527E+01  0.46392583299E+02 -0.12278293279E+03  0.13129979854E+03  0.00000000000E+00 0. -1.
        -11    1    3    3    0    0 -0.43712143853E+01  0.40365750104E+02 -0.58487134241E+02  0.71198638810E+02  0.00000000000E+00 0. -1.
         11    1    3    3    0    0 -0.75106981957E+00 -0.52576490496E+02 -0.53355114411E+02  0.74910744841E+02  0.00000000000E+00 0.  1.
         21    1    1    2  502  501  0.36359965301E+02 -0.13774263862E+02 -0.80237427860E+02  0.89161775730E+02  0.00000000000E+00 0. -1.
<scales pt_clust_5="13000.00000" pt_clust_6="13000.00000" pt_clust_7="13000.00000" pt_clust_8="13000.00000" pt_clust_9="38.88158"></scales>
<clustering>
<clus scale="   38.882">  2  9  1 -1</clus>
<clus scale="   89.819">  5  6 -1 -1</clus>
<clus scale="   92.431">  2  5  1 -1</clus>
<clus scale="   93.080">  7  8 -1 -1</clus>
<clus scale="   38.882">  2  5  1 -1</clus>
</clustering>
</event>
<event>
 9    1  0.1296032E-005  0.1313972E+03  0.7546771E-02  0.1225850E+00
          1   -1    0    0  502    0  0.00000000000E+00  0.00000000000E+00  0.58766982480E+03  0.58766982480E+03  0.00000000000E+00 0. -1.
         -1   -1    0    0    0  501 -0.00000000000E+00 -0.00000000000E+00 -0.35952865284E+02  0.35952865284E+02  0.00000000000E+00 0.  1.
         23    2    1    2    0    0 -0.10033711687E+03 -0.15971172839E+02  0.20421382729E+03  0.24532552429E+03  0.90325579047E+02 0.  0.
         23    2    1    2    0    0  0.84461003198E+02  0.29272399067E+02  0.30862036123E+03  0.33424216057E+03  0.92091042601E+02 0.  0.
        -11    1    4    4    0    0  0.16701316736E+02  0.13404201404E+02  0.40152835364E+01  0.21788278911E+02  0.00000000000E+00 0.  1.
         11    1    4    4    0    0  0.67759686462E+02  0.15868197663E+02  0.30460507769E+03  0.31245388165E+03  0.00000000000E+00 0. -1.
        -11    1    3    3    0    0 -0.11507662940E+03 -0.22881073344E+01  0.18217761156E+03  0.21549141102E+03  0.00000000000E+00 0.  1.
         11    1    3    3    0    0  0.14739512529E+02 -0.13683065504E+02  0.22036215727E+02  0.29834113273E+02  0.00000000000E+00 0. -1.
         21    1    1    2  502  501  0.15876113675E+02 -0.13301226229E+02  0.38882770999E+02  0.44055005222E+02  0.00000000000E+00 0.  1.
<scales pt_clust_5="13000.00000" pt_clust_6="13000.00000" pt_clust_7="13000.00000" pt_clust_8="13000.00000" pt_clust_9="20.71168"></scales>
<clustering>
<clus scale="   20.712">  2  9  1 -1</clus>
<clus scale="   90.326">  7  8 -1 -1</clus>
<clus scale="   92.091">  5  6 -1 -1</clus>
<clus scale="  130.166">  2  7  1 -1</clus>
<clus scale="  131.397">  1  5  2 -1</clus>
</clustering>
</event>
<event>
 9    1  0.1296032E-005  0.1046730E+03  0.7546771E-02  0.1272815E+00
         -2   -1    0    0    0  501 -0.00000000000E+00  0.00000000000E+00  0.17572199440E+03  0.17572199440E+03  0.00000000000E+00 0.  1.
          2   -1    0    0  502    0  0.00000000000E+00 -0.00000000000E+00 -0.29515784299E+03  0.29515784299E+03  0.00000000000E+00 0. -1.
         23    2    1    2    0    0  0.48288247014E+02  0.42607811843E+02  0.12061887767E+03  0.16207497889E+03  0.87018415893E+02 0.  0.
         23    2    1    2    0    0 -0.90016906634E+01  0.85771671855E+01 -0.44083329217E+02  0.10248441830E+03  0.91679429796E+02 0.  0.
        -13    1    4    4    0    0  0.24723974419E+02  0.38634802987E+02 -0.13093576050E+02  0.47700782454E+02  0.00000000000E+00 0.  1.
         13    1    4    4    0    0 -0.33725665082E+02 -0.30057635802E+02 -0.30989753167E+02  0.54783635847E+02  0.00000000000E+00 0. -1.
        -13    1    3    3    0    0  0.34289413673E+02  0.12850848899E+02 -0.44811894064E+00  0.36621155335E+02  0.00000000000E+00 0. -1.
         13    1    3    3    0    0  0.13998833341E+02  0.29756962944E+02  0.12106699661E+03  0.12545382356E+03  0.00000000000E+00 0.  1.
         21    1    1    2  502  501 -0.39286556351E+02 -0.51184979028E+02 -0.19597139704E+03  0.20632044020E+03  0.00000000000E+00 0. -1.
<scales pt_clust_5="13000.00000" pt_clust_6="13000.00000" pt_clust_7="13000.00000" pt_clust_8="13000.00000" pt_clust_9="64.52391"></scales>
<clustering>
<clus scale="   64.524">  2  9  1 -1</clus>
<clus scale="   87.018">  7  8 -1 -1</clus>
<clus scale="   91.679">  5  6 -1 -1</clus>
<clus scale="  100.616">  1  7  2 -1</clus>
<clus scale="   64.524">  2  5  1 -1</clus>
</clustering>
</event>
<event>
 9    1  0.1296032E-005  0.1329377E+03  0.7546771E-02  0.1243690E+00
          2   -1    0    0  502    0  0.00000000000E+00  0.00000000000E+00  0.36870570404E+03  0.36870570404E+03  0.00000000000E+00 0. -1.
         -2   -1    0    0    0  501 -0.00000000000E+00 -0.00000000000E+00 -0.73159756413E+02  0.73159756413E+02  0.00000000000E+00 0.  1.
         23    2    1    2    0    0 -0.98258005389E+02 -0.20587927988E+02  0.68447140995E+02  0.15378472280E+03  0.94266809937E+02 0.  0.
         23    2    1    2    0    0  0.12704797001E+02  0.29590511512E+01  0.13843531560E+03  0.16361651224E+03  0.86231424797E+02 0.  0.
        -11    1    3    3    0    0 -0.66703057118E+02  0.38178354138E+01  0.87078322021E+02  0.10975658460E+03  0.00000000000E+00 0. -1.
         11    1    3    3    0    0 -0.31554948271E+02 -0.24405763401E+02 -0.18631181027E+02  0.44028138208E+02  0.00000000000E+00 0.  1.
        -13    1    4    4    0    0  0.40142711708E+02 -0.21660444554E+02  0.49330529229E+02  0.67187151120E+02  0.00000000000E+00 0.  1.
         13    1    4    4    0    0 -0.27437914708E+02  0.24619495705E+02  0.89104786368E+02  0.96429361120E+02  0.00000000000E+00 0. -1.
         21    1    1    2  502  501  0.85553208388E+02  0.17628876836E+02  0.88663491032E+02  0.12446422541E+03  0.00000000000E+00 0.  1.
<scales pt_clust_5="13000.00000" pt_clust_6="13000.00000" pt_clust_7="13000.00000" pt_clust_8="13000.00000" pt_clust_9="93.73468"></scales>
<clustering>
<clus scale="   86.231">  7  8 -1 -1</clus>
<clus scale="   87.213">  1  7  2 -1</clus>
<clus scale="   93.735">  1  9  2 -1</clus>
<clus scale="   94.267">  5  6 -1 -1</clus>
<clus scale="   87.213">  1  5  2 -1</clus>
</clustering>
</event>
<event>
 9    1  0.1296032E-005  0.1033565E+03  0.7546771E-02  0.1280913E+00
         -1   -1    0    0    0  501 -0.00000000000E+00  0.00000000000E+00  0.27432606961E+03  0.27432606961E+03  0.00000000000E+00 0.  1.
          1   -1    0    0  502    0  0.00000000000E+00 -0.00000000000E+00 -0.63058728005E+02  0.63058728005E+02  0.00000000000E+00 0. -1.
         23    2    1    2    0    0  0.22054413941E+02 -0.48861827198E+02  0.19593601281E+03  0.22255822259E+03  0.90925057008E+02 0.  0.
         23    2    1    2    0    0 -0.28590086495E+02  0.24434846187E+02 -0.26799017945E+01  0.83781497412E+02  0.74817796552E+02 0.  0.
        -11    1    4    4    0    0 -0.23190343548E+02 -0.23639358204E+02 -0.10580005201E+02  0.34764174091E+02  0.00000000000E+00 0.  1.
         11    1    4    4    0    0 -0.53997429468E+01  0.48074204391E+02  0.79001034061E+01  0.49017323321E+02  0.00000000000E+00 0. -1.
        -11    1    3    3    0    0  0.26048683584E+02  0.20692560643E+02  0.88128648326E+02  0.94198591488E+02  0.00000000000E+00 0. -1.
         11    1    3    3    0    0 -0.39942696437E+01 -0.69554387841E+02  0.10780736449E+03  0.12835963110E+03  0.00000000000E+00 0.  1.
         21    1    1    2  502  501  0.65356725545E+01  0.24426981011E+02  0.18011230583E+02  0.31045077615E+02  0.00000000000E+00 0. -1.
<scales pt_clust_5="13000.00000" pt_clust_6="13000.00000" pt_clust_7="13000.00000" pt_clust_8="13000.00000" pt_clust_9="25.28621"></scales>
<clustering>
<clus scale="   25.286">  2  9  1 -1</clus>
<clus scale="   74.818">  5  6 -1 -1</clus>
<clus scale="   89.515">  2  5  1 -1</clus>
<clus scale="   90.925">  7  8 -1 -1</clus>
<clus scale="   25.286">  2  5  1 -1</clus>
</clustering>
</event>
<event>
 9    1  0.1296032E-005  0.1247811E+03  0.7546771E-02  0.1236594E+00
         -3   -1    0    0    0  501 -0.00000000000E+00  0.00000000000E+00  0.21164551642E+03  0.21164551642E+03  0.00000000000E+00 0.  1.
          3   -1    0    0  502    0  0.00000000000E+00 -0.00000000000E+00 -0.12287189707E+03  0.12287189707E+03  0.00000000000E+00 0. -1.
         23    2    1    2    0    0  0.95936902964E+02  0.22498612756E+02  0.10487956869E+03  0.17228023749E+03  0.94713670472E+02 0.  0.
         23    2    1    2    0    0 -0.67386934870E+02 -0.36312281719E+02 -0.36882246181E+02  0.12432184086E+03  0.90752626603E+02 0.  0.
        -11    1    4    4    0    0  0.11513869096E+02  0.19084265548E+02 -0.58316864052E+01  0.23038813758E+02  0.00000000000E+00 0.  1.
         11    1    4    4    0    0 -0.78900803966E+02 -0.55396547266E+02 -0.31050559776E+02  0.10128302710E+03  0.00000000000E+00 0. -1.
        -13    1    3    3    0    0  0.36374159662E+01 -0.24789783811E+02  0.47634119768E+02  0.53821682828E+02  0.00000000000E+00 0. -1.
         13    1    3    3    0    0  0.92299486998E+02  0.47288396567E+02  0.57245448918E+02  0.11845855466E+03  0.00000000000E+00 0.  1.
         21    1    1    2  502  501 -0.28549968094E+02  0.13813668963E+02  0.20776296849E+02  0.37915335145E+02  0.00000000000E+00 0.  1.
<scales pt_clust_5="13000.00000" pt_clust_6="13000.00000" pt_clust_7="13000.00000" pt_clust_8="13000.00000" pt_clust_9="31.71621"></scales>
<clustering>
<clus scale="   31.716">  1  9  2 -1</clus>
<clus scale="   90.753">  5  6 -1 -1</clus>
<clus scale="   94.714">  7  8 -1 -1</clus>
<clus scale="  121.802">  2  5  1 -1</clus>
<clus scale="  121.802">  2  5  1 -1</clus>
</clustering>
</event>
<event>
 9    1  0.1296032E-005  0.9987956E+02  0.7546771E-02  0.1280811E+00
         -1   -1    0    0    0  501 -0.00000000000E+00  0.00000000000E+00  0.22237297544E+02  0.22237297544E+02  0.00000000000E+00 0.  1.
          1   -1    0    0  502    0  0.00000000000E+00 -0.00000000000E+00 -0.82418775026E+03  0.82418775026E+03  0.00000000000E+00 0. -1.
         23    2    1    2    0    0  0.17157000131E+02  0.22318584891E+02 -0.16261753330E+03  0.18898993817E+03  0.92088287569E+02 0.  0.
         23    2    1    2    0    0 -0.27872901130E+02 -0.56734674456E+02 -0.39172152419E+03  0.40721380598E+03  0.91551129801E+02 0.  0.
        -11    1    3    3    0    0 -0.32756714464E+02  0.30148779961E+02 -0.91461470364E+02  0.10172095082E+03  0.00000000000E+00 0.  1.
         11    1    3    3    0    0  0.49913714595E+02 -0.78301950700E+01 -0.71156062940E+02  0.87268987347E+02  0.00000000000E+00 0. -1.
        -13    1    4    4    0    0 -0.60979148152E+02 -0.33668638001E+02 -0.21754451479E+03  0.22842427544E+03  0.00000000000E+00 0.  1.
         13    1    4    4    0    0  0.33106247022E+02 -0.23066036455E+02 -0.17417700940E+03  0.17878953054E+03  0.00000000000E+00 0. -1.
         21    1    1    2  502  501  0.10715900999E+02  0.34416089565E+02 -0.24761139522E+03  0.25022130365E+03  0.00000000000E+00 0. -1.
<scales pt_clust_5="13000.00000" pt_clust_6="13000.00000" pt_clust_7="13000.00000" pt_clust_8="13000.00000" pt_clust_9="36.04577"></scales>
<clustering>
<clus scale="   36.046">  2  9  1 -1</clus>
<clus scale="   91.551">  7  8 -1 -1</clus>
<clus scale="   92.088">  5  6 -1 -1</clus>
<clus scale="   99.385">  2  7  1 -1</clus>
<clus scale="   36.046">  2  5  1 -1</clus>
</clustering>
</event>
<event>
 9    1  0.1296032E-005  0.1354928E+03  0.7546771E-02  0.1219833E+00
         -1   -1    0    0    0  501 -0.00000000000E+00  0.00000000000E+00  0.20680879373E+03  0.20680879373E+03  0.00000000000E+00 0.  1.
          1   -1    0    0  502    0  0.00000000000E+00 -0.00000000000E+00 -0.10627649323E+03  0.10627649323E+03  0.00000000000E+00 0. -1.
         23    2    1    2    0    0  0.78030456838E+02 -0.47922526379E+02  0.51664860786E+02  0.13883826182E+03  0.90672401397E+02 0.  0.
         23    2    1    2    0    0 -0.97855312083E+02  0.52304306891E+02  0.55486639256E+02  0.15289196278E+03  0.89363205660E+02 0.  0.
        -11    1    4    4    0    0 -0.10838269369E+03  0.27214254915E+02  0.57378131155E+02  0.12561717198E+03  0.00000000000E+00 0.  1.
         11    1    4    4    0    0  0.10527381607E+02  0.25090051976E+02 -0.18914918986E+01  0.27274790801E+02  0.00000000000E+00 0. -1.
        -13    1    3    3    0    0  0.62908985790E+01  0.20547402283E+02  0.30704830506E+02  0.37477430034E+02  0.00000000000E+00 0.  1.
         13    1    3    3    0    0  0.71739558259E+02 -0.68469928663E+02  0.20960030280E+02  0.10136083178E+03  0.00000000000E+00 0. -1.
         21    1    1    2  502  501  0.19824855245E+02 -0.43817805116E+01 -0.66191995464E+01  0.21355062364E+02  0.00000000000E+00 0. -1.
<scales pt_clust_5="13000.00000" pt_clust_6="13000.00000" pt_clust_7="13000.00000" pt_clust_8="13000.00000" pt_clust_9="20.30332"></scales>
<clustering>
<clus scale="   20.303">  2  9  1 -1</clus>
<clus scale="   89.363">  5  6 -1 -1</clus>
<clus scale="   90.672">  7  8 -1 -1</clus>
<clus scale="  134.620">  2  5  1 -1</clus>
<clus scale="   20.303">  2  5  1 -1</clus>
</clustering>
</event>
<event>
 9    1  0.1296032E-005  0.1376729E+03  0.7546771E-02  0.1226033E+00
         -2   -1    0    0    0  501 -0.00000000000E+00  0.00000000000E+00  0.19531008600E+03  0.19531008600E+03  0.00000000000E+00 0.  1.
          2   -1    0    0  502    0  0.00000000000E+00 -0.00000000000E+00 -0.16045761003E+03  0.16045761003E+03  0.00000000000E+00 0. -1.
         23    2    1    2    0    0 -0.46839498565E+02 -0.52655300867E+02  0.92465050208E+02  0.16709419996E+03  0.12001736047E+03 0.  0.
         23    2    1    2    0    0  0.15322022611E+02  0.66503071223E+02  0.91256677291E+01  0.11357952177E+03  0.90330543538E+02 0.  0.
        -11    1    4    4    0    0  0.37448784706E+02 -0.54619259812E+01  0.10717800528E+01  0.37860174641E+02  0.00000000000E+00 0.  1.
         11    1    4    4    0    0 -0.22126762095E+02  0.71964997204E+02  0.80538876764E+01  0.75719347132E+02  0.00000000000E+00 0. -1.
        -13    1    3    3    0    0  0.38950120133E+02 -0.26521681912E+01  0.18075504590E+02  0.43021735445E+02  0.00000000000E+00 0.  1.
         13    1    3    3    0    0 -0.85789618698E+02 -0.50003132675E+02  0.74389545617E+02  0.12407246451E+03  0.00000000000E+00 0. -1.
         21    1    1    2  502  501  0.31517475954E+02 -0.13847770356E+02 -0.66738241967E+02  0.75093974293E+02  0.00000000000E+00 0. -1.
<scales pt_clust_5="13000.00000" pt_clust_6="13000.00000" pt_clust_7="13000.00000" pt_clust_8="13000.00000" pt_clust_9="34.42546"></scales>
<clustering>
<clus scale="   34.425">  2  9  1 -1</clus>
<clus scale="   90.331">  5  6 -1 -1</clus>
<clus scale="  112.735">  2  5  1 -1</clus>
<clus scale="  120.017">  7  8 -1 -1</clus>
<clus scale="   34.425">  2  5  1 -1</clus>
</clustering>
</event>
<event>
 9    1  0.1296032E-005  0.9725412E+02  0.7546771E-02  0.1286869E+00
          2   -1    0    0  502    0  0.00000000000E+00  0.00000000000E+00  0.26840961419E+03  0.26840961419E+03  0.00000000000E+00 0. -1.
         -2   -1    0    0    0  501 -0.00000000000E+00 -0.00000000000E+00 -0.64583077895E+02  0.64583077895E+02  0.00000000000E+00 0.  1.
         23    2    1    2    0    0 -0.22260757810E+02  0.23138972119E+02  0.11486754687E+02  0.99294793875E+02  0.93255333297E+02 0.  0.
         23    2    1    2    0    0 -0.89564545801E+01 -0.27207137950E+02  0.11377481620E+03  0.14906032905E+03  0.91944692412E+02 0.  0.
        -11    1    4    4    0    0 -0.18891632889E+02  0.24345078784E+02  0.93863694036E+01  0.32213049914E+02  0.00000000000E+00 0.  1.
         11    1    4    4    0    0  0.99351783089E+01 -0.51552216734E+02  0.10438844679E+03  0.11684727914E+03  0.00000000000E+00 0. -1.
        -11    1    3    3    0    0 -0.36895234734E+02 -0.20311770057E+02  0.27986202445E+02  0.50567320240E+02  0.00000000000E+00 0. -1.
         11    1    3    3    0    0  0.14634476923E+02  0.43450742176E+02 -0.16499447759E+02  0.48727473635E+02  0.00000000000E+00 0.  1.
         21    1    1    2  502  501  0.31217212390E+02  0.40681658313E+01  0.78564965411E+02  0.84637569156E+02  0.00000000000E+00 0. -1.
<scales pt_clust_5="13000.00000" pt_clust_6="13000.00000" pt_clust_7="13000.00000" pt_clust_8="13000.00000" pt_clust_9="31.48117"></scales>
<clustering>
<clus scale="   31.481">  1  9  2 -1</clus>
<clus scale="   91.945">  5  6 -1 -1</clus>
<clus scale="   93.255">  7  8 -1 -1</clus>
<clus scale="   95.998">  1  5  2 -1</clus>
<clus scale="   31.481">  1  5  2 -1</clus>
</clustering>
</event>
<event>
 9    1  0.1296032E-005  0.1222295E+03  0.7546771E-02  0.1244518E+00
         -3   -1    0    0    0  501 -0.00000000000E+00  0.00000000000E+00  0.10388595576E+03  0.10388595576E+03  0.00000000000E+00 0.  1.
          3   -1    0    0  502    0  0.00000000000E+00 -0.00000000000E+00 -0.38207558559E+03  0.38207558559E+03  0.00000000000E+00 0. -1.
         23    2    1    2    0    0 -0.16221573135E+02  0.14356580389E+02 -0.70002437282E+02  0.13570744431E+03  0.11422310791E+03 0.  0.
         23    2    1    2    0    0 -0.62044085152E+02 -0.24431477861E+02 -0.23698457270E+03  0.26625227605E+03  0.10140128791E+03 0.  0.
        -11    1    3    3    0    0  0.77593181024E+01 -0.40330488746E+02  0.32516045859E+01  0.41198644059E+02  0.00000000000E+00 0. -1.
         11    1    3    3    0    0 -0.23980891237E+02  0.54687069135E+02 -0.73254041868E+02  0.94508800252E+02  0.00000000000E+00 0.  1.
        -13    1    4    4    0    0 -0.67390461190E+01  0.24578134339E+02 -0.14985327631E+03  0.15200494679E+03  0.00000000000E+00 0.  1.
         13    1    4    4    0    0 -0.55305039033E+02 -0.49009612199E+02 -0.87131296396E+02  0.11424732926E+03  0.00000000000E+00 0. -1.
         21    1    1    2  502  501  0.78265658287E+02  0.10074897472E+02  0.28797380152E+02  0.84001820991E+02  0.00000000000E+00 0.  1.
<scales pt_clust_5="13000.00000" pt_clust_6="13000.00000" pt_clust_7="13000.00000" pt_clust_8="13000.00000" pt_clust_9="78.91145"></scales>
<clustering>
<clus scale="   78.911">  1  9  2 -1</clus>
<clus scale="  101.401">  7  8 -1 -1</clus>
<clus scale="  110.342">  2  7  1 -1</clus>
<clus scale="  114.223">  5  6 -1 -1</clus>
<clus scale="  110.342">  2  5  1 -1</clus>
</clustering>
</event>
<event>
 9    1  0.1296032E-005  0.1313143E+03  0.7546771E-02  0.1227877E+00
          1   -1    0    0  502    0  0.00000000000E+00  0.00000000000E+00  0.54410536431E+03  0.54410536431E+03  0.00000000000E+00 0. -1.
         -1   -1    0    0    0  501 -0.00000000000E+00 -0.00000000000E+00 -0.74461610336E+02  0.74461610336E+02  0.00000000000E+00 0.  1.
         23    2    1    2    0    0 -0.41219556947E+01  0.75060405931E+02  0.40355127046E+02  0.12337829867E+03  0.89121340020E+02 0.  0.
         23    2    1    2    0    0  0.25021719287E+02 -0.14156088121E+03  0.34051032962E+03  0.38231396931E+03  0.97729816463E+02 0.  0.
        -11    1    3    3    0    0 -0.31707116975E+02  0.78684543064E+02  0.43576206866E+02  0.95370248972E+02  0.00000000000E+00 0.  1.
         11    1    3    3    0    0  0.27585161280E+02 -0.36241371329E+01 -0.32210798197E+01  0.28008049700E+02  0.00000000000E+00 0. -1.
        -13    1    4    4    0    0  0.58523430851E+02 -0.11268327150E+03  0.27918035751E+03  0.30669884847E+03  0.00000000000E+00 0. -1.
         13    1    4    4    0    0 -0.33501711564E+02 -0.28877609714E+02  0.61329972115E+02  0.75615120844E+02  0.00000000000E+00 0.  1.
         21    1    1    2  502  501 -0.20899763592E+02  0.66500475284E+02  0.88778297303E+02  0.11287470666E+03  0.00000000000E+00 0.  1.
<scales pt_clust_5="13000.00000" pt_clust_6="13000.00000" pt_clust_7="13000.00000" pt_clust_8="13000.00000" pt_clust_9="69.70734"></scales>
<clustering>
<clus scale="   69.707">  1  9  2 -1</clus>
<clus scale="   89.121">  5  6 -1 -1</clus>
<clus scale="   97.730">  7  8 -1 -1</clus>
<clus scale="  125.040">  2  5  1 -1</clus>
<clus scale="   69.707">  1  5  2 -1</clus>
</clustering>
</event>
<event>
 9    1  0.1296032E-005  0.1789102E+03  0.7546771E-02  0.1168962E+00
          1   -1    0    0  502    0  0.00000000000E+00  0.00000000000E+00  0.31924281270E+03  0.31924281270E+03  0.00000000000E+00 0. -1.
         -1   -1    0    0    0  501 -0.00000000000E+00 -0.00000000000E+00 -0.29946914273E+03  0.29946914273E+03  0.00000000000E+00 0.  1.
         23    2    1    2    0    0 -0.65048519487E+02  0.14953559304E+03 -0.20739201563E+03  0.27806967776E+03  0.87858375080E+02 0.  0.
         23    2    1    2    0    0  0.45289549201E+02 -0.12480476517E+03  0.58732815092E+02  0.16926064908E+03  0.87018682378E+02 0.  0.
        -11    1    3    3    0    0 -0.15677266751E+02  0.77731453607E+02 -0.16072169272E+03  0.17921891107E+03  0.00000000000E+00 0. -1.
         11    1    3    3    0    0 -0.49371252736E+02  0.71804139432E+02 -0.46670322907E+02  0.98850766697E+02  0.00000000000E+00 0.  1.
        -11    1    4    4    0    0  0.40601071598E+02 -0.64596395974E+02 -0.10919095956E+02  0.77073783118E+02  0.00000000000E+00 0.  1.
         11    1    4    4    0    0  0.46884776035E+01 -0.60208369195E+02  0.69651911047E+02  0.92186865962E+02  0.00000000000E+00 0. -1.
         21    1    1    2  502  501  0.19758970286E+02 -0.24730827870E+02  0.16843287050E+03  0.17138162859E+03  0.00000000000E+00 0. -1.
<scales pt_clust_5="13000.00000" pt_clust_6="13000.00000" pt_clust_7="13000.00000" pt_clust_8="13000.00000" pt_clust_9="31.65487"></scales>
<clustering>
<clus scale="   31.655">  1  9  2 -1</clus>
<clus scale="   87.019">  7  8 -1 -1</clus>
<clus scale="   87.858">  5  6 -1 -1</clus>
<clus scale="  178.499">  1  7  2 -1</clus>
<clus scale="   31.655">  1  5  2 -1</clus>
</clustering>
</event>
<event>
 9    1  0.1296032E-005  0.9948268E+02  0.7546771E-02  0.1285779E+00
         -1   -1    0    0    0  501 -0.00000000000E+00  0.00000000000E+00  0.22673340503E+03  0.22673340503E+03  0.00000000000E+00 0.  1.
          1   -1    0    0  502    0  0.00000000000E+00 -0.00000000000E+00 -0.65036524158E+02  0.65036524158E+02  0.00000000000E+00 0. -1.
         23    2    1    2    0    0 -0.16018483584E+01 -0.28892347293E+02  0.10858122665E+03  0.14413296253E+03  0.90261256673E+02 0.  0.
         23    2    1    2    0    0 -0.26139197243E+01 -0.79235373664E+01  0.49588993046E+02  0.11041305764E+03  0.98297304364E+02 0.  0.
        -13    1    3    3    0    0 -0.38117182658E+02 -0.41194595085E+02  0.60643631309E+02  0.82629076580E+02  0.00000000000E+00 0. -1.
         13    1    3    3    0    0  0.36515334300E+02  0.12302247792E+02  0.47937595338E+02  0.61503885947E+02  0.00000000000E+00 0.  1.
        -13    1    4    4    0    0  0.23794539484E+02  0.10493178884E+01  0.71232696988E+02  0.75109109284E+02  0.00000000000E+00 0.  1.
         13    1    4    4    0    0 -0.26408459208E+02 -0.89728552548E+01 -0.21643703942E+02  0.35303948355E+02  0.00000000000E+00 0. -1.
         21    1    1    2  502  501  0.42157680827E+01  0.36815884659E+02  0.35266611769E+01  0.37223909021E+02  0.00000000000E+00 0. -1.
<scales pt_clust_5="13000.00000" pt_clust_6="13000.00000" pt_clust_7="13000.00000" pt_clust_8="13000.00000" pt_clust_9="37.05647"></scales>
<clustering>
<clus scale="   37.056">  2  9  1 -1</clus>
<clus scale="   90.261">  5  6 -1 -1</clus>
<clus scale="   91.551">  1  5  2 -1</clus>
<clus scale="   98.297">  7  8 -1 -1</clus>
<clus scale="   37.056">  2  5  1 -1</clus>
</clustering>
</event>
<event>
 9    1  0.1296032E-005  0.9352506E+02  0.7546771E-02  0.1294710E+00
          2   -1    0    0  502    0  0.00000000000E+00  0.00000000000E+00  0.45333423475E+03  0.45333423475E+03  0.00000000000E+00 0. -1.
         -2   -1    0    0    0  501 -0.00000000000E+00 -0.00000000000E+00 -0.34973106946E+02  0.34973106946E+02  0.00000000000E+00 0.  1.
         23    2    1    2    0    0 -0.34526364526E+01  0.24514039277E+02  0.10050358178E+03  0.13780766578E+03  0.90978700677E+02 0.  0.
         23    2    1    2    0    0 -0.26917110718E+02 -0.91127939749E+01  0.14078957769E+03  0.17018721015E+03  0.91292975907E+02 0.  0.
        -11    1    3    3    0    0  0.16685747851E+02  0.39341061266E+02  0.99663070796E+01  0.43880070188E+02  0.00000000000E+00 0.  1.
         11    1    3    3    0    0 -0.20138384303E+02 -0.14827021989E+02  0.90537274703E+02  0.93927595594E+02  0.00000000000E+00 0. -1.
        -13    1    4    4    0    0 -0.24335507053E+02 -0.46775262958E+02  0.10800246581E+03  0.12018600064E+03  0.00000000000E+00 0. -1.
         13    1    4    4    0    0 -0.25816036650E+01  0.37662468983E+02  0.32787111875E+02  0.50001209511E+02  0.00000000000E+00 0.  1.
         21    1    1    2  502  501  0.30369747171E+02 -0.15401245302E+02  0.17706796833E+03  0.18031246576E+03  0.00000000000E+00 0. -1.
<scales pt_clust_5="13000.00000" pt_clust_6="13000.00000" pt_clust_7="13000.00000" pt_clust_8="13000.00000" pt_clust_9="34.05172"></scales>
<clustering>
<clus scale="   34.052">  1  9  2 -1</clus>
<clus scale="   90.979">  5  6 -1 -1</clus>
<clus scale="   91.293">  7  8 -1 -1</clus>
<clus scale="   93.218">  2  5  1 -1</clus>
<clus scale="   34.052">  1  5  2 -1</clus>
</clustering>
</event>
<event>
 9    1  0.1296032E-005  0.1223882E+03  0.7546771E-02  0.1239601E+00
         -2   -1    0    0    0  501 -0.00000000000E+00  0.00000000000E+00  0.13270086083E+03  0.13270086083E+03  0.00000000000E+00 0.  1.
          2   -1    0    0  502    0  0.00000000000E+00 -0.00000000000E+00 -0.26303953125E+03  0.26303953125E+03  0.00000000000E+00 0. -1.
         23    2    1    2    0    0  0.64526606283E+02  0.50169573934E+02  0.65877520407E+02  0.14049303831E+03  0.93369036894E+02 0.  0.
         23    2    1    2    0    0 -0.27069274068E+02 -0.71429754579E+02 -0.15307060651E+03  0.19428352463E+03  0.92089749317E+02 0.  0.
        -11    1    3    3    0    0  0.38049672824E+02  0.76206513783E+02  0.56435629967E+02  0.10217725126E+03  0.00000000000E+00 0.  1.
         11    1    3    3    0    0  0.26476933459E+02 -0.26036939849E+02  0.94418904403E+01  0.38315787048E+02  0.00000000000E+00 0. -1.
        -13    1    4    4    0    0  0.28796192069E+02 -0.46083781071E+02 -0.47459458939E+02  0.72148013128E+02  0.00000000000E+00 0.  1.
         13    1    4    4    0    0 -0.55865466137E+02 -0.25345973508E+02 -0.10561114757E+03  0.12213551151E+03  0.00000000000E+00 0. -1.
         21    1    1    2  502  501 -0.37457332215E+02  0.21260180645E+02 -0.43145584315E+02  0.60963829142E+02  0.00000000000E+00 0. -1.
<scales pt_clust_5="13000.00000" pt_clust_6="13000.00000" pt_clust_7="13000.00000" pt_clust_8="13000.00000" pt_clust_9="43.07026"></scales>
<clustering>
<clus scale="   43.070">  2  9  1 -1</clus>
<clus scale="   92.090">  7  8 -1 -1</clus>
<clus scale="   93.369">  5  6 -1 -1</clus>
<clus scale="  121.415">  2  7  1 -1</clus>
<clus scale="   43.070">  2  5  1 -1</clus>
</clustering>
</event>
<event>
 9    1  0.1296032E-005  0.1370440E+03  0.7546771E-02  0.1218032E+00
          4   -1    0    0  502    0  0.00000000000E+00  0.00000000000E+00  0.60330865213E+02  0.60330865213E+02  0.00000000000E+00 0. -1.
         -4   -1    0    0    0  501 -0.00000000000E+00 -0.00000000000E+00 -0.45416954748E+03  0.45416954748E+03  0.00000000000E+00 0.  1.
         23    2    1    2    0    0 -0.45404514952E+02  0.80590942702E+02 -0.26327828306E+03  0.29494016481E+03  0.95487048671E+02 0.  0.
         23    2    1    2    0    0  0.70361959979E+02 -0.86147544307E+02 -0.12902494172E+03  0.19394565217E+03  0.92710709239E+02 0.  0.
        -11    1    3    3    0    0 -0.22363584833E+02  0.25273370377E+02 -0.10777943553E+02  0.35426504823E+02  0.00000000000E+00 0. -1.
         11    1    3    3    0    0 -0.23040930119E+02  0.55317572325E+02 -0.25250033951E+03  0.25951365999E+03  0.00000000000E+00 0.  1.
        -13    1    4    4    0    0  0.18241686042E+02 -0.90356829989E+02 -0.88550220350E+02  0.12782119292E+03  0.00000000000E+00 0. -1.
         13    1    4    4    0    0  0.52120273937E+02  0.42092856821E+01 -0.40474721368E+02  0.66124459249E+02  0.00000000000E+00 0.  1.
         21    1    1    2  502  501 -0.24957445027E+02  0.55566016047E+01 -0.15354574846E+01  0.25614595710E+02  0.00000000000E+00 0. -1.
<scales pt_clust_5="13000.00000" pt_clust_6="13000.00000" pt_clust_7="13000.00000" pt_clust_8="13000.00000" pt_clust_9="25.56853"></scales>
<clustering>
<clus scale="   25.569">  1  9  2 -1</clus>
<clus scale="   92.711">  7  8 -1 -1</clus>
<clus scale="   95.487">  5  6 -1 -1</clus>
<clus scale="  135.124">  1  7  2 -1</clus>
<clus scale="   25.569">  1  5  2 -1</clus>
</clustering>
</event>
<event>
 9    1  0.1296032E-005  0.1146446E+03  0.7546771E-02  0.1252334E+00
         -2   -1    0    0    0  501 -0.00000000000E+00  0.00000000000E+00  0.69063355545E+02  0.69063355545E+02  0.00000000000E+00 0.  1.
          2   -1    0    0  502    0  0.00000000000E+00 -0.00000000000E+00 -0.40277296355E+03  0.40277296355E+03  0.00000000000E+00 0. -1.
         23    2    1    2    0    0 -0.78834379891E+02  0.31068345904E+02 -0.56442748900E+02  0.13685027890E+03  0.91444591762E+02 0.  0.
         23    2    1    2    0    0  0.43141277432E+02 -0.32137875213E+02 -0.75179725922E+02  0.12976822699E+03  0.91070240503E+02 0.  0.
        -11    1    4    4    0    0 -0.19608028741E+02 -0.16267398611E+02  0.57709038854E+01  0.26122909109E+02  0.00000000000E+00 0.  1.
         11    1    4    4    0    0  0.62749306173E+02 -0.15870476602E+02 -0.80950629807E+02  0.10364531788E+03  0.00000000000E+00 0. -1.
        -11    1    3    3    0    0 -0.77459444637E+02  0.58549001698E+02 -0.45663625761E+02  0.10729919795E+03  0.00000000000E+00 0.  1.
         11    1    3    3    0    0 -0.13749352534E+01 -0.27480655794E+02 -0.10779123139E+02  0.29551080952E+02  0.00000000000E+00 0. -1.
         21    1    1    2  502  501  0.35693102459E+02  0.10695293090E+01 -0.20208713318E+03  0.20521781320E+03  0.00000000000E+00 0. -1.
<scales pt_clust_5="13000.00000" pt_clust_6="13000.00000" pt_clust_7="13000.00000" pt_clust_8="13000.00000" pt_clust_9="35.70912"></scales>
<clustering>
<clus scale="   35.709">  2  9  1 -1</clus>
<clus scale="   91.070">  5  6 -1 -1</clus>
<clus scale="   91.445">  7  8 -1 -1</clus>
<clus scale="  114.346">  2  5  1 -1</clus>
<clus scale="   35.709">  2  5  1 -1</clus>
</clustering>
</event>
<event>
 9    1  0.1296032E-005  0.4818201E+03  0.7546771E-02  0.1069825E+00
         -1   -1    0    0    0  501 -0.00000000000E+00  0.00000000000E+00  0.16448242961E+04  0.16448242961E+04  0.00000000000E+00 0.  1.
          1   -1    0    0  502    0  0.00000000000E+00 -0.00000000000E+00 -0.10450579135E+04  0.10450579135E+04  0.00000000000E+00 0. -1.
         23    2    1    2    0    0 -0.16227345746E+02 -0.58587990081E+02  0.47648228133E+02  0.11979071292E+03  0.91561902148E+02 0.  0.
         23    2    1    2    0    0  0.28515654261E+02  0.52953940536E+03  0.14552381199E+04  0.15514787586E+04  0.90239838464E+02 0.  0.
        -11    1    3    3    0    0  0.37193001958E+02 -0.29621536232E+02  0.31080031298E+02  0.56804252912E+02  0.00000000000E+00 0.  1.
         11    1    3    3    0    0 -0.53420347704E+02 -0.28966453849E+02  0.16568196835E+02  0.62986460003E+02  0.00000000000E+00 0. -1.
        -13    1    4    4    0    0 -0.42841544327E+01  0.43463347615E+03  0.11147114418E+04  0.11964556870E+04  0.00000000000E+00 0.  1.
         13    1    4    4    0    0  0.32799808694E+02  0.94905929207E+02  0.34052667815E+03  0.35502307162E+03  0.00000000000E+00 0. -1.
         21    1    1    2  502  501 -0.12288308515E+02 -0.47095141528E+03 -0.90311996551E+03  0.10186127381E+04  0.00000000000E+00 0. -1.
<scales pt_clust_5="13000.00000" pt_clust_6="13000.00000" pt_clust_7="13000.00000" pt_clust_8="13000.00000" pt_clust_9="473.29415"></scales>
<clustering>
<clus scale="   90.240">  7  8 -1 -1</clus>
<clus scale="   91.562">  5  6 -1 -1</clus>
<clus scale="  109.907">  1  5  2 -1</clus>
<clus scale="  473.294">  2  9  1 -1</clus>
<clus scale="  473.294">  2  5  1 -1</clus>
</clustering>
</event>
<event>
 9    1  0.1296032E-005  0.1686133E+03  0.7546771E-02  0.1179457E+00
          1   -1    0    0  502    0  0.00000000000E+00  0.00000000000E+00  0.37969242780E+03  0.37969242780E+03  0.00000000000E+00 0. -1.
         -1   -1    0    0    0  501 -0.00000000000E+00 -0.00000000000E+00 -0.12042167944E+03  0.12042167944E+03  0.00000000000E+00 0.  1.
         23    2    1    2    0    0 -0.10436465292E+03 -0.10449681094E+03  0.17432830861E+02  0.17439024282E+03  0.91085064212E+02 0.  0.
         23    2    1    2    0    0  0.11996906520E+03  0.62709907802E+02  0.13994355811E+03  0.21449390699E+03  0.89990708063E+02 0.  0.
        -13    1    4    4    0    0  0.12130057898E+03  0.40281610022E+02  0.14302709966E+03  0.19181550981E+03  0.00000000000E+00 0.  1.
         13    1    4    4    0    0 -0.13315137843E+01  0.22428297781E+02 -0.30835415423E+01  0.22678397182E+02  0.00000000000E+00 0. -1.
        -13    1    3    3    0    0 -0.60843070540E+02 -0.14635714240E+01  0.14201187059E+02  0.62495559745E+02  0.00000000000E+00 0.  1.
         13    1    3    3    0    0 -0.43521582382E+02 -0.10303323952E+03  0.32316438022E+01  0.11189468308E+03  0.00000000000E+00 0. -1.
         21    1    1    2  502  501 -0.15604412276E+02  0.41786903142E+02  0.10189435938E+03  0.11122995743E+03  0.00000000000E+00 0. -1.
<scales pt_clust_5="13000.00000" pt_clust_6="13000.00000" pt_clust_7="13000.00000" pt_clust_8="13000.00000" pt_clust_9="44.60541"></scales>
<clustering>
<clus scale="   44.605">  1  9  2 -1</clus>
<clus scale="   89.991">  5  6 -1 -1</clus>
<clus scale="   91.085">  7  8 -1 -1</clus>
<clus scale="  168.025">  1  5  2 -1</clus>
<clus scale="   44.605">  1  5  2 -1</clus>
</clustering>
</event>
<event>
 9    1  0.1296032E-005  0.9869765E+02  0.7546771E-02  0.1285778E+00
          1   -1    0    0  502    0  0.00000000000E+00  0.00000000000E+00  0.41572910507E+02  0.41572910507E+02  0.00000000000E+00 0. -1.
         -1   -1    0    0    0  501 -0.00000000000E+00 -0.00000000000E+00 -0.47637853387E+03  0.47637853387E+03  0.00000000000E+00 0.  1.
         23    2    1    2    0    0  0.92565116027E+01  0.13438844818E+02 -0.32934685563E+03  0.34207468915E+03  0.90991516585E+02 0.  0.
         23    2    1    2    0    0 -0.17492625828E+02 -0.44028447551E+02 -0.92916154076E+02  0.14180514637E+03  0.96077009194E+02 0.  0.
        -13    1    4    4    0    0  0.29343598900E+02  0.45083096117E+01 -0.59580742032E+02  0.66567533175E+02  0.00000000000E+00 0. -1.
         13    1    4    4    0    0 -0.46836224728E+02 -0.48536757163E+02 -0.33335412044E+02  0.75237613191E+02  0.00000000000E+00 0.  1.
        -13    1    3    3    0    0  0.39201113428E+02  0.36377962457E+02 -0.16483072273E+03  0.17328949940E+03  0.00000000000E+00 0. -1.
         13    1    3    3    0    0 -0.29944601825E+02 -0.22939117639E+02 -0.16451613290E+03  0.16878518976E+03  0.00000000000E+00 0.  1.
         21    1    1    2  502  501  0.82361142249E+01  0.30589602733E+02 -0.12542613664E+02  0.34071608862E+02  0.00000000000E+00 0.  1.
<scales pt_clust_5="13000.00000" pt_clust_6="13000.00000" pt_clust_7="13000.00000" pt_clust_8="13000.00000" pt_clust_9="31.67897"></scales>
<clustering>
<clus scale="   31.679">  1  9  2 -1</clus>
<clus scale="   90.992">  7  8 -1 -1</clus>
<clus scale="   93.754">  2  7  1 -1</clus>
<clus scale="   96.077">  5  6 -1 -1</clus>
<clus scale="   31.679">  1  5  2 -1</clus>
</clustering>
</event>
<event>
 9    1  0.1296032E-005  0.1013041E+03  0.7546771E-02  0.1277882E+00
          2   -1    0    0  502    0  0.00000000000E+00  0.00000000000E+00  0.52745844606E+03  0.52745844606E+03  0.00000000000E+00 0. -1.
         -2   -1    0    0    0  501 -0.00000000000E+00 -0.00000000000E+00 -0.14509430362E+03  0.14509430362E+03  0.00000000000E+00 0.  1.
         23    2    1    2    0    0  0.65110948594E+01 -0.43305442571E+02 -0.87171378377E+02  0.13257672476E+03  0.89777408229E+02 0.  0.
         23    2    1    2    0    0 -0.91125028354E+02  0.33536753312E+02  0.11575563680E+03  0.17608709769E+03  0.90436795091E+02 0.  0.
        -13    1    4    4    0    0  0.15104634287E+02  0.14593562203E+02  0.36829924382E+02  0.42397704710E+02  0.00000000000E+00 0. -1.
         13    1    4    4    0    0 -0.10622966264E+03  0.18943191109E+02  0.78925712421E+02  0.13368939298E+03  0.00000000000E+00 0.  1.
        -13    1    3    3    0    0  0.48197784367E+02 -0.25705269568E+02 -0.48809872708E+02  0.73254289808E+02  0.00000000000E+00 0.  1.
         13    1    3    3    0    0 -0.41686689508E+02 -0.17600173003E+02 -0.38361505669E+02  0.59322434955E+02  0.00000000000E+00 0. -1.
         21    1    1    2  502  501  0.84613933494E+02  0.97686892597E+01  0.35377988401E+03  0.36388892723E+03  0.00000000000E+00 0. -1.
<scales pt_clust_5="13000.00000" pt_clust_6="13000.00000" pt_clust_7="13000.00000" pt_clust_8="13000.00000" pt_clust_9="85.17597"></scales>
<clustering>
<clus scale="   85.176">  1  9  2 -1</clus>
<clus scale="   89.777">  7  8 -1 -1</clus>
<clus scale="   90.437">  5  6 -1 -1</clus>
<clus scale="  100.716">  2  7  1 -1</clus>
<clus scale="   85.176">  1  5  2 -1</clus>
</clustering>
</event>
<event>
 9    1  0.1296032E-005  0.1158555E+03  0.7546771E-02  0.1250268E+00
          2   -1    0    0  502    0  0.00000000000E+00  0.00000000000E+00  0.24823417645E+03  0.24823417645E+03  0.00000000000E+00 0. -1.
         -2   -1    0    0    0  501 -0.00000000000E+00 -0.00000000000E+00 -0.92957415582E+02  0.92957415582E+02  0.00000000000E+00 0.  1.
         23    2    1    2    0    0  0.99407222337E+01  0.78045311910E+02 -0.13189126004E+02  0.12060048980E+03  0.90446870737E+02 0.  0.
         23    2    1    2    0    0  0.15244897399E+02 -0.55446934099E+02  0.11663730734E+03  0.15869438364E+03  0.90955354640E+02 0.  0.
        -11    1    4    4    0    0 -0.35866706506E+02 -0.39265210849E+02  0.48332585911E+02  0.71862481724E+02  0.00000000000E+00 0.  1.
         11    1    4    4    0    0  0.51111603904E+02 -0.16181723250E+02  0.68304721429E+02  0.86831901917E+02  0.00000000000E+00 0. -1.
        -13    1    3    3    0    0 -0.21880506096E+02  0.36060325797E+02 -0.42863578324E+02  0.60136428147E+02  0.00000000000E+00 0.  1.
         13    1    3    3    0    0  0.31821228329E+02  0.41984986112E+02  0.29674452320E+02  0.60464061654E+02  0.00000000000E+00 0. -1.
         21    1    1    2  502  501 -0.25185619633E+02 -0.22598377810E+02  0.51828579532E+02  0.61896718590E+02  0.00000000000E+00 0. -1.
<scales pt_clust_5="13000.00000" pt_clust_6="13000.00000" pt_clust_7="13000.00000" pt_clust_8="13000.00000" pt_clust_9="33.83788"></scales>
<clustering>
<clus scale="   33.838">  1  9  2 -1</clus>
<clus scale="   90.447">  7  8 -1 -1</clus>
<clus scale="   90.955">  5  6 -1 -1</clus>
<clus scale="  115.457">  2  7  1 -1</clus>
<clus scale="   33.838">  1  5  2 -1</clus>
</clustering>
</event>
<event>
 9    1  0.1296032E-005  0.1323903E+03  0.7546771E-02  0.1234829E+00
          2   -1    0    0  502    0  0.00000000000E+00  0.00000000000E+00  0.30208019155E+03  0.30208019155E+03  0.00000000000E+00 0. -1.
         -2   -1    0    0    0  501 -0.00000000000E+00 -0.00000000000E+00 -0.60085787869E+02  0.60085787869E+02  0.00000000000E+00 0.  1.
         23    2    1    2    0    0 -0.31891619423E+02 -0.40762195556E+02  0.91130022201E+02  0.13782761945E+03  0.89516142463E+02 0.  0.
         23    2    1    2    0    0  0.57505534014E+02  0.29986586427E+02  0.11103077008E+03  0.17576982107E+03  0.11983787502E+03 0.  0.
        -11    1    3    3    0    0 -0.12493665305E+02 -0.62936282355E+02  0.31859245860E+02  0.71638529132E+02  0.00000000000E+00 0.  1.
         11    1    3    3    0    0 -0.19397954118E+02  0.22174086799E+02  0.59270776341E+02  0.66189090320E+02  0.00000000000E+00 0. -1.
        -11    1    4    4    0    0  0.29525796860E+02 -0.42549048267E+02  0.72235313936E+02  0.88882702299E+02  0.00000000000E+00 0.  1.
         11    1    4    4    0    0  0.27979737154E+02  0.72535634693E+02  0.38795456140E+02  0.86887118773E+02  0.00000000000E+00 0. -1.
         21    1    1    2  502  501 -0.25613914591E+02  0.10775609129E+02  0.39833611404E+02  0.48568538893E+02  0.00000000000E+00 0.  1.
<scales pt_clust_5="13000.00000" pt_clust_6="13000.00000" pt_clust_7="13000.00000" pt_clust_8="13000.00000" pt_clust_9="27.78824"></scales>
<clustering>
<clus scale="   27.788">  1  9  2 -1</clus>
<clus scale="   89.516">  5  6 -1 -1</clus>
<clus scale="  105.732">  2  5  1 -1</clus>
<clus scale="  119.838">  7  8 -1 -1</clus>
<clus scale="   27.788">  1  5  2 -1</clus>
</clustering>
</event>
<event>
 9    1  0.1296032E-005  0.1027556E+03  0.7546771E-02  0.1275283E+00
         -3   -1    0    0    0  501 -0.00000000000E+00  0.00000000000E+00  0.82166231707E+02  0.82166231707E+02  0.00000000000E+00 0.  1.
          3   -1    0    0  502    0  0.00000000000E+00 -0.00000000000E+00 -0.17339082922E+03  0.17339082922E+03  0.00000000000E+00 0. -1.
         23    2    1    2    0    0 -0.17526906015E+02  0.50906956075E+02 -0.10203709839E+02  0.10765022043E+03  0.92659287998E+02 0.  0.
         23    2    1    2    0    0 -0.16651658340E+01 -0.32187178818E+02 -0.59732353092E+02  0.11367283128E+03  0.91185367842E+02 0.  0.
        -11    1    4    4    0    0  0.43077199579E+02 -0.25913114737E+02 -0.40560566819E+02  0.64593298566E+02  0.00000000000E+00 0. -1.
         11    1    4    4    0    0 -0.44742365413E+02 -0.62740640806E+01 -0.19171786273E+02  0.49079532717E+02  0.00000000000E+00 0.  1.
        -13    1    3    3    0    0 -0.97095477729E+00  0.63746572307E+02 -0.36940135486E+02  0.73682710616E+02  0.00000000000E+00 0.  1.
         13    1    3    3    0    0 -0.16555951238E+02 -0.12839616232E+02  0.26736425647E+02  0.33967509811E+02  0.00000000000E+00 0. -1.
         21    1    1    2  502  501  0.19192071850E+02 -0.18719777257E+02 -0.21288534582E+02  0.34234009217E+02  0.00000000000E+00 0. -1.
<scales pt_clust_5="13000.00000" pt_clust_6="13000.00000" pt_clust_7="13000.00000" pt_clust_8="13000.00000" pt_clust_9="26.80981"></scales>
<clustering>
<clus scale="   26.810">  2  9  1 -1</clus>
<clus scale="   91.185">  5  6 -1 -1</clus>
<clus scale="   92.659">  7  8 -1 -1</clus>
<clus scale="  101.428">  2  5  1 -1</clus>
<clus scale="   26.810">  2  5  1 -1</clus>
</clustering>
</event>
<event>
 9    1  0.1296032E-005  0.1051687E+03  0.7546771E-02  0.1277386E+00
         -3   -1    0    0    0  501 -0.00000000000E+00  0.00000000000E+00  0.30329745631E+02  0.30329745631E+02  0.00000000000E+00 0.  1.
          3   -1    0    0  502    0  0.00000000000E+00 -0.00000000000E+00 -0.78482429196E+03  0.78482429196E+03  0.00000000000E+00 0. -1.
         23    2    1    2    0    0  0.69941262269E+02 -0.17798151728E+02 -0.17208565849E+03  0.20929562036E+03  0.94776729572E+02 0.  0.
         23    2    1    2    0    0 -0.15172642148E+02  0.21122288829E+02 -0.16250518255E+03  0.18238495484E+03  0.78612831284E+02 0.  0.
        -11    1    3    3    0    0  0.59695168070E+02  0.25433886125E+02 -0.58635326247E+02  0.87455686713E+02  0.00000000000E+00 0.  1.
         11    1    3    3    0    0  0.10246094200E+02 -0.43232037854E+02 -0.11345033225E+03  0.12183993364E+03  0.00000000000E+00 0. -1.
        -13    1    4    4    0    0  0.23332538149E+02  0.32097445976E+02 -0.56266008062E+02  0.68851412752E+02  0.00000000000E+00 0.  1.
         13    1    4    4    0    0 -0.38505180297E+02 -0.10975157147E+02 -0.10623917449E+03  0.11353354209E+03  0.00000000000E+00 0. -1.
         21    1    1    2  502  501 -0.54768620121E+02 -0.33241371010E+01 -0.41990370529E+03  0.42347346239E+03  0.00000000000E+00 0. -1.
<scales pt_clust_5="13000.00000" pt_clust_6="13000.00000" pt_clust_7="13000.00000" pt_clust_8="13000.00000" pt_clust_9="54.86941"></scales>
<clustering>
<clus scale="   54.869">  2  9  1 -1</clus>
<clus scale="   78.613">  7  8 -1 -1</clus>
<clus scale="   90.873">  2  7  1 -1</clus>
<clus scale="   94.777">  5  6 -1 -1</clus>
<clus scale="   54.869">  2  5  1 -1</clus>
</clustering>
</event>
<event>
 9    1  0.1296032E-005  0.9757260E+02  0.7546771E-02  0.1294506E+00
         -1   -1    0    0    0  501 -0.00000000000E+00  0.00000000000E+00  0.10834096872E+03  0.10834096872E+03  0.00000000000E+00 0.  1.
          1   -1    0    0  502    0  0.00000000000E+00 -0.00000000000E+00 -0.16160173655E+03  0.16160173655E+03  0.00000000000E+00 0. -1.
         23    2    1    2    0    0  0.17268059880E+02  0.94234029023E+01  0.17288150489E+02  0.94069973884E+02  0.90350945899E+02 0.  0.
         23    2    1    2    0    0 -0.65488539804E+02  0.64109767390E+01 -0.13846195547E+02  0.99773184516E+02  0.73709712718E+02 0.  0.
        -13    1    4    4    0    0 -0.47359030568E+02  0.24403642592E+02  0.20401499536E+02  0.57049423585E+02  0.00000000000E+00 0.  1.
         13    1    4    4    0    0 -0.18129509236E+02 -0.17992665853E+02 -0.34247695083E+02  0.42723760931E+02  0.00000000000E+00 0. -1.
        -13    1    3    3    0    0  0.18946762603E+00 -0.37516989705E+02  0.22662506244E+02  0.43830920636E+02  0.00000000000E+00 0. -1.
         13    1    3    3    0    0  0.17078592254E+02  0.46940392607E+02 -0.53743557550E+01  0.50239053248E+02  0.00000000000E+00 0.  1.
         21    1    1    2  502  501  0.48220479924E+02 -0.15834379641E+02 -0.56702722774E+02  0.76099546862E+02  0.00000000000E+00 0. -1.
<scales pt_clust_5="13000.00000" pt_clust_6="13000.00000" pt_clust_7="13000.00000" pt_clust_8="13000.00000" pt_clust_9="50.75374"></scales>
<clustering>
<clus scale="   50.754">  2  9  1 -1</clus>
<clus scale="   73.710">  5  6 -1 -1</clus>
<clus scale="   82.403">  2  5  1 -1</clus>
<clus scale="   90.351">  7  8 -1 -1</clus>
<clus scale="   50.754">  2  5  1 -1</clus>
</clustering>
</event>
<event>
 9    1  0.1296032E-005  0.1461665E+03  0.7546771E-02  0.1205356E+00
          1   -1    0    0  502    0  0.00000000000E+00  0.00000000000E+00  0.80118713833E+02  0.80118713833E+02  0.00000000000E+00 0. -1.
         -1   -1    0    0    0  501 -0.00000000000E+00 -0.00000000000E+00 -0.61734238938E+03  0.61734238938E+03  0.00000000000E+00 0.  1.
         23    2    1    2    0    0 -0.11167991082E+03 -0.53202277240E+02 -0.47267041335E+03  0.49721490003E+03  0.92208743499E+02 0.  0.
         23    2    1    2    0    0  0.79136717114E+02  0.34388089032E+02 -0.90045799704E+02  0.15482701557E+03  0.91749648739E+02 0.  0.
        -11    1    3    3    0    0 -0.17742672677E+02  0.10678716933E+02 -0.14776656793E+02  0.25439870578E+02  0.00000000000E+00 0.  1.
         11    1    3    3    0    0 -0.93937238141E+02 -0.63880994173E+02 -0.45789375655E+03  0.47177502945E+03  0.00000000000E+00 0. -1.
        -11    1    4    4    0    0  0.38828965868E+02 -0.28721480356E+02 -0.19949890429E+02  0.52255240429E+02  0.00000000000E+00 0. -1.
         11    1    4    4    0    0  0.40307751246E+02  0.63109569387E+02 -0.70095909275E+02  0.10257177514E+03  0.00000000000E+00 0.  1.
         21    1    1    2  502  501  0.32543193704E+02  0.18814188209E+02  0.25492537505E+02  0.45419187607E+02  0.00000000000E+00 0.  1.
<scales pt_clust_5="13000.00000" pt_clust_6="13000.00000" pt_clust_7="13000.00000" pt_clust_8="13000.00000" pt_clust_9="37.59033"></scales>
<clustering>
<clus scale="   37.590">  1  9  2 -1</clus>
<clus scale="   91.750">  7  8 -1 -1</clus>
<clus scale="   92.209">  5  6 -1 -1</clus>
<clus scale="  145.877">  1  7  2 -1</clus>
<clus scale="   37.590">  1  5  2 -1</clus>
</clustering>
</event>
<event>
 9    1  0.1296032E-005  0.9792234E+02  0.7546771E-02  0.1286682E+00
          1   -1    0    0  502    0  0.00000000000E+00  0.00000000000E+00  0.58901220016E+02  0.58901220016E+02  0.00000000000E+00 0. -1.
         -1   -1    0    0    0  501 -0.00000000000E+00 -0.00000000000E+00 -0.51194965994E+03  0.51194965994E+03  0.00000000000E+00 0.  1.
         23    2    1    2    0    0 -0.37768808338E+01  0.21835701309E+02 -0.41750394805E+03  0.42874531053E+03  0.94983851173E+02 0.  0.
         23    2    1    2    0    0 -0.14023931834E+02 -0.40188225576E+02 -0.31085900424E+01  0.10080457905E+03  0.91324343335E+02 0.  0.
        -13    1    3    3    0    0 -0.45007861533E+02  0.25468432317E+02 -0.29335632206E+03  0.29787964068E+03  0.00000000000E+00 0. -1.
         13    1    3    3    0    0  0.41230980699E+02 -0.36327310083E+01 -0.12414762600E+03  0.13086566985E+03  0.00000000000E+00 0.  1.
        -13    1    4    4    0    0 -0.62019102587E+01 -0.67971436567E+02  0.10215966065E+02  0.69014098868E+02  0.00000000000E+00 0. -1.
         13    1    4    4    0    0 -0.78220215755E+01  0.27783210991E+02 -0.13324556108E+02  0.31790480179E+02  0.00000000000E+00 0.  1.
         21    1    1    2  502  501  0.17800812668E+02  0.18352524267E+02 -0.32435901826E+02  0.41300990374E+02  0.00000000000E+00 0.  1.
<scales pt_clust_5="13000.00000" pt_clust_6="13000.00000" pt_clust_7="13000.00000" pt_clust_8="13000.00000" pt_clust_9="25.56725"></scales>
<clustering>
<clus scale="   25.567">  1  9  2 -1</clus>
<clus scale="   91.324">  7  8 -1 -1</clus>
<clus scale="   94.377">  1  7  2 -1</clus>
<clus scale="   94.984">  5  6 -1 -1</clus>
<clus scale="   25.567">  1  5  2 -1</clus>
</clustering>
</event>
<event>
 9    1  0.1296032E-005  0.1111876E+03  0.7546771E-02  0.1259277E+00
         -1   -1    0    0    0  501 -0.00000000000E+00  0.00000000000E+00  0.20718761693E+03  0.20718761693E+03  0.00000000000E+00 0.  1.
          1   -1    0    0  502    0  0.00000000000E+00 -0.00000000000E+00 -0.18005992084E+03  0.18005992084E+03  0.00000000000E+00 0. -1.
         23    2    1    2    0    0 -0.70813644675E+02  0.88915487361E+01  0.13935114540E+03  0.18130826024E+03  0.91434739547E+02 0.  0.
         23    2    1    2    0    0  0.31770417591E+02  0.45021951503E+02 -0.55802016807E+02  0.11867864990E+03  0.89075368708E+02 0.  0.
        -13    1    3    3    0    0  0.18634011176E+02  0.12950360735E+02  0.49530114135E+02  0.54480917961E+02  0.00000000000E+00 0.  1.
         13    1    3    3    0    0 -0.89447655851E+02 -0.40588119986E+01  0.89821031263E+02  0.12682734228E+03  0.00000000000E+00 0. -1.
        -13    1    4    4    0    0  0.48111811979E+02 -0.49168850503E+01 -0.42723878635E+02  0.64531015923E+02  0.00000000000E+00 0.  1.
         13    1    4    4    0    0 -0.16341394388E+02  0.49938836553E+02 -0.13078138172E+02  0.54147633973E+02  0.00000000000E+00 0. -1.
         21    1    1    2  502  501  0.39043227084E+02 -0.53913500239E+02 -0.56421432500E+02  0.87260627630E+02  0.00000000000E+00 0.  1.
<scales pt_clust_5="13000.00000" pt_clust_6="13000.00000" pt_clust_7="13000.00000" pt_clust_8="13000.00000" pt_clust_9="66.56605"></scales>
<clustering>
<clus scale="   66.566">  2  9  1 -1</clus>
<clus scale="   89.075">  7  8 -1 -1</clus>
<clus scale="   91.435">  5  6 -1 -1</clus>
<clus scale="  109.256">  2  7  1 -1</clus>
<clus scale="   66.566">  2  5  1 -1</clus>
</clustering>
</event>
<event>
 9    1  0.1296032E-005  0.9158594E+02  0.7546771E-02  0.1299094E+00
          1   -1    0    0  502    0  0.00000000000E+00  0.00000000000E+00  0.33469993489E+03  0.33469993489E+03  0.00000000000E+00 0. -1.
         -1   -1    0    0    0  501 -0.00000000000E+00 -0.00000000000E+00 -0.95910324996E+02  0.95910324996E+02  0.00000000000E+00 0.  1.
         23    2    1    2    0    0  0.97194320020E+01 -0.38052571494E+01 -0.40188357599E+02  0.10032488949E+03  0.91329250654E+02 0.  0.
         23    2    1    2    0    0  0.53965610645E+02  0.16778879423E+02  0.13679649516E+03  0.17395344593E+03  0.91393119737E+02 0.  0.
        -13    1    4    4    0    0 -0.18192629801E+02 -0.19479569152E+02  0.31795600031E+02  0.41489583931E+02  0.00000000000E+00 0. -1.
         13    1    4    4    0    0  0.72158240446E+02  0.36258448575E+02  0.10500089513E+03  0.13246386200E+03  0.00000000000E+00 0.  1.
        -13    1    3    3    0    0  0.43680616088E+02 -0.99495297211E+01  0.31656425121E+01  0.44911141781E+02  0.00000000000E+00 0.  1.
         13    1    3    3    0    0 -0.33961184086E+02  0.61442725717E+01 -0.43354000111E+02  0.55413747713E+02  0.00000000000E+00 0. -1.
         21    1    1    2  502  501 -0.63685042647E+02 -0.12973622274E+02  0.14218147233E+03  0.15633192446E+03  0.00000000000E+00 0. -1.
<scales pt_clust_5="13000.00000" pt_clust_6="13000.00000" pt_clust_7="13000.00000" pt_clust_8="13000.00000" pt_clust_9="64.99307"></scales>
<clustering>
<clus scale="   64.993">  1  9  2 -1</clus>
<clus scale="   91.329">  7  8 -1 -1</clus>
<clus scale="   91.393">  5  6 -1 -1</clus>
<clus scale="   91.522">  2  7  1 -1</clus>
<clus scale="   64.993">  1  5  2 -1</clus>
</clustering>
</event>
<event>
 9    1  0.1296032E-005  0.1069453E+03  0.7546771E-02  0.1269417E+00
         -2   -1    0    0    0  501 -0.00000000000E+00  0.00000000000E+00  0.54793147021E+03  0.54793147021E+03  0.00000000000E+00 0.  1.
          2   -1    0    0  502    0  0.00000000000E+00 -0.00000000000E+00 -0.61822650689E+02  0.61822650689E+02  0.00000000000E+00 0. -1.
         23    2    1    2    0    0 -0.51387443627E+02 -0.31346478459E+01  0.35206596339E+03  0.36881457540E+03  0.97073441652E+02 0.  0.
         23    2    1    2    0    0  0.34742971739E+02 -0.11042240144E+02  0.17173173327E+03  0.19736806334E+03  0.90185137696E+02 0.  0.
        -11    1    3    3    0    0 -0.59846022613E+02  0.35413986926E+02  0.24617558420E+03  0.25580874721E+03  0.00000000000E+00 0.  1.
         11    1    3    3    0    0  0.84585789868E+01 -0.38548634772E+02  0.10589037919E+03  0.11300582820E+03  0.00000000000E+00 0. -1.
        -13    1    4    4    0    0  0.86883172496E+01  0.36737240013E+02  0.10299621233E+03  0.10969654240E+03  0.00000000000E+00 0.  1.
         13    1    4    4    0    0  0.26054654490E+02 -0.47779480156E+02  0.68735520941E+02  0.87671520938E+02  0.00000000000E+00 0. -1.
         21    1    1    2  502  501  0.16644471887E+02  0.14176887990E+02 -0.37688877137E+02  0.43571482157E+02  0.00000000000E+00 0. -1.
<scales pt_clust_5="13000.00000" pt_clust_6="13000.00000" pt_clust_7="13000.00000" pt_clust_8="13000.00000" pt_clust_9="21.86373"></scales>
<clustering>
<clus scale="   21.864">  2  9  1 -1</clus>
<clus scale="   90.185">  7  8 -1 -1</clus>
<clus scale="   97.073">  5  6 -1 -1</clus>
<clus scale="  100.734">  2  7  1 -1</clus>
<clus scale="   21.864">  2  5  1 -1</clus>
</clustering>
</event>
<event>
 9    1  0.1296032E-005  0.1434707E+03  0.7546771E-02  0.1210058E+00
          3   -1    0    0  502    0  0.00000000000E+00  0.00000000000E+00  0.25916903315E+03  0.25916903315E+03  0.00000000000E+00 0. -1.
         -3   -1    0    0    0  501 -0.00000000000E+00 -0.00000000000E+00 -0.22217789589E+03  0.22217789589E+03  0.00000000000E+00 0.  1.
         23    2    1    2    0    0  0.90495520390E+02 -0.30426954064E+02 -0.99629050772E+02  0.16537845495E+03  0.91152876304E+02 0.  0.
         23    2    1    2    0    0 -0.16561905155E+03  0.16978567400E+02  0.36921882088E+02  0.19041308296E+03  0.84711125578E+02 0.  0.
        -13    1    4    4    0    0 -0.46759209583E+02 -0.18321133201E+02 -0.19903616486E+02  0.54020751122E+02  0.00000000000E+00 0.  1.
         13    1    4    4    0    0 -0.11885984197E+03  0.35299700601E+02  0.56825498574E+02  0.13639233183E+03  0.00000000000E+00 0. -1.
        -13    1    3    3    0    0  0.42582089396E+02  0.18086540878E+02 -0.20147372443E+01  0.46307844523E+02  0.00000000000E+00 0. -1.
         13    1    3    3    0    0  0.47913430995E+02 -0.48513494942E+02 -0.97614313528E+02  0.11907061042E+03  0.00000000000E+00 0.  1.
         21    1    1    2  502  501  0.75123531158E+02  0.13448386664E+02  0.99698305940E+02  0.12555539114E+03  0.00000000000E+00 0. -1.
<scales pt_clust_5="13000.00000" pt_clust_6="13000.00000" pt_clust_7="13000.00000" pt_clust_8="13000.00000" pt_clust_9="76.31778"></scales>
<clustering>
<clus scale="   76.318">  1  9  2 -1</clus>
<clus scale="   84.711">  5  6 -1 -1</clus>
<clus scale="   91.153">  7  8 -1 -1</clus>
<clus scale="  139.467">  1  5  2 -1</clus>
<clus scale="   76.318">  1  5  2 -1</clus>
</clustering>
</event>
<event>
 9    1  0.1296032E-005  0.9577064E+02  0.7546771E-02  0.1290439E+00
         -1   -1    0    0    0  501 -0.00000000000E+00  0.00000000000E+00  0.87150175842E+02  0.87150175842E+02  0.00000000000E+00 0.  1.
          1   -1    0    0  502    0  0.00000000000E+00 -0.00000000000E+00 -0.28521190089E+03  0.28521190089E+03  0.00000000000E+00 0. -1.
         23    2    1    2    0    0 -0.31933459064E+02  0.53439285165E+02 -0.30694424495E+02  0.11484269288E+03  0.91494226076E+02 0.  0.
         23    2    1    2    0    0 -0.42516724734E+02 -0.51709392718E+01 -0.12359921842E+03  0.15858350514E+03  0.89652388791E+02 0.  0.
        -11    1    3    3    0    0 -0.59929378353E+02  0.15118812672E+02 -0.26340266435E+02  0.67185701769E+02  0.00000000000E+00 0. -1.
         11    1    3    3    0    0  0.27995919289E+02  0.38320472493E+02 -0.43541580602E+01  0.47656991107E+02  0.00000000000E+00 0.  1.
        -13    1    4    4    0    0 -0.56802640781E+02 -0.33740074964E+02 -0.94963649444E+02  0.11568503522E+03  0.00000000000E+00 0. -1.
         13    1    4    4    0    0  0.14285916047E+02  0.28569135692E+02 -0.28635568971E+02  0.42898469924E+02  0.00000000000E+00 0.  1.
         21    1    1    2  502  501  0.74450183798E+02 -0.48268345893E+02 -0.43768082141E+02  0.98935878715E+02  0.00000000000E+00 0. -1.
<scales pt_clust_5="13000.00000" pt_clust_6="13000.00000" pt_clust_7="13000.00000" pt_clust_8="13000.00000" pt_clust_9="88.72803"></scales>
<clustering>
<clus scale="   88.728">  1  9  2 -1</clus>
<clus scale="   89.652">  7  8 -1 -1</clus>
<clus scale="   91.494">  5  6 -1 -1</clus>
<clus scale="   94.013">  2  7  1 -1</clus>
<clus scale="   94.013">  2  5  1 -1</clus>
</clustering>
</event>
<event>
 9    1  0.1296032E-005  0.4294063E+03  0.7546771E-02  0.1034070E+00
         -1   -1    0    0    0  501 -0.00000000000E+00  0.00000000000E+00  0.18062684722E+03  0.18062684722E+03  0.00000000000E+00 0.  1.
          1   -1    0    0  502    0  0.00000000000E+00 -0.00000000000E+00 -0.14362871202E+04  0.14362871202E+04  0.00000000000E+00 0. -1.
         23    2    1    2    0    0 -0.36161509147E+03 -0.24302348509E+03 -0.25084871184E+03  0.51072663862E+03  0.89948510139E+02 0.  0.
         23    2    1    2    0    0  0.29387382066E+03  0.24315583469E+03 -0.89505183562E+03  0.97720634325E+03  0.91257144506E+02 0.  0.
        -11    1    3    3    0    0 -0.34947169290E+03 -0.21895316790E+03 -0.25277064924E+03  0.48369820652E+03  0.00000000000E+00 0.  1.
         11    1    3    3    0    0 -0.12143398570E+02 -0.24070317186E+02  0.19219373983E+01  0.27028432097E+02  0.00000000000E+00 0. -1.
        -13    1    4    4    0    0  0.26301554852E+03  0.21564330998E+03 -0.70558111347E+03  0.78327767975E+03  0.00000000000E+00 0. -1.
         13    1    4    4    0    0  0.30858272140E+02  0.27512524705E+02 -0.18947072215E+03  0.19392866350E+03  0.00000000000E+00 0.  1.
         21    1    1    2  502  501  0.67741270814E+02 -0.13234959555E+00 -0.10975972555E+03  0.12898098558E+03  0.00000000000E+00 0.  1.
<scales pt_clust_5="13000.00000" pt_clust_6="13000.00000" pt_clust_7="13000.00000" pt_clust_8="13000.00000" pt_clust_9="67.74140"></scales>
<clustering>
<clus scale="   67.741">  2  9  1 -1</clus>
<clus scale="   89.949">  5  6 -1 -1</clus>
<clus scale="   91.257">  7  8 -1 -1</clus>
<clus scale="  429.130">  1  5  2 -1</clus>
<clus scale="   67.741">  2  5  1 -1</clus>
</clustering>
</event>
<event>
 9    1  0.1296032E-005  0.9252913E+02  0.7546771E-02  0.1297130E+00
          1   -1    0    0  502    0  0.00000000000E+00  0.00000000000E+00  0.23484828416E+03  0.23484828416E+03  0.00000000000E+00 0. -1.
         -1   -1    0    0    0  501 -0.00000000000E+00 -0.00000000000E+00 -0.10523015946E+03  0.10523015946E+03  0.00000000000E+00 0.  1.
         23    2    1    2    0    0  0.58792478560E+01  0.81524328914E+01 -0.47282914656E+02  0.10287878547E+03  0.90814881843E+02 0.  0.
         23    2    1    2    0    0 -0.52487588936E+02 -0.77068506592E+01  0.14979549888E+03  0.18328077160E+03  0.91317069682E+02 0.  0.
        -11    1    4    4    0    0  0.21697267412E+02  0.15563765320E+02  0.50936038868E+02  0.57510714303E+02  0.00000000000E+00 0. -1.
         11    1    4    4    0    0 -0.74184856347E+02 -0.23270615979E+02  0.98859460011E+02  0.12577005730E+03  0.00000000000E+00 0.  1.
        -13    1    3    3    0    0  0.18374107922E+02  0.45629439763E+02 -0.13789208897E+02  0.51086161502E+02  0.00000000000E+00 0.  1.
         13    1    3    3    0    0 -0.12494860066E+02 -0.37477006872E+02 -0.33493705759E+02  0.51792623969E+02  0.00000000000E+00 0. -1.
         21    1    1    2  502  501  0.46608341080E+02 -0.44558223221E+00  0.27105540474E+02  0.53918886544E+02  0.00000000000E+00 0.  1.
<scales pt_clust_5="13000.00000" pt_clust_6="13000.00000" pt_clust_7="13000.00000" pt_clust_8="13000.00000" pt_clust_9="46.61047"></scales>
<clustering>
<clus scale="   46.610">  1  9  2 -1</clus>
<clus scale="   90.815">  7  8 -1 -1</clus>
<clus scale="   91.317">  5  6 -1 -1</clus>
<clus scale="   92.034">  2  7  1 -1</clus>
<clus scale="   46.610">  1  5  2 -1</clus>
</clustering>
</event>
<event>
 9    1  0.1296032E-005  0.2353509E+03  0.7546771E-02  0.1146009E+00
          1   -1    0    0  502    0  0.00000000000E+00  0.00000000000E+00  0.19481245167E+04  0.19481245167E+04  0.00000000000E+00 0. -1.
         -1   -1    0    0    0  501 -0.00000000000E+00 -0.00000000000E+00 -0.18129734271E+03  0.18129734271E+03  0.00000000000E+00 0.  1.
         23    2    1    2    0    0  0.15147107613E+02  0.97731944262E+02  0.61345021098E+02  0.14748527647E+03  0.90596508568E+02 0.  0.
         23    2    1    2    0    0 -0.42657913132E+02 -0.31187475570E+03  0.70277995182E+02  0.33254074643E+03  0.80986360776E+02 0.  0.
        -13    1    3    3    0    0  0.41806615390E+02  0.61500093488E+02  0.38224354897E+01  0.74462511390E+02  0.00000000000E+00 0. -1.
         13    1    3    3    0    0 -0.26659507777E+02  0.36231850773E+02  0.57522585608E+02  0.73022765083E+02  0.00000000000E+00 0.  1.
        -13    1    4    4    0    0 -0.41575586300E+01 -0.20438515657E+03  0.76307738819E+02  0.21820506072E+03  0.00000000000E+00 0.  1.
         13    1    4    4    0    0 -0.38500354502E+02 -0.10748959913E+03 -0.60297436371E+01  0.11433568571E+03  0.00000000000E+00 0. -1.
         21    1    1    2  502  501  0.27510805519E+02  0.21414281144E+03  0.16352041577E+04  0.16493958365E+04  0.00000000000E+00 0. -1.
<scales pt_clust_5="13000.00000" pt_clust_6="13000.00000" pt_clust_7="13000.00000" pt_clust_8="13000.00000" pt_clust_9="220.97798"></scales>
<clustering>
<clus scale="   80.986">  7  8 -1 -1</clus>
<clus scale="   90.597">  5  6 -1 -1</clus>
<clus scale="  134.122">  2  5  1 -1</clus>
<clus scale="  220.978">  1  9  2 -1</clus>
<clus scale="  220.978">  1  5  2 -1</clus>
</clustering>
</event>
<event>
 9    1  0.1296032E-005  0.1088670E+03  0.7546771E-02  0.1263493E+00
         -3   -1    0    0    0  501 -0.00000000000E+00  0.00000000000E+00  0.17840404184E+03  0.17840404184E+03  0.00000000000E+00 0.  1.
          3   -1    0    0  502    0  0.00000000000E+00 -0.00000000000E+00 -0.13620853735E+03  0.13620853735E+03  0.00000000000E+00 0. -1.
         23    2    1    2    0    0 -0.84283682959E+01 -0.59282373136E+02  0.88228807911E+02  0.14034891635E+03  0.91258197535E+02 0.  0.
         23    2    1    2    0    0  0.23939185417E+02  0.45794015271E+02  0.16996354302E+02  0.10796691331E+03  0.93262006613E+02 0.  0.
        -11    1    4    4    0    0 -0.33701664606E+02  0.11384439396E+02  0.19924978687E+02  0.40772692250E+02  0.00000000000E+00 0. -1.
         11    1    4    4    0    0  0.57640850023E+02  0.34409575876E+02 -0.29286243858E+01  0.67194221062E+02  0.00000000000E+00 0.  1.
        -13    1    3    3    0    0  0.37089821290E+02 -0.38433480155E+01  0.33448677480E+02  0.50092316701E+02  0.00000000000E+00 0.  1.
         13    1    3    3    0    0 -0.45518189586E+02 -0.55439025120E+02  0.54780130431E+02  0.90256599645E+02  0.00000000000E+00 0. -1.
         21    1    1    2  502  501 -0.15510817121E+02  0.13488357864E+02 -0.63029657727E+02  0.66296749534E+02  0.00000000000E+00 0. -1.
<scales pt_clust_5="13000.00000" pt_clust_6="13000.00000" pt_clust_7="13000.00000" pt_clust_8="13000.00000" pt_clust_9="20.55532"></scales>
<clustering>
<clus scale="   20.555">  2  9  1 -1</clus>
<clus scale="   91.258">  7  8 -1 -1</clus>
<clus scale="   93.262">  5  6 -1 -1</clus>
<clus scale="  107.155">  1  7  2 -1</clus>
<clus scale="   20.555">  2  5  1 -1</clus>
</clustering>
</event>
<event>
 9    1  0.1296032E-005  0.1393951E+03  0.7546771E-02  0.1215291E+00
          1   -1    0    0  502    0  0.00000000000E+00  0.00000000000E+00  0.76886798271E+03  0.76886798271E+03  0.00000000000E+00 0. -1.
         -1   -1    0    0    0  501 -0.00000000000E+00 -0.00000000000E+00 -0.35117747297E+02  0.35117747297E+02  0.00000000000E+00 0.  1.
         23    2    1    2    0    0 -0.48835251643E+02  0.73178690892E+02  0.27860447920E+03  0.30585331709E+03  0.90475373115E+02 0.  0.
         23    2    1    2    0    0  0.31569050820E+02 -0.11502821024E+03  0.30200168165E+03  0.33843704187E+03  0.95428095820E+02 0.  0.
        -11    1    3    3    0    0 -0.61468108963E+02  0.22088892428E+02  0.98274251821E+02  0.11800032271E+03  0.00000000000E+00 0. -1.
         11    1    3    3    0    0  0.12632857321E+02  0.51089798463E+02  0.18033022738E+03  0.18785299438E+03  0.00000000000E+00 0.  1.
        -13    1    4    4    0    0 -0.17249047231E+02 -0.98748877099E+02  0.21767647741E+03  0.23964957579E+03  0.00000000000E+00 0. -1.
         13    1    4    4    0    0  0.48818098051E+02 -0.16279333136E+02  0.84325204234E+02  0.98787466077E+02  0.00000000000E+00 0.  1.
         21    1    1    2  502  501  0.17266200823E+02  0.41849519344E+02  0.15314407456E+03  0.15969537104E+03  0.00000000000E+00 0.  1.
<scales pt_clust_5="13000.00000" pt_clust_6="13000.00000" pt_clust_7="13000.00000" pt_clust_8="13000.00000" pt_clust_9="45.27145"></scales>
<clustering>
<clus scale="   45.271">  1  9  2 -1</clus>
<clus scale="   90.475">  5  6 -1 -1</clus>
<clus scale="   95.428">  7  8 -1 -1</clus>
<clus scale="  136.052">  2  5  1 -1</clus>
<clus scale="   45.271">  1  5  2 -1</clus>
</clustering>
</event>
<event>
 9    1  0.1296032E-005  0.1633952E+03  0.7546771E-02  0.1186756E+00
          1   -1    0    0  502    0  0.00000000000E+00  0.00000000000E+00  0.45405158837E+03  0.45405158837E+03  0.00000000000E+00 0. -1.
         -1   -1    0    0    0  501 -0.00000000000E+00 -0.00000000000E+00 -0.27643370077E+03  0.27643370077E+03  0.00000000000E+00 0.  1.
         23    2    1    2    0    0 -0.10769962953E+03  0.90775182038E+02 -0.23091966379E+03  0.28543810967E+03  0.91168412580E+02 0.  0.
         23    2    1    2    0    0  0.52982325230E+02 -0.67609878122E+02  0.25385936897E+03  0.27934879441E+03  0.78822251382E+02 0.  0.
        -13    1    3    3    0    0 -0.54371552992E+02 -0.69354193132E+01 -0.95786045552E+02  0.11036001241E+03  0.00000000000E+00 0. -1.
         13    1    3    3    0    0 -0.53328076540E+02  0.97710601351E+02 -0.13513361824E+03  0.17507809727E+03  0.00000000000E+00 0.  1.
        -13    1    4    4    0    0 -0.20322880674E+02 -0.23270922939E+02  0.65398458258E+02  0.72329203478E+02  0.00000000000E+00 0.  1.
         13    1    4    4    0    0  0.73305205904E+02 -0.44338955183E+02  0.18846091072E+03  0.20701959093E+03  0.00000000000E+00 0. -1.
         21    1    1    2  502  501  0.54717304302E+02 -0.23165303916E+02  0.15467818242E+03  0.16569838506E+03  0.00000000000E+00 0. -1.
<scales pt_clust_5="13000.00000" pt_clust_6="13000.00000" pt_clust_7="13000.00000" pt_clust_8="13000.00000" pt_clust_9="59.41898"></scales>
<clustering>
<clus scale="   59.419">  1  9  2 -1</clus>
<clus scale="   78.822">  7  8 -1 -1</clus>
<clus scale="   91.168">  5  6 -1 -1</clus>
<clus scale="  156.841">  1  7  2 -1</clus>
<clus scale="   59.419">  1  5  2 -1</clus>
</clustering>
</event>
<event>
 9    1  0.1296032E-005  0.1322553E+03  0.7546771E-02  0.1224825E+00
         -1   -1    0    0    0  501 -0.00000000000E+00  0.00000000000E+00  0.14379397927E+03  0.14379397927E+03  0.00000000000E+00 0.  1.
          1   -1    0    0  502    0  0.00000000000E+00 -0.00000000000E+00 -0.15444254372E+03  0.15444254372E+03  0.00000000000E+00 0. -1.
         23    2    1    2    0    0  0.52954792177E+02  0.69477150329E+02  0.30308506055E+02  0.13035160007E+03  0.91878450522E+02 0.  0.
         23    2    1    2    0    0 -0.63797593096E+02 -0.88478551175E+02 -0.34245116901E+02  0.14500108829E+03  0.89185204333E+02 0.  0.
        -11    1    3    3    0    0  0.86839361232E+01  0.80631244129E+02  0.20685473337E+02  0.83694068390E+02  0.00000000000E+00 0. -1.
         11    1    3    3    0    0  0.44270856054E+02 -0.11154093801E+02  0.96230327173E+01  0.46657531685E+02  0.00000000000E+00 0.  1.
        -13    1    4    4    0    0 -0.65914172259E+02 -0.17376700175E+02 -0.27657547795E+02  0.73563358838E+02  0.00000000000E+00 0. -1.
         13    1    4    4    0    0  0.21165791631E+01 -0.71101851000E+02 -0.65875691064E+01  0.71437729455E+02  0.00000000000E+00 0.  1.
         21    1    1    2  502  501  0.10842800919E+02  0.19001400846E+02 -0.67119536062E+01  0.22883834624E+02  0.00000000000E+00 0.  1.
<scales pt_clust_5="13000.00000" pt_clust_6="13000.00000" pt_clust_7="13000.00000" pt_clust_8="13000.00000" pt_clust_9="21.87738"></scales>
<clustering>
<clus scale="   21.877">  2  9  1 -1</clus>
<clus scale="   89.185">  7  8 -1 -1</clus>
<clus scale="   91.878">  5  6 -1 -1</clus>
<clus scale="  130.399">  2  7  1 -1</clus>
<clus scale="   21.877">  2  5  1 -1</clus>
</clustering>
</event>
<event>
 9    1  0.1296032E-005  0.1563587E+03  0.7546771E-02  0.1196138E+00
          2   -1    0    0  502    0  0.00000000000E+00  0.00000000000E+00  0.53068625521E+03  0.53068625521E+03  0.00000000000E+00 0. -1.
         -2   -1    0    0    0  501 -0.00000000000E+00 -0.00000000000E+00 -0.25334713616E+03  0.25334713616E+03  0.00000000000E+00 0.  1.
         23    2    1    2    0    0 -0.10722037539E+02 -0.11103135045E+03 -0.20311019127E+03  0.24890058274E+03  0.90856080799E+02 0.  0.
         23    2    1    2    0    0  0.34848086294E+02  0.14139018199E+03  0.29800557555E+03  0.34861353017E+03  0.10732426414E+03 0.  0.
        -11    1    4    4    0    0  0.29155625307E+02  0.29049199518E+02  0.14547828750E+02  0.43652557783E+02  0.00000000000E+00 0.  1.
         11    1    4    4    0    0  0.56924609879E+01  0.11234098247E+03  0.28345774680E+03  0.30496097238E+03  0.00000000000E+00 0. -1.
        -11    1    3    3    0    0  0.34271656220E+01 -0.19987693257E+02  0.53614096114E+01  0.20976130696E+02  0.00000000000E+00 0. -1.
         11    1    3    3    0    0 -0.14149203161E+02 -0.91043657194E+02 -0.20847160088E+03  0.22792445204E+03  0.00000000000E+00 0.  1.
         21    1    1    2  502  501 -0.24126048756E+02 -0.30358831538E+02  0.18244373477E+03  0.18651927846E+03  0.00000000000E+00 0. -1.
<scales pt_clust_5="13000.00000" pt_clust_6="13000.00000" pt_clust_7="13000.00000" pt_clust_8="13000.00000" pt_clust_9="38.77789"></scales>
<clustering>
<clus scale="   38.778">  1  9  2 -1</clus>
<clus scale="   90.856">  7  8 -1 -1</clus>
<clus scale="  107.324">  5  6 -1 -1</clus>
<clus scale="  145.549">  2  7  1 -1</clus>
<clus scale="   38.778">  1  5  2 -1</clus>
</clustering>
</event>
<event>
 9    1  0.1296032E-005  0.1189265E+03  0.7546771E-02  0.1256473E+00
          1   -1    0    0  502    0  0.00000000000E+00  0.00000000000E+00  0.51955367281E+03  0.51955367281E+03  0.00000000000E+00 0. -1.
         -1   -1    0    0    0  501 -0.00000000000E+00 -0.00000000000E+00 -0.41041448367E+02  0.41041448367E+02  0.00000000000E+00 0.  1.
         23    2    1    2    0    0  0.24208903746E+02 -0.15155261749E+02  0.65505192780E+02  0.11603345276E+03  0.91417060221E+02 0.  0.
         23    2    1    2    0    0  0.16611301659E+02  0.25704671451E+02  0.33255494966E+03  0.35373151531E+03  0.11660413759E+03 0.  0.
        -11    1    3    3    0    0  0.49845635361E+02 -0.37000217045E+02  0.43474216618E+02  0.75786614494E+02  0.00000000000E+00 0.  1.
         11    1    3    3    0    0 -0.25636731616E+02  0.21844955297E+02  0.22030976162E+02  0.40246838267E+02  0.00000000000E+00 0. -1.
        -13    1    4    4    0    0  0.63674950678E+02  0.27685699292E+02  0.24053036637E+03  0.25035146182E+03  0.00000000000E+00 0.  1.
         13    1    4    4    0    0 -0.47063649018E+02 -0.19810278410E+01  0.92024583291E+02  0.10338005349E+03  0.00000000000E+00 0. -1.
         21    1    1    2  502  501 -0.40820205405E+02 -0.10549409702E+02  0.80452082008E+02  0.90830153109E+02  0.00000000000E+00 0. -1.
<scales pt_clust_5="13000.00000" pt_clust_6="13000.00000" pt_clust_7="13000.00000" pt_clust_8="13000.00000" pt_clust_9="42.16135"></scales>
<clustering>
<clus scale="   42.161">  1  9  2 -1</clus>
<clus scale="   91.417">  5  6 -1 -1</clus>
<clus scale="   94.361">  2  5  1 -1</clus>
<clus scale="  116.604">  7  8 -1 -1</clus>
<clus scale="   42.161">  1  5  2 -1</clus>
</clustering>
</event>
<event>
 9    1  0.1296032E-005  0.1571606E+03  0.7546771E-02  0.1192342E+00
          3   -1    0    0  502    0  0.00000000000E+00  0.00000000000E+00  0.10976267100E+03  0.10976267100E+03  0.00000000000E+00 0. -1.
         -3   -1    0    0    0  501 -0.00000000000E+00 -0.00000000000E+00 -0.28950343432E+03  0.28950343432E+03  0.00000000000E+00 0.  1.
         23    2    1    2    0    0  0.17429626339E+02 -0.11682100480E+03 -0.12614512053E+03  0.19583635010E+03  0.92132217761E+02 0.  0.
         23    2    1    2    0    0 -0.32447550178E+02  0.13463225117E+03 -0.61900748721E+02  0.17869610773E+03  0.94455860899E+02 0.  0.
        -11    1    3    3    0    0  0.34560198332E+01 -0.53636978511E+02  0.35085847746E+00  0.53749350122E+02  0.00000000000E+00 0. -1.
         11    1    3    3    0    0  0.13973606505E+02 -0.63184026287E+02 -0.12649597901E+03  0.14208699998E+03  0.00000000000E+00 0.  1.
        -13    1    4    4    0    0  0.31806513949E+02  0.24682459362E+02 -0.13579376205E+02  0.42488558317E+02  0.00000000000E+00 0. -1.
         13    1    4    4    0    0 -0.64254064126E+02  0.10994979181E+03 -0.48321372516E+02  0.13620754941E+03  0.00000000000E+00 0.  1.
         21    1    1    2  502  501  0.15017923839E+02 -0.17811246370E+02  0.83051059297E+01  0.24733647491E+02  0.00000000000E+00 0. -1.
<scales pt_clust_5="13000.00000" pt_clust_6="13000.00000" pt_clust_7="13000.00000" pt_clust_8="13000.00000" pt_clust_9="23.29761"></scales>
<clustering>
<clus scale="   23.298">  1  9  2 -1</clus>
<clus scale="   92.132">  5  6 -1 -1</clus>
<clus scale="   94.456">  7  8 -1 -1</clus>
<clus scale="  155.775">  2  5  1 -1</clus>
<clus scale="   23.298">  1  5  2 -1</clus>
</clustering>
</event>
<event>
 9    1  0.1296032E-005  0.1020264E+03  0.7546771E-02  0.1278471E+00
          2   -1    0    0  502    0  0.00000000000E+00  0.00000000000E+00  0.75294283823E+03  0.75294283823E+03  0.00000000000E+00 0. -1.
         -2   -1    0    0    0  501 -0.00000000000E+00 -0.00000000000E+00 -0.32758595079E+02  0.32758595079E+02  0.00000000000E+00 0.  1.
         23    2    1    2    0    0 -0.37480715434E+02 -0.24754471538E+02  0.70430184852E+02  0.12125767547E+03  0.87894397043E+02 0.  0.
         23    2    1    2    0    0  0.38994830929E+02 -0.12166050958E+02  0.50034051253E+03  0.51052876446E+03  0.92899845146E+02 0.  0.
        -13    1    4    4    0    0  0.10026581010E+01 -0.48693431199E+02  0.23040114895E+03  0.23549255827E+03  0.00000000000E+00 0.  1.
         13    1    4    4    0    0  0.37992172828E+02  0.36527380241E+02  0.26993936358E+03  0.27503620618E+03  0.00000000000E+00 0. -1.
        -13    1    3    3    0    0  0.20400008387E+02 -0.34371424752E+02  0.26418648810E+02  0.47911378467E+02  0.00000000000E+00 0. -1.
         13    1    3    3    0    0 -0.57880723821E+02  0.96169532141E+01  0.44011536042E+02  0.73346297002E+02  0.00000000000E+00 0.  1.
         21    1    1    2  502  501 -0.15141154952E+01  0.36920522496E+02  0.14941354577E+03  0.15391499338E+03  0.00000000000E+00 0.  1.
<scales pt_clust_5="13000.00000" pt_clust_6="13000.00000" pt_clust_7="13000.00000" pt_clust_8="13000.00000" pt_clust_9="36.95156"></scales>
<clustering>
<clus scale="   36.952">  1  9  2 -1</clus>
<clus scale="   87.894">  7  8 -1 -1</clus>
<clus scale="   92.900">  5  6 -1 -1</clus>
<clus scale="   97.491">  2  7  1 -1</clus>
<clus scale="   36.952">  1  5  2 -1</clus>
</clustering>
</event>
<event>
 9    1  0.1296032E-005  0.1082354E+03  0.7546771E-02  0.1264524E+00
          2   -1    0    0  502    0  0.00000000000E+00  0.00000000000E+00  0.74637902519E+03  0.74637902519E+03  0.00000000000E+00 0. -1.
         -2   -1    0    0    0  501 -0.00000000000E+00 -0.00000000000E+00 -0.31198447212E+02  0.31198447212E+02  0.00000000000E+00 0.  1.
         23    2    1    2    0    0  0.29200994599E+02 -0.49034170841E+02  0.11914573859E+03  0.16060538227E+03  0.91330902737E+02 0.  0.
         23    2    1    2    0    0 -0.56755739645E+02  0.21985756864E+02  0.33108803780E+03  0.34922652369E+03  0.92926253510E+02 0.  0.
        -11    1    4    4    0    0  0.24333584928E+02  0.12569054837E+02  0.11543299828E+03  0.11863760613E+03  0.00000000000E+00 0.  1.
         11    1    4    4    0    0 -0.81089324573E+02  0.94167020268E+01  0.21565503952E+03  0.23058891757E+03  0.00000000000E+00 0. -1.
        -13    1    3    3    0    0 -0.30118754599E+02 -0.28281935310E+02  0.68048094441E+02  0.79608733193E+02  0.00000000000E+00 0. -1.
         13    1    3    3    0    0  0.59319749198E+02 -0.20752235530E+02  0.51097644152E+02  0.80996649081E+02  0.00000000000E+00 0.  1.
         21    1    1    2  502  501  0.27554745046E+02  0.27048413977E+02  0.26494680158E+03  0.26774556643E+03  0.00000000000E+00 0.  1.
<scales pt_clust_5="13000.00000" pt_clust_6="13000.00000" pt_clust_7="13000.00000" pt_clust_8="13000.00000" pt_clust_9="38.61192"></scales>
<clustering>
<clus scale="   38.612">  1  9  2 -1</clus>
<clus scale="   91.331">  7  8 -1 -1</clus>
<clus scale="   92.926">  5  6 -1 -1</clus>
<clus scale="  106.869">  2  7  1 -1</clus>
<clus scale="   38.612">  1  5  2 -1</clus>
</clustering>
</event>
<event>
 9    1  0.1296032E-005  0.9846049E+02  0.7546771E-02  0.1285057E+00
         -2   -1    0    0    0  501 -0.00000000000E+00  0.00000000000E+00  0.16337493987E+03  0.16337493987E+03  0.00000000000E+00 0.  1.
          2   -1    0    0  502    0  0.00000000000E+00 -0.00000000000E+00 -0.23634091967E+03  0.23634091967E+03  0.00000000000E+00 0. -1.
         23    2    1    2    0    0 -0.48749013577E+01 -0.37254911577E+02  0.12514483715E+03  0.15861093426E+03  0.89913876034E+02 0.  0.
         23    2    1    2    0    0  0.75183165652E+00 -0.60049541592E+01 -0.12136271587E+03  0.15290806193E+03  0.92818865938E+02 0.  0.
        -11    1    3    3    0    0 -0.19078559922E+02 -0.54996810118E+02  0.12262996772E+03  0.13574516402E+03  0.00000000000E+00 0. -1.
         11    1    3    3    0    0  0.14203658564E+02  0.17741898542E+02  0.25148694241E+01  0.22865770241E+02  0.00000000000E+00 0.  1.
        -13    1    4    4    0    0  0.56589528188E+01  0.25860836452E+02  0.87762793848E+00  0.26487295819E+02  0.00000000000E+00 0.  1.
         13    1    4    4    0    0 -0.49071211623E+01 -0.31865790611E+02 -0.12224034381E+03  0.12642076611E+03  0.00000000000E+00 0. -1.
         21    1    1    2  502  501  0.41230697012E+01  0.43259865736E+02 -0.76748101070E+02  0.88196863351E+02  0.00000000000E+00 0.  1.
<scales pt_clust_5="13000.00000" pt_clust_6="13000.00000" pt_clust_7="13000.00000" pt_clust_8="13000.00000" pt_clust_9="43.45591"></scales>
<clustering>
<clus scale="   43.456">  2  9  1 -1</clus>
<clus scale="   89.914">  5  6 -1 -1</clus>
<clus scale="   92.819">  7  8 -1 -1</clus>
<clus scale="   95.727">  1  5  2 -1</clus>
<clus scale="   43.456">  2  5  1 -1</clus>
</clustering>
</event>
<event>
 9    1  0.1296032E-005  0.1960308E+03  0.7546771E-02  0.1177076E+00
          1   -1    0    0  502    0  0.00000000000E+00  0.00000000000E+00  0.12710924511E+04  0.12710924511E+04  0.00000000000E+00 0. -1.
         -1   -1    0    0    0  501 -0.00000000000E+00 -0.00000000000E+00 -0.90587595848E+02  0.90587595848E+02  0.00000000000E+00 0.  1.
         23    2    1    2    0    0 -0.66875948543E+02  0.37314248866E+01  0.48585492159E+02  0.12283753123E+03  0.90786524357E+02 0.  0.
         23    2    1    2    0    0  0.19720168822E+03  0.98992910915E+02  0.26724177133E+03  0.35838557454E+03  0.91290489322E+02 0.  0.
        -11    1    3    3    0    0  0.37487202742E+01  0.32431115968E+02  0.39445457269E+00  0.32649437683E+02  0.00000000000E+00 0.  1.
         11    1    3    3    0    0 -0.70624668818E+02 -0.28699691082E+02  0.48191037587E+02  0.90188093546E+02  0.00000000000E+00 0. -1.
        -13    1    4    4    0    0  0.26215441565E+02 -0.87118489475E+01  0.62824485873E+01  0.28330457970E+02  0.00000000000E+00 0. -1.
         13    1    4    4    0    0  0.17098624666E+03  0.10770475986E+03  0.26095932275E+03  0.33005511657E+03  0.00000000000E+00 0.  1.
         21    1    1    2  502  501 -0.13032573968E+03 -0.10272433580E+03  0.86467759177E+03  0.88045694119E+03  0.00000000000E+00 0. -1.
<scales pt_clust_5="13000.00000" pt_clust_6="13000.00000" pt_clust_7="13000.00000" pt_clust_8="13000.00000" pt_clust_9="173.47655"></scales>
<clustering>
<clus scale="   90.787">  5  6 -1 -1</clus>
<clus scale="   91.290">  7  8 -1 -1</clus>
<clus scale="  112.821">  2  5  1 -1</clus>
<clus scale="  173.477">  1  9  2 -1</clus>
<clus scale="  173.477">  1  5  2 -1</clus>
</clustering>
</event>
<event>
 9    1  0.1296032E-005  0.1312270E+03  0.7546771E-02  0.1226013E+00
          2   -1    0    0  502    0  0.00000000000E+00  0.00000000000E+00  0.54466078888E+03  0.54466078888E+03  0.00000000000E+00 0. -1.
         -2   -1    0    0    0  501 -0.00000000000E+00 -0.00000000000E+00 -0.64840251321E+02  0.64840251321E+02  0.00000000000E+00 0.  1.
         23    2    1    2    0    0  0.75562006877E+02 -0.56313930663E+02  0.50202012194E+02  0.14019381916E+03  0.90847065070E+02 0.  0.
         23    2    1    2    0    0 -0.95050092827E+02  0.30217507048E+02  0.22296950124E+03  0.26010724974E+03  0.89402265113E+02 0.  0.
        -11    1    3    3    0    0  0.73483216806E+02 -0.21058915860E+02  0.66480872533E+02  0.10130630534E+03  0.00000000000E+00 0. -1.
         11    1    3    3    0    0  0.20787900709E+01 -0.35255014802E+02 -0.16278860339E+02  0.38887513816E+02  0.00000000000E+00 0.  1.
        -11    1    4    4    0    0 -0.82576234916E+02 -0.77313169299E+01  0.95306960291E+02  0.12634090594E+03  0.00000000000E+00 0.  1.
         11    1    4    4    0    0 -0.12473857911E+02  0.37948823978E+02  0.12766254095E+03  0.13376634380E+03  0.00000000000E+00 0. -1.
         21    1    1    2  502  501  0.19488085951E+02  0.26096423615E+02  0.20664902413E+03  0.20919997130E+03  0.00000000000E+00 0. -1.
<scales pt_clust_5="13000.00000" pt_clust_6="13000.00000" pt_clust_7="13000.00000" pt_clust_8="13000.00000" pt_clust_9="32.57006"></scales>
<clustering>
<clus scale="   32.570">  1  9  2 -1</clus>
<clus scale="   89.402">  7  8 -1 -1</clus>
<clus scale="   90.847">  5  6 -1 -1</clus>
<clus scale="  130.231">  1  7  2 -1</clus>
<clus scale="   32.570">  1  5  2 -1</clus>
</clustering>
</event>
<event>
 9    1  0.1296032E-005  0.1076145E+03  0.7546771E-02  0.1272614E+00
         -1   -1    0    0    0  501 -0.00000000000E+00  0.00000000000E+00  0.71333269865E+02  0.71333269865E+02  0.00000000000E+00 0.  1.
          1   -1    0    0  502    0  0.00000000000E+00 -0.00000000000E+00 -0.21217044848E+03  0.21217044848E+03  0.00000000000E+00 0. -1.
         23    2    1    2    0    0  0.22557957276E+02  0.22502635774E+02 -0.24700856314E+02  0.99943288554E+02  0.91451072007E+02 0.  0.
         23    2    1    2    0    0  0.46209385377E+01 -0.11833111173E+02 -0.11040767952E+03  0.15380562378E+03  0.10632468488E+03 0.  0.
        -13    1    4    4    0    0 -0.17829042727E+02 -0.52870518942E+02 -0.81658633238E+02  0.98900449544E+02  0.00000000000E+00 0.  1.
         13    1    4    4    0    0  0.22449981265E+02  0.41037407769E+02 -0.28749046285E+02  0.54905174232E+02  0.00000000000E+00 0. -1.
        -13    1    3    3    0    0  0.56066770982E+02 -0.50419052515E+00 -0.11788341409E+02  0.57294868964E+02  0.00000000000E+00 0. -1.
         13    1    3    3    0    0 -0.33508813707E+02  0.23006826299E+02 -0.12912514905E+02  0.42648419590E+02  0.00000000000E+00 0.  1.
         21    1    1    2  502  501 -0.27178895813E+02 -0.10669524600E+02 -0.57286427772E+01  0.29754806013E+02  0.00000000000E+00 0.  1.
<scales pt_clust_5="13000.00000" pt_clust_6="13000.00000" pt_clust_7="13000.00000" pt_clust_8="13000.00000" pt_clust_9="29.19814"></scales>
<clustering>
<clus scale="   29.198">  1  9  2 -1</clus>
<clus scale="   91.451">  7  8 -1 -1</clus>
<clus scale="   92.947">  1  7  2 -1</clus>
<clus scale="  106.325">  5  6 -1 -1</clus>
<clus scale="  107.614">  2  5  1 -1</clus>
</clustering>
</event>
<event>
 9    1  0.1296032E-005  0.1114536E+03  0.7546771E-02  0.1258719E+00
         -3   -1    0    0    0  501 -0.00000000000E+00  0.00000000000E+00  0.30728040509E+03  0.30728040509E+03  0.00000000000E+00 0.  1.
          3   -1    0    0  502    0  0.00000000000E+00 -0.00000000000E+00 -0.64026889932E+02  0.64026889932E+02  0.00000000000E+00 0. -1.
         23    2    1    2    0    0 -0.69709089613E+02  0.25373476990E+02  0.14538788616E+03  0.18681432951E+03  0.90877861755E+02 0.  0.
         23    2    1    2    0    0  0.49807787745E+02 -0.81127115978E+00  0.10829701216E+03  0.15120366505E+03  0.93020597722E+02 0.  0.
        -11    1    3    3    0    0 -0.11942987982E+01  0.35615496505E+02  0.14010170319E+02  0.38290662220E+02  0.00000000000E+00 0. -1.
         11    1    3    3    0    0 -0.68514790815E+02 -0.10242019515E+02  0.13137771584E+03  0.14852366728E+03  0.00000000000E+00 0.  1.
        -13    1    4    4    0    0 -0.19667666968E+02 -0.10107117467E+02  0.65370340614E+02  0.69009074617E+02  0.00000000000E+00 0.  1.
         13    1    4    4    0    0  0.69475454714E+02  0.92958463076E+01  0.42926671542E+02  0.82194590430E+02  0.00000000000E+00 0. -1.
         21    1    1    2  502  501  0.19901301867E+02 -0.24562205830E+02 -0.10431383157E+02  0.33289300471E+02  0.00000000000E+00 0. -1.
<scales pt_clust_5="13000.00000" pt_clust_6="13000.00000" pt_clust_7="13000.00000" pt_clust_8="13000.00000" pt_clust_9="31.61272"></scales>
<clustering>
<clus scale="   31.613">  2  9  1 -1</clus>
<clus scale="   90.878">  5  6 -1 -1</clus>
<clus scale="   93.021">  7  8 -1 -1</clus>
<clus scale="  109.672">  1  5  2 -1</clus>
<clus scale="   31.613">  2  5  1 -1</clus>
</clustering>
</event>
<event>
 9    1  0.1296032E-005  0.1044228E+03  0.7546771E-02  0.1271922E+00
         -1   -1    0    0    0  501 -0.00000000000E+00  0.00000000000E+00  0.28669831389E+03  0.28669831389E+03  0.00000000000E+00 0.  1.
          1   -1    0    0  502    0  0.00000000000E+00 -0.00000000000E+00 -0.49710805319E+02  0.49710805319E+02  0.00000000000E+00 0. -1.
         23    2    1    2    0    0  0.26571962426E+01 -0.62317530899E+02  0.12148692198E+03  0.16505197647E+03  0.92695994391E+02 0.  0.
         23    2    1    2    0    0 -0.97036148104E+01  0.36948586141E+02  0.80185741216E+02  0.12730746990E+03  0.91203512218E+02 0.  0.
        -11    1    4    4    0    0  0.30683099292E+02  0.46955951229E+02  0.36193415122E+02  0.66755353615E+02  0.00000000000E+00 0.  1.
         11    1    4    4    0    0 -0.40386714103E+02 -0.10007365088E+02  0.43992326094E+02  0.60552116290E+02  0.00000000000E+00 0. -1.
        -13    1    3    3    0    0  0.29167039433E+02 -0.27065879405E+02  0.11344075601E+03  0.12021681721E+03  0.00000000000E+00 0.  1.
         13    1    3    3    0    0 -0.26509843191E+02 -0.35251651494E+02  0.80461659743E+01  0.44835159261E+02  0.00000000000E+00 0. -1.
         21    1    1    2  502  501  0.70464185678E+01  0.25368944758E+02  0.35314845374E+02  0.44049672832E+02  0.00000000000E+00 0. -1.
<scales pt_clust_5="13000.00000" pt_clust_6="13000.00000" pt_clust_7="13000.00000" pt_clust_8="13000.00000" pt_clust_9="26.32936"></scales>
<clustering>
<clus scale="   26.329">  1  9  2 -1</clus>
<clus scale="   91.204">  5  6 -1 -1</clus>
<clus scale="   92.696">  7  8 -1 -1</clus>
<clus scale="  103.100">  2  5  1 -1</clus>
<clus scale="  103.100">  2  5  1 -1</clus>
</clustering>
</event>
<event>
 9    1  0.1296032E-005  0.9799048E+02  0.7546771E-02  0.1284614E+00
         -1   -1    0    0    0  501 -0.00000000000E+00  0.00000000000E+00  0.62015142603E+02  0.62015142603E+02  0.00000000000E+00 0.  1.
          1   -1    0    0  502    0  0.00000000000E+00 -0.00000000000E+00 -0.25554223000E+03  0.25554223000E+03  0.00000000000E+00 0. -1.
         23    2    1    2    0    0 -0.68931841133E+01 -0.33056499007E+02 -0.11124154358E+02  0.98626126598E+02  0.91995205982E+02 0.  0.
         23    2    1    2    0    0  0.27209441834E+02  0.26254646837E+02 -0.15380905104E+03  0.18320134804E+03  0.92064377137E+02 0.  0.
        -11    1    4    4    0    0 -0.21509215481E+02  0.31395758691E+02 -0.11365921619E+03  0.11986140930E+03  0.00000000000E+00 0.  1.
         11    1    4    4    0    0  0.48718657314E+02 -0.51411118548E+01 -0.40149834851E+02  0.63339938744E+02  0.00000000000E+00 0. -1.
        -13    1    3    3    0    0 -0.29264160842E+02 -0.56718036772E+02  0.11336764655E+01  0.63832687766E+02  0.00000000000E+00 0.  1.
         13    1    3    3    0    0  0.22370976729E+02  0.23661537765E+02 -0.12257830824E+02  0.34793438832E+02  0.00000000000E+00 0. -1.
         21    1    1    2  502  501 -0.20316257720E+02  0.68018521701E+01 -0.28593882003E+02  0.35729897967E+02  0.00000000000E+00 0.  1.
<scales pt_clust_5="13000.00000" pt_clust_6="13000.00000" pt_clust_7="13000.00000" pt_clust_8="13000.00000" pt_clust_9="21.42465"></scales>
<clustering>
<clus scale="   21.425">  2  9  1 -1</clus>
<clus scale="   91.995">  7  8 -1 -1</clus>
<clus scale="   92.064">  5  6 -1 -1</clus>
<clus scale="   97.925">  1  7  2 -1</clus>
<clus scale="   21.425">  2  5  1 -1</clus>
</clustering>
</event>
<event>
 9    1  0.1296032E-005  0.9342350E+02  0.7546771E-02  0.1295357E+00
          2   -1    0    0  502    0  0.00000000000E+00  0.00000000000E+00  0.24669095631E+03  0.24669095631E+03  0.00000000000E+00 0. -1.
         -2   -1    0    0    0  501 -0.00000000000E+00 -0.00000000000E+00 -0.15014684168E+03  0.15014684168E+03  0.00000000000E+00 0.  1.
         23    2    1    2    0    0 -0.17766818451E+02 -0.17677166360E+02 -0.84904763972E+02  0.12739627258E+03  0.91612495190E+02 0.  0.
         23    2    1    2    0    0 -0.11951635005E+02  0.12116890871E+02  0.70339928572E+01  0.92425550108E+02  0.90572317148E+02 0.  0.
        -11    1    4    4    0    0  0.17743254700E+02  0.21962093138E+02 -0.31821315734E+02  0.42541188952E+02  0.00000000000E+00 0. -1.
         11    1    4    4    0    0 -0.29694889705E+02 -0.98452022671E+01  0.38855308592E+02  0.49884361157E+02  0.00000000000E+00 0.  1.
        -13    1    3    3    0    0 -0.48511511445E+02 -0.43218290224E+01 -0.79801731836E+02  0.93489899737E+02  0.00000000000E+00 0.  1.
         13    1    3    3    0    0  0.30744692994E+02 -0.13355337337E+02 -0.51030321358E+01  0.33906372847E+02  0.00000000000E+00 0. -1.
         21    1    1    2  502  501  0.29718453457E+02  0.55602754884E+01  0.17441488575E+03  0.17701597530E+03  0.00000000000E+00 0. -1.
<scales pt_clust_5="13000.00000" pt_clust_6="13000.00000" pt_clust_7="13000.00000" pt_clust_8="13000.00000" pt_clust_9="30.23414"></scales>
<clustering>
<clus scale="   30.234">  1  9  2 -1</clus>
<clus scale="   90.572">  5  6 -1 -1</clus>
<clus scale="   91.612">  7  8 -1 -1</clus>
<clus scale="   92.404">  1  5  2 -1</clus>
<clus scale="   30.234">  1  5  2 -1</clus>
</clustering>
</event>
<event>
 9    1  0.1296032E-005  0.1145409E+03  0.7546771E-02  0.1252871E+00
         -2   -1    0    0    0  501 -0.00000000000E+00  0.00000000000E+00  0.56823044520E+02  0.56823044520E+02  0.00000000000E+00 0.  1.
          2   -1    0    0  502    0  0.00000000000E+00 -0.00000000000E+00 -0.10250933162E+04  0.10250933162E+04  0.00000000000E+00 0. -1.
         23    2    1    2    0    0 -0.12396522164E+02 -0.67227349444E+02 -0.41841590420E+02  0.12176879562E+03  0.91671863850E+02 0.  0.
         23    2    1    2    0    0  0.10831515260E+03  0.40452121208E+02 -0.44603467713E+03  0.46954008890E+03  0.90290727556E+02 0.  0.
        -11    1    3    3    0    0  0.46355879916E+01 -0.32113310599E+02 -0.67616832127E+02  0.74998595857E+02  0.00000000000E+00 0. -1.
         11    1    3    3    0    0 -0.17032110156E+02 -0.35114038845E+02  0.25775241707E+02  0.46770199758E+02  0.00000000000E+00 0.  1.
        -13    1    4    4    0    0  0.77996333371E+02 -0.30951013388E+01 -0.36072987152E+03  0.36907864728E+03  0.00000000000E+00 0.  1.
         13    1    4    4    0    0  0.30318819225E+02  0.43547222546E+02 -0.85304805616E+02  0.10046144162E+03  0.00000000000E+00 0. -1.
         21    1    1    2  502  501 -0.95918630431E+02  0.26775228236E+02 -0.48039400408E+03  0.49060747617E+03  0.00000000000E+00 0.  1.
<scales pt_clust_5="13000.00000" pt_clust_6="13000.00000" pt_clust_7="13000.00000" pt_clust_8="13000.00000" pt_clust_9="99.58562"></scales>
<clustering>
<clus scale="   90.291">  7  8 -1 -1</clus>
<clus scale="   91.672">  5  6 -1 -1</clus>
<clus scale="   99.586">  2  9  1 -1</clus>
<clus scale="  113.439">  2  7  1 -1</clus>
<clus scale="   99.586">  2  5  1 -1</clus>
</clustering>
</event>
<event>
 9    1  0.1296032E-005  0.1068503E+03  0.7546771E-02  0.1268376E+00
         -1   -1    0    0    0  501 -0.00000000000E+00  0.00000000000E+00  0.13444287923E+03  0.13444287923E+03  0.00000000000E+00 0.  1.
          1   -1    0    0  502    0  0.00000000000E+00 -0.00000000000E+00 -0.15841213217E+03  0.15841213217E+03  0.00000000000E+00 0. -1.
         23    2    1    2    0    0  0.15572014079E+02  0.23341667338E+02  0.11344546093E+02  0.95707514621E+02  0.90795972226E+02 0.  0.
         23    2    1    2    0    0 -0.13581250815E+02 -0.75941253835E+02  0.16191062650E+02  0.12350355328E+03  0.95076036699E+02 0.  0.
        -11    1    4    4    0    0  0.27482429714E+02  0.47857251322E+01 -0.93144594176E+01  0.29409968757E+02  0.00000000000E+00 0. -1.
         11    1    4    4    0    0 -0.41063680529E+02 -0.80726978967E+02  0.25505522067E+02  0.94093584520E+02  0.00000000000E+00 0.  1.
        -13    1    3    3    0    0  0.20414696995E+02 -0.15902472436E+02  0.39460559073E+02  0.47188814409E+02  0.00000000000E+00 0.  1.
         13    1    3    3    0    0 -0.48426829159E+01  0.39244139774E+02 -0.28116012980E+02  0.48518700213E+02  0.00000000000E+00 0. -1.
         21    1    1    2  502  501 -0.19907632634E+01  0.52599586497E+02 -0.51504861685E+02  0.73643943507E+02  0.00000000000E+00 0.  1.
<scales pt_clust_5="13000.00000" pt_clust_6="13000.00000" pt_clust_7="13000.00000" pt_clust_8="13000.00000" pt_clust_9="52.63725"></scales>
<clustering>
<clus scale="   52.637">  2  9  1 -1</clus>
<clus scale="   90.796">  7  8 -1 -1</clus>
<clus scale="   95.076">  5  6 -1 -1</clus>
<clus scale="  103.060">  1  7  2 -1</clus>
<clus scale="   52.637">  2  5  1 -1</clus>
</clustering>
</event>
<event>
 9    1  0.1296032E-005  0.1010522E+03  0.7546771E-02  0.1278995E+00
         -1   -1    0    0    0  501 -0.00000000000E+00  0.00000000000E+00  0.25116261790E+03  0.25116261790E+03  0.00000000000E+00 0.  1.
          1   -1    0    0  502    0  0.00000000000E+00 -0.00000000000E+00 -0.36012883146E+03  0.36012883146E+03  0.00000000000E+00 0. -1.
         23    2    1    2    0    0  0.41940657890E+02  0.12838158162E+02  0.19362166028E+03  0.21712994727E+03  0.87933097190E+02 0.  0.
         23    2    1    2    0    0 -0.11217955622E+03 -0.27118442541E+02 -0.89797401452E+02  0.16962372243E+03  0.85959124836E+02 0.  0.
        -11    1    4    4    0    0 -0.59398676967E+02  0.17274064815E+02 -0.75987535419E+01  0.62324451029E+02  0.00000000000E+00 0.  1.
         11    1    4    4    0    0 -0.52780879253E+02 -0.44392507356E+02 -0.82198647910E+02  0.10729927140E+03  0.00000000000E+00 0. -1.
        -11    1    3    3    0    0 -0.20388652805E+02  0.18175463432E+02  0.24071130775E+02  0.36406922020E+02  0.00000000000E+00 0. -1.
         11    1    3    3    0    0  0.62329310695E+02 -0.53373052700E+01  0.16955052950E+03  0.18072302525E+03  0.00000000000E+00 0.  1.
         21    1    1    2  502  501  0.70238898330E+02  0.14280284379E+02 -0.21279047239E+03  0.22453777967E+03  0.00000000000E+00 0. -1.
<scales pt_clust_5="13000.00000" pt_clust_6="13000.00000" pt_clust_7="13000.00000" pt_clust_8="13000.00000" pt_clust_9="71.67586"></scales>
<clustering>
<clus scale="   71.676">  2  9  1 -1</clus>
<clus scale="   85.959">  5  6 -1 -1</clus>
<clus scale="   87.933">  7  8 -1 -1</clus>
<clus scale="   99.339">  2  5  1 -1</clus>
<clus scale="   71.676">  2  5  1 -1</clus>
</clustering>
</event>
<event>
 9    1  0.1296032E-005  0.1210196E+03  0.7546771E-02  0.1241996E+00
         -2   -1    0    0    0  501 -0.00000000000E+00  0.00000000000E+00  0.12673492351E+03  0.12673492351E+03  0.00000000000E+00 0.  1.
          2   -1    0    0  502    0  0.00000000000E+00 -0.00000000000E+00 -0.23369482608E+03  0.23369482608E+03  0.00000000000E+00 0. -1.
         23    2    1    2    0    0  0.78145096727E+02  0.30892145600E+02  0.65411818037E+02  0.14004464025E+03  0.90955013729E+02 0.  0.
         23    2    1    2    0    0 -0.55749514284E+02 -0.33102108132E+02 -0.11752242892E+03  0.16109859446E+03  0.89092524546E+02 0.  0.
        -11    1    3    3    0    0  0.41313322527E+02  0.29033284793E+02  0.84561546718E+02  0.98490494097E+02  0.00000000000E+00 0.  1.
         11    1    3    3    0    0  0.36831774200E+02  0.18588608070E+01 -0.19149728681E+02  0.41554146156E+02  0.00000000000E+00 0. -1.
        -13    1    4    4    0    0 -0.57365137592E+01 -0.53782118937E+02 -0.73946226185E+02  0.91615873485E+02  0.00000000000E+00 0. -1.
         13    1    4    4    0    0 -0.50013000525E+02  0.20680010805E+02 -0.43576202738E+02  0.69482720971E+02  0.00000000000E+00 0.  1.
         21    1    1    2  502  501 -0.22395582443E+02  0.22099625320E+01 -0.54849291684E+02  0.59286514872E+02  0.00000000000E+00 0. -1.
<scales pt_clust_5="13000.00000" pt_clust_6="13000.00000" pt_clust_7="13000.00000" pt_clust_8="13000.00000" pt_clust_9="22.50436"></scales>
<clustering>
<clus scale="   22.504">  2  9  1 -1</clus>
<clus scale="   89.093">  7  8 -1 -1</clus>
<clus scale="   90.955">  5  6 -1 -1</clus>
<clus scale="  119.626">  2  7  1 -1</clus>
<clus scale="   22.504">  2  5  1 -1</clus>
</clustering>
</event>
<event>
 9    1  0.1296032E-005  0.1422910E+03  0.7546771E-02  0.1211116E+00
         -2   -1    0    0    0  501 -0.00000000000E+00  0.00000000000E+00  0.78094888566E+02  0.78094888566E+02  0.00000000000E+00 0.  1.
          2   -1    0    0  502    0  0.00000000000E+00 -0.00000000000E+00 -0.34356969852E+03  0.34356969852E+03  0.00000000000E+00 0. -1.
         23    2    1    2    0    0  0.11051568577E+03 -0.39344191876E+01 -0.95856837400E+02  0.17379738925E+03  0.93743281251E+02 0.  0.
         23    2    1    2    0    0 -0.10211963175E+03 -0.28519416686E+02 -0.10203122323E+03  0.17242374967E+03  0.89876596628E+02 0.  0.
        -13    1    4    4    0    0 -0.54130279920E+02  0.14018115776E+02 -0.50308809544E+01  0.56141825204E+02  0.00000000000E+00 0.  1.
         13    1    4    4    0    0 -0.47989351828E+02 -0.42537532462E+02 -0.97000342276E+02  0.11628192447E+03  0.00000000000E+00 0. -1.
        -13    1    3    3    0    0  0.51101703585E+02  0.44777023181E+02 -0.40454926913E+02  0.79075704396E+02  0.00000000000E+00 0. -1.
         13    1    3    3    0    0  0.59413982182E+02 -0.48711442369E+02 -0.55401910487E+02  0.94721684856E+02  0.00000000000E+00 0.  1.
         21    1    1    2  502  501 -0.83960540189E+01  0.32453835874E+02 -0.67586749327E+02  0.75443448162E+02  0.00000000000E+00 0. -1.
<scales pt_clust_5="13000.00000" pt_clust_6="13000.00000" pt_clust_7="13000.00000" pt_clust_8="13000.00000" pt_clust_9="33.52231"></scales>
<clustering>
<clus scale="   33.522">  2  9  1 -1</clus>
<clus scale="   89.877">  5  6 -1 -1</clus>
<clus scale="   93.743">  7  8 -1 -1</clus>
<clus scale="  139.774">  2  5  1 -1</clus>
<clus scale="   33.522">  2  5  1 -1</clus>
</clustering>
</event>
<event>
 9    1  0.1296032E-005  0.1481755E+03  0.7546771E-02  0.1203107E+00
         -1   -1    0    0    0  501 -0.00000000000E+00  0.00000000000E+00  0.60027066381E+03  0.60027066381E+03  0.00000000000E+00 0.  1.
          1   -1    0    0  502    0  0.00000000000E+00 -0.00000000000E+00 -0.87548344753E+02  0.87548344753E+02  0.00000000000E+00 0. -1.
         23    2    1    2    0    0 -0.89603495999E+02 -0.80320721494E+02  0.50123349679E+03  0.52345842167E+03  0.91068634112E+02 0.  0.
         23    2    1    2    0    0  0.81047361915E+02  0.59026675889E+02  0.26773636809E+02  0.13678760438E+03  0.89113398232E+02 0.  0.
        -11    1    4    4    0    0 -0.23622396296E+01  0.33894171727E+02 -0.18420287853E+02  0.38648441853E+02  0.00000000000E+00 0. -1.
         11    1    4    4    0    0  0.83409601544E+02  0.25132504162E+02  0.45193924662E+02  0.98139162528E+02  0.00000000000E+00 0.  1.
        -13    1    3    3    0    0 -0.86250701019E+02 -0.24603557433E+02  0.37247730418E+03  0.38312381888E+03  0.00000000000E+00 0. -1.
         13    1    3    3    0    0 -0.33527949805E+01 -0.55717164062E+02  0.12875619261E+03  0.14033460279E+03  0.00000000000E+00 0.  1.
         21    1    1    2  502  501  0.85561340846E+01  0.21294045605E+02 -0.15284814545E+02  0.27572982508E+02  0.00000000000E+00 0.  1.
<scales pt_clust_5="13000.00000" pt_clust_6="13000.00000" pt_clust_7="13000.00000" pt_clust_8="13000.00000" pt_clust_9="22.94872"></scales>
<clustering>
<clus scale="   22.949">  2  9  1 -1</clus>
<clus scale="   89.113">  5  6 -1 -1</clus>
<clus scale="   91.069">  7  8 -1 -1</clus>
<clus scale="  146.982">  2  5  1 -1</clus>
<clus scale="   22.949">  2  5  1 -1</clus>
</clustering>
</event>
<event>
 9    1  0.1296032E-005  0.1605650E+03  0.7546771E-02  0.1188077E+00
         -2   -1    0    0    0  501 -0.00000000000E+00  0.00000000000E+00  0.43293477691E+03  0.43293477691E+03  0.00000000000E+00 0.  1.
          2   -1    0    0  502    0  0.00000000000E+00 -0.00000000000E+00 -0.81804694375E+02  0.81804694375E+02  0.00000000000E+00 0. -1.
         23    2    1    2    0    0 -0.35380785583E+02  0.11578079942E+03  0.17971806958E+03  0.23466070238E+03  0.90055911547E+02 0.  0.
         23    2    1    2    0    0  0.23779383744E+02 -0.14714105911E+03  0.17441436573E+03  0.24650686794E+03  0.90162711805E+02 0.  0.
        -11    1    3    3    0    0 -0.11803503652E+02  0.99623340766E+02  0.18000981637E+03  0.20607684663E+03  0.00000000000E+00 0.  1.
         11    1    3    3    0    0 -0.23577281932E+02  0.16157458652E+02 -0.29174679725E+00  0.28583855750E+02  0.00000000000E+00 0. -1.
        -13    1    4    4    0    0  0.49939043155E+02 -0.47851598048E+02  0.90485855214E+02  0.11389193765E+03  0.00000000000E+00 0.  1.
         13    1    4    4    0    0 -0.26159659411E+02 -0.99289461066E+02  0.83928510514E+02  0.13261493029E+03  0.00000000000E+00 0. -1.
         21    1    1    2  502  501  0.11601401840E+02  0.31360259695E+02 -0.30023527678E+01  0.33571900973E+02  0.00000000000E+00 0.  1.
<scales pt_clust_5="13000.00000" pt_clust_6="13000.00000" pt_clust_7="13000.00000" pt_clust_8="13000.00000" pt_clust_9="33.43738"></scales>
<clustering>
<clus scale="   33.437">  2  9  1 -1</clus>
<clus scale="   90.056">  5  6 -1 -1</clus>
<clus scale="   90.163">  7  8 -1 -1</clus>
<clus scale="  160.505">  1  5  2 -1</clus>
<clus scale="   33.437">  2  5  1 -1</clus>
</clustering>
</event>
<event>
 9    1  0.1296032E-005  0.1062672E+03  0.7546771E-02  0.1267875E+00
          1   -1    0    0  502    0  0.00000000000E+00  0.00000000000E+00  0.89262318853E+02  0.89262318853E+02  0.00000000000E+00 0. -1.
         -1   -1    0    0    0  501 -0.00000000000E+00 -0.00000000000E+00 -0.34267129527E+03  0.34267129527E+03  0.00000000000E+00 0.  1.
         23    2    1    2    0    0  0.30209780637E+02 -0.48724140077E+02 -0.27578172149E+03  0.29626662055E+03  0.91824179149E+02 0.  0.
         23    2    1    2    0    0  0.31644590284E+00  0.39197878429E+02  0.54369221329E+01  0.99481053402E+02  0.91270729439E+02 0.  0.
        -11    1    3    3    0    0 -0.91042377280E+01  0.19451555134E+02 -0.11809578382E+03  0.12003276344E+03  0.00000000000E+00 0.  1.
         11    1    3    3    0    0  0.39314018365E+02 -0.68175695211E+02 -0.15768593766E+03  0.17623385712E+03  0.00000000000E+00 0. -1.
        -13    1    4    4    0    0  0.77467730510E+01 -0.23695876838E+02  0.22830900238E+02  0.33804690170E+02  0.00000000000E+00 0.  1.
         13    1    4    4    0    0 -0.74303271481E+01  0.62893755267E+02 -0.17393978105E+02  0.65676363232E+02  0.00000000000E+00 0. -1.
         21    1    1    2  502  501 -0.30526226539E+02  0.95262616476E+01  0.16935822932E+02  0.36185940171E+02  0.00000000000E+00 0. -1.
<scales pt_clust_5="13000.00000" pt_clust_6="13000.00000" pt_clust_7="13000.00000" pt_clust_8="13000.00000" pt_clust_9="31.97812"></scales>
<clustering>
<clus scale="   31.978">  1  9  2 -1</clus>
<clus scale="   91.271">  7  8 -1 -1</clus>
<clus scale="   91.824">  5  6 -1 -1</clus>
<clus scale="  105.789">  1  7  2 -1</clus>
<clus scale="   31.978">  1  5  2 -1</clus>
</clustering>
</event>
<event>
 9    1  0.1296032E-005  0.1354904E+03  0.7546771E-02  0.1219709E+00
          1   -1    0    0  502    0  0.00000000000E+00  0.00000000000E+00  0.25251870387E+03  0.25251870387E+03  0.00000000000E+00 0. -1.
         -1   -1    0    0    0  501 -0.00000000000E+00 -0.00000000000E+00 -0.10849108606E+03  0.10849108606E+03  0.00000000000E+00 0.  1.
         23    2    1    2    0    0  0.13474792483E+02  0.85588526991E+02  0.21004860652E+02  0.12768073023E+03  0.91401305874E+02 0.  0.
         23    2    1    2    0    0 -0.29975738071E+02 -0.11685432897E+03  0.62686443826E+02  0.16339836340E+03  0.90641910013E+02 0.  0.
        -11    1    4    4    0    0 -0.57750730863E+02 -0.65451731726E+02  0.16298431286E+02  0.88795917493E+02  0.00000000000E+00 0.  1.
         11    1    4    4    0    0  0.27774992792E+02 -0.51402597246E+02  0.46388012540E+02  0.74602445910E+02  0.00000000000E+00 0. -1.
        -13    1    3    3    0    0  0.40216790116E+02  0.22097236285E+02  0.34585632439E+02  0.57461674444E+02  0.00000000000E+00 0. -1.
         13    1    3    3    0    0 -0.26741997633E+02  0.63491290706E+02 -0.13580771788E+02  0.70219055784E+02  0.00000000000E+00 0.  1.
         21    1    1    2  502  501  0.16500945589E+02  0.31265801981E+02  0.60336313335E+02  0.69930696305E+02  0.00000000000E+00 0. -1.
<scales pt_clust_5="13000.00000" pt_clust_6="13000.00000" pt_clust_7="13000.00000" pt_clust_8="13000.00000" pt_clust_9="35.35296"></scales>
<clustering>
<clus scale="   35.353">  1  9  2 -1</clus>
<clus scale="   90.642">  5  6 -1 -1</clus>
<clus scale="   91.401">  7  8 -1 -1</clus>
<clus scale="  134.979">  1  5  2 -1</clus>
<clus scale="   35.353">  1  5  2 -1</clus>
</clustering>
</event>
<event>
 9    1  0.1296032E-005  0.3941134E+03  0.7546771E-02  0.1045920E+00
         -1   -1    0    0    0  501 -0.00000000000E+00  0.00000000000E+00  0.69619101403E+02  0.69619101403E+02  0.00000000000E+00 0.  1.
          1   -1    0    0  502    0  0.00000000000E+00 -0.00000000000E+00 -0.32212632477E+04  0.32212632477E+04  0.00000000000E+00 0. -1.
         23    2    1    2    0    0  0.22392903178E+03  0.28157992520E+03 -0.82780993353E+03  0.90726676649E+03  0.91827196266E+02 0.  0.
         23    2    1    2    0    0 -0.30341030266E+03 -0.31178100569E+03 -0.19508470415E+04  0.20010599558E+04  0.95768262380E+02 0.  0.
        -11    1    3    3    0    0  0.93387702330E+02  0.89234565905E+02 -0.20294953749E+03  0.24056721611E+03  0.00000000000E+00 0.  1.
         11    1    3    3    0    0  0.13054132945E+03  0.19234535929E+03 -0.62486039605E+03  0.66669955038E+03  0.00000000000E+00 0. -1.
        -11    1    4    4    0    0 -0.12855772491E+03 -0.74491331625E+02 -0.74916039049E+03  0.76375214421E+03  0.00000000000E+00 0.  1.
         11    1    4    4    0    0 -0.17485257775E+03 -0.23728967407E+03 -0.12016866510E+04  0.12373078115E+04  0.00000000000E+00 0. -1.
         21    1    1    2  502  501  0.79481270881E+02  0.30201080495E+02 -0.37298717127E+03  0.38255562682E+03  0.00000000000E+00 0.  1.
<scales pt_clust_5="13000.00000" pt_clust_6="13000.00000" pt_clust_7="13000.00000" pt_clust_8="13000.00000" pt_clust_9="85.02575"></scales>
<clustering>
<clus scale="   85.026">  2  9  1 -1</clus>
<clus scale="   91.827">  5  6 -1 -1</clus>
<clus scale="   95.768">  7  8 -1 -1</clus>
<clus scale="  393.174">  1  5  2 -1</clus>
<clus scale="   85.026">  2  5  1 -1</clus>
</clustering>
</event>
<event>
 9    1  0.1296032E-005  0.9712071E+02  0.7546771E-02  0.1288910E+00
          4   -1    0    0  502    0  0.00000000000E+00  0.00000000000E+00  0.59790343724E+02  0.59790343724E+02  0.00000000000E+00 0. -1.
         -4   -1    0    0    0  501 -0.00000000000E+00 -0.00000000000E+00 -0.38601339880E+03  0.38601339880E+03  0.00000000000E+00 0.  1.
         23    2    1    2    0    0  0.29172863196E+02  0.35799618766E+02 -0.25837718798E+03  0.27952553189E+03  0.96140954114E+02 0.  0.
         23    2    1    2    0    0 -0.10756444795E+02  0.66422377127E+01 -0.11417937638E+02  0.93308443809E+02  0.91740263569E+02 0.  0.
        -11    1    4    4    0    0 -0.10301709276E+01  0.41714443651E+02  0.19024564996E+02  0.45859460687E+02  0.00000000000E+00 0.  1.
         11    1    4    4    0    0 -0.97262738673E+01 -0.35072205938E+02 -0.30442502634E+02  0.47448983122E+02  0.00000000000E+00 0. -1.
        -11    1    3    3    0    0 -0.31000008026E+02  0.14705786246E+01 -0.41292731813E+02  0.51655133333E+02  0.00000000000E+00 0. -1.
         11    1    3    3    0    0  0.60172871222E+02  0.34329040141E+02 -0.21708445616E+03  0.22787039855E+03  0.00000000000E+00 0.  1.
         21    1    1    2  502  501 -0.18416418401E+02 -0.42441856478E+02 -0.56427929462E+02  0.72969766831E+02  0.00000000000E+00 0. -1.
<scales pt_clust_5="13000.00000" pt_clust_6="13000.00000" pt_clust_7="13000.00000" pt_clust_8="13000.00000" pt_clust_9="46.26527"></scales>
<clustering>
<clus scale="   46.265">  2  9  1 -1</clus>
<clus scale="   91.740">  5  6 -1 -1</clus>
<clus scale="   92.767">  1  5  2 -1</clus>
<clus scale="   96.141">  7  8 -1 -1</clus>
<clus scale="   92.767">  1  5  2 -1</clus>
</clustering>
</event>
<event>
 9    1  0.1296032E-005  0.9694452E+02  0.7546771E-02  0.1287359E+00
          2   -1    0    0  502    0  0.00000000000E+00  0.00000000000E+00  0.25563779077E+03  0.25563779077E+03  0.00000000000E+00 0. -1.
         -2   -1    0    0    0  501 -0.00000000000E+00 -0.00000000000E+00 -0.10230855034E+03  0.10230855034E+03  0.00000000000E+00 0.  1.
         23    2    1    2    0    0  0.17415878894E+02  0.15370984420E+02 -0.47959588767E+02  0.10697379200E+03  0.92756078073E+02 0.  0.
         23    2    1    2    0    0 -0.48700332619E+02 -0.16726546797E+02  0.10087380049E+03  0.14578826995E+03  0.91799761788E+02 0.  0.
        -11    1    4    4    0    0 -0.93779627463E+01 -0.51196042463E+02  0.40724944227E+02  0.66087079156E+02  0.00000000000E+00 0.  1.
         11    1    4    4    0    0 -0.39322369872E+02  0.34469495666E+02  0.60148856266E+02  0.79701190794E+02  0.00000000000E+00 0. -1.
        -13    1    3    3    0    0  0.46131586498E+02  0.12431851727E+02 -0.59131880560E+02  0.76021401650E+02  0.00000000000E+00 0.  1.
         13    1    3    3    0    0 -0.28715707604E+02  0.29391326934E+01  0.11172291793E+02  0.30952390345E+02  0.00000000000E+00 0. -1.
         21    1    1    2  502  501  0.31284453725E+02  0.13555623765E+01  0.10041502871E+03  0.10518427917E+03  0.00000000000E+00 0. -1.
<scales pt_clust_5="13000.00000" pt_clust_6="13000.00000" pt_clust_7="13000.00000" pt_clust_8="13000.00000" pt_clust_9="31.31381"></scales>
<clustering>
<clus scale="   31.314">  1  9  2 -1</clus>
<clus scale="   91.800">  5  6 -1 -1</clus>
<clus scale="   92.756">  7  8 -1 -1</clus>
<clus scale="   96.030">  1  5  2 -1</clus>
<clus scale="   31.314">  1  5  2 -1</clus>
</clustering>
</event>
<event>
 9    1  0.1296032E-005  0.1053103E+03  0.7546771E-02  0.1270821E+00
         -1   -1    0    0    0  501 -0.00000000000E+00  0.00000000000E+00  0.14275370967E+03  0.14275370967E+03  0.00000000000E+00 0.  1.
          1   -1    0    0  502    0  0.00000000000E+00 -0.00000000000E+00 -0.39069628379E+03  0.39069628379E+03  0.00000000000E+00 0. -1.
         23    2    1    2    0    0 -0.30505553927E+02  0.33082243765E+02  0.89529568633E+02  0.13609130114E+03  0.92088408145E+02 0.  0.
         23    2    1    2    0    0  0.48367266907E+02 -0.92806498993E+02 -0.16959794688E+03  0.21828392275E+03  0.89061599924E+02 0.  0.
        -11    1    4    4    0    0 -0.68269468412E+00 -0.66719306344E+02 -0.41290998714E+02  0.78465779075E+02  0.00000000000E+00 0.  1.
         11    1    4    4    0    0  0.49049961592E+02 -0.26087192649E+02 -0.12830694817E+03  0.13981814368E+03  0.00000000000E+00 0. -1.
        -11    1    3    3    0    0 -0.45422747116E+01  0.55941318748E+02  0.84051521805E+02  0.10106790648E+03  0.00000000000E+00 0.  1.
         11    1    3    3    0    0 -0.25963279216E+02 -0.22859074983E+02  0.54780468281E+01  0.35023394663E+02  0.00000000000E+00 0. -1.
         21    1    1    2  502  501 -0.17861712980E+02  0.59724255228E+02 -0.16787419587E+03  0.17907476956E+03  0.00000000000E+00 0. -1.
<scales pt_clust_5="13000.00000" pt_clust_6="13000.00000" pt_clust_7="13000.00000" pt_clust_8="13000.00000" pt_clust_9="62.33801"></scales>
<clustering>
<clus scale="   62.338">  2  9  1 -1</clus>
<clus scale="   89.062">  5  6 -1 -1</clus>
<clus scale="   92.088">  7  8 -1 -1</clus>
<clus scale="  102.674">  2  5  1 -1</clus>
<clus scale="   62.338">  2  5  1 -1</clus>
</clustering>
</event>
<event>
 9    1  0.1296032E-005  0.1212997E+03  0.7546771E-02  0.1241551E+00
          1   -1    0    0  502    0  0.00000000000E+00  0.00000000000E+00  0.77119761404E+03  0.77119761404E+03  0.00000000000E+00 0. -1.
         -1   -1    0    0    0  501 -0.00000000000E+00 -0.00000000000E+00 -0.32227423388E+02  0.32227423388E+02  0.00000000000E+00 0.  1.
         23    2    1    2    0    0  0.76173339899E+02 -0.31140469158E+02  0.13888189129E+03  0.18516265042E+03  0.90691349368E+02 0.  0.
         23    2    1    2    0    0 -0.71043130320E+02  0.39766733463E+01  0.41459587124E+03  0.43072137351E+03  0.92564706316E+02 0.  0.
        -11    1    4    4    0    0 -0.14058687527E+02 -0.39078439914E+02  0.10326482309E+03  0.11130316639E+03  0.00000000000E+00 0.  1.
         11    1    4    4    0    0 -0.56984442793E+02  0.43055113261E+02  0.31133104815E+03  0.31941820712E+03  0.00000000000E+00 0. -1.
        -13    1    3    3    0    0  0.62613798935E+02 -0.60864463426E+02  0.11636262351E+03  0.14548275112E+03  0.00000000000E+00 0.  1.
         13    1    3    3    0    0  0.13559540964E+02  0.29723994268E+02  0.22519267781E+02  0.39679899292E+02  0.00000000000E+00 0. -1.
         21    1    1    2  502  501 -0.51302095794E+01  0.27163795812E+02  0.18549242813E+03  0.18754101350E+03  0.00000000000E+00 0. -1.
<scales pt_clust_5="13000.00000" pt_clust_6="13000.00000" pt_clust_7="13000.00000" pt_clust_8="13000.00000" pt_clust_9="27.64400"></scales>
<clustering>
<clus scale="   27.644">  1  9  2 -1</clus>
<clus scale="   90.691">  7  8 -1 -1</clus>
<clus scale="   92.565">  5  6 -1 -1</clus>
<clus scale="  119.876">  2  7  1 -1</clus>
<clus scale="   27.644">  1  5  2 -1</clus>
</clustering>
</event>
<event>
 9    1  0.1296032E-005  0.2556461E+03  0.7546771E-02  0.1139358E+00
         -1   -1    0    0    0  501 -0.00000000000E+00  0.00000000000E+00  0.14969221596E+03  0.14969221596E+03  0.00000000000E+00 0.  1.
          1   -1    0    0  502    0  0.00000000000E+00 -0.00000000000E+00 -0.10352947405E+04  0.10352947405E+04  0.00000000000E+00 0. -1.
         23    2    1    2    0    0  0.72873696443E+02 -0.35477975053E+02  0.85437225056E+01  0.12306089774E+03  0.92204810132E+02 0.  0.
         23    2    1    2    0    0  0.21866381100E+03  0.22576288143E+01 -0.60516754263E+03  0.65009308132E+03  0.92597519383E+02 0.  0.
        -11    1    4    4    0    0  0.18761351912E+03 -0.13550258475E+02 -0.40040667322E+03  0.44238890811E+03  0.00000000000E+00 0. -1.
         11    1    4    4    0    0  0.31050291888E+02  0.15807887289E+02 -0.20476086941E+03  0.20770417321E+03  0.00000000000E+00 0.  1.
        -13    1    3    3    0    0  0.39506907980E+02 -0.66319318382E+02  0.26204925370E+01  0.77239334215E+02  0.00000000000E+00 0.  1.
         13    1    3    3    0    0  0.33366788462E+02  0.30841343330E+02  0.59232299687E+01  0.45821563526E+02  0.00000000000E+00 0. -1.
         21    1    1    2  502  501 -0.29153750745E+03  0.33220346238E+02 -0.28897870438E+03  0.41183297736E+03  0.00000000000E+00 0.  1.
<scales pt_clust_5="13000.00000" pt_clust_6="13000.00000" pt_clust_7="13000.00000" pt_clust_8="13000.00000" pt_clust_9="238.28690"></scales>
<clustering>
<clus scale="   92.205">  7  8 -1 -1</clus>
<clus scale="   92.598">  5  6 -1 -1</clus>
<clus scale="  122.764">  1  7  2 -1</clus>
<clus scale="  238.287">  1  9  2 -1</clus>
<clus scale="  255.646">  2  5  1 -1</clus>
</clustering>
</event>
<event>
 9    1  0.1296032E-005  0.1313174E+03  0.7546771E-02  0.1228770E+00
         -2   -1    0    0    0  501 -0.00000000000E+00  0.00000000000E+00  0.21112957057E+03  0.21112957057E+03  0.00000000000E+00 0.  1.
          2   -1    0    0  502    0  0.00000000000E+00 -0.00000000000E+00 -0.39862175986E+03  0.39862175986E+03  0.00000000000E+00 0. -1.
         23    2    1    2    0    0 -0.63680607460E+01 -0.94138882661E+02  0.17263948160E+03  0.21193064011E+03  0.78787842870E+02 0.  0.
         23    2    1    2    0    0 -0.14250491573E+02  0.92226917828E+02 -0.21811801091E+03  0.25430532554E+03  0.91579752311E+02 0.  0.
        -11    1    4    4    0    0  0.31106250309E+02  0.37590492870E+01 -0.51890789003E+02  0.60616691128E+02  0.00000000000E+00 0.  1.
         11    1    4    4    0    0 -0.45356741882E+02  0.88467868541E+02 -0.16622722191E+03  0.19368863442E+03  0.00000000000E+00 0. -1.
        -11    1    3    3    0    0 -0.16066339592E+02 -0.39309862112E+02  0.14234104529E+03  0.14854078800E+03  0.00000000000E+00 0.  1.
         11    1    3    3    0    0  0.96982788458E+01 -0.54829020549E+02  0.30298436308E+02  0.63389852103E+02  0.00000000000E+00 0. -1.
         21    1    1    2  502  501  0.20618552319E+02  0.19119648329E+01 -0.14201365997E+03  0.14351536478E+03  0.00000000000E+00 0. -1.
<scales pt_clust_5="13000.00000" pt_clust_6="13000.00000" pt_clust_7="13000.00000" pt_clust_8="13000.00000" pt_clust_9="20.70701"></scales>
<clustering>
<clus scale="   20.707">  2  9  1 -1</clus>
<clus scale="   78.788">  7  8 -1 -1</clus>
<clus scale="   91.580">  5  6 -1 -1</clus>
<clus scale="  122.739">  1  7  2 -1</clus>
<clus scale="   20.707">  2  5  1 -1</clus>
</clustering>
</event>
<event>
 9    1  0.1296032E-005  0.1005962E+03  0.7546771E-02  0.1279450E+00
         -2   -1    0    0    0  501 -0.00000000000E+00  0.00000000000E+00  0.21652735113E+03  0.21652735113E+03  0.00000000000E+00 0.  1.
          2   -1    0    0  502    0  0.00000000000E+00 -0.00000000000E+00 -0.15215247440E+03  0.15215247440E+03  0.00000000000E+00 0. -1.
         23    2    1    2    0    0  0.47608396256E+02 -0.77180755102E+01  0.12532180434E+03  0.16277834219E+03  0.92006010441E+02 0.  0.
         23    2    1    2    0    0 -0.28297518703E+02 -0.15941777928E+02  0.36766682965E+02  0.10352644562E+03  0.91164939083E+02 0.  0.
        -11    1    4    4    0    0 -0.26758738440E+02 -0.53129636274E+02  0.24530822774E+02  0.64347102495E+02  0.00000000000E+00 0.  1.
         11    1    4    4    0    0 -0.15387802633E+01  0.37187858346E+02  0.12235860191E+02  0.39179343125E+02  0.00000000000E+00 0. -1.
        -11    1    3    3    0    0  0.43388739529E+02  0.35153728279E+02  0.45332615619E+02  0.71926444154E+02  0.00000000000E+00 0. -1.
         11    1    3    3    0    0  0.42196567266E+01 -0.42871803789E+02  0.79989188726E+02  0.90851898033E+02  0.00000000000E+00 0.  1.
         21    1    1    2  502  501 -0.19310877552E+02  0.23659853438E+02 -0.97713610584E+02  0.10237503773E+03  0.00000000000E+00 0. -1.
<scales pt_clust_5="13000.00000" pt_clust_6="13000.00000" pt_clust_7="13000.00000" pt_clust_8="13000.00000" pt_clust_9="30.54012"></scales>
<clustering>
<clus scale="   30.540">  2  9  1 -1</clus>
<clus scale="   91.165">  5  6 -1 -1</clus>
<clus scale="   92.006">  7  8 -1 -1</clus>
<clus scale="   99.828">  2  5  1 -1</clus>
<clus scale="   30.540">  2  5  1 -1</clus>
</clustering>
</event>
<event>
 9    1  0.1296032E-005  0.9566536E+02  0.7546771E-02  0.1291017E+00
         -1   -1    0    0    0  501 -0.00000000000E+00  0.00000000000E+00  0.10501956920E+03  0.10501956920E+03  0.00000000000E+00 0.  1.
          1   -1    0    0  502    0  0.00000000000E+00 -0.00000000000E+00 -0.12525211226E+03  0.12525211226E+03  0.00000000000E+00 0. -1.
         23    2    1    2    0    0 -0.25208680270E+02 -0.12752694617E+02  0.91361371436E+01  0.93487301435E+02  0.88647040259E+02 0.  0.
         23    2    1    2    0    0  0.64847687114E+01  0.37542591511E+02 -0.80286475737E+01  0.99094582413E+02  0.91125071628E+02 0.  0.
        -13    1    3    3    0    0 -0.39467658005E+02 -0.35545182797E+02  0.28572626688E+02  0.60312113579E+02  0.00000000000E+00 0.  1.
         13    1    3    3    0    0  0.14258977735E+02  0.22792488180E+02 -0.19436489544E+02  0.33175187856E+02  0.00000000000E+00 0. -1.
        -13    1    4    4    0    0  0.45460796999E+02  0.38425350621E+02 -0.13457713443E+01  0.59539925551E+02  0.00000000000E+00 0.  1.
         13    1    4    4    0    0 -0.38976028288E+02 -0.88275911011E+00 -0.66828762293E+01  0.39554656862E+02  0.00000000000E+00 0. -1.
         21    1    1    2  502  501  0.18723911559E+02 -0.24789896893E+02 -0.21340032630E+02  0.37689797621E+02  0.00000000000E+00 0. -1.
<scales pt_clust_5="13000.00000" pt_clust_6="13000.00000" pt_clust_7="13000.00000" pt_clust_8="13000.00000" pt_clust_9="31.06644"></scales>
<clustering>
<clus scale="   31.066">  2  9  1 -1</clus>
<clus scale="   88.647">  5  6 -1 -1</clus>
<clus scale="   91.125">  7  8 -1 -1</clus>
<clus scale="   93.308">  1  5  2 -1</clus>
<clus scale="   31.066">  2  5  1 -1</clus>
</clustering>
</event>
<event>
 9    1  0.1296032E-005  0.1179398E+03  0.7546771E-02  0.1248522E+00
         -1   -1    0    0    0  501 -0.00000000000E+00  0.00000000000E+00  0.83287390289E+02  0.83287390289E+02  0.00000000000E+00 0.  1.
          1   -1    0    0  502    0  0.00000000000E+00 -0.00000000000E+00 -0.70512112371E+03  0.70512112371E+03  0.00000000000E+00 0. -1.
         23    2    1    2    0    0  0.76206207743E+01 -0.79614838934E+02  0.19949117465E+02  0.12593915652E+03  0.95216109027E+02 0.  0.
         23    2    1    2    0    0 -0.11893555139E+02  0.11655107570E+02 -0.28244505055E+03  0.29673661652E+03  0.89443360953E+02 0.  0.
        -11    1    4    4    0    0 -0.50229463824E+01  0.50058787882E+02 -0.18640523530E+03  0.19307517702E+03  0.00000000000E+00 0. -1.
         11    1    4    4    0    0 -0.68706087571E+01 -0.38403680312E+02 -0.96039815253E+02  0.10366143950E+03  0.00000000000E+00 0.  1.
        -13    1    3    3    0    0 -0.11450899617E+02 -0.97293290411E+02  0.19738124688E+02  0.99933483014E+02  0.00000000000E+00 0.  1.
         13    1    3    3    0    0  0.19071520391E+02  0.17678451477E+02  0.21099277738E+00  0.26005673508E+02  0.00000000000E+00 0. -1.
         21    1    1    2  502  501  0.42729343652E+01  0.67959731364E+02 -0.35933780033E+03  0.36573274095E+03  0.00000000000E+00 0. -1.
<scales pt_clust_5="13000.00000" pt_clust_6="13000.00000" pt_clust_7="13000.00000" pt_clust_8="13000.00000" pt_clust_9="68.09393"></scales>
<clustering>
<clus scale="   68.094">  2  9  1 -1</clus>
<clus scale="   89.443">  5  6 -1 -1</clus>
<clus scale="   95.216">  7  8 -1 -1</clus>
<clus scale="  113.330">  2  5  1 -1</clus>
<clus scale="   68.094">  2  5  1 -1</clus>
</clustering>
</event>
<event>
 9    1  0.1296032E-005  0.9340308E+02  0.7546771E-02  0.1297073E+00
          2   -1    0    0  502    0  0.00000000000E+00  0.00000000000E+00  0.80620650465E+02  0.80620650465E+02  0.00000000000E+00 0. -1.
         -2   -1    0    0    0  501 -0.00000000000E+00 -0.00000000000E+00 -0.20392278191E+03  0.20392278191E+03  0.00000000000E+00 0.  1.
         23    2    1    2    0    0  0.37033320907E+01  0.20137485217E+02 -0.84232122408E+02  0.12698120220E+03  0.92789774695E+02 0.  0.
         23    2    1    2    0    0 -0.43889514894E+01  0.45221287857E-01 -0.74953809936E+02  0.11638627988E+03  0.88929340377E+02 0.  0.
        -11    1    4    4    0    0  0.83678480560E+01 -0.20128769535E+02 -0.86972153534E+02  0.89662387512E+02  0.00000000000E+00 0.  1.
         11    1    4    4    0    0 -0.12756799545E+02  0.20173990822E+02  0.12018343598E+02  0.26723892366E+02  0.00000000000E+00 0. -1.
        -13    1    3    3    0    0 -0.19620789157E+02  0.47956572840E+02 -0.25052070158E+02  0.57553579080E+02  0.00000000000E+00 0.  1.
         13    1    3    3    0    0  0.23324121248E+02 -0.27819087623E+02 -0.59180052250E+02  0.69427623122E+02  0.00000000000E+00 0. -1.
         21    1    1    2  502  501  0.68561939871E+00 -0.20182706505E+02  0.35883800898E+02  0.41175950295E+02  0.00000000000E+00 0. -1.
<scales pt_clust_5="13000.00000" pt_clust_6="13000.00000" pt_clust_7="13000.00000" pt_clust_8="13000.00000" pt_clust_9="20.19435"></scales>
<clustering>
<clus scale="   20.194">  1  9  2 -1</clus>
<clus scale="   88.929">  5  6 -1 -1</clus>
<clus scale="   89.569">  1  5  2 -1</clus>
<clus scale="   92.790">  7  8 -1 -1</clus>
<clus scale="   20.194">  1  5  2 -1</clus>
</clustering>
</event>
<event>
 9    1  0.1296032E-005  0.9548857E+02  0.7546771E-02  0.1290341E+00
         -2   -1    0    0    0  501 -0.00000000000E+00  0.00000000000E+00  0.98628235651E+02  0.98628235651E+02  0.00000000000E+00 0.  1.
          2   -1    0    0  502    0  0.00000000000E+00 -0.00000000000E+00 -0.64814357025E+03  0.64814357025E+03  0.00000000000E+00 0. -1.
         23    2    1    2    0    0  0.65421364391E+02  0.69257495177E+01  0.59867468933E+01  0.11251070847E+03  0.91076327645E+02 0.  0.
         23    2    1    2    0    0  0.17131173160E+02 -0.31516954198E+01 -0.23826868952E+02  0.96201903131E+02  0.91562416985E+02 0.  0.
        -11    1    3    3    0    0  0.11390493479E+02 -0.16467151328E+02 -0.35311557420E+02  0.40593306123E+02  0.00000000000E+00 0. -1.
         11    1    3    3    0    0  0.54030870912E+02  0.23392900846E+02  0.41298304313E+02  0.71917402349E+02  0.00000000000E+00 0.  1.
        -11    1    4    4    0    0 -0.34442278041E+02 -0.46389225269E+01  0.78903995670E+01  0.35637740167E+02  0.00000000000E+00 0. -1.
         11    1    4    4    0    0  0.51573451201E+02  0.14872271070E+01 -0.31717268519E+02  0.60564162964E+02  0.00000000000E+00 0.  1.
         21    1    1    2  502  501 -0.82552537551E+02 -0.37740540978E+01 -0.53167521254E+03  0.53805919429E+03  0.00000000000E+00 0. -1.
<scales pt_clust_5="13000.00000" pt_clust_6="13000.00000" pt_clust_7="13000.00000" pt_clust_8="13000.00000" pt_clust_9="82.63876"></scales>
<clustering>
<clus scale="   82.639">  2  9  1 -1</clus>
<clus scale="   91.076">  5  6 -1 -1</clus>
<clus scale="   91.562">  7  8 -1 -1</clus>
<clus scale="   95.023">  1  5  2 -1</clus>
<clus scale="   82.639">  2  5  1 -1</clus>
</clustering>
</event>
<event>
 9    1  0.1296032E-005  0.9368655E+02  0.7546771E-02  0.1294808E+00
          1   -1    0    0  502    0  0.00000000000E+00  0.00000000000E+00  0.48386197978E+03  0.48386197978E+03  0.00000000000E+00 0. -1.
         -1   -1    0    0    0  501 -0.00000000000E+00 -0.00000000000E+00 -0.33270973311E+02  0.33270973311E+02  0.00000000000E+00 0.  1.
         23    2    1    2    0    0  0.55972687724E+01  0.97432165378E+01  0.89360564118E+02  0.12743088439E+03  0.90150209043E+02 0.  0.
         23    2    1    2    0    0 -0.45317658085E+02 -0.10806386553E+02  0.21520755167E+03  0.23836957298E+03  0.91297836250E+02 0.  0.
        -11    1    4    4    0    0  0.14402513981E+02  0.23864799411E+02  0.31235148563E+02  0.41864012775E+02  0.00000000000E+00 0.  1.
         11    1    4    4    0    0 -0.59720172066E+02 -0.34671185964E+02  0.18397240311E+03  0.19650556021E+03  0.00000000000E+00 0. -1.
        -13    1    3    3    0    0 -0.11710286422E+02 -0.29480303170E+02  0.76271748014E+02  0.82605076286E+02  0.00000000000E+00 0. -1.
         13    1    3    3    0    0  0.17307555194E+02  0.39223519708E+02  0.13088816104E+02  0.44825808103E+02  0.00000000000E+00 0.  1.
         21    1    1    2  502  501  0.39720389313E+02  0.10631700150E+01  0.14602289068E+03  0.15133249572E+03  0.00000000000E+00 0.  1.
<scales pt_clust_5="13000.00000" pt_clust_6="13000.00000" pt_clust_7="13000.00000" pt_clust_8="13000.00000" pt_clust_9="39.73462"></scales>
<clustering>
<clus scale="   39.735">  1  9  2 -1</clus>
<clus scale="   90.150">  7  8 -1 -1</clus>
<clus scale="   91.298">  5  6 -1 -1</clus>
<clus scale="   92.569">  2  7  1 -1</clus>
<clus scale="   39.735">  1  5  2 -1</clus>
</clustering>
</event>
<event>
 9    1  0.1296032E-005  0.9839899E+02  0.7546771E-02  0.1284138E+00
         -1   -1    0    0    0  501 -0.00000000000E+00  0.00000000000E+00  0.27483728600E+02  0.27483728600E+02  0.00000000000E+00 0.  1.
          1   -1    0    0  502    0  0.00000000000E+00 -0.00000000000E+00 -0.54156403108E+03  0.54156403108E+03  0.00000000000E+00 0. -1.
         23    2    1    2    0    0  0.66593514949E+01  0.41225406709E+02 -0.13730963160E+03  0.17057726252E+03  0.92188862879E+02 0.  0.
         23    2    1    2    0    0  0.64832726364E+01 -0.24563889801E+02 -0.21057743751E+03  0.23092788905E+03  0.91320398847E+02 0.  0.
        -11    1    4    4    0    0 -0.35035609635E+02  0.71204641155E+01 -0.45984996428E+02  0.58247874194E+02  0.00000000000E+00 0.  1.
         11    1    4    4    0    0  0.41518882271E+02 -0.31684353917E+02 -0.16459244109E+03  0.17268001486E+03  0.00000000000E+00 0. -1.
        -13    1    3    3    0    0 -0.26125460844E+02  0.30204459426E+02 -0.13700560231E+02  0.42220308196E+02  0.00000000000E+00 0.  1.
         13    1    3    3    0    0  0.32784812339E+02  0.11020947283E+02 -0.12360907137E+03  0.12835695433E+03  0.00000000000E+00 0. -1.
         21    1    1    2  502  501 -0.13142624131E+02 -0.16661516907E+02 -0.16619323336E+03  0.16754260810E+03  0.00000000000E+00 0. -1.
<scales pt_clust_5="13000.00000" pt_clust_6="13000.00000" pt_clust_7="13000.00000" pt_clust_8="13000.00000" pt_clust_9="21.22109"></scales>
<clustering>
<clus scale="   21.221">  2  9  1 -1</clus>
<clus scale="   91.320">  5  6 -1 -1</clus>
<clus scale="   92.189">  7  8 -1 -1</clus>
<clus scale="   97.586">  2  5  1 -1</clus>
<clus scale="   21.221">  2  5  1 -1</clus>
</clustering>
</event>
<event>
 9    1  0.1296032E-005  0.9547724E+02  0.7546771E-02  0.1293929E+00
         -2   -1    0    0    0  501 -0.00000000000E+00  0.00000000000E+00  0.28555980746E+02  0.28555980746E+02  0.00000000000E+00 0.  1.
          2   -1    0    0  502    0  0.00000000000E+00 -0.00000000000E+00 -0.66848618132E+03  0.66848618132E+03  0.00000000000E+00 0. -1.
         23    2    1    2    0    0  0.14742056555E+02 -0.20724996109E+02 -0.82698517249E+02  0.12619094233E+03  0.91859977555E+02 0.  0.
         23    2    1    2    0    0  0.10270830699E+02  0.37816168173E+02 -0.41336757590E+03  0.42383205739E+03  0.85001808961E+02 0.  0.
        -13    1    4    4    0    0  0.47760435769E+02  0.22439998461E+02 -0.21656560830E+03  0.22290194134E+03  0.00000000000E+00 0.  1.
         13    1    4    4    0    0 -0.37489605070E+02  0.15376169712E+02 -0.19680196760E+03  0.20093011605E+03  0.00000000000E+00 0. -1.
        -13    1    3    3    0    0  0.47989170139E+02  0.68850410653E+01 -0.26352200265E+02  0.55179730879E+02  0.00000000000E+00 0.  1.
         13    1    3    3    0    0 -0.33247113584E+02 -0.27610037174E+02 -0.56346316984E+02  0.71011211453E+02  0.00000000000E+00 0. -1.
         21    1    1    2  502  501 -0.25012887254E+02 -0.17091172063E+02 -0.14386410742E+03  0.14701916234E+03  0.00000000000E+00 0. -1.
<scales pt_clust_5="13000.00000" pt_clust_6="13000.00000" pt_clust_7="13000.00000" pt_clust_8="13000.00000" pt_clust_9="30.29443"></scales>
<clustering>
<clus scale="   30.294">  2  9  1 -1</clus>
<clus scale="   85.002">  5  6 -1 -1</clus>
<clus scale="   88.899">  2  5  1 -1</clus>
<clus scale="   91.860">  7  8 -1 -1</clus>
<clus scale="   30.294">  2  5  1 -1</clus>
</clustering>
</event>
<event>
 9    1  0.1296032E-005  0.2213596E+03  0.7546771E-02  0.1132885E+00
          1   -1    0    0  502    0  0.00000000000E+00  0.00000000000E+00  0.98313475456E+03  0.98313475456E+03  0.00000000000E+00 0. -1.
         -1   -1    0    0    0  501 -0.00000000000E+00 -0.00000000000E+00 -0.23799788388E+03  0.23799788388E+03  0.00000000000E+00 0.  1.
         23    2    1    2    0    0  0.15855845466E+03 -0.10428210740E+03 -0.10109132261E+03  0.23309191483E+03  0.89982463760E+02 0.  0.
         23    2    1    2    0    0 -0.31749761584E+03  0.11244721400E+03  0.62287808233E+03  0.71378974733E+03  0.89830874158E+02 0.  0.
        -11    1    3    3    0    0  0.14634530298E+03 -0.83568332616E+02 -0.11619156759E+03  0.20469756789E+03  0.00000000000E+00 0.  1.
         11    1    3    3    0    0  0.12213151673E+02 -0.20713774789E+02  0.15100244977E+02  0.28394346940E+02  0.00000000000E+00 0. -1.
        -11    1    4    4    0    0 -0.17804358431E+03  0.98588433141E+02  0.42611480441E+03  0.47222137139E+03  0.00000000000E+00 0. -1.
         11    1    4    4    0    0 -0.13945403153E+03  0.13858780858E+02  0.19676327792E+03  0.24156837594E+03  0.00000000000E+00 0.  1.
         21    1    1    2  502  501  0.15893916118E+03 -0.81651065942E+01  0.22335011096E+03  0.27425097627E+03  0.00000000000E+00 0. -1.
<scales pt_clust_5="13000.00000" pt_clust_6="13000.00000" pt_clust_7="13000.00000" pt_clust_8="13000.00000" pt_clust_9="159.14875"></scales>
<clustering>
<clus scale="   89.831">  7  8 -1 -1</clus>
<clus scale="   89.982">  5  6 -1 -1</clus>
<clus scale="  159.149">  1  9  2 -1</clus>
<clus scale="  221.298">  1  7  2 -1</clus>
<clus scale="  159.149">  1  5  2 -1</clus>
</clustering>
</event>
<event>
 9    1  0.1296032E-005  0.1043439E+03  0.7546771E-02  0.1271953E+00
          1   -1    0    0  502    0  0.00000000000E+00  0.00000000000E+00  0.59635838183E+02  0.59635838183E+02  0.00000000000E+00 0. -1.
         -1   -1    0    0    0  501 -0.00000000000E+00 -0.00000000000E+00 -0.47479830378E+03  0.47479830378E+03  0.00000000000E+00 0.  1.
         23    2    1    2    0    0  0.54175843401E+02  0.12421450989E+02 -0.33804127320E+03  0.35472817758E+03  0.92037292064E+02 0.  0.
         23    2    1    2    0    0 -0.60693696809E+01  0.12670687452E+02 -0.12168721729E+02  0.95073395763E+02  0.93238882579E+02 0.  0.
        -11    1    3    3    0    0  0.61955693902E+02 -0.68589266183E+01 -0.32326838222E+03  0.32922332819E+03  0.00000000000E+00 0.  1.
         11    1    3    3    0    0 -0.77798505008E+01  0.19280377607E+02 -0.14772890975E+02  0.25504849387E+02  0.00000000000E+00 0. -1.
        -13    1    4    4    0    0  0.30511975079E+02  0.20717593077E+02 -0.35299018055E+02  0.51051150446E+02  0.00000000000E+00 0.  1.
         13    1    4    4    0    0 -0.36581344760E+02 -0.80469056255E+01  0.23130296327E+02  0.44022245317E+02  0.00000000000E+00 0. -1.
         21    1    1    2  502  501 -0.48106473721E+02 -0.25092138440E+02 -0.64952470672E+02  0.84632568623E+02  0.00000000000E+00 0.  1.
<scales pt_clust_5="13000.00000" pt_clust_6="13000.00000" pt_clust_7="13000.00000" pt_clust_8="13000.00000" pt_clust_9="54.25724"></scales>
<clustering>
<clus scale="   54.257">  1  9  2 -1</clus>
<clus scale="   92.037">  5  6 -1 -1</clus>
<clus scale="   93.239">  7  8 -1 -1</clus>
<clus scale="  103.272">  2  5  1 -1</clus>
<clus scale="   54.257">  1  5  2 -1</clus>
</clustering>
</event>
<event>
 9    1  0.1296032E-005  0.1105481E+03  0.7546771E-02  0.1261266E+00
         -3   -1    0    0    0  501 -0.00000000000E+00  0.00000000000E+00  0.66611822338E+02  0.66611822338E+02  0.00000000000E+00 0.  1.
          3   -1    0    0  502    0  0.00000000000E+00 -0.00000000000E+00 -0.44025098931E+03  0.44025098931E+03  0.00000000000E+00 0. -1.
         23    2    1    2    0    0  0.60735995951E+02  0.11001070333E+02 -0.26822303206E+00  0.11149929098E+03  0.92855453223E+02 0.  0.
         23    2    1    2    0    0 -0.53572702715E+02  0.11741727409E+02 -0.27236720601E+03  0.29158345180E+03  0.88482268352E+02 0.  0.
        -13    1    3    3    0    0  0.84178074262E+02 -0.29285485361E+01 -0.45722927607E+00  0.84230241847E+02  0.00000000000E+00 0.  1.
         13    1    3    3    0    0 -0.23442078311E+02  0.13929618869E+02  0.18900624401E+00  0.27269049135E+02  0.00000000000E+00 0. -1.
        -13    1    4    4    0    0 -0.25642466021E+02  0.46623910587E+02 -0.19608310854E+03  0.20317458147E+03  0.00000000000E+00 0.  1.
         13    1    4    4    0    0 -0.27930236694E+02 -0.34882183177E+02 -0.76284097474E+02  0.88408870326E+02  0.00000000000E+00 0. -1.
         21    1    1    2  502  501 -0.71632932362E+01 -0.22742797742E+02 -0.10100373793E+03  0.10378006887E+03  0.00000000000E+00 0. -1.
<scales pt_clust_5="13000.00000" pt_clust_6="13000.00000" pt_clust_7="13000.00000" pt_clust_8="13000.00000" pt_clust_9="23.84424"></scales>
<clustering>
<clus scale="   23.844">  2  9  1 -1</clus>
<clus scale="   88.482">  7  8 -1 -1</clus>
<clus scale="   92.855">  5  6 -1 -1</clus>
<clus scale="  106.901">  2  7  1 -1</clus>
<clus scale="   23.844">  2  5  1 -1</clus>
</clustering>
</event>
<event>
 9    1  0.1296032E-005  0.2756913E+03  0.7546771E-02  0.1098387E+00
         -1   -1    0    0    0  501 -0.00000000000E+00  0.00000000000E+00  0.16584022894E+04  0.16584022894E+04  0.00000000000E+00 0.  1.
          1   -1    0    0  502    0  0.00000000000E+00 -0.00000000000E+00 -0.64488678870E+02  0.64488678870E+02  0.00000000000E+00 0. -1.
         23    2    1    2    0    0  0.17012460561E+03  0.21050533571E+03  0.11288649965E+04  0.11645007206E+04  0.92037330061E+02 0.  0.
         23    2    1    2    0    0 -0.11544435861E+03 -0.20999838535E+03  0.38946006352E+03  0.46509600680E+03  0.84902489256E+02 0.  0.
        -11    1    3    3    0    0  0.76221649306E+02  0.42058559935E+02  0.46986815667E+03  0.47786477893E+03  0.00000000000E+00 0.  1.
         11    1    3    3    0    0  0.93902956307E+02  0.16844677577E+03  0.65899683987E+03  0.68663594170E+03  0.00000000000E+00 0. -1.
        -13    1    4    4    0    0 -0.45964628831E+02 -0.39945630458E+02  0.48700348523E+02  0.77975152725E+02  0.00000000000E+00 0.  1.
         13    1    4    4    0    0 -0.69479729779E+02 -0.17005275489E+03  0.34075971500E+03  0.38712085408E+03  0.00000000000E+00 0. -1.
         21    1    1    2  502  501 -0.54680247003E+02 -0.50695035639E+00  0.75588550434E+02  0.93294240806E+02  0.00000000000E+00 0. -1.
<scales pt_clust_5="13000.00000" pt_clust_6="13000.00000" pt_clust_7="13000.00000" pt_clust_8="13000.00000" pt_clust_9="54.68260"></scales>
<clustering>
<clus scale="   54.683">  2  9  1 -1</clus>
<clus scale="   84.902">  7  8 -1 -1</clus>
<clus scale="   92.037">  5  6 -1 -1</clus>
<clus scale="  273.392">  2  7  1 -1</clus>
<clus scale="   54.683">  2  5  1 -1</clus>
</clustering>
</event>
<event>
 9    1  0.1296032E-005  0.1481728E+03  0.7546771E-02  0.1204845E+00
         -2   -1    0    0    0  501 -0.00000000000E+00  0.00000000000E+00  0.84130900899E+02  0.84130900899E+02  0.00000000000E+00 0.  1.
          2   -1    0    0  502    0  0.00000000000E+00 -0.00000000000E+00 -0.49184056643E+03  0.49184056643E+03  0.00000000000E+00 0. -1.
         23    2    1    2    0    0  0.11793824669E+02 -0.11466118565E+03 -0.52770325890E+02  0.15375091488E+03  0.86996291510E+02 0.  0.
         23    2    1    2    0    0 -0.65842269886E+02  0.11905241318E+03 -0.17399993349E+03  0.23333014505E+03  0.75221660100E+02 0.  0.
        -11    1    4    4    0    0  0.36537370726E+01  0.70659101963E+02 -0.77412752395E+02  0.10487512917E+03  0.00000000000E+00 0.  1.
         11    1    4    4    0    0 -0.69496006959E+02  0.48393311213E+02 -0.96587181093E+02  0.12845501588E+03  0.00000000000E+00 0. -1.
        -13    1    3    3    0    0  0.13781903625E+02 -0.25465018849E+02 -0.57529904328E+02  0.64405729128E+02  0.00000000000E+00 0. -1.
         13    1    3    3    0    0 -0.19880789558E+01 -0.89196166799E+02  0.47595784386E+01  0.89345185749E+02  0.00000000000E+00 0.  1.
         21    1    1    2  502  501  0.54048445218E+02 -0.43912275291E+01 -0.18093940615E+03  0.18889040740E+03  0.00000000000E+00 0.  1.
<scales pt_clust_5="13000.00000" pt_clust_6="13000.00000" pt_clust_7="13000.00000" pt_clust_8="13000.00000" pt_clust_9="54.22654"></scales>
<clustering>
<clus scale="   54.227">  2  9  1 -1</clus>
<clus scale="   75.222">  5  6 -1 -1</clus>
<clus scale="   86.996">  7  8 -1 -1</clus>
<clus scale="  141.581">  2  5  1 -1</clus>
<clus scale="   54.227">  2  5  1 -1</clus>
</clustering>
</event>
<event>
 9    1  0.1296032E-005  0.2498670E+03  0.7546771E-02  0.1113409E+00
          2   -1    0    0  502    0  0.00000000000E+00  0.00000000000E+00  0.14675008821E+03  0.14675008821E+03  0.00000000000E+00 0. -1.
         -2   -1    0    0    0  501 -0.00000000000E+00 -0.00000000000E+00 -0.79197056899E+03  0.79197056899E+03  0.00000000000E+00 0.  1.
         23    2    1    2    0    0  0.23772801305E+03  0.12242325404E+03 -0.51420264113E+03  0.58708212588E+03  0.93589556350E+02 0.  0.
         23    2    1    2    0    0 -0.16734612145E+03 -0.72976167232E+02 -0.16061745377E+03  0.26067281134E+03  0.93926049441E+02 0.  0.
        -11    1    3    3    0    0  0.14656324173E+03  0.12419741542E+03 -0.35132000632E+03  0.40041419638E+03  0.00000000000E+00 0.  1.
         11    1    3    3    0    0  0.91164771318E+02 -0.17741613800E+01 -0.16288263481E+03  0.18666792949E+03  0.00000000000E+00 0. -1.
        -13    1    4    4    0    0 -0.15403233935E+03 -0.53742409154E+02 -0.16986675447E+03  0.23551841198E+03  0.00000000000E+00 0.  1.
         13    1    4    4    0    0 -0.13313782108E+02 -0.19233758078E+02  0.92493006947E+01  0.25154399360E+02  0.00000000000E+00 0. -1.
         21    1    1    2  502  501 -0.70381891594E+02 -0.49447086809E+02  0.29599614125E+02  0.90965719998E+02  0.00000000000E+00 0.  1.
<scales pt_clust_5="13000.00000" pt_clust_6="13000.00000" pt_clust_7="13000.00000" pt_clust_8="13000.00000" pt_clust_9="86.01526"></scales>
<clustering>
<clus scale="   86.015">  1  9  2 -1</clus>
<clus scale="   93.590">  5  6 -1 -1</clus>
<clus scale="   93.926">  7  8 -1 -1</clus>
<clus scale="  249.741">  2  5  1 -1</clus>
<clus scale="   86.015">  1  5  2 -1</clus>
</clustering>
</event>
<event>
 9    1  0.1296032E-005  0.9655713E+02  0.7546771E-02  0.1288470E+00
         -2   -1    0    0    0  501 -0.00000000000E+00  0.00000000000E+00  0.41757609059E+02  0.41757609059E+02  0.00000000000E+00 0.  1.
          2   -1    0    0  502    0  0.00000000000E+00 -0.00000000000E+00 -0.58412153577E+03  0.58412153577E+03  0.00000000000E+00 0. -1.
         23    2    1    2    0    0  0.24816625237E+02 -0.42452274771E+02 -0.87206756362E+02  0.13557636370E+03  0.91421395289E+02 0.  0.
         23    2    1    2    0    0  0.13270630024E+02  0.28606299317E+01 -0.12882363255E+03  0.15937723777E+03  0.92850863174E+02 0.  0.
        -11    1    4    4    0    0 -0.18075190231E+02 -0.35851342158E+02 -0.80601465505E+02  0.90047917677E+02  0.00000000000E+00 0.  1.
         11    1    4    4    0    0  0.31345820255E+02  0.38711972090E+02 -0.48222167042E+02  0.69329320095E+02  0.00000000000E+00 0. -1.
        -13    1    3    3    0    0 -0.34433680744E+01 -0.26296245895E+02  0.13485925732E+02  0.29752638954E+02  0.00000000000E+00 0.  1.
         13    1    3    3    0    0  0.28259993312E+02 -0.16156028876E+02 -0.10069268209E+03  0.10582372474E+03  0.00000000000E+00 0. -1.
         21    1    1    2  502  501 -0.38087255262E+02  0.39591644839E+02 -0.32633353780E+03  0.33092554336E+03  0.00000000000E+00 0.  1.
<scales pt_clust_5="13000.00000" pt_clust_6="13000.00000" pt_clust_7="13000.00000" pt_clust_8="13000.00000" pt_clust_9="54.93758"></scales>
<clustering>
<clus scale="   54.938">  2  9  1 -1</clus>
<clus scale="   91.421">  7  8 -1 -1</clus>
<clus scale="   92.851">  5  6 -1 -1</clus>
<clus scale="   95.183">  1  7  2 -1</clus>
<clus scale="   54.938">  2  5  1 -1</clus>
</clustering>
</event>
<event>
 9    1  0.1296032E-005  0.4832818E+03  0.7546771E-02  0.1018274E+00
         -2   -1    0    0    0  501 -0.00000000000E+00  0.00000000000E+00  0.15647846817E+04  0.15647846817E+04  0.00000000000E+00 0.  1.
          2   -1    0    0  502    0  0.00000000000E+00 -0.00000000000E+00 -0.15952177469E+03  0.15952177469E+03  0.00000000000E+00 0. -1.
         23    2    1    2    0    0 -0.47318350197E+03  0.35818332454E+02  0.73513104292E+03  0.88015401670E+03  0.95225329450E+02 0.  0.
         23    2    1    2    0    0  0.46861027652E+03 -0.60202065133E+02  0.60111238007E+03  0.77080961464E+03  0.97936145774E+02 0.  0.
        -13    1    4    4    0    0  0.27576702490E+03 -0.61376381052E+02  0.29066045660E+03  0.40533691321E+03  0.00000000000E+00 0.  1.
         13    1    4    4    0    0  0.19284325161E+03  0.11743159194E+01  0.31045192347E+03  0.36547270144E+03  0.00000000000E+00 0. -1.
        -13    1    3    3    0    0 -0.11490924661E+03  0.50218104330E+02  0.18617536782E+03  0.22447106838E+03  0.00000000000E+00 0.  1.
         13    1    3    3    0    0 -0.35827425537E+03 -0.14399771876E+02  0.54895567510E+03  0.65568294832E+03  0.00000000000E+00 0. -1.
         21    1    1    2  502  501  0.45732254556E+01  0.24383732679E+02  0.69019484052E+02  0.73342825070E+02  0.00000000000E+00 0.  1.
<scales pt_clust_5="13000.00000" pt_clust_6="13000.00000" pt_clust_7="13000.00000" pt_clust_8="13000.00000" pt_clust_9="24.80889"></scales>
<clustering>
<clus scale="   24.809">  1  9  2 -1</clus>
<clus scale="   95.225">  7  8 -1 -1</clus>
<clus scale="   97.936">  5  6 -1 -1</clus>
<clus scale="  482.740">  1  7  2 -1</clus>
<clus scale="  483.282">  2  5  1 -1</clus>
</clustering>
</event>
<event>
 9    1  0.1296032E-005  0.1586542E+03  0.7546771E-02  0.1190360E+00
         -1   -1    0    0    0  501 -0.00000000000E+00  0.00000000000E+00  0.86285597407E+02  0.86285597407E+02  0.00000000000E+00 0.  1.
          1   -1    0    0  502    0  0.00000000000E+00 -0.00000000000E+00 -0.77812549309E+03  0.77812549309E+03  0.00000000000E+00 0. -1.
         23    2    1    2    0    0 -0.30244440974E+02  0.12595381436E+03 -0.17886146783E+02  0.16019071016E+03  0.92531399060E+02 0.  0.
         23    2    1    2    0    0 -0.81950544302E+01 -0.12998287807E+03 -0.45990857919E+03  0.48671368427E+03  0.91714784678E+02 0.  0.
        -11    1    4    4    0    0 -0.12724647209E+02 -0.77264004075E+02 -0.39635649399E+03  0.40401746658E+03  0.00000000000E+00 0. -1.
         11    1    4    4    0    0  0.45295927786E+01 -0.52718873999E+02 -0.63552085202E+02  0.82696217689E+02  0.00000000000E+00 0.  1.
        -13    1    3    3    0    0 -0.55467366329E+02  0.98218882592E+02  0.10328453452E+02  0.11327071367E+03  0.00000000000E+00 0.  1.
         13    1    3    3    0    0  0.25222925356E+02  0.27734931771E+02 -0.28214600235E+02  0.46919996486E+02  0.00000000000E+00 0. -1.
         21    1    1    2  502  501  0.38439495404E+02  0.40290637116E+01 -0.21404516970E+03  0.21750669607E+03  0.00000000000E+00 0. -1.
<scales pt_clust_5="13000.00000" pt_clust_6="13000.00000" pt_clust_7="13000.00000" pt_clust_8="13000.00000" pt_clust_9="38.65007"></scales>
<clustering>
<clus scale="   38.650">  2  9  1 -1</clus>
<clus scale="   91.715">  5  6 -1 -1</clus>
<clus scale="   92.531">  7  8 -1 -1</clus>
<clus scale="  158.179">  2  5  1 -1</clus>
<clus scale="   38.650">  2  5  1 -1</clus>
</clustering>
</event>
<event>
 9    1  0.1296032E-005  0.1092095E+03  0.7546771E-02  0.1262812E+00
          1   -1    0    0  502    0  0.00000000000E+00  0.00000000000E+00  0.76244699798E+02  0.76244699798E+02  0.00000000000E+00 0. -1.
         -1   -1    0    0    0  501 -0.00000000000E+00 -0.00000000000E+00 -0.22581333078E+03  0.22581333078E+03  0.00000000000E+00 0.  1.
         23    2    1    2    0    0  0.44891882212E+02  0.11250152147E+02 -0.64538187745E+02  0.12093963620E+03  0.91210585537E+02 0.  0.
         23    2    1    2    0    0 -0.54811870308E+02 -0.45474647685E+02 -0.86108045190E+02  0.14546894158E+03  0.93136098319E+02 0.  0.
        -11    1    3    3    0    0  0.32299536786E+02  0.38030636984E+02  0.48682391667E-01  0.49895809403E+02  0.00000000000E+00 0. -1.
         11    1    3    3    0    0  0.12592345425E+02 -0.26780484836E+02 -0.64586870137E+02  0.71043826794E+02  0.00000000000E+00 0.  1.
        -13    1    4    4    0    0  0.94899008555E+01  0.18460108792E+02 -0.36805764151E+02  0.42255154829E+02  0.00000000000E+00 0. -1.
         13    1    4    4    0    0 -0.64301771164E+02 -0.63934756477E+02 -0.49302281039E+02  0.10321378675E+03  0.00000000000E+00 0.  1.
         21    1    1    2  502  501  0.99199880967E+01  0.34224495538E+02  0.10776019574E+01  0.35649452796E+02  0.00000000000E+00 0.  1.
<scales pt_clust_5="13000.00000" pt_clust_6="13000.00000" pt_clust_7="13000.00000" pt_clust_8="13000.00000" pt_clust_9="35.63316"></scales>
<clustering>
<clus scale="   35.633">  1  9  2 -1</clus>
<clus scale="   91.211">  5  6 -1 -1</clus>
<clus scale="   93.136">  7  8 -1 -1</clus>
<clus scale="  107.572">  2  5  1 -1</clus>
<clus scale="   35.633">  1  5  2 -1</clus>
</clustering>
</event>
<event>
 9    1  0.1296032E-005  0.1127993E+03  0.7546771E-02  0.1255890E+00
          2   -1    0    0  502    0  0.00000000000E+00  0.00000000000E+00  0.11821166419E+03  0.11821166419E+03  0.00000000000E+00 0. -1.
         -2   -1    0    0    0  501 -0.00000000000E+00 -0.00000000000E+00 -0.28580162427E+03  0.28580162427E+03  0.00000000000E+00 0.  1.
         23    2    1    2    0    0  0.46543349772E+02 -0.51471692098E+02 -0.22751765526E+03  0.25450392617E+03  0.90511582057E+02 0.  0.
         23    2    1    2    0    0 -0.13709290932E+02  0.46739859148E+02  0.44989285458E+02  0.11312774951E+03  0.91658566497E+02 0.  0.
        -11    1    4    4    0    0 -0.34472774697E+01  0.28025406680E+02  0.72792333999E+02  0.78077083902E+02  0.00000000000E+00 0. -1.
         11    1    4    4    0    0 -0.10262013462E+02  0.18714452468E+02 -0.27803048541E+02  0.35050665609E+02  0.00000000000E+00 0.  1.
        -11    1    3    3    0    0  0.23135097731E+02 -0.30200502782E+01 -0.28766392543E+01  0.23508051900E+02  0.00000000000E+00 0. -1.
         11    1    3    3    0    0  0.23408252041E+02 -0.48451641820E+02 -0.22464101601E+03  0.23099587427E+03  0.00000000000E+00 0.  1.
         21    1    1    2  502  501 -0.32834058840E+02  0.47318329500E+01  0.14938409730E+02  0.36381612777E+02  0.00000000000E+00 0. -1.
<scales pt_clust_5="13000.00000" pt_clust_6="13000.00000" pt_clust_7="13000.00000" pt_clust_8="13000.00000" pt_clust_9="33.17327"></scales>
<clustering>
<clus scale="   33.173">  1  9  2 -1</clus>
<clus scale="   90.512">  7  8 -1 -1</clus>
<clus scale="   91.659">  5  6 -1 -1</clus>
<clus scale="  111.869">  2  7  1 -1</clus>
<clus scale="   33.173">  1  5  2 -1</clus>
</clustering>
</event>
<event>
 9    1  0.1296032E-005  0.1160537E+03  0.7546771E-02  0.1251287E+00
         -2   -1    0    0    0  501 -0.00000000000E+00  0.00000000000E+00  0.15024523359E+03  0.15024523359E+03  0.00000000000E+00 0.  1.
          2   -1    0    0  502    0  0.00000000000E+00 -0.00000000000E+00 -0.18036185275E+03  0.18036185275E+03  0.00000000000E+00 0. -1.
         23    2    1    2    0    0 -0.68692967425E+02  0.25883123150E+02  0.67539189284E+02  0.13757891252E+03  0.94751017104E+02 0.  0.
         23    2    1    2    0    0  0.42378807369E+02 -0.40281467760E+02 -0.19662062642E+02  0.10946519321E+03  0.90429374970E+02 0.  0.
        -11    1    3    3    0    0 -0.18530386582E+02  0.15146652179E+02  0.81067366335E+02  0.84526411160E+02  0.00000000000E+00 0.  1.
         11    1    3    3    0    0 -0.50162580843E+02  0.10736470971E+02 -0.13528177051E+02  0.53052501355E+02  0.00000000000E+00 0. -1.
        -13    1    4    4    0    0  0.33057501270E+02  0.22628550993E+02  0.67074189335E+01  0.40618212405E+02  0.00000000000E+00 0.  1.
         13    1    4    4    0    0  0.93213060991E+01 -0.62910018753E+02 -0.26369481576E+02  0.68846980801E+02  0.00000000000E+00 0. -1.
         21    1    1    2  502  501  0.26314160056E+02  0.14398344610E+02 -0.77993745797E+02  0.83562980621E+02  0.00000000000E+00 0. -1.
<scales pt_clust_5="13000.00000" pt_clust_6="13000.00000" pt_clust_7="13000.00000" pt_clust_8="13000.00000" pt_clust_9="29.99579"></scales>
<clustering>
<clus scale="   29.996">  2  9  1 -1</clus>
<clus scale="   90.429">  7  8 -1 -1</clus>
<clus scale="   94.751">  5  6 -1 -1</clus>
<clus scale="  112.553">  2  7  1 -1</clus>
<clus scale="   29.996">  2  5  1 -1</clus>
</clustering>
</event>
<event>
 9    1  0.1296032E-005  0.1377018E+03  0.7546771E-02  0.1216519E+00
         -2   -1    0    0    0  501 -0.00000000000E+00  0.00000000000E+00  0.51112513516E+03  0.51112513516E+03  0.00000000000E+00 0.  1.
          2   -1    0    0  502    0  0.00000000000E+00 -0.00000000000E+00 -0.97919993335E+02  0.97919993335E+02  0.00000000000E+00 0. -1.
         23    2    1    2    0    0 -0.12032951329E+03  0.47316980925E+01  0.23878461879E+03  0.28240499095E+03  0.90735351480E+02 0.  0.
         23    2    1    2    0    0  0.45213190990E+02 -0.10506850661E+03  0.63899062623E+02  0.15953259663E+03  0.91016127489E+02 0.  0.
        -11    1    4    4    0    0 -0.21971791789E+02 -0.48050448559E+02  0.45019100997E+02  0.69414153425E+02  0.00000000000E+00 0.  1.
         11    1    4    4    0    0  0.67184982779E+02 -0.57018058049E+02  0.18879961626E+02  0.90118443205E+02  0.00000000000E+00 0. -1.
        -13    1    3    3    0    0 -0.10919302871E+03 -0.12628231642E+02  0.23754294803E+03  0.26174270174E+03  0.00000000000E+00 0.  1.
         13    1    3    3    0    0 -0.11136484577E+02  0.17359929735E+02  0.12416707551E+01  0.20662289210E+02  0.00000000000E+00 0. -1.
         21    1    1    2  502  501  0.75116322299E+02  0.10033680852E+03  0.11052146042E+03  0.16710754092E+03  0.00000000000E+00 0. -1.
<scales pt_clust_5="13000.00000" pt_clust_6="13000.00000" pt_clust_7="13000.00000" pt_clust_8="13000.00000" pt_clust_9="125.33929"></scales>
<clustering>
<clus scale="   90.735">  7  8 -1 -1</clus>
<clus scale="   91.016">  5  6 -1 -1</clus>
<clus scale="  125.339">  2  9  1 -1</clus>
<clus scale="  137.516">  1  7  2 -1</clus>
<clus scale="  125.339">  2  5  1 -1</clus>
</clustering>
</event>
<event>
 9    1  0.1296032E-005  0.1073948E+03  0.7546771E-02  0.1265922E+00
         -2   -1    0    0    0  501 -0.00000000000E+00  0.00000000000E+00  0.18561159544E+03  0.18561159544E+03  0.00000000000E+00 0. -1.
          2   -1    0    0  502    0  0.00000000000E+00 -0.00000000000E+00 -0.22776236862E+03  0.22776236862E+03  0.00000000000E+00 0.  1.
         23    2    1    2    0    0  0.36061759041E+02  0.38589010737E+02  0.14449447643E+03  0.17979163326E+03  0.93042009098E+02 0.  0.
         23    2    1    2    0    0 -0.26592706921E+02 -0.60081120400E+02 -0.17230694879E+03  0.20606577947E+03  0.91959272392E+02 0.  0.
        -11    1    3    3    0    0 -0.12965755258E+02  0.48295055390E+02  0.40273490216E+02  0.64206519908E+02  0.00000000000E+00 0.  1.
         11    1    3    3    0    0  0.49027514299E+02 -0.97060446535E+01  0.10422098622E+03  0.11558511335E+03  0.00000000000E+00 0. -1.
        -11    1    4    4    0    0 -0.28970840566E+02 -0.23967886754E+02 -0.16488930451E+03  0.16912200313E+03  0.00000000000E+00 0.  1.
         11    1    4    4    0    0  0.23781336451E+01 -0.36113233646E+02 -0.74176442728E+01  0.36943776344E+02  0.00000000000E+00 0. -1.
         21    1    1    2  502  501 -0.94690521201E+01  0.21492109664E+02 -0.14338300828E+02  0.27516551319E+02  0.00000000000E+00 0.  1.
<scales pt_clust_5="13000.00000" pt_clust_6="13000.00000" pt_clust_7="13000.00000" pt_clust_8="13000.00000" pt_clust_9="23.48561"></scales>
<clustering>
<clus scale="   23.486">  2  9  1 -1</clus>
<clus scale="   91.959">  7  8 -1 -1</clus>
<clus scale="   93.042">  5  6 -1 -1</clus>
<clus scale="  106.458">  2  7  1 -1</clus>
<clus scale="   23.486">  2  5  1 -1</clus>
</clustering>
</event>
<event>
 9    1  0.1296032E-005  0.2213675E+03  0.7546771E-02  0.1132928E+00
          2   -1    0    0  502    0  0.00000000000E+00  0.00000000000E+00  0.13317563071E+04  0.13317563071E+04  0.00000000000E+00 0. -1.
         -2   -1    0    0    0  501 -0.00000000000E+00 -0.00000000000E+00 -0.47380649037E+02  0.47380649037E+02  0.00000000000E+00 0.  1.
         23    2    1    2    0    0  0.17394748965E+03 -0.88997553586E+02  0.37369157860E+03  0.43148948361E+03  0.91430218464E+02 0.  0.
         23    2    1    2    0    0 -0.20007797375E+03  0.78018088045E+02  0.78940075848E+03  0.82309629906E+03  0.90641835806E+02 0.  0.
        -11    1    4    4    0    0 -0.12925912516E+03  0.18703112598E+02  0.57491143901E+03  0.58955991261E+03  0.00000000000E+00 0. -1.
         11    1    4    4    0    0 -0.70818848594E+02  0.59314975447E+02  0.21448931947E+03  0.23353638645E+03  0.00000000000E+00 0.  1.
        -13    1    3    3    0    0  0.59823745879E+02 -0.46282765050E+02  0.23499104832E+03  0.24686386471E+03  0.00000000000E+00 0. -1.
         13    1    3    3    0    0  0.11412374377E+03 -0.42714788535E+02  0.13870053028E+03  0.18462561890E+03  0.00000000000E+00 0.  1.
         21    1    1    2  502  501  0.26130484104E+02  0.10979465541E+02  0.12128332096E+03  0.12455117344E+03  0.00000000000E+00 0.  1.
<scales pt_clust_5="13000.00000" pt_clust_6="13000.00000" pt_clust_7="13000.00000" pt_clust_8="13000.00000" pt_clust_9="28.34344"></scales>
<clustering>
<clus scale="   28.343">  1  9  2 -1</clus>
<clus scale="   90.642">  5  6 -1 -1</clus>
<clus scale="   91.430">  7  8 -1 -1</clus>
<clus scale="  221.043">  1  5  2 -1</clus>
<clus scale="   28.343">  1  5  2 -1</clus>
</clustering>
</event>
<event>
 9    1  0.1296032E-005  0.1357503E+03  0.7546771E-02  0.1219247E+00
          1   -1    0    0  502    0  0.00000000000E+00  0.00000000000E+00  0.94411940531E+03  0.94411940531E+03  0.00000000000E+00 0. -1.
         -1   -1    0    0    0  501 -0.00000000000E+00 -0.00000000000E+00 -0.24496890788E+02  0.24496890788E+02  0.00000000000E+00 0.  1.
         23    2    1    2    0    0  0.17649893129E+02  0.10817870945E+03  0.34153870171E+03  0.37002540560E+03  0.90862336086E+02 0.  0.
         23    2    1    2    0    0 -0.22728280288E+01 -0.90536801728E+02  0.42962416123E+03  0.44829797920E+03  0.90510110082E+02 0.  0.
        -11    1    3    3    0    0 -0.35894777130E+02  0.27642099230E+02  0.12146682868E+03  0.12964070018E+03  0.00000000000E+00 0.  1.
         11    1    3    3    0    0  0.53544670260E+02  0.80536610215E+02  0.22007187303E+03  0.24038470541E+03  0.00000000000E+00 0. -1.
        -13    1    4    4    0    0 -0.37879891894E+02 -0.30226432779E+02  0.26500231456E+03  0.26939701218E+03  0.00000000000E+00 0. -1.
         13    1    4    4    0    0  0.35607063865E+02 -0.60310368949E+02  0.16462184667E+03  0.17890096702E+03  0.00000000000E+00 0.  1.
         21    1    1    2  502  501 -0.15377065100E+02 -0.17641907718E+02  0.14845965159E+03  0.15029291131E+03  0.00000000000E+00 0. -1.
<scales pt_clust_5="13000.00000" pt_clust_6="13000.00000" pt_clust_7="13000.00000" pt_clust_8="13000.00000" pt_clust_9="23.40280"></scales>
<clustering>
<clus scale="   23.403">  1  9  2 -1</clus>
<clus scale="   90.510">  7  8 -1 -1</clus>
<clus scale="   90.862">  5  6 -1 -1</clus>
<clus scale="  135.515">  1  7  2 -1</clus>
<clus scale="   23.403">  1  5  2 -1</clus>
</clustering>
</event>
<event>
 9    1  0.1296032E-005  0.9128645E+02  0.7546771E-02  0.1302156E+00
          2   -1    0    0  502    0  0.00000000000E+00  0.00000000000E+00  0.61640116478E+03  0.61640116478E+03  0.00000000000E+00 0. -1.
         -2   -1    0    0    0  501 -0.00000000000E+00 -0.00000000000E+00 -0.22170281554E+02  0.22170281554E+02  0.00000000000E+00 0.  1.
         23    2    1    2    0    0 -0.75123246700E+01 -0.46372123597E+01  0.10641143183E+03  0.13731542932E+03  0.86337683221E+02 0.  0.
         23    2    1    2    0    0  0.21707489757E+02  0.19074949281E+02  0.41299532188E+03  0.42374084871E+03  0.90311140903E+02 0.  0.
        -11    1    4    4    0    0  0.50303886541E+02 -0.94811721661E+01  0.17478602618E+03  0.18212778090E+03  0.00000000000E+00 0. -1.
         11    1    4    4    0    0 -0.28596396784E+02  0.28556121448E+02  0.23820929570E+03  0.24161306782E+03  0.00000000000E+00 0.  1.
        -13    1    3    3    0    0  0.21520218632E+02  0.24798040563E+02  0.13276912134E+02  0.35416648931E+02  0.00000000000E+00 0. -1.
         13    1    3    3    0    0 -0.29032543302E+02 -0.29435252923E+02  0.93134519693E+02  0.10189878038E+03  0.00000000000E+00 0.  1.
         21    1    1    2  502  501 -0.14195165087E+02 -0.14437736922E+02  0.74824129520E+02  0.77515168307E+02  0.00000000000E+00 0. -1.
<scales pt_clust_5="13000.00000" pt_clust_6="13000.00000" pt_clust_7="13000.00000" pt_clust_8="13000.00000" pt_clust_9="20.24725"></scales>
<clustering>
<clus scale="   20.247">  1  9  2 -1</clus>
<clus scale="   86.338">  7  8 -1 -1</clus>
<clus scale="   87.357">  2  7  1 -1</clus>
<clus scale="   90.311">  5  6 -1 -1</clus>
<clus scale="   20.247">  1  5  2 -1</clus>
</clustering>
</event>
<event>
 9    1  0.1296032E-005  0.9570441E+02  0.7546771E-02  0.1290847E+00
         -4   -1    0    0    0  501 -0.00000000000E+00  0.00000000000E+00  0.23877005368E+03  0.23877005368E+03  0.00000000000E+00 0.  1.
          4   -1    0    0  502    0  0.00000000000E+00 -0.00000000000E+00 -0.52852921574E+02  0.52852921574E+02  0.00000000000E+00 0. -1.
         23    2    1    2    0    0 -0.27661538012E+02  0.31928917748E+02  0.11048190754E+03  0.14892288410E+03  0.90482910218E+02 0.  0.
         23    2    1    2    0    0  0.13564590640E+02 -0.13822657841E+02  0.78427767825E+02  0.11955887494E+03  0.88138219979E+02 0.  0.
        -11    1    3    3    0    0 -0.43406811109E+00  0.59456498370E+02  0.79834806156E+02  0.99543256364E+02  0.00000000000E+00 0. -1.
         11    1    3    3    0    0 -0.27227469900E+02 -0.27527580623E+02  0.30647101379E+02  0.49379627733E+02  0.00000000000E+00 0.  1.
        -13    1    4    4    0    0 -0.20587122868E+02 -0.23380392608E+02 -0.24488714507E+01  0.31248509690E+02  0.00000000000E+00 0. -1.
         13    1    4    4    0    0  0.34151713508E+02  0.95577347671E+01  0.80876639275E+02  0.88310365246E+02  0.00000000000E+00 0.  1.
         21    1    1    2  502  501  0.14096947372E+02 -0.18106259907E+02 -0.29925432544E+01  0.23141216221E+02  0.00000000000E+00 0.  1.
<scales pt_clust_5="13000.00000" pt_clust_6="13000.00000" pt_clust_7="13000.00000" pt_clust_8="13000.00000" pt_clust_9="22.94691"></scales>
<clustering>
<clus scale="   22.947">  2  9  1 -1</clus>
<clus scale="   88.138">  7  8 -1 -1</clus>
<clus scale="   90.483">  5  6 -1 -1</clus>
<clus scale="   93.491">  2  7  1 -1</clus>
<clus scale="   22.947">  2  5  1 -1</clus>
</clustering>
</event>
<event>
 9    1  0.1296032E-005  0.2034938E+03  0.7546771E-02  0.1147292E+00
         -2   -1    0    0    0  501 -0.00000000000E+00  0.00000000000E+00  0.20271332431E+03  0.20271332431E+03  0.00000000000E+00 0.  1.
          2   -1    0    0  502    0  0.00000000000E+00 -0.00000000000E+00 -0.52447826231E+03  0.52447826231E+03  0.00000000000E+00 0. -1.
         23    2    1    2    0    0  0.18466825189E+03  0.32722766964E+02  0.87218682167E+02  0.22519658827E+03  0.89068861632E+02 0.  0.
         23    2    1    2    0    0 -0.13852632130E+03 -0.95968320175E+02 -0.19594188973E+03  0.27502395028E+03  0.94050459371E+02 0.  0.
        -11    1    3    3    0    0  0.14332650428E+03  0.19425973800E+02  0.21210722963E+02  0.14618395964E+03  0.00000000000E+00 0.  1.
         11    1    3    3    0    0  0.41341747614E+02  0.13296793164E+02  0.66007959204E+02  0.79012628627E+02  0.00000000000E+00 0. -1.
        -11    1    4    4    0    0 -0.28526032590E+02  0.17316200531E+02 -0.49291064769E+02  0.59524737733E+02  0.00000000000E+00 0.  1.
         11    1    4    4    0    0 -0.11000028871E+03 -0.11328452071E+03 -0.14665082496E+03  0.21549921255E+03  0.00000000000E+00 0. -1.
         21    1    1    2  502  501 -0.46141930598E+02  0.63245553211E+02 -0.21304173043E+03  0.22697104808E+03  0.00000000000E+00 0. -1.
<scales pt_clust_5="13000.00000" pt_clust_6="13000.00000" pt_clust_7="13000.00000" pt_clust_8="13000.00000" pt_clust_9="78.28843"></scales>
<clustering>
<clus scale="   78.288">  2  9  1 -1</clus>
<clus scale="   89.069">  5  6 -1 -1</clus>
<clus scale="   94.050">  7  8 -1 -1</clus>
<clus scale="  201.240">  1  5  2 -1</clus>
<clus scale="   78.288">  2  5  1 -1</clus>
</clustering>
</event>
<event>
 9    1  0.1296032E-005  0.1090805E+03  0.7546771E-02  0.1264100E+00
         -1   -1    0    0    0  501 -0.00000000000E+00  0.00000000000E+00  0.58380549897E+03  0.58380549897E+03  0.00000000000E+00 0.  1.
          1   -1    0    0  502    0  0.00000000000E+00 -0.00000000000E+00 -0.36864975454E+02  0.36864975454E+02  0.00000000000E+00 0. -1.
         23    2    1    2    0    0  0.36975406816E+02  0.47391336464E+02  0.45794537960E+03  0.47125739316E+03  0.93575853911E+02 0.  0.
         23    2    1    2    0    0 -0.32781240345E+02 -0.26756114690E+02  0.77324086718E+02  0.12533784531E+03  0.89107023784E+02 0.  0.
        -11    1    4    4    0    0  0.23852109007E+02  0.57300266826E+01  0.52393965262E+00  0.24536316403E+02  0.00000000000E+00 0.  1.
         11    1    4    4    0    0 -0.56633349352E+02 -0.32486141372E+02  0.76800147065E+02  0.10080152890E+03  0.00000000000E+00 0. -1.
        -11    1    3    3    0    0  0.63081933615E+02  0.40350442966E+02  0.40437196391E+03  0.41124709579E+03  0.00000000000E+00 0.  1.
         11    1    3    3    0    0 -0.26106526800E+02  0.70408934987E+01  0.53573415684E+02  0.60010297373E+02  0.00000000000E+00 0. -1.
         21    1    1    2  502  501 -0.41941664711E+01 -0.20635221775E+02  0.11671057201E+02  0.24075235955E+02  0.00000000000E+00 0. -1.
<scales pt_clust_5="13000.00000" pt_clust_6="13000.00000" pt_clust_7="13000.00000" pt_clust_8="13000.00000" pt_clust_9="21.05715"></scales>
<clustering>
<clus scale="   21.057">  2  9  1 -1</clus>
<clus scale="   89.107">  5  6 -1 -1</clus>
<clus scale="   93.576">  7  8 -1 -1</clus>
<clus scale="  105.272">  2  5  1 -1</clus>
<clus scale="   21.057">  2  5  1 -1</clus>
</clustering>
</event>
<event>
 9    1  0.1296032E-005  0.1012202E+03  0.7546771E-02  0.1278537E+00
         -1   -1    0    0    0  501 -0.00000000000E+00  0.00000000000E+00  0.28975904030E+03  0.28975904030E+03  0.00000000000E+00 0.  1.
          1   -1    0    0  502    0  0.00000000000E+00 -0.00000000000E+00 -0.13783635725E+03  0.13783635725E+03  0.00000000000E+00 0. -1.
         23    2    1    2    0    0  0.84078990141E+01 -0.34779673688E+02  0.23812631184E+03  0.25835048864E+03  0.93597628819E+02 0.  0.
         23    2    1    2    0    0 -0.12994942359E+02  0.58305176533E+02 -0.39155533905E+02  0.11644326611E+03  0.91964755475E+02 0.  0.
        -13    1    4    4    0    0 -0.50879290663E+02  0.37598699771E+02 -0.36836464597E+02  0.73207168822E+02  0.00000000000E+00 0. -1.
         13    1    4    4    0    0  0.37884348304E+02  0.20706476762E+02 -0.23190693088E+01  0.43236097289E+02  0.00000000000E+00 0.  1.
        -13    1    3    3    0    0  0.29438824057E+02 -0.59846721926E+02  0.17432202424E+03  0.18664523198E+03  0.00000000000E+00 0.  1.
         13    1    3    3    0    0 -0.21030925043E+02  0.25067048238E+02  0.63804287599E+02  0.71705256652E+02  0.00000000000E+00 0. -1.
         21    1    1    2  502  501  0.45870433449E+01 -0.23525502846E+02 -0.47048094884E+02  0.52801642806E+02  0.00000000000E+00 0. -1.
<scales pt_clust_5="13000.00000" pt_clust_6="13000.00000" pt_clust_7="13000.00000" pt_clust_8="13000.00000" pt_clust_9="23.96853"></scales>
<clustering>
<clus scale="   23.969">  2  9  1 -1</clus>
<clus scale="   91.965">  5  6 -1 -1</clus>
<clus scale="   93.598">  7  8 -1 -1</clus>
<clus scale="   99.712">  2  5  1 -1</clus>
<clus scale="   23.969">  2  5  1 -1</clus>
</clustering>
</event>
<event>
 9    1  0.1296032E-005  0.1021824E+03  0.7546771E-02  0.1276462E+00
         -1   -1    0    0    0  501 -0.00000000000E+00  0.00000000000E+00  0.26073294283E+03  0.26073294283E+03  0.00000000000E+00 0.  1.
          1   -1    0    0  502    0  0.00000000000E+00 -0.00000000000E+00 -0.10075259533E+03  0.10075259533E+03  0.00000000000E+00 0. -1.
         23    2    1    2    0    0 -0.33021487832E+02 -0.23887805820E+02  0.18453110755E+03  0.20946304791E+03  0.90343748330E+02 0.  0.
         23    2    1    2    0    0  0.41581301699E+02  0.56763006274E+02 -0.23368250368E+02  0.11803061552E+03  0.91837397303E+02 0.  0.
        -13    1    4    4    0    0  0.28592484530E+02 -0.78131719881E+01 -0.40293465794E+02  0.50021387564E+02  0.00000000000E+00 0. -1.
         13    1    4    4    0    0  0.12988817170E+02  0.64576178263E+02  0.16925215426E+02  0.68009227960E+02  0.00000000000E+00 0.  1.
        -13    1    3    3    0    0  0.11804073088E+02  0.23653191897E+02  0.95093772735E+02  0.98699722600E+02  0.00000000000E+00 0.  1.
         13    1    3    3    0    0 -0.44825560920E+02 -0.47540997718E+02  0.89437334814E+02  0.11076332531E+03  0.00000000000E+00 0. -1.
         21    1    1    2  502  501 -0.85598138678E+01 -0.32875200454E+02 -0.11825096795E+01  0.33991874727E+02  0.00000000000E+00 0. -1.
<scales pt_clust_5="13000.00000" pt_clust_6="13000.00000" pt_clust_7="13000.00000" pt_clust_8="13000.00000" pt_clust_9="33.97130"></scales>
<clustering>
<clus scale="   33.971">  2  9  1 -1</clus>
<clus scale="   90.344">  7  8 -1 -1</clus>
<clus scale="   91.837">  5  6 -1 -1</clus>
<clus scale="  100.842">  1  7  2 -1</clus>
<clus scale="   33.971">  2  5  1 -1</clus>
</clustering>
</event>
<event>
 9    1  0.1296032E-005  0.9975519E+02  0.7546771E-02  0.1282668E+00
         -1   -1    0    0    0  501 -0.00000000000E+00  0.00000000000E+00  0.24512484528E+03  0.24512484528E+03  0.00000000000E+00 0.  1.
          1   -1    0    0  502    0  0.00000000000E+00 -0.00000000000E+00 -0.37717396348E+03  0.37717396348E+03  0.00000000000E+00 0. -1.
         23    2    1    2    0    0  0.28269262558E+02 -0.13921788687E+02  0.22042103958E+03  0.24047855878E+03  0.90837960902E+02 0.  0.
         23    2    1    2    0    0 -0.47456228870E+02 -0.33810134372E+01 -0.19140515030E+03  0.21869617673E+03  0.94491064360E+02 0.  0.
        -11    1    4    4    0    0 -0.65118788519E+02 -0.31150846830E+02 -0.14262259595E+03  0.15985004458E+03  0.00000000000E+00 0.  1.
         11    1    4    4    0    0  0.17662559649E+02  0.27769833393E+02 -0.48782554345E+02  0.58846132145E+02  0.00000000000E+00 0. -1.
        -13    1    3    3    0    0  0.24544263413E+02  0.21714682945E+02  0.23504625175E+02  0.40328844845E+02  0.00000000000E+00 0.  1.
         13    1    3    3    0    0  0.37249991459E+01 -0.35636471632E+02  0.19691641440E+03  0.20014971394E+03  0.00000000000E+00 0. -1.
         21    1    1    2  502  501  0.19186966312E+02  0.17302802124E+02 -0.16106500748E+03  0.16312407324E+03  0.00000000000E+00 0. -1.
<scales pt_clust_5="13000.00000" pt_clust_6="13000.00000" pt_clust_7="13000.00000" pt_clust_8="13000.00000" pt_clust_9="25.83654"></scales>
<clustering>
<clus scale="   25.837">  2  9  1 -1</clus>
<clus scale="   90.838">  7  8 -1 -1</clus>
<clus scale="   94.491">  5  6 -1 -1</clus>
<clus scale="   96.302">  1  7  2 -1</clus>
<clus scale="   25.837">  2  5  1 -1</clus>
</clustering>
</event>
<event>
 9    1  0.1296032E-005  0.9901603E+02  0.7546771E-02  0.1282846E+00
          1   -1    0    0  502    0  0.00000000000E+00  0.00000000000E+00  0.17049885509E+03  0.17049885509E+03  0.00000000000E+00 0. -1.
         -1   -1    0    0    0  501 -0.00000000000E+00 -0.00000000000E+00 -0.13525537117E+03  0.13525537117E+03  0.00000000000E+00 0.  1.
         23    2    1    2    0    0 -0.13804802066E+01  0.39084738209E+02 -0.37074253891E+02  0.10538348240E+03  0.90562992300E+02 0.  0.
         23    2    1    2    0    0 -0.56218309983E+02  0.75280898684E+01  0.68349594158E+02  0.12616749233E+03  0.89606911484E+02 0.  0.
        -13    1    3    3    0    0  0.25306047965E+02  0.45216685303E+02 -0.52658451576E+02  0.73877311915E+02  0.00000000000E+00 0.  1.
         13    1    3    3    0    0 -0.26686528172E+02 -0.61319470942E+01  0.15584197685E+02  0.31506170483E+02  0.00000000000E+00 0. -1.
        -13    1    4    4    0    0 -0.16237137157E+01 -0.34089867021E+02  0.86898451097E+01  0.35217451466E+02  0.00000000000E+00 0. -1.
         13    1    4    4    0    0 -0.54594596267E+02  0.41617956889E+02  0.59659749049E+02  0.90950040867E+02  0.00000000000E+00 0.  1.
         21    1    1    2  502  501  0.57598790189E+02 -0.46612828077E+02  0.39681436566E+01  0.74203251524E+02  0.00000000000E+00 0. -1.
<scales pt_clust_5="13000.00000" pt_clust_6="13000.00000" pt_clust_7="13000.00000" pt_clust_8="13000.00000" pt_clust_9="74.09707"></scales>
<clustering>
<clus scale="   74.097">  2  9  1 -1</clus>
<clus scale="   89.607">  7  8 -1 -1</clus>
<clus scale="   90.563">  5  6 -1 -1</clus>
<clus scale="   98.142">  1  7  2 -1</clus>
<clus scale="   98.142">  1  5  2 -1</clus>
</clustering>
</event>
<event>
 9    1  0.1296032E-005  0.9710984E+02  0.7546771E-02  0.1287074E+00
          4   -1    0    0  502    0  0.00000000000E+00  0.00000000000E+00  0.43015218540E+02  0.43015218540E+02  0.00000000000E+00 0. -1.
         -4   -1    0    0    0  501 -0.00000000000E+00 -0.00000000000E+00 -0.45453002608E+03  0.45453002608E+03  0.00000000000E+00 0.  1.
         23    2    1    2    0    0  0.45392040595E+02 -0.47390192016E+02 -0.20870725665E+03  0.23671860137E+03  0.90391977550E+02 0.  0.
         23    2    1    2    0    0 -0.65033051758E+01 -0.11445258066E+02 -0.12934360870E+03  0.15898905328E+03  0.91512092328E+02 0.  0.
        -13    1    4    4    0    0  0.14913017299E+02 -0.41115837394E+02 -0.10825129391E+03  0.11675295629E+03  0.00000000000E+00 0.  1.
         13    1    4    4    0    0 -0.21416322475E+02  0.29670579329E+02 -0.21092314791E+02  0.42236096994E+02  0.00000000000E+00 0. -1.
        -13    1    3    3    0    0  0.67117391083E+02 -0.19029298300E+02 -0.97314590608E+02  0.11973716184E+03  0.00000000000E+00 0.  1.
         13    1    3    3    0    0 -0.21725350488E+02 -0.28360893715E+02 -0.11139266605E+03  0.11698143953E+03  0.00000000000E+00 0. -1.
         21    1    1    2  502  501 -0.38888735419E+02  0.58835450082E+02 -0.73463942186E+02  0.10183758997E+03  0.00000000000E+00 0. -1.
<scales pt_clust_5="13000.00000" pt_clust_6="13000.00000" pt_clust_7="13000.00000" pt_clust_8="13000.00000" pt_clust_9="70.52619"></scales>
<clustering>
<clus scale="   70.526">  1  9  2 -1</clus>
<clus scale="   90.392">  7  8 -1 -1</clus>
<clus scale="   91.512">  5  6 -1 -1</clus>
<clus scale="   96.055">  2  7  1 -1</clus>
<clus scale="   70.526">  1  5  2 -1</clus>
</clustering>
</event>
<event>
 9    1  0.1296032E-005  0.9580954E+02  0.7546771E-02  0.1289397E+00
         -3   -1    0    0    0  501 -0.00000000000E+00  0.00000000000E+00  0.12945919572E+03  0.12945919572E+03  0.00000000000E+00 0.  1.
          3   -1    0    0  502    0  0.00000000000E+00 -0.00000000000E+00 -0.28973815180E+03  0.28973815180E+03  0.00000000000E+00 0. -1.
         23    2    1    2    0    0 -0.10355890212E+02 -0.25087719482E+02  0.66814356832E+02  0.11638674911E+03  0.91351403708E+02 0.  0.
         23    2    1    2    0    0  0.81298355732E+02 -0.56552289162E+01 -0.14972075145E+03  0.19342835325E+03  0.91415645088E+02 0.  0.
        -11    1    4    4    0    0  0.45643623192E+02 -0.48221415798E+02 -0.90542539154E+02  0.11227910169E+03  0.00000000000E+00 0.  1.
         11    1    4    4    0    0  0.35654732540E+02  0.42566186882E+02 -0.59178212300E+02  0.81149251563E+02  0.00000000000E+00 0. -1.
        -11    1    3    3    0    0 -0.24408078639E+02  0.43195346514E+01  0.78066242415E+02  0.81906964828E+02  0.00000000000E+00 0.  1.
         11    1    3    3    0    0  0.14052188427E+02 -0.29407254133E+02 -0.11251885583E+02  0.34479784286E+02  0.00000000000E+00 0. -1.
         21    1    1    2  502  501 -0.70942465520E+02  0.30742948398E+02 -0.77372561453E+02  0.10938224516E+03  0.00000000000E+00 0. -1.
<scales pt_clust_5="13000.00000" pt_clust_6="13000.00000" pt_clust_7="13000.00000" pt_clust_8="13000.00000" pt_clust_9="77.31728"></scales>
<clustering>
<clus scale="   77.317">  2  9  1 -1</clus>
<clus scale="   91.351">  7  8 -1 -1</clus>
<clus scale="   91.416">  5  6 -1 -1</clus>
<clus scale="   95.748">  1  7  2 -1</clus>
<clus scale="   77.317">  2  5  1 -1</clus>
</clustering>
</event>
<event>
 9    1  0.1296032E-005  0.9509844E+02  0.7546771E-02  0.1299546E+00
          1   -1    0    0  502    0  0.00000000000E+00  0.00000000000E+00  0.16182203800E+03  0.16182203800E+03  0.00000000000E+00 0. -1.
         -1   -1    0    0    0  501 -0.00000000000E+00 -0.00000000000E+00 -0.81280843799E+02  0.81280843799E+02  0.00000000000E+00 0.  1.
         23    2    1    2    0    0  0.14905539757E+02 -0.14961264318E+02 -0.21285306162E+02  0.84552899586E+02  0.79057662655E+02 0.  0.
         23    2    1    2    0    0  0.67836845149E+01  0.16691381154E+02  0.63127832010E+02  0.11415400620E+03  0.93388400656E+02 0.  0.
        -11    1    4    4    0    0 -0.52951048257E+00  0.47113308091E+02  0.40347761825E+01  0.47288725923E+02  0.00000000000E+00 0.  1.
         11    1    4    4    0    0  0.73131949975E+01 -0.30421926936E+02  0.59093055828E+02  0.66865280278E+02  0.00000000000E+00 0. -1.
        -13    1    3    3    0    0  0.12325763738E+02  0.23942812936E+02  0.15396842750E+02  0.31020082361E+02  0.00000000000E+00 0.  1.
         13    1    3    3    0    0  0.25797760187E+01 -0.38904077253E+02 -0.36682148912E+02  0.53532817225E+02  0.00000000000E+00 0. -1.
         21    1    1    2  502  501 -0.21689224272E+02 -0.17301168366E+01  0.38698668358E+02  0.44395976016E+02  0.00000000000E+00 0.  1.
<scales pt_clust_5="13000.00000" pt_clust_6="13000.00000" pt_clust_7="13000.00000" pt_clust_8="13000.00000" pt_clust_9="21.75812"></scales>
<clustering>
<clus scale="   21.758">  1  9  2 -1</clus>
<clus scale="   79.058">  7  8 -1 -1</clus>
<clus scale="   81.071">  2  7  1 -1</clus>
<clus scale="   93.388">  5  6 -1 -1</clus>
<clus scale="   21.758">  1  5  2 -1</clus>
</clustering>
</event>
<event>
 9    1  0.1296032E-005  0.1067323E+03  0.7546771E-02  0.1269511E+00
         -4   -1    0    0    0  501 -0.00000000000E+00  0.00000000000E+00  0.60286884858E+02  0.60286884858E+02  0.00000000000E+00 0.  1.
          4   -1    0    0  502    0  0.00000000000E+00 -0.00000000000E+00 -0.31879184178E+03  0.31879184178E+03  0.00000000000E+00 0. -1.
         23    2    1    2    0    0 -0.48910715933E+02 -0.16123360552E+02 -0.78091569394E+02  0.13474487244E+03  0.96982815742E+02 0.  0.
         23    2    1    2    0    0  0.37032110313E+02 -0.40546632047E+02 -0.10534004650E+03  0.14952564851E+03  0.90807420412E+02 0.  0.
        -13    1    3    3    0    0 -0.46294781761E+02  0.19054413373E+02 -0.11199899563E+01  0.50075262004E+02  0.00000000000E+00 0.  1.
         13    1    3    3    0    0 -0.26159341726E+01 -0.35177773925E+02 -0.76971579438E+02  0.84669610434E+02  0.00000000000E+00 0. -1.
        -13    1    4    4    0    0  0.58550327790E+02  0.42409520283E+00 -0.47143841230E+02  0.75172218983E+02  0.00000000000E+00 0.  1.
         13    1    4    4    0    0 -0.21518217477E+02 -0.40970727250E+02 -0.58196205274E+02  0.74353429531E+02  0.00000000000E+00 0. -1.
         21    1    1    2  502  501  0.11878605620E+02  0.56669992599E+02 -0.75073341024E+02  0.94808205685E+02  0.00000000000E+00 0.  1.
<scales pt_clust_5="13000.00000" pt_clust_6="13000.00000" pt_clust_7="13000.00000" pt_clust_8="13000.00000" pt_clust_9="57.90155"></scales>
<clustering>
<clus scale="   57.902">  2  9  1 -1</clus>
<clus scale="   90.807">  7  8 -1 -1</clus>
<clus scale="   96.983">  5  6 -1 -1</clus>
<clus scale="  101.154">  2  7  1 -1</clus>
<clus scale="   57.902">  2  5  1 -1</clus>
</clustering>
</event>
<event>
 9    1  0.1296032E-005  0.8990975E+02  0.7546771E-02  0.1321839E+00
         -3   -1    0    0    0  501 -0.00000000000E+00  0.00000000000E+00  0.17609360136E+03  0.17609360136E+03  0.00000000000E+00 0.  1.
          3   -1    0    0  502    0  0.00000000000E+00 -0.00000000000E+00 -0.66635068768E+02  0.66635068768E+02  0.00000000000E+00 0. -1.
         23    2    1    2    0    0  0.67562574750E+00 -0.92846426788E+00  0.11022951263E+03  0.12745738927E+03  0.63980638550E+02 0.  0.
         23    2    1    2    0    0  0.21302172638E+02 -0.47580775046E+01 -0.23836030994E+01  0.92512525793E+02  0.89869149346E+02 0.  0.
        -11    1    3    3    0    0 -0.17294661139E+02  0.26078263981E+02  0.48392818622E+02  0.57628517684E+02  0.00000000000E+00 0. -1.
         11    1    3    3    0    0  0.17970286886E+02 -0.27006728249E+02  0.61836694005E+02  0.69828871586E+02  0.00000000000E+00 0.  1.
        -13    1    4    4    0    0 -0.29085493560E+02 -0.12125795852E+02  0.19531107786E+02  0.37073778227E+02  0.00000000000E+00 0.  1.
         13    1    4    4    0    0  0.50387666197E+02  0.73677183470E+01 -0.21914710886E+02  0.55438747566E+02  0.00000000000E+00 0. -1.
         21    1    1    2  502  501 -0.21977798385E+02  0.56865417725E+01  0.16126230693E+01  0.22758755070E+02  0.00000000000E+00 0.  1.
<scales pt_clust_5="13000.00000" pt_clust_6="13000.00000" pt_clust_7="13000.00000" pt_clust_8="13000.00000" pt_clust_9="22.70155"></scales>
<clustering>
<clus scale="   22.702">  2  9  1 -1</clus>
<clus scale="   63.981">  5  6 -1 -1</clus>
<clus scale="   64.038">  1  5  2 -1</clus>
<clus scale="   89.869">  7  8 -1 -1</clus>
<clus scale="   22.702">  2  5  1 -1</clus>
</clustering>
</event>
<event>
 9    1  0.1296032E-005  0.1030470E+03  0.7546771E-02  0.1275856E+00
          2   -1    0    0  502    0  0.00000000000E+00  0.00000000000E+00  0.56481611810E+02  0.56481611810E+02  0.00000000000E+00 0. -1.
         -2   -1    0    0    0  501 -0.00000000000E+00 -0.00000000000E+00 -0.50663602484E+03  0.50663602484E+03  0.00000000000E+00 0.  1.
         23    2    1    2    0    0  0.10196761459E+02 -0.46772153702E+02 -0.26779060401E+03  0.28728313178E+03  0.92348155929E+02 0.  0.
         23    2    1    2    0    0  0.57966537916E+02  0.37023125120E+02 -0.17338908211E+03  0.20639514527E+03  0.88342237247E+02 0.  0.
        -11    1    4    4    0    0  0.25125722180E+02  0.64116251752E+02 -0.97272631590E+02  0.11918120871E+03  0.00000000000E+00 0. -1.
         11    1    4    4    0    0  0.32840815735E+02 -0.27093126632E+02 -0.76116450523E+02  0.87213936553E+02  0.00000000000E+00 0.  1.
        -13    1    3    3    0    0  0.29502407352E+02 -0.61745019394E+02 -0.24310083908E+03  0.25254872286E+03  0.00000000000E+00 0.  1.
         13    1    3    3    0    0 -0.19305645893E+02  0.14972865692E+02 -0.24689764928E+02  0.34734408914E+02  0.00000000000E+00 0. -1.
         21    1    1    2  502  501 -0.68163299374E+02  0.97490285825E+01 -0.89747269134E+01  0.69439359610E+02  0.00000000000E+00 0. -1.
<scales pt_clust_5="13000.00000" pt_clust_6="13000.00000" pt_clust_7="13000.00000" pt_clust_8="13000.00000" pt_clust_9="68.85695"></scales>
<clustering>
<clus scale="   68.857">  1  9  2 -1</clus>
<clus scale="   88.342">  5  6 -1 -1</clus>
<clus scale="   92.348">  7  8 -1 -1</clus>
<clus scale="   99.473">  1  5  2 -1</clus>
<clus scale="   68.857">  1  5  2 -1</clus>
</clustering>
</event>
<event>
 9    1  0.1296032E-005  0.1075780E+03  0.7546771E-02  0.1266295E+00
         -1   -1    0    0    0  501 -0.00000000000E+00  0.00000000000E+00  0.11738491125E+03  0.11738491125E+03  0.00000000000E+00 0.  1.
          1   -1    0    0  502    0  0.00000000000E+00 -0.00000000000E+00 -0.14762357400E+03  0.14762357400E+03  0.00000000000E+00 0. -1.
         23    2    1    2    0    0  0.60370648312E+02 -0.44911834054E+00  0.33600862210E+02  0.11547115115E+03  0.92518927375E+02 0.  0.
         23    2    1    2    0    0 -0.49457794194E+02 -0.22397644202E+02 -0.66390758934E+02  0.12408986392E+03  0.89681846454E+02 0.  0.
        -13    1    3    3    0    0 -0.18402825843E+02 -0.20071496864E+02  0.18439561414E+02  0.32886872921E+02  0.00000000000E+00 0.  1.
         13    1    3    3    0    0  0.78773474155E+02  0.19622378523E+02  0.15161300796E+02  0.82584278233E+02  0.00000000000E+00 0. -1.
        -13    1    4    4    0    0 -0.42006461351E+02  0.13618302282E+02 -0.74335838423E+02  0.86462811811E+02  0.00000000000E+00 0.  1.
         13    1    4    4    0    0 -0.74513328431E+01 -0.36015946484E+02  0.79450794886E+01  0.37627052108E+02  0.00000000000E+00 0. -1.
         21    1    1    2  502  501 -0.10912854118E+02  0.22846762542E+02  0.25512339783E+01  0.25447470178E+02  0.00000000000E+00 0.  1.
<scales pt_clust_5="13000.00000" pt_clust_6="13000.00000" pt_clust_7="13000.00000" pt_clust_8="13000.00000" pt_clust_9="25.31926"></scales>
<clustering>
<clus scale="   25.319">  1  9  2 -1</clus>
<clus scale="   89.682">  7  8 -1 -1</clus>
<clus scale="   92.519">  5  6 -1 -1</clus>
<clus scale="  105.148">  2  7  1 -1</clus>
<clus scale="  105.148">  2  5  1 -1</clus>
</clustering>
</event>
<event>
 9    1  0.1296032E-005  0.1028968E+03  0.7546771E-02  0.1274783E+00
         -3   -1    0    0    0  501 -0.00000000000E+00  0.00000000000E+00  0.42170801084E+03  0.42170801084E+03  0.00000000000E+00 0.  1.
          3   -1    0    0  502    0  0.00000000000E+00 -0.00000000000E+00 -0.77271187757E+02  0.77271187757E+02  0.00000000000E+00 0. -1.
         23    2    1    2    0    0 -0.34586406174E+02  0.37884111092E+02  0.28913651727E+03  0.30812481460E+03  0.93324971925E+02 0.  0.
         23    2    1    2    0    0  0.15991317705E+02 -0.22118325332E+02  0.10070591404E+03  0.13931792531E+03  0.92319340507E+02 0.  0.
        -11    1    3    3    0    0  0.17839012785E+02  0.39480098670E+02  0.20054607896E+03  0.20517221633E+03  0.00000000000E+00 0.  1.
         11    1    3    3    0    0 -0.52425418959E+02 -0.15959875784E+01  0.88590438316E+02  0.10295259827E+03  0.00000000000E+00 0. -1.
        -11    1    4    4    0    0  0.41982282045E+02  0.14680857470E+02  0.24463179283E+02  0.50759104823E+02  0.00000000000E+00 0.  1.
         11    1    4    4    0    0 -0.25990964340E+02 -0.36799182803E+02  0.76242734762E+02  0.88558820488E+02  0.00000000000E+00 0. -1.
         21    1    1    2  502  501  0.18595088469E+02 -0.15765785760E+02 -0.45405608231E+02  0.51536458693E+02  0.00000000000E+00 0. -1.
<scales pt_clust_5="13000.00000" pt_clust_6="13000.00000" pt_clust_7="13000.00000" pt_clust_8="13000.00000" pt_clust_9="24.37903"></scales>
<clustering>
<clus scale="   24.379">  2  9  1 -1</clus>
<clus scale="   92.319">  7  8 -1 -1</clus>
<clus scale="   93.325">  5  6 -1 -1</clus>
<clus scale="  101.986">  2  7  1 -1</clus>
<clus scale="   24.379">  2  5  1 -1</clus>
</clustering>
</event>
<event>
 9    1  0.1296032E-005  0.9775390E+02  0.7546771E-02  0.1285284E+00
         -3   -1    0    0    0  501 -0.00000000000E+00  0.00000000000E+00  0.20785546595E+03  0.20785546595E+03  0.00000000000E+00 0.  1.
          3   -1    0    0  502    0  0.00000000000E+00 -0.00000000000E+00 -0.13657694084E+03  0.13657694084E+03  0.00000000000E+00 0. -1.
         23    2    1    2    0    0 -0.30604997844E+02  0.48405631191E+02  0.80118166280E+02  0.13375687631E+03  0.90510830108E+02 0.  0.
         23    2    1    2    0    0 -0.53418583103E+02 -0.17311071773E+02  0.32965763104E+02  0.11180932996E+03  0.90892059628E+02 0.  0.
        -11    1    3    3    0    0  0.93836373992E+01 -0.20618671540E+02  0.30851483855E+01  0.22862642181E+02  0.00000000000E+00 0. -1.
         11    1    3    3    0    0 -0.39988635243E+02  0.69024302731E+02  0.77033017895E+02  0.11089423412E+03  0.00000000000E+00 0.  1.
        -11    1    4    4    0    0 -0.67289283783E+02 -0.31747065146E+02  0.46413423521E+02  0.87692244471E+02  0.00000000000E+00 0.  1.
         11    1    4    4    0    0  0.13870700680E+02  0.14435993373E+02 -0.13447660417E+02  0.24117085493E+02  0.00000000000E+00 0. -1.
         21    1    1    2  502  501  0.84023580947E+02 -0.31094559417E+02 -0.41805404272E+02  0.98866200529E+02  0.00000000000E+00 0. -1.
<scales pt_clust_5="13000.00000" pt_clust_6="13000.00000" pt_clust_7="13000.00000" pt_clust_8="13000.00000" pt_clust_9="89.59260"></scales>
<clustering>
<clus scale="   89.593">  2  9  1 -1</clus>
<clus scale="   90.511">  5  6 -1 -1</clus>
<clus scale="   90.892">  7  8 -1 -1</clus>
<clus scale="   97.400">  1  5  2 -1</clus>
<clus scale="   89.593">  2  5  1 -1</clus>
</clustering>
</event>
<event>
 9    1  0.1296032E-005  0.9513754E+02  0.7546771E-02  0.1291497E+00
          1   -1    0    0  502    0  0.00000000000E+00  0.00000000000E+00  0.25238342157E+03  0.25238342157E+03  0.00000000000E+00 0. -1.
         -1   -1    0    0    0  501 -0.00000000000E+00 -0.00000000000E+00 -0.14805979364E+03  0.14805979364E+03  0.00000000000E+00 0.  1.
         23    2    1    2    0    0  0.31191458827E+02 -0.83618639919E+01 -0.10872555070E+03  0.14554797721E+03  0.91214803738E+02 0.  0.
         23    2    1    2    0    0  0.75724929846E+01  0.48798287643E+01  0.97788195483E+02  0.13324055143E+03  0.90051973823E+02 0.  0.
        -11    1    4    4    0    0  0.28619349794E+02  0.35314432171E+02  0.80390372526E+02  0.92351439063E+02  0.00000000000E+00 0.  1.
         11    1    4    4    0    0 -0.21046856809E+02 -0.30434603407E+02  0.17397822958E+02  0.40889112362E+02  0.00000000000E+00 0. -1.
        -13    1    3    3    0    0 -0.69424576848E+01 -0.42297625351E+02 -0.32426486494E+02  0.53747221839E+02  0.00000000000E+00 0.  1.
         13    1    3    3    0    0  0.38133916512E+02  0.33935761359E+02 -0.76299064209E+02  0.91800755371E+02  0.00000000000E+00 0. -1.
         21    1    1    2  502  501 -0.38763951812E+02  0.34820352276E+01  0.11526098315E+03  0.12165468658E+03  0.00000000000E+00 0. -1.
<scales pt_clust_5="13000.00000" pt_clust_6="13000.00000" pt_clust_7="13000.00000" pt_clust_8="13000.00000" pt_clust_9="38.92003"></scales>
<clustering>
<clus scale="   38.920">  1  9  2 -1</clus>
<clus scale="   90.052">  5  6 -1 -1</clus>
<clus scale="   91.215">  7  8 -1 -1</clus>
<clus scale="   94.023">  1  5  2 -1</clus>
<clus scale="   38.920">  1  5  2 -1</clus>
</clustering>
</event>
<event>
 9    1  0.1296032E-005  0.1089697E+03  0.7546771E-02  0.1263006E+00
         -2   -1    0    0    0  501 -0.00000000000E+00  0.00000000000E+00  0.22294274305E+03  0.22294274305E+03  0.00000000000E+00 0.  1.
          2   -1    0    0  502    0  0.00000000000E+00 -0.00000000000E+00 -0.12751768144E+03  0.12751768144E+03  0.00000000000E+00 0. -1.
         23    2    1    2    0    0 -0.59189209921E+02  0.46410306398E+01  0.16684424294E+03  0.19961667667E+03  0.92113595462E+02 0.  0.
         23    2    1    2    0    0  0.50226061482E+02 -0.24787687318E+02 -0.43397280165E+02  0.11518631170E+03  0.90815614201E+02 0.  0.
        -11    1    3    3    0    0 -0.69658600524E+01 -0.40103831249E+02  0.57670467331E+02  0.70588407613E+02  0.00000000000E+00 0.  1.
         11    1    3    3    0    0 -0.52223349869E+02  0.44744861889E+02  0.10917377561E+03  0.12902826906E+03  0.00000000000E+00 0. -1.
        -13    1    4    4    0    0  0.71325143659E+02 -0.37678186150E+02 -0.25280501175E+02  0.84534168058E+02  0.00000000000E+00 0.  1.
         13    1    4    4    0    0 -0.21099082177E+02  0.12890498832E+02 -0.18116778990E+02  0.30652143642E+02  0.00000000000E+00 0. -1.
         21    1    1    2  502  501  0.89631484392E+01  0.20146656678E+02 -0.28021901160E+02  0.35657436109E+02  0.00000000000E+00 0.  1.
<scales pt_clust_5="13000.00000" pt_clust_6="13000.00000" pt_clust_7="13000.00000" pt_clust_8="13000.00000" pt_clust_9="22.05053"></scales>
<clustering>
<clus scale="   22.051">  2  9  1 -1</clus>
<clus scale="   90.816">  7  8 -1 -1</clus>
<clus scale="   92.114">  5  6 -1 -1</clus>
<clus scale="  107.875">  2  7  1 -1</clus>
<clus scale="   22.051">  2  5  1 -1</clus>
</clustering>
</event>
<event>
 9    1  0.1296032E-005  0.1106134E+03  0.7546771E-02  0.1261154E+00
          1   -1    0    0  502    0  0.00000000000E+00  0.00000000000E+00  0.20133314616E+03  0.20133314616E+03  0.00000000000E+00 0. -1.
         -1   -1    0    0    0  501 -0.00000000000E+00 -0.00000000000E+00 -0.30442855237E+03  0.30442855237E+03  0.00000000000E+00 0.  1.
         23    2    1    2    0    0  0.36351415391E+02  0.53100100056E+02 -0.23417075798E+03  0.25965719738E+03  0.91895975069E+02 0.  0.
         23    2    1    2    0    0 -0.15110871139E+02 -0.51407070326E+02 -0.10352578529E+02  0.10308042438E+03  0.87449257872E+02 0.  0.
        -11    1    4    4    0    0  0.17700780739E+01 -0.27300331311E+02 -0.48027930928E+02  0.55273170845E+02  0.00000000000E+00 0.  1.
         11    1    4    4    0    0 -0.16880949212E+02 -0.24106739015E+02  0.37675352399E+02  0.47807253536E+02  0.00000000000E+00 0. -1.
        -13    1    3    3    0    0  0.66576363310E+02  0.46611795573E+02 -0.16897319381E+03  0.18750203162E+03  0.00000000000E+00 0.  1.
         13    1    3    3    0    0 -0.30224947919E+02  0.64883044837E+01 -0.65197564172E+02  0.72155165759E+02  0.00000000000E+00 0. -1.
         21    1    1    2  502  501 -0.21240544252E+02 -0.16930297304E+01  0.14142793029E+03  0.14302407677E+03  0.00000000000E+00 0. -1.
<scales pt_clust_5="13000.00000" pt_clust_6="13000.00000" pt_clust_7="13000.00000" pt_clust_8="13000.00000" pt_clust_9="21.30791"></scales>
<clustering>
<clus scale="   21.308">  1  9  2 -1</clus>
<clus scale="   87.449">  5  6 -1 -1</clus>
<clus scale="   91.896">  7  8 -1 -1</clus>
<clus scale="  106.948">  1  5  2 -1</clus>
<clus scale="   21.308">  1  5  2 -1</clus>
</clustering>
</event>
<event>
 9    1  0.1296032E-005  0.1210219E+03  0.7546771E-02  0.1241524E+00
         -2   -1    0    0    0  501 -0.00000000000E+00  0.00000000000E+00  0.79265986800E+02  0.79265986800E+02  0.00000000000E+00 0.  1.
          2   -1    0    0  502    0  0.00000000000E+00 -0.00000000000E+00 -0.52183817334E+03  0.52183817334E+03  0.00000000000E+00 0. -1.
         23    2    1    2    0    0  0.68400445793E+02  0.75024389958E+01 -0.16508920952E+02  0.11514091803E+03  0.90829394796E+02 0.  0.
         23    2    1    2    0    0 -0.12484250059E+03  0.30364902489E+02 -0.23091699308E+03  0.27931932428E+03  0.90492817215E+02 0.  0.
        -11    1    4    4    0    0 -0.79385723060E+02 -0.15321801052E+02 -0.73682228658E+02  0.10938885425E+03  0.00000000000E+00 0. -1.
         11    1    4    4    0    0 -0.45456777529E+02  0.45686703541E+02 -0.15723476442E+03  0.16993047003E+03  0.00000000000E+00 0.  1.
        -13    1    3    3    0    0  0.48780775494E+02  0.29101200289E+02  0.26889547330E+02  0.62844981277E+02  0.00000000000E+00 0.  1.
         13    1    3    3    0    0  0.19619670298E+02 -0.21598761293E+02 -0.43398468282E+02  0.52295936756E+02  0.00000000000E+00 0. -1.
         21    1    1    2  502  501  0.56442054796E+02 -0.37867341485E+02 -0.19514627252E+03  0.20664391783E+03  0.00000000000E+00 0.  1.
<scales pt_clust_5="13000.00000" pt_clust_6="13000.00000" pt_clust_7="13000.00000" pt_clust_8="13000.00000" pt_clust_9="67.96794"></scales>
<clustering>
<clus scale="   67.968">  2  9  1 -1</clus>
<clus scale="   90.493">  5  6 -1 -1</clus>
<clus scale="   90.829">  7  8 -1 -1</clus>
<clus scale="  120.770">  2  5  1 -1</clus>
<clus scale="   67.968">  2  5  1 -1</clus>
</clustering>
</event>
<event>
 9    1  0.1296032E-005  0.1008404E+03  0.7546771E-02  0.1278639E+00
         -2   -1    0    0    0  501 -0.00000000000E+00  0.00000000000E+00  0.28119711923E+03  0.28119711923E+03  0.00000000000E+00 0.  1.
          2   -1    0    0  502    0  0.00000000000E+00 -0.00000000000E+00 -0.20443109988E+03  0.20443109988E+03  0.00000000000E+00 0. -1.
         23    2    1    2    0    0 -0.39736357425E+02 -0.24084379085E+02  0.22607363361E+03  0.24783903212E+03  0.90309814580E+02 0.  0.
         23    2    1    2    0    0  0.20144416488E+02  0.31575533931E+02 -0.11781845766E+02  0.98673053682E+02  0.90524846173E+02 0.  0.
        -13    1    4    4    0    0 -0.26589476613E+02  0.12427829974E+02  0.23052031741E+02  0.37320870727E+02  0.00000000000E+00 0.  1.
         13    1    4    4    0    0  0.46733893101E+02  0.19147703958E+02 -0.34833877507E+02  0.61352182956E+02  0.00000000000E+00 0. -1.
        -13    1    3    3    0    0 -0.47010458274E+02 -0.42802317347E+02  0.21640546167E+03  0.22555120350E+03  0.00000000000E+00 0.  1.
         13    1    3    3    0    0  0.72741008485E+01  0.18717938262E+02  0.96681719364E+01  0.22287828618E+02  0.00000000000E+00 0. -1.
         21    1    1    2  502  501  0.19591940937E+02 -0.74911548465E+01 -0.13752576848E+03  0.13911613331E+03  0.00000000000E+00 0. -1.
<scales pt_clust_5="13000.00000" pt_clust_6="13000.00000" pt_clust_7="13000.00000" pt_clust_8="13000.00000" pt_clust_9="20.97526"></scales>
<clustering>
<clus scale="   20.975">  2  9  1 -1</clus>
<clus scale="   90.310">  7  8 -1 -1</clus>
<clus scale="   90.525">  5  6 -1 -1</clus>
<clus scale="  100.647">  1  7  2 -1</clus>
<clus scale="   20.975">  2  5  1 -1</clus>
</clustering>
</event>
<event>
 9    1  0.1296032E-005  0.1759428E+03  0.7546771E-02  0.1171917E+00
         -2   -1    0    0    0  501 -0.00000000000E+00  0.00000000000E+00  0.27631813338E+03  0.27631813338E+03  0.00000000000E+00 0.  1.
          2   -1    0    0  502    0  0.00000000000E+00 -0.00000000000E+00 -0.54391131444E+03  0.54391131444E+03  0.00000000000E+00 0. -1.
         23    2    1    2    0    0 -0.57318650279E+02  0.12961904733E+03  0.16011190972E+03  0.23247638575E+03  0.91230045458E+02 0.  0.
         23    2    1    2    0    0 -0.19453403802E+02 -0.24243929791E+03 -0.22502957330E+03  0.34341779525E+03  0.90234279230E+02 0.  0.
        -11    1    3    3    0    0 -0.51735647057E+02  0.51455334172E+02  0.12891344850E+03  0.14813138019E+03  0.00000000000E+00 0.  1.
         11    1    3    3    0    0 -0.55830032225E+01  0.78163713163E+02  0.31198461213E+02  0.84345005557E+02  0.00000000000E+00 0. -1.
        -11    1    4    4    0    0  0.17083346612E+02 -0.20663283702E+02 -0.56332258781E+02  0.62386981047E+02  0.00000000000E+00 0.  1.
         11    1    4    4    0    0 -0.36536750414E+02 -0.22177601420E+03 -0.16869731452E+03  0.28103081420E+03  0.00000000000E+00 0. -1.
         21    1    1    2  502  501  0.76772054081E+02  0.11282025057E+03 -0.20267551748E+03  0.24433526682E+03  0.00000000000E+00 0.  1.
<scales pt_clust_5="13000.00000" pt_clust_6="13000.00000" pt_clust_7="13000.00000" pt_clust_8="13000.00000" pt_clust_9="136.46376"></scales>
<clustering>
<clus scale="   90.234">  7  8 -1 -1</clus>
<clus scale="   91.230">  5  6 -1 -1</clus>
<clus scale="  136.464">  2  9  1 -1</clus>
<clus scale="  175.429">  2  7  1 -1</clus>
<clus scale="  136.464">  2  5  1 -1</clus>
</clustering>
</event>
<event>
 9    1  0.1296032E-005  0.9416063E+02  0.7546771E-02  0.1293103E+00
         -1   -1    0    0    0  501 -0.00000000000E+00  0.00000000000E+00  0.35204756365E+03  0.35204756365E+03  0.00000000000E+00 0.  1.
          1   -1    0    0  502    0  0.00000000000E+00 -0.00000000000E+00 -0.57662636576E+02  0.57662636576E+02  0.00000000000E+00 0. -1.
         23    2    1    2    0    0 -0.30041319337E+02 -0.12037015902E+02  0.25501881598E+03  0.27244881403E+03  0.90257349520E+02 0.  0.
         23    2    1    2    0    0  0.13332026083E+02 -0.13083444623E+02  0.50458196297E+02  0.10511683188E+03  0.90302820155E+02 0.  0.
        -13    1    3    3    0    0 -0.91105746392E+00 -0.46303047979E+02  0.17087357799E+03  0.17703836288E+03  0.00000000000E+00 0.  1.
         13    1    3    3    0    0 -0.29130261873E+02  0.34266032077E+02  0.84145237993E+02  0.95410451146E+02  0.00000000000E+00 0. -1.
        -13    1    4    4    0    0 -0.20395389813E+02  0.20295205335E+01  0.62872472481E+02  0.66128954892E+02  0.00000000000E+00 0.  1.
         13    1    4    4    0    0  0.33727415896E+02 -0.15112965156E+02 -0.12414276183E+02  0.38987876987E+02  0.00000000000E+00 0. -1.
         21    1    1    2  502  501  0.16709293254E+02  0.25120460525E+02 -0.11092085205E+02  0.32144554317E+02  0.00000000000E+00 0.  1.
<scales pt_clust_5="13000.00000" pt_clust_6="13000.00000" pt_clust_7="13000.00000" pt_clust_8="13000.00000" pt_clust_9="30.17015"></scales>
<clustering>
<clus scale="   30.170">  2  9  1 -1</clus>
<clus scale="   90.257">  5  6 -1 -1</clus>
<clus scale="   90.303">  7  8 -1 -1</clus>
<clus scale="   94.117">  1  5  2 -1</clus>
<clus scale="   30.170">  2  5  1 -1</clus>
</clustering>
</event>
<event>
 9    1  0.1296032E-005  0.1304158E+03  0.7546771E-02  0.1227041E+00
         -2   -1    0    0    0  501 -0.00000000000E+00  0.00000000000E+00  0.12647633765E+03  0.12647633765E+03  0.00000000000E+00 0.  1.
          2   -1    0    0  502    0  0.00000000000E+00 -0.00000000000E+00 -0.44825510925E+03  0.44825510925E+03  0.00000000000E+00 0. -1.
         23    2    1    2    0    0 -0.14443508728E+03  0.48154214394E+02 -0.73986292327E+02  0.19149771781E+03  0.89538157631E+02 0.  0.
         23    2    1    2    0    0  0.83346448951E+02 -0.15461827243E+01 -0.27577573715E+03  0.30145846957E+03  0.88746439038E+02 0.  0.
        -11    1    3    3    0    0 -0.29954654944E+02  0.26286229752E+02 -0.62845124242E+02  0.74416106243E+02  0.00000000000E+00 0. -1.
         11    1    3    3    0    0 -0.11448043234E+03  0.21867984642E+02 -0.11141168085E+02  0.11708161157E+03  0.00000000000E+00 0.  1.
        -13    1    4    4    0    0  0.42075296925E+02  0.40451260552E+02 -0.17796596188E+03  0.18729260178E+03  0.00000000000E+00 0.  1.
         13    1    4    4    0    0  0.41271152027E+02 -0.41997443276E+02 -0.97809775263E+02  0.11416586779E+03  0.00000000000E+00 0. -1.
         21    1    1    2  502  501  0.61088638332E+02 -0.46608031670E+02  0.27983257876E+02  0.81775259528E+02  0.00000000000E+00 0. -1.
<scales pt_clust_5="13000.00000" pt_clust_6="13000.00000" pt_clust_7="13000.00000" pt_clust_8="13000.00000" pt_clust_9="76.83834"></scales>
<clustering>
<clus scale="   76.838">  1  9  2 -1</clus>
<clus scale="   88.746">  7  8 -1 -1</clus>
<clus scale="   89.538">  5  6 -1 -1</clus>
<clus scale="  129.873">  2  7  1 -1</clus>
<clus scale="  129.873">  2  5  1 -1</clus>
</clustering>
</event>
<event>
 9    1  0.1296032E-005  0.3467329E+03  0.7546771E-02  0.1064003E+00
          2   -1    0    0  502    0  0.00000000000E+00  0.00000000000E+00  0.11026142245E+04  0.11026142245E+04  0.00000000000E+00 0. -1.
         -2   -1    0    0    0  501 -0.00000000000E+00 -0.00000000000E+00 -0.17225594682E+03  0.17225594682E+03  0.00000000000E+00 0.  1.
         23    2    1    2    0    0 -0.32328529472E+03 -0.19513587647E+03  0.20073984606E+03  0.43714742803E+03  0.90609028066E+02 0.  0.
         23    2    1    2    0    0  0.20281738269E+03  0.17866500420E+03  0.45177859378E+03  0.53444270282E+03  0.92027334776E+02 0.  0.
        -11    1    4    4    0    0  0.89501267901E+02  0.13213964260E+03  0.21392590316E+03  0.26690008270E+03  0.00000000000E+00 0.  1.
         11    1    4    4    0    0  0.11331611479E+03  0.46525361606E+02  0.23785269062E+03  0.26754262012E+03  0.00000000000E+00 0. -1.
        -13    1    3    3    0    0 -0.80629573715E+02 -0.40969751500E+02  0.94107456373E+02  0.13052150030E+03  0.00000000000E+00 0. -1.
         13    1    3    3    0    0 -0.24265572101E+03 -0.15416612497E+03  0.10663238969E+03  0.30662592773E+03  0.00000000000E+00 0.  1.
         21    1    1    2  502  501  0.12046791203E+03  0.16470872268E+02  0.27783983787E+03  0.30328004051E+03  0.00000000000E+00 0. -1.
<scales pt_clust_5="13000.00000" pt_clust_6="13000.00000" pt_clust_7="13000.00000" pt_clust_8="13000.00000" pt_clust_9="121.58868"></scales>
<clustering>
<clus scale="   90.609">  7  8 -1 -1</clus>
<clus scale="   92.027">  5  6 -1 -1</clus>
<clus scale="  121.589">  1  9  2 -1</clus>
<clus scale="  346.359">  2  7  1 -1</clus>
<clus scale="  121.589">  1  5  2 -1</clus>
</clustering>
</event>
<event>
 9    1  0.1296032E-005  0.1045500E+03  0.7546771E-02  0.1280210E+00
         -1   -1    0    0    0  501 -0.00000000000E+00  0.00000000000E+00  0.40526082066E+02  0.40526082066E+02  0.00000000000E+00 0.  1.
          1   -1    0    0  502    0  0.00000000000E+00 -0.00000000000E+00 -0.39678156697E+03  0.39678156697E+03  0.00000000000E+00 0. -1.
         23    2    1    2    0    0  0.32696148442E+02  0.30237082593E+02 -0.76234324425E+02  0.12999072143E+03  0.95407526693E+02 0.  0.
         23    2    1    2    0    0 -0.55480056817E+01 -0.44284410222E+02 -0.24660047893E+03  0.26202574719E+03  0.76510173336E+02 0.  0.
        -11    1    4    4    0    0  0.20654762159E+02 -0.54590972137E+02 -0.19073198181E+03  0.19946298485E+03  0.00000000000E+00 0.  1.
         11    1    4    4    0    0 -0.26202767841E+02  0.10306561915E+02 -0.55868497118E+02  0.62562762337E+02  0.00000000000E+00 0. -1.
        -11    1    3    3    0    0  0.42958011711E+02  0.54092815441E+02 -0.26689360657E+02  0.74052315458E+02  0.00000000000E+00 0.  1.
         11    1    3    3    0    0 -0.10261863269E+02 -0.23855732847E+02 -0.49544963768E+02  0.55938405968E+02  0.00000000000E+00 0. -1.
         21    1    1    2  502  501 -0.27148142760E+02  0.14047327628E+02 -0.33420681543E+02  0.45291180418E+02  0.00000000000E+00 0.  1.
<scales pt_clust_5="13000.00000" pt_clust_6="13000.00000" pt_clust_7="13000.00000" pt_clust_8="13000.00000" pt_clust_9="30.56712"></scales>
<clustering>
<clus scale="   30.567">  1  9  2 -1</clus>
<clus scale="   76.510">  5  6 -1 -1</clus>
<clus scale="   87.646">  2  5  1 -1</clus>
<clus scale="   95.408">  7  8 -1 -1</clus>
<clus scale="   87.646">  2  5  1 -1</clus>
</clustering>
</event>
<event>
 9    1  0.1296032E-005  0.1069502E+03  0.7546771E-02  0.1266916E+00
         -2   -1    0    0    0  501 -0.00000000000E+00  0.00000000000E+00  0.22370196765E+02  0.22370196765E+02  0.00000000000E+00 0.  1.
          2   -1    0    0  502    0  0.00000000000E+00 -0.00000000000E+00 -0.70301049868E+03  0.70301049868E+03  0.00000000000E+00 0. -1.
         23    2    1    2    0    0  0.50747207809E+02  0.23952400375E+02 -0.19162602194E+03  0.21927166572E+03  0.90611999866E+02 0.  0.
         23    2    1    2    0    0 -0.60692081867E+02 -0.42412100704E+01 -0.38995961950E+03  0.40462377314E+03  0.89164882549E+02 0.  0.
        -11    1    4    4    0    0 -0.21889871089E+02  0.41270889600E+02 -0.13918406303E+03  0.14681504074E+03  0.00000000000E+00 0. -1.
         11    1    4    4    0    0 -0.38802210778E+02 -0.45512099671E+02 -0.25077555647E+03  0.25780873240E+03  0.00000000000E+00 0.  1.
        -13    1    3    3    0    0 -0.20020041582E+02  0.10097384273E+02 -0.10098971917E+03  0.10344893722E+03  0.00000000000E+00 0. -1.
         13    1    3    3    0    0  0.70767249391E+02  0.13855016102E+02 -0.90636302772E+02  0.11582272850E+03  0.00000000000E+00 0.  1.
         21    1    1    2  502  501  0.99448740575E+01 -0.19711190305E+02 -0.99054660473E+02  0.10148525659E+03  0.00000000000E+00 0.  1.
<scales pt_clust_5="13000.00000" pt_clust_6="13000.00000" pt_clust_7="13000.00000" pt_clust_8="13000.00000" pt_clust_9="22.07785"></scales>
<clustering>
<clus scale="   22.078">  2  9  1 -1</clus>
<clus scale="   89.165">  5  6 -1 -1</clus>
<clus scale="   90.612">  7  8 -1 -1</clus>
<clus scale="  105.727">  2  5  1 -1</clus>
<clus scale="   22.078">  2  5  1 -1</clus>
</clustering>
</event>
<event>
 9    1  0.1296032E-005  0.9822250E+02  0.7546771E-02  0.1286698E+00
         -1   -1    0    0    0  501 -0.00000000000E+00  0.00000000000E+00  0.14564760891E+03  0.14564760891E+03  0.00000000000E+00 0.  1.
          1   -1    0    0  502    0  0.00000000000E+00 -0.00000000000E+00 -0.86992172256E+02  0.86992172256E+02  0.00000000000E+00 0. -1.
         23    2    1    2    0    0  0.28956900770E+02  0.34537760838E+01  0.52628143807E+02  0.11331628638E+03  0.96023062682E+02 0.  0.
         23    2    1    2    0    0 -0.97338891357E+01  0.10179620188E+02  0.16181118801E+02  0.93662359737E+02  0.91172560351E+02 0.  0.
        -11    1    3    3    0    0  0.59140196126E+01 -0.42893479623E+02  0.61165642487E+01  0.43729150236E+02  0.00000000000E+00 0. -1.
         11    1    3    3    0    0  0.23042881158E+02  0.46347255707E+02  0.46511579559E+02  0.69587136144E+02  0.00000000000E+00 0.  1.
        -13    1    4    4    0    0 -0.23879381979E+01  0.44106742754E+02  0.32953617395E+02  0.55109417568E+02  0.00000000000E+00 0.  1.
         13    1    4    4    0    0 -0.73459509379E+01 -0.33927122567E+02 -0.16772498594E+02  0.38552942170E+02  0.00000000000E+00 0. -1.
         21    1    1    2  502  501 -0.19223011634E+02 -0.13633396271E+02 -0.10153825958E+02  0.25661135045E+02  0.00000000000E+00 0. -1.
<scales pt_clust_5="13000.00000" pt_clust_6="13000.00000" pt_clust_7="13000.00000" pt_clust_8="13000.00000" pt_clust_9="23.56679"></scales>
<clustering>
<clus scale="   23.567">  2  9  1 -1</clus>
<clus scale="   91.173">  7  8 -1 -1</clus>
<clus scale="   93.486">  2  7  1 -1</clus>
<clus scale="   96.023">  5  6 -1 -1</clus>
<clus scale="   23.567">  2  5  1 -1</clus>
</clustering>
</event>
<event>
 9    1  0.1296032E-005  0.9177652E+02  0.7546771E-02  0.1299567E+00
         -2   -1    0    0    0  501 -0.00000000000E+00  0.00000000000E+00  0.83701392888E+02  0.83701392888E+02  0.00000000000E+00 0.  1.
          2   -1    0    0  502    0  0.00000000000E+00 -0.00000000000E+00 -0.46594962089E+03  0.46594962089E+03  0.00000000000E+00 0. -1.
         23    2    1    2    0    0  0.11971647866E+01 -0.16445382210E+01  0.28749157973E+02  0.94129845190E+02  0.89609017191E+02 0.  0.
         23    2    1    2    0    0 -0.77454169298E+02  0.73725254977E+01 -0.24621261433E+03  0.27385674846E+03  0.91232476382E+02 0.  0.
        -11    1    4    4    0    0 -0.48532980190E+02  0.31243061652E+02 -0.22161781334E+03  0.22901099156E+03  0.00000000000E+00 0. -1.
         11    1    4    4    0    0 -0.28921189108E+02 -0.23870536154E+02 -0.24594800993E+02  0.44845756896E+02  0.00000000000E+00 0.  1.
        -13    1    3    3    0    0 -0.28463310242E+02 -0.34321753524E+02  0.21145871948E+02  0.49348664575E+02  0.00000000000E+00 0.  1.
         13    1    3    3    0    0  0.29660475029E+02  0.32677215303E+02  0.76032860255E+01  0.44781180615E+02  0.00000000000E+00 0. -1.
         21    1    1    2  502  501  0.76257004511E+02 -0.57279872767E+01 -0.16478477164E+03  0.18166442013E+03  0.00000000000E+00 0. -1.
<scales pt_clust_5="13000.00000" pt_clust_6="13000.00000" pt_clust_7="13000.00000" pt_clust_8="13000.00000" pt_clust_9="76.47183"></scales>
<clustering>
<clus scale="   76.472">  2  9  1 -1</clus>
<clus scale="   89.609">  7  8 -1 -1</clus>
<clus scale="   90.163">  1  7  2 -1</clus>
<clus scale="   91.232">  5  6 -1 -1</clus>
<clus scale="   76.472">  2  5  1 -1</clus>
</clustering>
</event>
<event>
 9    1  0.1296032E-005  0.3130805E+03  0.7546771E-02  0.1079212E+00
         -2   -1    0    0    0  501 -0.00000000000E+00  0.00000000000E+00  0.14332878123E+04  0.14332878123E+04  0.00000000000E+00 0.  1.
          2   -1    0    0  502    0  0.00000000000E+00 -0.00000000000E+00 -0.11853368599E+03  0.11853368599E+03  0.00000000000E+00 0. -1.
         23    2    1    2    0    0 -0.12879958906E+03  0.26795830974E+03  0.10875480593E+04  0.11312061047E+04  0.92062370567E+02 0.  0.
         23    2    1    2    0    0  0.14981162634E+03 -0.26765413527E+03  0.23817292063E+03  0.39691159413E+03  0.82037881016E+02 0.  0.
        -11    1    3    3    0    0 -0.10472575065E+03  0.23501538913E+03  0.10228711822E+04  0.10547346450E+04  0.00000000000E+00 0.  1.
         11    1    3    3    0    0 -0.24073838417E+02  0.32942920612E+02  0.64676877078E+02  0.76471459664E+02  0.00000000000E+00 0. -1.
        -13    1    4    4    0    0  0.47874121190E+02 -0.42820282726E+02  0.84442636050E+02  0.10609461285E+03  0.00000000000E+00 0.  1.
         13    1    4    4    0    0  0.10193750515E+03 -0.22483385254E+03  0.15373028458E+03  0.29081698129E+03  0.00000000000E+00 0. -1.
         21    1    1    2  502  501 -0.21012037277E+02 -0.30417447453E+00 -0.10966853594E+02  0.23703799493E+02  0.00000000000E+00 0. -1.
<scales pt_clust_5="13000.00000" pt_clust_6="13000.00000" pt_clust_7="13000.00000" pt_clust_8="13000.00000" pt_clust_9="21.01424"></scales>
<clustering>
<clus scale="   21.014">  2  9  1 -1</clus>
<clus scale="   82.038">  7  8 -1 -1</clus>
<clus scale="   92.062">  5  6 -1 -1</clus>
<clus scale="  310.281">  2  7  1 -1</clus>
<clus scale="   21.014">  2  5  1 -1</clus>
</clustering>
</event>
<event>
 9    1  0.1296032E-005  0.1494241E+03  0.7546771E-02  0.1201488E+00
          2   -1    0    0  502    0  0.00000000000E+00  0.00000000000E+00  0.12843961063E+04  0.12843961063E+04  0.00000000000E+00 0. -1.
         -2   -1    0    0    0  501 -0.00000000000E+00 -0.00000000000E+00 -0.25499718935E+02  0.25499718935E+02  0.00000000000E+00 0.  1.
         23    2    1    2    0    0 -0.80804775776E+02  0.60606510651E+02  0.45833458643E+03  0.47770624312E+03  0.89051112717E+02 0.  0.
         23    2    1    2    0    0  0.84629829929E+02 -0.11692676634E+03  0.58136552132E+03  0.60584115328E+03  0.90683828910E+02 0.  0.
        -11    1    4    4    0    0  0.45828660672E+01 -0.58993457641E+02  0.11738095928E+03  0.13145158922E+03  0.00000000000E+00 0.  1.
         11    1    4    4    0    0  0.80046963862E+02 -0.57933308696E+02  0.46398456204E+03  0.47438956406E+03  0.00000000000E+00 0. -1.
        -13    1    3    3    0    0 -0.27491689222E+02 -0.59001845996E+00  0.26082341493E+02  0.37900259047E+02  0.00000000000E+00 0.  1.
         13    1    3    3    0    0 -0.53313086554E+02  0.61196529111E+02  0.43225224494E+03  0.43980598408E+03  0.00000000000E+00 0. -1.
         21    1    1    2  502  501 -0.38250541529E+01  0.56320255686E+02  0.21919627961E+03  0.22634842883E+03  0.00000000000E+00 0. -1.
<scales pt_clust_5="13000.00000" pt_clust_6="13000.00000" pt_clust_7="13000.00000" pt_clust_8="13000.00000" pt_clust_9="56.45000"></scales>
<clustering>
<clus scale="   56.450">  1  9  2 -1</clus>
<clus scale="   89.051">  7  8 -1 -1</clus>
<clus scale="   90.684">  5  6 -1 -1</clus>
<clus scale="  148.439">  2  7  1 -1</clus>
<clus scale="   56.450">  1  5  2 -1</clus>
</clustering>
</event>
<event>
 9    1  0.1296032E-005  0.1070413E+03  0.7546771E-02  0.1266882E+00
         -1   -1    0    0    0  501 -0.00000000000E+00  0.00000000000E+00  0.91844853742E+02  0.91844853742E+02  0.00000000000E+00 0.  1.
          1   -1    0    0  502    0  0.00000000000E+00 -0.00000000000E+00 -0.16990243233E+03  0.16990243233E+03  0.00000000000E+00 0. -1.
         23    2    1    2    0    0 -0.37953379177E+02  0.66664578483E+02 -0.45423240273E+02  0.12591755598E+03  0.88923197946E+02 0.  0.
         23    2    1    2    0    0  0.23970778212E+02 -0.37885854239E+02 -0.34306638948E+02  0.10379030611E+03  0.87095040087E+02 0.  0.
        -11    1    3    3    0    0 -0.59382104369E+01  0.65682508568E+02  0.50450897153E+01  0.66143081311E+02  0.00000000000E+00 0.  1.
         11    1    3    3    0    0 -0.32015168740E+02  0.98206991485E+00 -0.50468329988E+02  0.59774474674E+02  0.00000000000E+00 0. -1.
        -13    1    4    4    0    0  0.20322732149E+01  0.21149262871E+02  0.13101635513E+02  0.24961456439E+02  0.00000000000E+00 0.  1.
         13    1    4    4    0    0  0.21938504997E+02 -0.59035117110E+02 -0.47408274461E+02  0.78828849675E+02  0.00000000000E+00 0. -1.
         21    1    1    2  502  501  0.13982600965E+02 -0.28778724244E+02  0.16723006373E+01  0.32039423969E+02  0.00000000000E+00 0. -1.
<scales pt_clust_5="13000.00000" pt_clust_6="13000.00000" pt_clust_7="13000.00000" pt_clust_8="13000.00000" pt_clust_9="31.99575"></scales>
<clustering>
<clus scale="   31.996">  1  9  2 -1</clus>
<clus scale="   87.095">  7  8 -1 -1</clus>
<clus scale="   88.923">  5  6 -1 -1</clus>
<clus scale="  105.527">  2  7  1 -1</clus>
<clus scale="  105.527">  2  5  1 -1</clus>
</clustering>
</event>
<event>
 9    1  0.1296032E-005  0.9819029E+02  0.7546771E-02  0.1285404E+00
         -2   -1    0    0    0  501 -0.00000000000E+00  0.00000000000E+00  0.20113149338E+03  0.20113149338E+03  0.00000000000E+00 0.  1.
          2   -1    0    0  502    0  0.00000000000E+00 -0.00000000000E+00 -0.13253294278E+03  0.13253294278E+03  0.00000000000E+00 0. -1.
         23    2    1    2    0    0  0.68130906192E+01  0.24477168209E+02  0.14472189174E+03  0.17329818344E+03  0.91881905016E+02 0.  0.
         23    2    1    2    0    0 -0.41140049121E+02 -0.26582926674E+02 -0.51501389307E+02  0.11806950568E+03  0.94280747974E+02 0.  0.
        -11    1    3    3    0    0  0.17897158787E+02 -0.31186338406E+02  0.37328981803E+02  0.51829999790E+02  0.00000000000E+00 0. -1.
         11    1    3    3    0    0 -0.11084068167E+02  0.55663506615E+02  0.10739290993E+03  0.12146818365E+03  0.00000000000E+00 0.  1.
        -11    1    4    4    0    0 -0.50016412469E+02  0.11751009707E+02 -0.58763384633E+02  0.78056794188E+02  0.00000000000E+00 0.  1.
         11    1    4    4    0    0  0.88763633475E+01 -0.38333936382E+02  0.72619953261E+01  0.40012711491E+02  0.00000000000E+00 0. -1.
         21    1    1    2  502  501  0.34326958502E+02  0.21057584655E+01 -0.24621951830E+02  0.42296747046E+02  0.00000000000E+00 0. -1.
<scales pt_clust_5="13000.00000" pt_clust_6="13000.00000" pt_clust_7="13000.00000" pt_clust_8="13000.00000" pt_clust_9="34.39149"></scales>
<clustering>
<clus scale="   34.391">  2  9  1 -1</clus>
<clus scale="   91.882">  5  6 -1 -1</clus>
<clus scale="   94.281">  7  8 -1 -1</clus>
<clus scale="   95.889">  1  5  2 -1</clus>
<clus scale="   34.391">  2  5  1 -1</clus>
</clustering>
</event>
<event>
 9    1  0.1296032E-005  0.1234028E+03  0.7546771E-02  0.1238102E+00
          1   -1    0    0  502    0  0.00000000000E+00  0.00000000000E+00  0.53081658443E+03  0.53081658443E+03  0.00000000000E+00 0. -1.
         -1   -1    0    0    0  501 -0.00000000000E+00 -0.00000000000E+00 -0.11652800917E+03  0.11652800917E+03  0.00000000000E+00 0.  1.
         23    2    1    2    0    0  0.68008615486E+02 -0.52351007516E+02 -0.68404923314E+02  0.14302497245E+03  0.91712100857E+02 0.  0.
         23    2    1    2    0    0 -0.45463226583E+02  0.34809813822E+02  0.27997953930E+03  0.29960289656E+03  0.89970690192E+02 0.  0.
        -11    1    4    4    0    0 -0.18336133703E+02  0.41988622943E+02  0.26266267674E+03  0.26662884317E+03  0.00000000000E+00 0. -1.
         11    1    4    4    0    0 -0.27127092880E+02 -0.71788091213E+01  0.17316862557E+02  0.32974053396E+02  0.00000000000E+00 0.  1.
        -13    1    3    3    0    0  0.46456366889E+02  0.19156469293E+02 -0.34822163692E+02  0.61137119857E+02  0.00000000000E+00 0.  1.
         13    1    3    3    0    0  0.21552248598E+02 -0.71507476808E+02 -0.33582759622E+02  0.81887852597E+02  0.00000000000E+00 0. -1.
         21    1    1    2  502  501 -0.22545388904E+02  0.17541193694E+02  0.20271395927E+03  0.20471672458E+03  0.00000000000E+00 0. -1.
<scales pt_clust_5="13000.00000" pt_clust_6="13000.00000" pt_clust_7="13000.00000" pt_clust_8="13000.00000" pt_clust_9="28.56550"></scales>
<clustering>
<clus scale="   28.566">  1  9  2 -1</clus>
<clus scale="   89.971">  5  6 -1 -1</clus>
<clus scale="   91.712">  7  8 -1 -1</clus>
<clus scale="  122.114">  1  5  2 -1</clus>
<clus scale="   28.566">  1  5  2 -1</clus>
</clustering>
</event>
<event>
 9    1  0.1296032E-005  0.1185790E+03  0.7546771E-02  0.1250558E+00
          1   -1    0    0  502    0  0.00000000000E+00  0.00000000000E+00  0.75633410902E+03  0.75633410902E+03  0.00000000000E+00 0. -1.
         -1   -1    0    0    0  501 -0.00000000000E+00 -0.00000000000E+00 -0.32507632608E+02  0.32507632608E+02  0.00000000000E+00 0.  1.
         23    2    1    2    0    0  0.30812602544E+02  0.47939221244E+02  0.15057502127E+03  0.19184284612E+03  0.10432284107E+03 0.  0.
         23    2    1    2    0    0  0.17074508692E+02 -0.67888403898E+02  0.39311942077E+03  0.40954571437E+03  0.91018893316E+02 0.  0.
        -11    1    3    3    0    0 -0.25133284443E+02  0.55085312921E+02  0.95052426733E+02  0.11269887983E+03  0.00000000000E+00 0. -1.
         11    1    3    3    0    0  0.55945886987E+02 -0.71460916766E+01  0.55522594537E+02  0.79143966297E+02  0.00000000000E+00 0.  1.
        -13    1    4    4    0    0  0.47870746430E+02 -0.60329167167E+02  0.20947768975E+03  0.22318628828E+03  0.00000000000E+00 0.  1.
         13    1    4    4    0    0 -0.30796237738E+02 -0.75592367307E+01  0.18364173102E+03  0.18635942609E+03  0.00000000000E+00 0. -1.
         21    1    1    2  502  501 -0.47887111237E+02  0.19949182654E+02  0.18013203437E+03  0.18745318113E+03  0.00000000000E+00 0. -1.
<scales pt_clust_5="13000.00000" pt_clust_6="13000.00000" pt_clust_7="13000.00000" pt_clust_8="13000.00000" pt_clust_9="51.87625"></scales>
<clustering>
<clus scale="   51.876">  1  9  2 -1</clus>
<clus scale="   91.019">  7  8 -1 -1</clus>
<clus scale="  104.323">  5  6 -1 -1</clus>
<clus scale="  107.062">  1  7  2 -1</clus>
<clus scale="   51.876">  1  5  2 -1</clus>
</clustering>
</event>
<event>
 9    1  0.1296032E-005  0.1857706E+03  0.7546771E-02  0.1162453E+00
         -1   -1    0    0    0  501 -0.00000000000E+00  0.00000000000E+00  0.27937937257E+03  0.27937937257E+03  0.00000000000E+00 0.  1.
          1   -1    0    0  502    0  0.00000000000E+00 -0.00000000000E+00 -0.58350573926E+03  0.58350573926E+03  0.00000000000E+00 0. -1.
         23    2    1    2    0    0  0.38903902168E+02 -0.17898859993E+03  0.19018494993E+03  0.27857925285E+03  0.88801196100E+02 0.  0.
         23    2    1    2    0    0 -0.90915424917E+02  0.13403997857E+03 -0.47943299497E+03  0.51397136164E+03  0.89878994096E+02 0.  0.
        -13    1    4    4    0    0 -0.51556011485E+02  0.34454233200E+02 -0.28823338442E+03  0.29482808618E+03  0.00000000000E+00 0. -1.
         13    1    4    4    0    0 -0.39359413432E+02  0.99585745367E+02 -0.19119961055E+03  0.21914327546E+03  0.00000000000E+00 0.  1.
        -13    1    3    3    0    0  0.17096393143E+02 -0.14727013823E+03  0.95462360335E+02  0.17633446207E+03  0.00000000000E+00 0.  1.
         13    1    3    3    0    0  0.21807509026E+02 -0.31718461706E+02  0.94722589591E+02  0.10224479078E+03  0.00000000000E+00 0. -1.
         21    1    1    2  502  501  0.52011522748E+02  0.44948621365E+02 -0.14878321634E+02  0.70334497338E+02  0.00000000000E+00 0. -1.
<scales pt_clust_5="13000.00000" pt_clust_6="13000.00000" pt_clust_7="13000.00000" pt_clust_8="13000.00000" pt_clust_9="68.74283"></scales>
<clustering>
<clus scale="   68.743">  1  9  2 -1</clus>
<clus scale="   88.801">  7  8 -1 -1</clus>
<clus scale="   89.879">  5  6 -1 -1</clus>
<clus scale="  185.252">  1  7  2 -1</clus>
<clus scale="  185.771">  2  5  1 -1</clus>
</clustering>
</event>
<event>
 9    1  0.1451815E-005  0.9212456E+02  0.7546771E-02  0.1311023E+00
         -1   -1    0    0    0  501 -0.00000000000E+00  0.00000000000E+00  0.18917276345E+03  0.18917276345E+03  0.00000000000E+00 0.  1.
          1   -1    0    0  502    0  0.00000000000E+00 -0.00000000000E+00 -0.19827786235E+03  0.19827786235E+03  0.00000000000E+00 0. -1.
         23    2    1    2    0    0  0.12330933520E+02  0.50351101112E+01  0.15973269064E+03  0.18435087133E+03  0.91067596037E+02 0.  0.
         23    2    1    2    0    0 -0.70775642051E+01 -0.25839540045E+02 -0.74341080681E+02  0.10619748320E+03  0.70947413036E+02 0.  0.
        -11    1    3    3    0    0  0.36132912111E+02 -0.28312455871E+02  0.53516091937E+02  0.70506415249E+02  0.00000000000E+00 0. -1.
         11    1    3    3    0    0 -0.23801978591E+02  0.33347565982E+02  0.10621659870E+03  0.11384445608E+03  0.00000000000E+00 0.  1.
        -11    1    4    4    0    0 -0.33173015409E+02 -0.34869793456E+02 -0.44652769261E+02  0.65652275282E+02  0.00000000000E+00 0. -1.
         11    1    4    4    0    0  0.26095451204E+02  0.90302534116E+01 -0.29688311420E+02  0.40545207919E+02  0.00000000000E+00 0.  1.
         21    1    1    2  502  501 -0.52533693153E+01  0.20804429933E+02 -0.94496708853E+02  0.96902271274E+02  0.00000000000E+00 0. -1.
<scales pt_clust_5="13000.00000" pt_clust_6="13000.00000" pt_clust_7="13000.00000" pt_clust_8="13000.00000" pt_clust_9="21.45745"></scales>
<clustering>
<clus scale="   21.457">  2  9  1 -1</clus>
<clus scale="   70.947">  7  8 -1 -1</clus>
<clus scale="   72.299">  2  7  1 -1</clus>
<clus scale="   91.068">  5  6 -1 -1</clus>
<clus scale="   21.457">  2  5  1 -1</clus>
</clustering>
</event>
<event>
 9    1  0.1296032E-005  0.1077086E+03  0.7546771E-02  0.1265199E+00
          1   -1    0    0  502    0  0.00000000000E+00  0.00000000000E+00  0.16552749684E+03  0.16552749684E+03  0.00000000000E+00 0. -1.
         -1   -1    0    0    0  501 -0.00000000000E+00 -0.00000000000E+00 -0.10626100153E+03  0.10626100153E+03  0.00000000000E+00 0.  1.
         23    2    1    2    0    0  0.40488742515E+02 -0.48746290518E+02 -0.28473129744E+02  0.11447633167E+03  0.90986659937E+02 0.  0.
         23    2    1    2    0    0 -0.43076233223E+02  0.22585385997E+02  0.58459877848E+02  0.11796255895E+03  0.90177305719E+02 0.  0.
        -13    1    4    4    0    0  0.27954173123E+02  0.44117013628E+01  0.23259262137E+02  0.36631846515E+02  0.00000000000E+00 0.  1.
         13    1    4    4    0    0 -0.71030406346E+02  0.18173684635E+02  0.35200615711E+02  0.81330712436E+02  0.00000000000E+00 0. -1.
        -13    1    3    3    0    0 -0.15895122444E+02  0.14401166513E+02  0.71796626063E+01  0.22618489551E+02  0.00000000000E+00 0. -1.
         13    1    3    3    0    0  0.56383864959E+02 -0.63147457031E+02 -0.35652792351E+02  0.91857842124E+02  0.00000000000E+00 0.  1.
         21    1    1    2  502  501  0.25874907083E+01  0.26160904521E+02  0.29279747209E+02  0.39349607751E+02  0.00000000000E+00 0. -1.
<scales pt_clust_5="13000.00000" pt_clust_6="13000.00000" pt_clust_7="13000.00000" pt_clust_8="13000.00000" pt_clust_9="26.28855"></scales>
<clustering>
<clus scale="   26.289">  1  9  2 -1</clus>
<clus scale="   90.177">  5  6 -1 -1</clus>
<clus scale="   90.987">  7  8 -1 -1</clus>
<clus scale="  107.026">  1  5  2 -1</clus>
<clus scale="   26.289">  1  5  2 -1</clus>
</clustering>
</event>
<event>
 9    1  0.1296032E-005  0.9448509E+02  0.7546771E-02  0.1294234E+00
          1   -1    0    0  502    0  0.00000000000E+00  0.00000000000E+00  0.16584647605E+03  0.16584647605E+03  0.00000000000E+00 0. -1.
         -1   -1    0    0    0  501 -0.00000000000E+00 -0.00000000000E+00 -0.90614364216E+02  0.90614364216E+02  0.00000000000E+00 0.  1.
         23    2    1    2    0    0 -0.18623713227E+02  0.49438700286E-01  0.13225984435E+02  0.93255416851E+02  0.90414605951E+02 0.  0.
         23    2    1    2    0    0 -0.20844411437E+01 -0.46014004856E+02  0.53663688626E+02  0.11210586096E+03  0.86984475890E+02 0.  0.
        -11    1    3    3    0    0 -0.20946853874E+02  0.31887943253E+02 -0.23331901638E+02  0.44721239318E+02  0.00000000000E+00 0.  1.
         11    1    3    3    0    0  0.23231406476E+01 -0.31838504553E+02  0.36557886073E+02  0.48534177532E+02  0.00000000000E+00 0. -1.
        -11    1    4    4    0    0  0.70946646583E+01 -0.71096762627E+02  0.42676050542E+02  0.83224570966E+02  0.00000000000E+00 0. -1.
         11    1    4    4    0    0 -0.91791058020E+01  0.25082757771E+02  0.10987638085E+02  0.28881289989E+02  0.00000000000E+00 0.  1.
         21    1    1    2  502  501  0.20708154370E+02  0.45964566155E+02  0.83424387778E+01  0.51099562464E+02  0.00000000000E+00 0.  1.
<scales pt_clust_5="13000.00000" pt_clust_6="13000.00000" pt_clust_7="13000.00000" pt_clust_8="13000.00000" pt_clust_9="50.41398"></scales>
<clustering>
<clus scale="   50.414">  2  9  1 -1</clus>
<clus scale="   86.984">  7  8 -1 -1</clus>
<clus scale="   90.415">  5  6 -1 -1</clus>
<clus scale="   91.208">  1  7  2 -1</clus>
<clus scale="   91.208">  1  5  2 -1</clus>
</clustering>
</event>
<event>
 9    1  0.1613202E-005  0.9892737E+02  0.7546771E-02  0.1283769E+00
          1   -1    0    0  502    0  0.00000000000E+00  0.00000000000E+00  0.67540720257E+03  0.67540720257E+03  0.00000000000E+00 0. -1.
         -1   -1    0    0    0  501 -0.00000000000E+00 -0.00000000000E+00 -0.52505939264E+02  0.52505939264E+02  0.00000000000E+00 0.  1.
         23    2    1    2    0    0  0.72161840032E+01 -0.22811228619E+02  0.10916285023E+02  0.97274315838E+02  0.93652024967E+02 0.  0.
         23    2    1    2    0    0 -0.48342878107E+02  0.71478988289E+01  0.45814008676E+03  0.47062321577E+03  0.95946577865E+02 0.  0.
        -11    1    3    3    0    0  0.50785976033E+01 -0.59572588114E+02  0.82387388742E+01  0.60353643026E+02  0.00000000000E+00 0.  1.
         11    1    3    3    0    0  0.21375863999E+01  0.36761359495E+02  0.26775461487E+01  0.36920672812E+02  0.00000000000E+00 0. -1.
        -11    1    4    4    0    0 -0.67408571043E+02  0.32279098283E+02  0.28523396519E+03  0.29486313865E+03  0.00000000000E+00 0.  1.
         11    1    4    4    0    0  0.19065692936E+02 -0.25131199454E+02  0.17290612157E+03  0.17576007713E+03  0.00000000000E+00 0. -1.
         21    1    1    2  502  501  0.41126694104E+02  0.15663329790E+02  0.15384489152E+03  0.16001561022E+03  0.00000000000E+00 0. -1.
<scales pt_clust_5="13000.00000" pt_clust_6="13000.00000" pt_clust_7="13000.00000" pt_clust_8="13000.00000" pt_clust_9="44.00846"></scales>
<clustering>
<clus scale="   44.008">  1  9  2 -1</clus>
<clus scale="   93.652">  5  6 -1 -1</clus>
<clus scale="   95.947">  7  8 -1 -1</clus>
<clus scale="   96.704">  2  5  1 -1</clus>
<clus scale="   44.008">  1  5  2 -1</clus>
</clustering>
</event>
<event>
 9    1  0.1296032E-005  0.9165079E+02  0.7546771E-02  0.1299113E+00
         -2   -1    0    0    0  501 -0.00000000000E+00  0.00000000000E+00  0.99567742317E+02  0.99567742317E+02  0.00000000000E+00 0.  1.
          2   -1    0    0  502    0  0.00000000000E+00 -0.00000000000E+00 -0.21509138960E+03  0.21509138960E+03  0.00000000000E+00 0. -1.
         23    2    1    2    0    0 -0.19630497491E+01  0.46656976561E+01  0.56051427448E+02  0.10699703313E+03  0.90999891647E+02 0.  0.
         23    2    1    2    0    0  0.21921105324E+02 -0.90355296663E+01 -0.12358090569E+03  0.15550023843E+03  0.91355942588E+02 0.  0.
        -11    1    3    3    0    0  0.38952329550E+02  0.20368238219E+02  0.42455294765E+02  0.61111383220E+02  0.00000000000E+00 0.  1.
         11    1    3    3    0    0 -0.40915379299E+02 -0.15702540563E+02  0.13596132683E+02  0.45885649905E+02  0.00000000000E+00 0. -1.
        -13    1    4    4    0    0 -0.16507594048E+02 -0.40883592899E+02 -0.64966969638E+02  0.78515450541E+02  0.00000000000E+00 0. -1.
         13    1    4    4    0    0  0.38428699372E+02  0.31848063233E+02 -0.58613936049E+02  0.76984787889E+02  0.00000000000E+00 0.  1.
         21    1    1    2  502  501 -0.19958055575E+02  0.43698320102E+01 -0.47994169047E+02  0.52161860364E+02  0.00000000000E+00 0.  1.
<scales pt_clust_5="13000.00000" pt_clust_6="13000.00000" pt_clust_7="13000.00000" pt_clust_8="13000.00000" pt_clust_9="20.43084"></scales>
<clustering>
<clus scale="   20.431">  2  9  1 -1</clus>
<clus scale="   91.000">  5  6 -1 -1</clus>
<clus scale="   91.296">  1  5  2 -1</clus>
<clus scale="   91.356">  7  8 -1 -1</clus>
<clus scale="   20.431">  2  5  1 -1</clus>
</clustering>
</event>
<event>
 9    1  0.1296032E-005  0.1025166E+03  0.7546771E-02  0.1278111E+00
         -4   -1    0    0    0  501 -0.00000000000E+00  0.00000000000E+00  0.26175088165E+03  0.26175088165E+03  0.00000000000E+00 0. -1.
          4   -1    0    0  502    0  0.00000000000E+00 -0.00000000000E+00 -0.66413359136E+02  0.66413359136E+02  0.00000000000E+00 0.  1.
         23    2    1    2    0    0  0.39895460206E+02  0.31525965560E+02  0.12266756642E+03  0.15864371364E+03  0.86804157601E+02 0.  0.
         23    2    1    2    0    0 -0.93242908617E+01 -0.36381282291E+02  0.89272485100E+02  0.13439483193E+03  0.93176467797E+02 0.  0.
        -11    1    3    3    0    0 -0.12714191541E+02  0.36466493668E+02  0.86155260276E+02  0.94414960151E+02  0.00000000000E+00 0.  1.
         11    1    3    3    0    0  0.52609651747E+02 -0.49405281084E+01  0.36512306144E+02  0.64228753490E+02  0.00000000000E+00 0. -1.
        -13    1    4    4    0    0  0.28873971969E+02  0.11388305640E+02  0.68985420186E+01  0.31796063351E+02  0.00000000000E+00 0.  1.
         13    1    4    4    0    0 -0.38198262831E+02 -0.47769587931E+02  0.82373943082E+02  0.10259876858E+03  0.00000000000E+00 0. -1.
         21    1    1    2  502  501 -0.30571169344E+02  0.48553167312E+01 -0.16602529003E+02  0.35125695223E+02  0.00000000000E+00 0. -1.
<scales pt_clust_5="13000.00000" pt_clust_6="13000.00000" pt_clust_7="13000.00000" pt_clust_8="13000.00000" pt_clust_9="30.95433"></scales>
<clustering>
<clus scale="   30.954">  2  9  1 -1</clus>
<clus scale="   86.804">  5  6 -1 -1</clus>
<clus scale="   93.176">  7  8 -1 -1</clus>
<clus scale="   96.761">  1  5  2 -1</clus>
<clus scale="   30.954">  2  5  1 -1</clus>
</clustering>
</event>
<event>
 9    1  0.1296032E-005  0.1497353E+03  0.7546771E-02  0.1201215E+00
         -2   -1    0    0    0  501 -0.00000000000E+00  0.00000000000E+00  0.32159327669E+02  0.32159327669E+02  0.00000000000E+00 0.  1.
          2   -1    0    0  502    0  0.00000000000E+00 -0.00000000000E+00 -0.91998484989E+03  0.91998484989E+03  0.00000000000E+00 0. -1.
         23    2    1    2    0    0  0.11436140971E+02  0.11154068872E+03 -0.27723461065E+03  0.31197816707E+03  0.88877650855E+02 0.  0.
         23    2    1    2    0    0 -0.39549708994E+02 -0.12587336008E+03 -0.49326944060E+03  0.51867475268E+03  0.91106946909E+02 0.  0.
        -13    1    4    4    0    0 -0.34153797295E+02 -0.43898693016E+02 -0.80731207694E+02  0.98036243369E+02  0.00000000000E+00 0.  1.
         13    1    4    4    0    0 -0.53959116983E+01 -0.81974667068E+02 -0.41253823291E+03  0.42063850931E+03  0.00000000000E+00 0. -1.
        -13    1    3    3    0    0  0.35826642558E+02  0.82315958929E+01 -0.78093840377E+02  0.86313124104E+02  0.00000000000E+00 0. -1.
         13    1    3    3    0    0 -0.24390501586E+02  0.10330909283E+03 -0.19914077027E+03  0.22566504296E+03  0.00000000000E+00 0.  1.
         21    1    1    2  502  501  0.28113568022E+02  0.14332671362E+02 -0.11732147097E+03  0.12149125782E+03  0.00000000000E+00 0.  1.
<scales pt_clust_5="13000.00000" pt_clust_6="13000.00000" pt_clust_7="13000.00000" pt_clust_8="13000.00000" pt_clust_9="31.55627"></scales>
<clustering>
<clus scale="   31.556">  2  9  1 -1</clus>
<clus scale="   88.878">  7  8 -1 -1</clus>
<clus scale="   91.107">  5  6 -1 -1</clus>
<clus scale="  148.389">  1  7  2 -1</clus>
<clus scale="   31.556">  2  5  1 -1</clus>
</clustering>
</event>
<event>
 9    1  0.1296032E-005  0.1008913E+03  0.7546771E-02  0.1280223E+00
         -1   -1    0    0    0  501 -0.00000000000E+00  0.00000000000E+00  0.18145961239E+03  0.18145961239E+03  0.00000000000E+00 0.  1.
          1   -1    0    0  502    0  0.00000000000E+00 -0.00000000000E+00 -0.72722801412E+02  0.72722801412E+02  0.00000000000E+00 0. -1.
         23    2    1    2    0    0 -0.63620756951E+01  0.24959662064E+02  0.77946948022E+02  0.12102467554E+03  0.88925725442E+02 0.  0.
         23    2    1    2    0    0  0.13257341870E+02 -0.46908232600E+02  0.16193855504E+02  0.10591204360E+03  0.92622786748E+02 0.  0.
        -13    1    3    3    0    0  0.38111659735E+02  0.10735737266E+02  0.14323810870E+02  0.42106130435E+02  0.00000000000E+00 0. -1.
         13    1    3    3    0    0 -0.44473735430E+02  0.14223924798E+02  0.63623137152E+02  0.78918545101E+02  0.00000000000E+00 0.  1.
        -13    1    4    4    0    0  0.19723340061E+02  0.23047398472E+02  0.18660913327E+02  0.35614918302E+02  0.00000000000E+00 0.  1.
         13    1    4    4    0    0 -0.64659981919E+01 -0.69955631072E+02 -0.24670578224E+01  0.70297125301E+02  0.00000000000E+00 0. -1.
         21    1    1    2  502  501 -0.68952661745E+01  0.21948570536E+02  0.14596007456E+02  0.27245694666E+02  0.00000000000E+00 0.  1.
<scales pt_clust_5="13000.00000" pt_clust_6="13000.00000" pt_clust_7="13000.00000" pt_clust_8="13000.00000" pt_clust_9="23.00618"></scales>
<clustering>
<clus scale="   23.006">  1  9  2 -1</clus>
<clus scale="   88.926">  5  6 -1 -1</clus>
<clus scale="   92.623">  7  8 -1 -1</clus>
<clus scale="   97.508">  1  5  2 -1</clus>
<clus scale="  100.891">  2  5  1 -1</clus>
</clustering>
</event>
<event>
 9    1  0.1296032E-005  0.9263327E+02  0.7546771E-02  0.1297026E+00
          2   -1    0    0  502    0  0.00000000000E+00  0.00000000000E+00  0.39852550192E+03  0.39852550192E+03  0.00000000000E+00 0. -1.
         -2   -1    0    0    0  501 -0.00000000000E+00 -0.00000000000E+00 -0.41203546863E+02  0.41203546863E+02  0.00000000000E+00 0.  1.
         23    2    1    2    0    0  0.38488817235E+01  0.90183394326E+01  0.52989043261E+02  0.10503709871E+03  0.90159908292E+02 0.  0.
         23    2    1    2    0    0 -0.27450535904E+02 -0.35415345155E+02  0.25084109616E+03  0.27054201374E+03  0.90906254370E+02 0.  0.
        -11    1    3    3    0    0  0.25776030039E+02 -0.30861636602E+02  0.42150231999E+02  0.58253638478E+02  0.00000000000E+00 0. -1.
         11    1    3    3    0    0 -0.21927148316E+02  0.39879976035E+02  0.10838811262E+02  0.46783460233E+02  0.00000000000E+00 0.  1.
        -13    1    4    4    0    0  0.31930300130E+01  0.23629396700E+02  0.22779713070E+02  0.32976645624E+02  0.00000000000E+00 0.  1.
         13    1    4    4    0    0 -0.30643565917E+02 -0.59044741854E+02  0.22806138309E+03  0.23756536812E+03  0.00000000000E+00 0. -1.
         21    1    1    2  502  501  0.23601654181E+02  0.26397005722E+02  0.53491815642E+02  0.64149936336E+02  0.00000000000E+00 0. -1.
<scales pt_clust_5="13000.00000" pt_clust_6="13000.00000" pt_clust_7="13000.00000" pt_clust_8="13000.00000" pt_clust_9="35.40960"></scales>
<clustering>
<clus scale="   35.410">  1  9  2 -1</clus>
<clus scale="   90.160">  5  6 -1 -1</clus>
<clus scale="   90.906">  7  8 -1 -1</clus>
<clus scale="   91.901">  2  5  1 -1</clus>
<clus scale="   35.410">  1  5  2 -1</clus>
</clustering>
</event>
<event>
 9    1  0.1296032E-005  0.1199969E+03  0.7546771E-02  0.1243964E+00
         -2   -1    0    0    0  501 -0.00000000000E+00  0.00000000000E+00  0.61137973012E+03  0.61137973012E+03  0.00000000000E+00 0.  1.
          2   -1    0    0  502    0  0.00000000000E+00 -0.00000000000E+00 -0.91883624332E+02  0.91883624332E+02  0.00000000000E+00 0. -1.
         23    2    1    2    0    0 -0.73629981004E+02 -0.29237776679E+02  0.53399540117E+03  0.54747104054E+03  0.91089132579E+02 0.  0.
         23    2    1    2    0    0  0.74201917881E+02 -0.81325185051E+01 -0.21845689411E+02  0.11770247827E+03  0.88343515722E+02 0.  0.
        -13    1    4    4    0    0  0.82893630395E+02  0.14368269659E+02 -0.33941521873E+02  0.90718399678E+02  0.00000000000E+00 0. -1.
         13    1    4    4    0    0 -0.86917125140E+01 -0.22500788164E+02  0.12095832462E+02  0.26984078590E+02  0.00000000000E+00 0.  1.
        -13    1    3    3    0    0  0.66614737581E+00 -0.36066227879E+02  0.85282362705E+02  0.92597505011E+02  0.00000000000E+00 0. -1.
         13    1    3    3    0    0 -0.74296128380E+02  0.68284512006E+01  0.44871303846E+03  0.45487353553E+03  0.00000000000E+00 0.  1.
         21    1    1    2  502  501 -0.57193687664E+00  0.37370295184E+02  0.73463940277E+01  0.38089835641E+02  0.00000000000E+00 0. -1.
<scales pt_clust_5="13000.00000" pt_clust_6="13000.00000" pt_clust_7="13000.00000" pt_clust_8="13000.00000" pt_clust_9="37.37467"></scales>
<clustering>
<clus scale="   37.375">  2  9  1 -1</clus>
<clus scale="   88.344">  5  6 -1 -1</clus>
<clus scale="   91.089">  7  8 -1 -1</clus>
<clus scale="  117.926">  2  5  1 -1</clus>
<clus scale="   37.375">  2  5  1 -1</clus>
</clustering>
</event>
<event>
 9    1  0.1296032E-005  0.1014118E+03  0.7546771E-02  0.1278199E+00
          2   -1    0    0  502    0  0.00000000000E+00  0.00000000000E+00  0.17746974457E+03  0.17746974457E+03  0.00000000000E+00 0.  1.
         -2   -1    0    0    0  501 -0.00000000000E+00 -0.00000000000E+00 -0.14639897153E+03  0.14639897153E+03  0.00000000000E+00 0. -1.
         23    2    1    2    0    0  0.37035984994E+02 -0.34334322244E+01 -0.85040164471E+02  0.13083050009E+03  0.92202698120E+02 0.  0.
         23    2    1    2    0    0 -0.58914298341E+02  0.12708024169E+02  0.44207548172E+02  0.11730991185E+03  0.90415262409E+02 0.  0.
        -11    1    3    3    0    0  0.99151285712E+01 -0.23324426986E+02 -0.92896642144E+02  0.96291872920E+02  0.00000000000E+00 0. -1.
         11    1    3    3    0    0  0.27120856423E+02  0.19890994761E+02  0.78564776732E+01  0.34538627175E+02  0.00000000000E+00 0.  1.
        -11    1    4    4    0    0 -0.82282437644E+02  0.69207272078E+01  0.24309477711E+02  0.86076981338E+02  0.00000000000E+00 0.  1.
         11    1    4    4    0    0  0.23368139302E+02  0.57872969610E+01  0.19898070461E+02  0.31232930516E+02  0.00000000000E+00 0. -1.
         21    1    1    2  502  501  0.21878313348E+02 -0.92745919445E+01  0.71903389336E+02  0.75728304145E+02  0.00000000000E+00 0. -1.
<scales pt_clust_5="13000.00000" pt_clust_6="13000.00000" pt_clust_7="13000.00000" pt_clust_8="13000.00000" pt_clust_9="23.76297"></scales>
<clustering>
<clus scale="   23.763">  1  9  2 -1</clus>
<clus scale="   90.415">  7  8 -1 -1</clus>
<clus scale="   92.203">  5  6 -1 -1</clus>
<clus scale="   99.789">  1  7  2 -1</clus>
<clus scale="   23.763">  1  5  2 -1</clus>
</clustering>
</event>
<event>
 9    1  0.1296032E-005  0.1254018E+03  0.7546771E-02  0.1234844E+00
         -2   -1    0    0    0  501 -0.00000000000E+00  0.00000000000E+00  0.36608887976E+02  0.36608887976E+02  0.00000000000E+00 0.  1.
          2   -1    0    0  502    0  0.00000000000E+00 -0.00000000000E+00 -0.69447946360E+03  0.69447946360E+03  0.00000000000E+00 0. -1.
         23    2    1    2    0    0  0.69511559104E+02  0.34997944093E+02 -0.14901021217E+03  0.19046890319E+03  0.89541313440E+02 0.  0.
         23    2    1    2    0    0 -0.79301388424E+02 -0.74089773980E+02 -0.37595675876E+03  0.40174043606E+03  0.90960918519E+02 0.  0.
        -11    1    3    3    0    0  0.48819811545E+02 -0.46087716169E+01 -0.18315068355E+02  0.52345549037E+02  0.00000000000E+00 0.  1.
         11    1    3    3    0    0  0.20691747559E+02  0.39606715710E+02 -0.13069514382E+03  0.13812335416E+03  0.00000000000E+00 0. -1.
        -11    1    4    4    0    0 -0.88899757512E+02 -0.26472807724E+02 -0.23468702277E+03  0.25235287811E+03  0.00000000000E+00 0. -1.
         11    1    4    4    0    0  0.95983690883E+01 -0.47616966256E+02 -0.14126973599E+03  0.14938755795E+03  0.00000000000E+00 0.  1.
         21    1    1    2  502  501  0.97898293194E+01  0.39091829887E+02 -0.13290360469E+03  0.13887901232E+03  0.00000000000E+00 0. -1.
<scales pt_clust_5="13000.00000" pt_clust_6="13000.00000" pt_clust_7="13000.00000" pt_clust_8="13000.00000" pt_clust_9="40.29903"></scales>
<clustering>
<clus scale="   40.299">  2  9  1 -1</clus>
<clus scale="   89.541">  5  6 -1 -1</clus>
<clus scale="   90.961">  7  8 -1 -1</clus>
<clus scale="  124.376">  1  5  2 -1</clus>
<clus scale="   40.299">  2  5  1 -1</clus>
</clustering>
</event>
<event>
 9    1  0.1296032E-005  0.9517746E+02  0.7546771E-02  0.1290842E+00
          1   -1    0    0  502    0  0.00000000000E+00  0.00000000000E+00  0.92447752606E+03  0.92447752606E+03  0.00000000000E+00 0. -1.
         -1   -1    0    0    0  501 -0.00000000000E+00 -0.00000000000E+00 -0.19869958518E+02  0.19869958518E+02  0.00000000000E+00 0.  1.
         23    2    1    2    0    0  0.90810401602E+01 -0.45758608276E+02  0.24273754756E+03  0.26322294502E+03  0.90490255106E+02 0.  0.
         23    2    1    2    0    0 -0.30676931649E+02 -0.14089515981E+02  0.42467617848E+03  0.43554543019E+03  0.90611128464E+02 0.  0.
        -11    1    3    3    0    0  0.31426015917E+02 -0.64308475021E+02  0.15325437466E+03  0.16914513824E+03  0.00000000000E+00 0.  1.
         11    1    3    3    0    0 -0.22344975757E+02  0.18549866745E+02  0.89483172895E+02  0.94077806783E+02  0.00000000000E+00 0. -1.
        -13    1    4    4    0    0 -0.21476390516E+02 -0.52288795202E+02  0.22106389110E+03  0.22817668023E+03  0.00000000000E+00 0.  1.
         13    1    4    4    0    0 -0.92005411332E+01  0.38199279222E+02  0.20361228738E+03  0.20736874996E+03  0.00000000000E+00 0. -1.
         21    1    1    2  502  501  0.21595891489E+02  0.59848124257E+02  0.23719384151E+03  0.24557910936E+03  0.00000000000E+00 0. -1.
<scales pt_clust_5="13000.00000" pt_clust_6="13000.00000" pt_clust_7="13000.00000" pt_clust_8="13000.00000" pt_clust_9="63.62531"></scales>
<clustering>
<clus scale="   63.625">  1  9  2 -1</clus>
<clus scale="   90.490">  5  6 -1 -1</clus>
<clus scale="   90.611">  7  8 -1 -1</clus>
<clus scale="   95.062">  2  5  1 -1</clus>
<clus scale="   63.625">  1  5  2 -1</clus>
</clustering>
</event>
<event>
 9    1  0.1296032E-005  0.9888582E+02  0.7546771E-02  0.1283415E+00
         -3   -1    0    0    0  501 -0.00000000000E+00  0.00000000000E+00  0.15575853419E+03  0.15575853419E+03  0.00000000000E+00 0.  1.
          3   -1    0    0  502    0  0.00000000000E+00 -0.00000000000E+00 -0.17089312253E+03  0.17089312253E+03  0.00000000000E+00 0. -1.
         23    2    1    2    0    0  0.17414817438E+02 -0.18764891513E+02  0.65195968019E+02  0.11482788023E+03  0.90991927180E+02 0.  0.
         23    2    1    2    0    0 -0.79413147486E+02  0.18798721745E+02 -0.15427217720E+02  0.12206723110E+03  0.89457084285E+02 0.  0.
        -11    1    3    3    0    0 -0.26130066488E+02  0.64610139377E+01  0.58065826581E+02  0.64001291333E+02  0.00000000000E+00 0.  1.
         11    1    3    3    0    0  0.43544883925E+02 -0.25225905451E+02  0.71301414388E+01  0.50826588896E+02  0.00000000000E+00 0. -1.
        -13    1    4    4    0    0 -0.96521933504E+02  0.14286759950E+01 -0.14937568709E+02  0.97681399055E+02  0.00000000000E+00 0.  1.
         13    1    4    4    0    0  0.17108786017E+02  0.17370045750E+02 -0.48964901094E+00  0.24385832044E+02  0.00000000000E+00 0. -1.
         21    1    1    2  502  501  0.61998330049E+02 -0.33830231876E-01 -0.64903338648E+02  0.89756545393E+02  0.00000000000E+00 0. -1.
<scales pt_clust_5="13000.00000" pt_clust_6="13000.00000" pt_clust_7="13000.00000" pt_clust_8="13000.00000" pt_clust_9="61.99834"></scales>
<clustering>
<clus scale="   61.998">  2  9  1 -1</clus>
<clus scale="   89.457">  7  8 -1 -1</clus>
<clus scale="   90.992">  5  6 -1 -1</clus>
<clus scale="   97.475">  2  7  1 -1</clus>
<clus scale="   61.998">  2  5  1 -1</clus>
</clustering>
</event>
<event>
 9    1  0.1296032E-005  0.1449548E+03  0.7546771E-02  0.1207300E+00
         -2   -1    0    0    0  501 -0.00000000000E+00  0.00000000000E+00  0.24172065316E+03  0.24172065316E+03  0.00000000000E+00 0.  1.
          2   -1    0    0  502    0  0.00000000000E+00 -0.00000000000E+00 -0.24483435919E+03  0.24483435919E+03  0.00000000000E+00 0. -1.
         23    2    1    2    0    0  0.79180122413E+02 -0.70946798831E+02  0.91054045482E+02  0.16743437179E+03  0.91872137276E+02 0.  0.
         23    2    1    2    0    0 -0.63280644966E+02  0.10562868602E+03  0.57513514972E+02  0.16271465192E+03  0.89478456663E+02 0.  0.
        -11    1    4    4    0    0  0.11022984297E+02  0.57920244566E+02  0.32001799541E+01  0.59046609260E+02  0.00000000000E+00 0.  1.
         11    1    4    4    0    0 -0.74303629263E+02  0.47708441451E+02  0.54313335017E+02  0.10366804266E+03  0.00000000000E+00 0. -1.
        -11    1    3    3    0    0  0.38116902421E+02 -0.33561544456E+02 -0.10340502065E+02  0.51828578018E+02  0.00000000000E+00 0. -1.
         11    1    3    3    0    0  0.41063219992E+02 -0.37385254375E+02  0.10139454755E+03  0.11560579377E+03  0.00000000000E+00 0.  1.
         21    1    1    2  502  501 -0.15899477447E+02 -0.34681887185E+02 -0.15168126649E+03  0.15640598865E+03  0.00000000000E+00 0. -1.
<scales pt_clust_5="13000.00000" pt_clust_6="13000.00000" pt_clust_7="13000.00000" pt_clust_8="13000.00000" pt_clust_9="38.15268"></scales>
<clustering>
<clus scale="   38.153">  2  9  1 -1</clus>
<clus scale="   89.478">  5  6 -1 -1</clus>
<clus scale="   91.872">  7  8 -1 -1</clus>
<clus scale="  143.450">  2  5  1 -1</clus>
<clus scale="   38.153">  2  5  1 -1</clus>
</clustering>
</event>
<event>
 9    1  0.1296032E-005  0.1066648E+03  0.7546771E-02  0.1272537E+00
         -2   -1    0    0    0  501 -0.00000000000E+00  0.00000000000E+00  0.29750071481E+02  0.29750071481E+02  0.00000000000E+00 0. -1.
          2   -1    0    0  502    0  0.00000000000E+00 -0.00000000000E+00 -0.48222620548E+03  0.48222620548E+03  0.00000000000E+00 0.  1.
         23    2    1    2    0    0  0.18807775916E+02  0.37683997719E+02 -0.13124234238E+03  0.16442057514E+03  0.89642383813E+02 0.  0.
         23    2    1    2    0    0 -0.19876525099E+02 -0.91077896239E+01 -0.24030907057E+03  0.26172707973E+03  0.10136363640E+03 0.  0.
        -11    1    3    3    0    0 -0.13256471594E+02  0.30665915298E+02 -0.47567519937E+01  0.33745504734E+02  0.00000000000E+00 0. -1.
         11    1    3    3    0    0  0.32064247510E+02  0.70180824202E+01 -0.12648559039E+03  0.13067507040E+03  0.00000000000E+00 0.  1.
        -11    1    4    4    0    0  0.50155255357E+01 -0.50282378308E+02 -0.16314552738E+03  0.17079208462E+03  0.00000000000E+00 0.  1.
         11    1    4    4    0    0 -0.24892050635E+02  0.41174588685E+02 -0.77163543197E+02  0.90934995116E+02  0.00000000000E+00 0. -1.
         21    1    1    2  502  501  0.10687491826E+01 -0.28576208095E+02 -0.80924721040E+02  0.85828622087E+02  0.00000000000E+00 0.  1.
<scales pt_clust_5="13000.00000" pt_clust_6="13000.00000" pt_clust_7="13000.00000" pt_clust_8="13000.00000" pt_clust_9="28.59619"></scales>
<clustering>
<clus scale="   28.596">  2  9  1 -1</clus>
<clus scale="   89.642">  5  6 -1 -1</clus>
<clus scale="   95.596">  1  5  2 -1</clus>
<clus scale="  101.364">  7  8 -1 -1</clus>
<clus scale="   28.596">  2  5  1 -1</clus>
</clustering>
</event>
<event>
 9    1  0.1296032E-005  0.1091059E+03  0.7546771E-02  0.1262544E+00
         -1   -1    0    0    0  501 -0.00000000000E+00  0.00000000000E+00  0.44010468262E+02  0.44010468262E+02  0.00000000000E+00 0.  1.
          1   -1    0    0  502    0  0.00000000000E+00 -0.00000000000E+00 -0.62208359949E+03  0.62208359949E+03  0.00000000000E+00 0. -1.
         23    2    1    2    0    0 -0.18193022044E+02  0.56308451623E+02 -0.47334094595E+02  0.11834789302E+03  0.90906982654E+02 0.  0.
         23    2    1    2    0    0  0.28286066112E+01 -0.69173145378E+02 -0.47815520563E+03  0.49147340255E+03  0.90115368727E+02 0.  0.
        -11    1    4    4    0    0 -0.33530904319E+02 -0.66070962443E+02 -0.36946108403E+03  0.37681717879E+03  0.00000000000E+00 0. -1.
         11    1    4    4    0    0  0.36359510930E+02 -0.31021829344E+01 -0.10869412160E+03  0.11465622375E+03  0.00000000000E+00 0.  1.
        -11    1    3    3    0    0  0.30330666746E+02  0.47772282826E+01  0.39258568919E+01  0.30954540986E+02  0.00000000000E+00 0. -1.
         11    1    3    3    0    0 -0.48523688790E+02  0.51531223340E+02 -0.51259951487E+02  0.87393352031E+02  0.00000000000E+00 0.  1.
         21    1    1    2  502  501  0.15364415433E+02  0.12864693755E+02 -0.52583830998E+02  0.56272772185E+02  0.00000000000E+00 0.  1.
<scales pt_clust_5="13000.00000" pt_clust_6="13000.00000" pt_clust_7="13000.00000" pt_clust_8="13000.00000" pt_clust_9="20.03910"></scales>
<clustering>
<clus scale="   20.039">  2  9  1 -1</clus>
<clus scale="   90.115">  5  6 -1 -1</clus>
<clus scale="   90.907">  7  8 -1 -1</clus>
<clus scale="  108.447">  2  5  1 -1</clus>
<clus scale="   20.039">  2  5  1 -1</clus>
</clustering>
</event>
<event>
 9    1  0.1296032E-005  0.2590929E+03  0.7546771E-02  0.1136018E+00
          1   -1    0    0  502    0  0.00000000000E+00  0.00000000000E+00  0.24609526385E+04  0.24609526385E+04  0.00000000000E+00 0. -1.
         -1   -1    0    0    0  501 -0.00000000000E+00 -0.00000000000E+00 -0.54755224734E+02  0.54755224734E+02  0.00000000000E+00 0.  1.
         23    2    1    2    0    0  0.21614589082E+03  0.14982846306E+03  0.41777345779E+03  0.50205000878E+03  0.91388920674E+02 0.  0.
         23    2    1    2    0    0 -0.43829916205E+02 -0.78352200799E+02  0.66885363336E+03  0.68096603429E+03  0.91046296359E+02 0.  0.
        -11    1    4    4    0    0 -0.24909391254E+02 -0.97685168135E+02  0.52529532739E+03  0.53488134276E+03  0.00000000000E+00 0. -1.
         11    1    4    4    0    0 -0.18920524950E+02  0.19332967336E+02  0.14355830596E+03  0.14608469154E+03  0.00000000000E+00 0.  1.
        -13    1    3    3    0    0  0.19412760513E+02  0.55333260907E+02  0.68243755467E+02  0.89976859211E+02  0.00000000000E+00 0. -1.
         13    1    3    3    0    0  0.19673313031E+03  0.94495202158E+02  0.34952970232E+03  0.41207314957E+03  0.00000000000E+00 0.  1.
         21    1    1    2  502  501 -0.17231597462E+03 -0.71476262266E+02  0.13195703226E+04  0.13326918202E+04  0.00000000000E+00 0. -1.
<scales pt_clust_5="13000.00000" pt_clust_6="13000.00000" pt_clust_7="13000.00000" pt_clust_8="13000.00000" pt_clust_9="242.44012"></scales>
<clustering>
<clus scale="   91.046">  5  6 -1 -1</clus>
<clus scale="   91.389">  7  8 -1 -1</clus>
<clus scale="  127.865">  1  5  2 -1</clus>
<clus scale="  242.440">  1  9  2 -1</clus>
<clus scale="  127.865">  1  5  2 -1</clus>
</clustering>
</event>
<event>
 9    1  0.1296032E-005  0.9953771E+02  0.7546771E-02  0.1282088E+00
         -1   -1    0    0    0  501 -0.00000000000E+00  0.00000000000E+00  0.24228115845E+02  0.24228115845E+02  0.00000000000E+00 0.  1.
          1   -1    0    0  502    0  0.00000000000E+00 -0.00000000000E+00 -0.53918081757E+03  0.53918081757E+03  0.00000000000E+00 0. -1.
         23    2    1    2    0    0  0.18949417398E+02  0.52287243492E+01 -0.18595856910E+03  0.20900015011E+03  0.93349093992E+02 0.  0.
         23    2    1    2    0    0 -0.44941994988E+02 -0.10169856355E+02 -0.28672223766E+03  0.30453953447E+03  0.91714107922E+02 0.  0.
        -11    1    3    3    0    0 -0.20920970326E+02  0.31732392102E+02 -0.39076188180E+02  0.54512202217E+02  0.00000000000E+00 0.  1.
         11    1    3    3    0    0  0.39870387724E+02 -0.26503667752E+02 -0.14688238092E+03  0.15448794790E+03  0.00000000000E+00 0. -1.
        -11    1    4    4    0    0  0.19485336498E+02  0.21905207938E+02 -0.62172177387E+02  0.68737879763E+02  0.00000000000E+00 0.  1.
         11    1    4    4    0    0 -0.64427331486E+02 -0.32075064293E+02 -0.22455006027E+03  0.23580165470E+03  0.00000000000E+00 0. -1.
         21    1    1    2  502  501  0.25992577591E+02  0.49411320059E+01 -0.42271894968E+02  0.49869248836E+02  0.00000000000E+00 0. -1.
<scales pt_clust_5="13000.00000" pt_clust_6="13000.00000" pt_clust_7="13000.00000" pt_clust_8="13000.00000" pt_clust_9="26.45806"></scales>
<clustering>
<clus scale="   26.458">  1  9  2 -1</clus>
<clus scale="   91.714">  7  8 -1 -1</clus>
<clus scale="   93.349">  5  6 -1 -1</clus>
<clus scale="   98.006">  2  7  1 -1</clus>
<clus scale="   98.006">  2  5  1 -1</clus>
</clustering>
</event>
<event>
 9    1  0.1296032E-005  0.1828296E+03  0.7546771E-02  0.1165206E+00
          1   -1    0    0  502    0  0.00000000000E+00  0.00000000000E+00  0.38727278786E+03  0.38727278786E+03  0.00000000000E+00 0. -1.
         -1   -1    0    0    0  501 -0.00000000000E+00 -0.00000000000E+00 -0.45777558519E+03  0.45777558519E+03  0.00000000000E+00 0.  1.
         23    2    1    2    0    0  0.73841785303E+02 -0.14084545301E+03 -0.38548951927E+03  0.42621203170E+03  0.88116261904E+02 0.  0.
         23    2    1    2    0    0 -0.10880015419E+03  0.13563404458E+03  0.13828149383E+03  0.23863094750E+03  0.87114235159E+02 0.  0.
        -11    1    4    4    0    0 -0.61261786529E+02  0.63753242048E+02  0.17298838787E+02  0.90092908621E+02  0.00000000000E+00 0.  1.
         11    1    4    4    0    0 -0.47538367659E+02  0.71880802532E+02  0.12098265504E+03  0.14853803888E+03  0.00000000000E+00 0. -1.
        -13    1    3    3    0    0  0.38375416977E+02 -0.14080709327E+03 -0.29839043570E+03  0.33216887612E+03  0.00000000000E+00 0.  1.
         13    1    3    3    0    0  0.35466368326E+02 -0.38359734820E-01 -0.87099083569E+02  0.94043155584E+02  0.00000000000E+00 0. -1.
         21    1    1    2  502  501  0.34958368885E+02  0.52114084300E+01  0.17670522811E+03  0.18020539386E+03  0.00000000000E+00 0. -1.
<scales pt_clust_5="13000.00000" pt_clust_6="13000.00000" pt_clust_7="13000.00000" pt_clust_8="13000.00000" pt_clust_9="35.34468"></scales>
<clustering>
<clus scale="   35.345">  1  9  2 -1</clus>
<clus scale="   87.114">  5  6 -1 -1</clus>
<clus scale="   88.116">  7  8 -1 -1</clus>
<clus scale="  182.349">  1  5  2 -1</clus>
<clus scale="   35.345">  1  5  2 -1</clus>
</clustering>
</event>
<event>
 9    1  0.1296032E-005  0.1100713E+03  0.7546771E-02  0.1262121E+00
          2   -1    0    0  502    0  0.00000000000E+00  0.00000000000E+00  0.10604595533E+03  0.10604595533E+03  0.00000000000E+00 0. -1.
         -2   -1    0    0    0  501 -0.00000000000E+00 -0.00000000000E+00 -0.16817567062E+03  0.16817567062E+03  0.00000000000E+00 0.  1.
         23    2    1    2    0    0  0.42491242973E+02 -0.30177240183E+02 -0.71715514069E+02  0.12783208037E+03  0.92096439989E+02 0.  0.
         23    2    1    2    0    0 -0.64939957807E+02  0.45652158001E+02  0.12263580331E+02  0.11899267728E+03  0.87792620380E+02 0.  0.
        -11    1    4    4    0    0 -0.72929382307E+01  0.38705943962E+02 -0.28007941909E+02  0.48329927126E+02  0.00000000000E+00 0.  1.
         11    1    4    4    0    0 -0.57647019576E+02  0.69462140385E+01  0.40271522240E+02  0.70662750152E+02  0.00000000000E+00 0. -1.
        -11    1    3    3    0    0  0.67077338688E+02 -0.25355040907E+02 -0.73535136583E+02  0.10271155620E+03  0.00000000000E+00 0.  1.
         11    1    3    3    0    0 -0.24586095715E+02 -0.48221992769E+01  0.18196225137E+01  0.25120524168E+02  0.00000000000E+00 0. -1.
         21    1    1    2  502  501  0.22448714834E+02 -0.15474917817E+02 -0.26777815537E+01  0.27396868310E+02  0.00000000000E+00 0.  1.
<scales pt_clust_5="13000.00000" pt_clust_6="13000.00000" pt_clust_7="13000.00000" pt_clust_8="13000.00000" pt_clust_9="27.26569"></scales>
<clustering>
<clus scale="   27.266">  1  9  2 -1</clus>
<clus scale="   87.793">  5  6 -1 -1</clus>
<clus scale="   92.096">  7  8 -1 -1</clus>
<clus scale="  106.496">  1  5  2 -1</clus>
<clus scale="   27.266">  1  5  2 -1</clus>
</clustering>
</event>
<event>
 9    1  0.1296032E-005  0.1288060E+03  0.7546771E-02  0.1229698E+00
         -2   -1    0    0    0  501 -0.00000000000E+00  0.00000000000E+00  0.80034124095E+02  0.80034124095E+02  0.00000000000E+00 0.  1.
          2   -1    0    0  502    0  0.00000000000E+00 -0.00000000000E+00 -0.39480090545E+03  0.39480090545E+03  0.00000000000E+00 0. -1.
         23    2    1    2    0    0  0.68997447046E+02 -0.67193500563E+02 -0.29351745630E+02  0.13532227745E+03  0.90415593710E+02 0.  0.
         23    2    1    2    0    0 -0.78611957600E+02  0.27604635046E+02 -0.13401277070E+03  0.18272511565E+03  0.92125943288E+02 0.  0.
        -11    1    4    4    0    0 -0.97175506690E+02  0.18402970750E+02 -0.88497971108E+02  0.13271638679E+03  0.00000000000E+00 0.  1.
         11    1    4    4    0    0  0.18563549090E+02  0.92016642960E+01 -0.45514799591E+02  0.50008728862E+02  0.00000000000E+00 0. -1.
        -13    1    3    3    0    0  0.22098456344E+02 -0.56644869355E+02  0.22299279952E+02  0.64762959193E+02  0.00000000000E+00 0.  1.
         13    1    3    3    0    0  0.46898990702E+02 -0.10548631208E+02 -0.51651025582E+02  0.70559318257E+02  0.00000000000E+00 0. -1.
         21    1    1    2  502  501  0.96145105539E+01  0.39588865517E+02 -0.15140226503E+03  0.15678763644E+03  0.00000000000E+00 0. -1.
<scales pt_clust_5="13000.00000" pt_clust_6="13000.00000" pt_clust_7="13000.00000" pt_clust_8="13000.00000" pt_clust_9="40.73963"></scales>
<clustering>
<clus scale="   40.740">  2  9  1 -1</clus>
<clus scale="   90.416">  7  8 -1 -1</clus>
<clus scale="   92.126">  5  6 -1 -1</clus>
<clus scale="  127.588">  1  7  2 -1</clus>
<clus scale="   40.740">  2  5  1 -1</clus>
</clustering>
</event>
<event>
 9    1  0.1296032E-005  0.1065853E+03  0.7546771E-02  0.1267791E+00
          1   -1    0    0  502    0  0.00000000000E+00  0.00000000000E+00  0.53161862787E+03  0.53161862787E+03  0.00000000000E+00 0. -1.
         -1   -1    0    0    0  501 -0.00000000000E+00 -0.00000000000E+00 -0.89258085824E+02  0.89258085824E+02  0.00000000000E+00 0.  1.
         23    2    1    2    0    0 -0.22428126554E+02 -0.33563797575E+02 -0.11713710396E+02  0.10025639248E+03  0.91019689373E+02 0.  0.
         23    2    1    2    0    0  0.36008512247E+02  0.80742237393E+02  0.98471918485E+02  0.16164504076E+03  0.92824989199E+02 0.  0.
        -11    1    4    4    0    0  0.12052302909E+02  0.51594995538E+02  0.11008279559E+03  0.12217005956E+03  0.00000000000E+00 0. -1.
         11    1    4    4    0    0  0.23956209339E+02  0.29147241855E+02 -0.11610877101E+02  0.39474981199E+02  0.00000000000E+00 0.  1.
        -13    1    3    3    0    0  0.23923412809E+02 -0.30359093405E+02 -0.31396494889E+02  0.49797029270E+02  0.00000000000E+00 0.  1.
         13    1    3    3    0    0 -0.46351539363E+02 -0.32047041696E+01  0.19682784493E+02  0.50459363210E+02  0.00000000000E+00 0. -1.
         21    1    1    2  502  501 -0.13580385693E+02 -0.47178439818E+02  0.35560233396E+03  0.35897528045E+03  0.00000000000E+00 0. -1.
<scales pt_clust_5="13000.00000" pt_clust_6="13000.00000" pt_clust_7="13000.00000" pt_clust_8="13000.00000" pt_clust_9="49.09411"></scales>
<clustering>
<clus scale="   49.094">  1  9  2 -1</clus>
<clus scale="   91.020">  7  8 -1 -1</clus>
<clus scale="   92.825">  5  6 -1 -1</clus>
<clus scale="  105.017">  2  7  1 -1</clus>
<clus scale="   49.094">  1  5  2 -1</clus>
</clustering>
</event>
<event>
 9    1  0.1296032E-005  0.1113954E+03  0.7546771E-02  0.1258468E+00
         -1   -1    0    0    0  501 -0.00000000000E+00  0.00000000000E+00  0.18294540533E+03  0.18294540533E+03  0.00000000000E+00 0.  1.
          1   -1    0    0  502    0  0.00000000000E+00 -0.00000000000E+00 -0.13983913068E+03  0.13983913068E+03  0.00000000000E+00 0. -1.
         23    2    1    2    0    0  0.59905095389E+02 -0.24640546943E+02  0.96292628434E+02  0.14771626262E+03  0.91389534105E+02 0.  0.
         23    2    1    2    0    0 -0.64637372451E+02  0.53005583411E+00  0.58828732157E+01  0.11109262329E+03  0.90159258408E+02 0.  0.
        -11    1    4    4    0    0 -0.82762301774E+02 -0.15324781939E+02 -0.57178103003E+01  0.84363148893E+02  0.00000000000E+00 0. -1.
         11    1    4    4    0    0  0.18124929323E+02  0.15854837773E+02  0.11600683516E+02  0.26729474402E+02  0.00000000000E+00 0.  1.
        -13    1    3    3    0    0  0.25187398316E+02 -0.27853401197E+02  0.10522417432E+03  0.11172441029E+03  0.00000000000E+00 0.  1.
         13    1    3    3    0    0  0.34717697072E+02  0.32128542540E+01 -0.89315458861E+01  0.35991852333E+02  0.00000000000E+00 0. -1.
         21    1    1    2  502  501  0.47322770624E+01  0.24110491109E+02 -0.59069226995E+02  0.63975650098E+02  0.00000000000E+00 0.  1.
<scales pt_clust_5="13000.00000" pt_clust_6="13000.00000" pt_clust_7="13000.00000" pt_clust_8="13000.00000" pt_clust_9="24.57052"></scales>
<clustering>
<clus scale="   24.571">  2  9  1 -1</clus>
<clus scale="   90.159">  5  6 -1 -1</clus>
<clus scale="   91.390">  7  8 -1 -1</clus>
<clus scale="  110.388">  2  5  1 -1</clus>
<clus scale="   24.571">  2  5  1 -1</clus>
</clustering>
</event>
<event>
 9    1  0.1296032E-005  0.1456869E+03  0.7546771E-02  0.1206188E+00
          1   -1    0    0  502    0  0.00000000000E+00  0.00000000000E+00  0.13526639134E+03  0.13526639134E+03  0.00000000000E+00 0. -1.
         -1   -1    0    0    0  501 -0.00000000000E+00 -0.00000000000E+00 -0.29567068662E+03  0.29567068662E+03  0.00000000000E+00 0.  1.
         23    2    1    2    0    0 -0.11770621472E+03  0.15600006838E+02 -0.14984109291E+03  0.21210038569E+03  0.91848284082E+02 0.  0.
         23    2    1    2    0    0  0.10195409688E+03  0.54382682195E+02 -0.26620179539E+01  0.14666928483E+03  0.90292185601E+02 0.  0.
        -11    1    4    4    0    0  0.11248204552E+03  0.30103628658E+02  0.10869687137E+02  0.11694695003E+03  0.00000000000E+00 0. -1.
         11    1    4    4    0    0 -0.10527948644E+02  0.24279053537E+02 -0.13531705091E+02  0.29722334801E+02  0.00000000000E+00 0.  1.
        -13    1    3    3    0    0 -0.11132351437E+03  0.38843692587E+02 -0.14604537842E+03  0.18769925376E+03  0.00000000000E+00 0.  1.
         13    1    3    3    0    0 -0.63827003503E+01 -0.23243685749E+02 -0.37957144929E+01  0.24401131930E+02  0.00000000000E+00 0. -1.
         21    1    1    2  502  501  0.15752117845E+02 -0.69982689033E+02 -0.79011844202E+01  0.72167407437E+02  0.00000000000E+00 0. -1.
<scales pt_clust_5="13000.00000" pt_clust_6="13000.00000" pt_clust_7="13000.00000" pt_clust_8="13000.00000" pt_clust_9="71.73358"></scales>
<clustering>
<clus scale="   71.734">  1  9  2 -1</clus>
<clus scale="   90.292">  5  6 -1 -1</clus>
<clus scale="   91.848">  7  8 -1 -1</clus>
<clus scale="  144.711">  1  5  2 -1</clus>
<clus scale="   71.734">  1  5  2 -1</clus>
</clustering>
</event>
<event>
 9    1  0.1473387E-005  0.1133893E+03  0.7546771E-02  0.1254983E+00
          1   -1    0    0  502    0  0.00000000000E+00  0.00000000000E+00  0.42851655301E+03  0.42851655301E+03  0.00000000000E+00 0. -1.
         -1   -1    0    0    0  501 -0.00000000000E+00 -0.00000000000E+00 -0.84386172288E+02  0.84386172288E+02  0.00000000000E+00 0.  1.
         23    2    1    2    0    0  0.61368257162E+02  0.28437216340E+02 -0.30874082502E+02  0.11762486064E+03  0.91146369154E+02 0.  0.
         23    2    1    2    0    0 -0.42146147805E+02 -0.21745701615E+02  0.32567780869E+03  0.34191697350E+03  0.92693087021E+02 0.  0.
        -11    1    4    4    0    0  0.18382827621E+02  0.18524440306E+02  0.14193224370E+03  0.14431162476E+03  0.00000000000E+00 0. -1.
         11    1    4    4    0    0 -0.60528975427E+02 -0.40270141920E+02  0.18374556499E+03  0.19760534873E+03  0.00000000000E+00 0.  1.
        -13    1    3    3    0    0 -0.27509322922E+01  0.46221179846E+02 -0.18922584681E+02  0.50020288942E+02  0.00000000000E+00 0.  1.
         13    1    3    3    0    0  0.64119189455E+02 -0.17783963506E+02 -0.11951497821E+02  0.67604571698E+02  0.00000000000E+00 0. -1.
         21    1    1    2  502  501 -0.19222109357E+02 -0.66915147254E+01  0.49326654539E+02  0.53360891161E+02  0.00000000000E+00 0. -1.
<scales pt_clust_5="13000.00000" pt_clust_6="13000.00000" pt_clust_7="13000.00000" pt_clust_8="13000.00000" pt_clust_9="20.35352"></scales>
<clustering>
<clus scale="   20.354">  1  9  2 -1</clus>
<clus scale="   91.146">  7  8 -1 -1</clus>
<clus scale="   92.693">  5  6 -1 -1</clus>
<clus scale="  112.128">  2  7  1 -1</clus>
<clus scale="   20.354">  1  5  2 -1</clus>
</clustering>
</event>
<event>
 9    1  0.1296032E-005  0.1106599E+03  0.7546771E-02  0.1260206E+00
         -1   -1    0    0    0  501 -0.00000000000E+00  0.00000000000E+00  0.18596214518E+03  0.18596214518E+03  0.00000000000E+00 0.  1.
          1   -1    0    0  502    0  0.00000000000E+00 -0.00000000000E+00 -0.14756550728E+03  0.14756550728E+03  0.00000000000E+00 0. -1.
         23    2    1    2    0    0 -0.41605887266E+02 -0.58850984224E+02  0.11948112346E+03  0.16694937815E+03  0.91661703023E+02 0.  0.
         23    2    1    2    0    0  0.32926501604E+02  0.99632000098E+01 -0.51538445009E+02  0.10880011500E+03  0.89430609118E+02 0.  0.
        -11    1    4    4    0    0 -0.14831268056E+02  0.35730775597E+02 -0.86739040814E+01  0.39647086261E+02  0.00000000000E+00 0.  1.
         11    1    4    4    0    0  0.47757769660E+02 -0.25767575588E+02 -0.42864540928E+02  0.69153028737E+02  0.00000000000E+00 0. -1.
        -13    1    3    3    0    0 -0.62650556504E+01  0.22825102140E+02  0.45225366737E+02  0.51044784323E+02  0.00000000000E+00 0.  1.
         13    1    3    3    0    0 -0.35340831616E+02 -0.81676086365E+02  0.74255756725E+02  0.11590459383E+03  0.00000000000E+00 0. -1.
         21    1    1    2  502  501  0.86793856621E+01  0.48887784215E+02 -0.29546040553E+02  0.57778159310E+02  0.00000000000E+00 0.  1.
<scales pt_clust_5="13000.00000" pt_clust_6="13000.00000" pt_clust_7="13000.00000" pt_clust_8="13000.00000" pt_clust_9="49.65226"></scales>
<clustering>
<clus scale="   49.652">  2  9  1 -1</clus>
<clus scale="   89.431">  5  6 -1 -1</clus>
<clus scale="   91.662">  7  8 -1 -1</clus>
<clus scale="  108.819">  2  5  1 -1</clus>
<clus scale="   49.652">  2  5  1 -1</clus>
</clustering>
</event>
<event>
 9    1  0.1296032E-005  0.1181464E+03  0.7546771E-02  0.1247757E+00
         -1   -1    0    0    0  501 -0.00000000000E+00  0.00000000000E+00  0.20454810709E+03  0.20454810709E+03  0.00000000000E+00 0.  1.
          1   -1    0    0  502    0  0.00000000000E+00 -0.00000000000E+00 -0.98914970474E+02  0.98914970474E+02  0.00000000000E+00 0. -1.
         23    2    1    2    0    0 -0.25525837792E+02 -0.74541465717E+02  0.76999556572E+02  0.14104039038E+03  0.88065098074E+02 0.  0.
         23    2    1    2    0    0  0.40397272368E+02  0.55250858539E+02  0.53948477344E+02  0.12729248484E+03  0.92781148438E+02 0.  0.
        -11    1    4    4    0    0  0.45047143798E+02  0.75842789262E+02  0.25418032353E+02  0.91801144960E+02  0.00000000000E+00 0.  1.
         11    1    4    4    0    0 -0.46498714297E+01 -0.20591930723E+02  0.28530444992E+02  0.35491339882E+02  0.00000000000E+00 0. -1.
        -13    1    3    3    0    0 -0.46189537182E+02 -0.83663721293E+02  0.61478344001E+02  0.11363396670E+03  0.00000000000E+00 0. -1.
         13    1    3    3    0    0  0.20663699390E+02  0.91222555757E+01  0.15521212571E+02  0.27406423681E+02  0.00000000000E+00 0.  1.
         21    1    1    2  502  501 -0.14871434576E+02  0.19290607178E+02 -0.25314897299E+02  0.35130202347E+02  0.00000000000E+00 0. -1.
<scales pt_clust_5="13000.00000" pt_clust_6="13000.00000" pt_clust_7="13000.00000" pt_clust_8="13000.00000" pt_clust_9="24.35749"></scales>
<clustering>
<clus scale="   24.357">  2  9  1 -1</clus>
<clus scale="   88.065">  7  8 -1 -1</clus>
<clus scale="   92.781">  5  6 -1 -1</clus>
<clus scale="  114.480">  1  7  2 -1</clus>
<clus scale="   24.357">  2  5  1 -1</clus>
</clustering>
</event>
<event>
 9    1  0.1296032E-005  0.1233037E+03  0.7546771E-02  0.1241804E+00
          1   -1    0    0  502    0  0.00000000000E+00  0.00000000000E+00  0.77464811455E+03  0.77464811455E+03  0.00000000000E+00 0. -1.
         -1   -1    0    0    0  501 -0.00000000000E+00 -0.00000000000E+00 -0.43825348778E+02  0.43825348778E+02  0.00000000000E+00 0.  1.
         23    2    1    2    0    0  0.63801925149E+02 -0.42223299665E+02  0.94281077587E+02  0.15888043761E+03  0.10247233371E+03 0.  0.
         23    2    1    2    0    0 -0.56648314026E+01  0.63240014810E+02  0.38398128484E+03  0.39957690830E+03  0.90491373877E+02 0.  0.
        -11    1    3    3    0    0  0.67087551618E+02  0.16144327102E+02  0.57427203879E+02  0.89773395976E+02  0.00000000000E+00 0.  1.
         11    1    3    3    0    0 -0.32856264690E+01 -0.58367626767E+02  0.36853873708E+02  0.69107041631E+02  0.00000000000E+00 0. -1.
        -13    1    4    4    0    0  0.11106639059E+02  0.83178064451E+02  0.27463398846E+03  0.28716854886E+03  0.00000000000E+00 0.  1.
         13    1    4    4    0    0 -0.16771470462E+02 -0.19938049641E+02  0.10934729639E+03  0.11240835944E+03  0.00000000000E+00 0. -1.
         21    1    1    2  502  501 -0.58137093746E+02 -0.21016715145E+02  0.25256040334E+03  0.26001611742E+03  0.00000000000E+00 0. -1.
<scales pt_clust_5="13000.00000" pt_clust_6="13000.00000" pt_clust_7="13000.00000" pt_clust_8="13000.00000" pt_clust_9="61.81928"></scales>
<clustering>
<clus scale="   61.819">  1  9  2 -1</clus>
<clus scale="   90.491">  7  8 -1 -1</clus>
<clus scale="  102.472">  5  6 -1 -1</clus>
<clus scale="  113.543">  1  7  2 -1</clus>
<clus scale="   61.819">  1  5  2 -1</clus>
</clustering>
</event>
<event>
 9    1  0.1296032E-005  0.9741061E+02  0.7546771E-02  0.1286424E+00
         -2   -1    0    0    0  501 -0.00000000000E+00  0.00000000000E+00  0.41186036894E+03  0.41186036894E+03  0.00000000000E+00 0.  1.
          2   -1    0    0  502    0  0.00000000000E+00 -0.00000000000E+00 -0.15572141633E+03  0.15572141633E+03  0.00000000000E+00 0. -1.
         23    2    1    2    0    0 -0.29439794968E+02  0.69614995275E+01  0.37950192428E+03  0.39154406032E+03  0.91487029899E+02 0.  0.
         23    2    1    2    0    0  0.21822173770E+02 -0.31220753297E+02 -0.97365466577E+02  0.13967277181E+03  0.92614828174E+02 0.  0.
        -11    1    4    4    0    0 -0.33574579442E+02  0.54626148285E+00 -0.18994638965E+02  0.38579101801E+02  0.00000000000E+00 0.  1.
         11    1    4    4    0    0  0.55396753212E+02 -0.31767014780E+02 -0.78370827612E+02  0.10109367001E+03  0.00000000000E+00 0. -1.
        -13    1    3    3    0    0 -0.60863430893E+02 -0.82852310512E+01  0.24419033431E+03  0.25179738213E+03  0.00000000000E+00 0. -1.
         13    1    3    3    0    0  0.31423635925E+02  0.15246730579E+02  0.13531158996E+03  0.13974667820E+03  0.00000000000E+00 0.  1.
         21    1    1    2  502  501  0.76176211978E+01  0.24259253770E+02 -0.25997505088E+02  0.36364953142E+02  0.00000000000E+00 0.  1.
<scales pt_clust_5="13000.00000" pt_clust_6="13000.00000" pt_clust_7="13000.00000" pt_clust_8="13000.00000" pt_clust_9="25.42714"></scales>
<clustering>
<clus scale="   25.427">  2  9  1 -1</clus>
<clus scale="   91.487">  7  8 -1 -1</clus>
<clus scale="   92.615">  5  6 -1 -1</clus>
<clus scale="   96.339">  1  7  2 -1</clus>
<clus scale="   25.427">  2  5  1 -1</clus>
</clustering>
</event>
<event>
 9    1  0.1296032E-005  0.9965633E+02  0.7546771E-02  0.1282629E+00
         -1   -1    0    0    0  501 -0.00000000000E+00  0.00000000000E+00  0.54668045918E+02  0.54668045918E+02  0.00000000000E+00 0.  1.
          1   -1    0    0  502    0  0.00000000000E+00 -0.00000000000E+00 -0.42708739164E+03  0.42708739164E+03  0.00000000000E+00 0. -1.
         23    2    1    2    0    0  0.34184407335E+02  0.12060427477E+02 -0.56565851121E+02  0.11659050921E+03  0.95287059501E+02 0.  0.
         23    2    1    2    0    0 -0.83112017195E+01 -0.27119813375E+02 -0.74195759807E+02  0.12165996196E+03  0.92149743454E+02 0.  0.
        -11    1    4    4    0    0 -0.49525875151E+01 -0.58895451334E+02 -0.27772749075E+02  0.65303352917E+02  0.00000000000E+00 0.  1.
         11    1    4    4    0    0 -0.33586142045E+01  0.31775637960E+02 -0.46423010732E+02  0.56356609041E+02  0.00000000000E+00 0. -1.
        -13    1    3    3    0    0  0.60618704710E+02  0.21864895211E+02 -0.14667999812E+02  0.66089721000E+02  0.00000000000E+00 0.  1.
         13    1    3    3    0    0 -0.26434297375E+02 -0.98044677342E+01 -0.41897851310E+02  0.50500788208E+02  0.00000000000E+00 0. -1.
         21    1    1    2  502  501 -0.25873205615E+02  0.15059385898E+02 -0.24165773479E+03  0.24350496639E+03  0.00000000000E+00 0. -1.
<scales pt_clust_5="13000.00000" pt_clust_6="13000.00000" pt_clust_7="13000.00000" pt_clust_8="13000.00000" pt_clust_9="29.93673"></scales>
<clustering>
<clus scale="   29.937">  2  9  1 -1</clus>
<clus scale="   92.150">  5  6 -1 -1</clus>
<clus scale="   95.287">  7  8 -1 -1</clus>
<clus scale="   96.661">  2  5  1 -1</clus>
<clus scale="   29.937">  2  5  1 -1</clus>
</clustering>
</event>
<event>
 9    1  0.1296032E-005  0.1558195E+03  0.7546771E-02  0.1195621E+00
          1   -1    0    0  502    0  0.00000000000E+00  0.00000000000E+00  0.10291181381E+03  0.10291181381E+03  0.00000000000E+00 0. -1.
         -1   -1    0    0    0  501 -0.00000000000E+00 -0.00000000000E+00 -0.78679360228E+03  0.78679360228E+03  0.00000000000E+00 0.  1.
         23    2    1    2    0    0 -0.15700895145E+03 -0.20604005057E+02 -0.43824348895E+03  0.47371422134E+03  0.85272926740E+02 0.  0.
         23    2    1    2    0    0  0.51161025892E+02  0.98193961861E+02 -0.24369466646E+03  0.28473662358E+03  0.97099689129E+02 0.  0.
        -13    1    3    3    0    0 -0.12247162531E+03 -0.51032852333E+02 -0.30061785961E+03  0.32859511339E+03  0.00000000000E+00 0. -1.
         13    1    3    3    0    0 -0.34537326145E+02  0.30428847276E+02 -0.13762562934E+03  0.14511910796E+03  0.00000000000E+00 0.  1.
        -13    1    4    4    0    0  0.10212425118E+02  0.10342851644E+03 -0.19440689035E+03  0.22044452965E+03  0.00000000000E+00 0. -1.
         13    1    4    4    0    0  0.40948600774E+02 -0.52345545789E+01 -0.49287776116E+02  0.64292093927E+02  0.00000000000E+00 0.  1.
         21    1    1    2  502  501  0.10584792556E+03 -0.77589956803E+02 -0.19436330531E+01  0.13125457117E+03  0.00000000000E+00 0. -1.
<scales pt_clust_5="13000.00000" pt_clust_6="13000.00000" pt_clust_7="13000.00000" pt_clust_8="13000.00000" pt_clust_9="131.24018"></scales>
<clustering>
<clus scale="   85.273">  5  6 -1 -1</clus>
<clus scale="   97.100">  7  8 -1 -1</clus>
<clus scale="  131.240">  1  9  2 -1</clus>
<clus scale="  148.738">  2  5  1 -1</clus>
<clus scale="  131.240">  1  5  2 -1</clus>
</clustering>
</event>
<event>
 9    1  0.1296032E-005  0.1179038E+03  0.7546771E-02  0.1247188E+00
         -2   -1    0    0    0  501 -0.00000000000E+00  0.00000000000E+00  0.14121966184E+03  0.14121966184E+03  0.00000000000E+00 0.  1.
          2   -1    0    0  502    0  0.00000000000E+00 -0.00000000000E+00 -0.45118386190E+03  0.45118386190E+03  0.00000000000E+00 0. -1.
         23    2    1    2    0    0  0.75537777834E+02 -0.27159434883E+02  0.90828996127E+02  0.15031043143E+03  0.88880416710E+02 0.  0.
         23    2    1    2    0    0 -0.69105726043E+02 -0.12451409988E+02 -0.14467546783E+03  0.18285057826E+03  0.87021284720E+02 0.  0.
        -11    1    3    3    0    0  0.14797022121E+02  0.23223153773E+02 -0.30079143275E+01  0.27700438326E+02  0.00000000000E+00 0. -1.
         11    1    3    3    0    0  0.60740755713E+02 -0.50382588656E+02  0.93836910454E+02  0.12260999310E+03  0.00000000000E+00 0.  1.
        -13    1    4    4    0    0 -0.22054295547E+02  0.60807584689E+01  0.62192961782E+01  0.23707535101E+02  0.00000000000E+00 0.  1.
         13    1    4    4    0    0 -0.47051430496E+02 -0.18532168457E+02 -0.15089476401E+03  0.15914304316E+03  0.00000000000E+00 0. -1.
         21    1    1    2  502  501 -0.64320517909E+01  0.39610844871E+02 -0.25611772835E+03  0.25924251406E+03  0.00000000000E+00 0.  1.
<scales pt_clust_5="13000.00000" pt_clust_6="13000.00000" pt_clust_7="13000.00000" pt_clust_8="13000.00000" pt_clust_9="40.12967"></scales>
<clustering>
<clus scale="   40.130">  2  9  1 -1</clus>
<clus scale="   87.021">  7  8 -1 -1</clus>
<clus scale="   88.880">  5  6 -1 -1</clus>
<clus scale="  116.509">  2  7  1 -1</clus>
<clus scale="   40.130">  2  5  1 -1</clus>
</clustering>
</event>
<event>
 9    1  0.1296032E-005  0.9743109E+02  0.7546771E-02  0.1286893E+00
          4   -1    0    0  502    0  0.00000000000E+00  0.00000000000E+00  0.48929345669E+02  0.48929345669E+02  0.00000000000E+00 0. -1.
         -4   -1    0    0    0  501 -0.00000000000E+00 -0.00000000000E+00 -0.30575430797E+03  0.30575430797E+03  0.00000000000E+00 0.  1.
         23    2    1    2    0    0 -0.23651198537E+02 -0.15007262732E+02 -0.16067208313E+03  0.18758903203E+03  0.92679714689E+02 0.  0.
         23    2    1    2    0    0  0.74478457711E+01  0.39478194564E+02 -0.95680829036E+02  0.13774163237E+03  0.90575592687E+02 0.  0.
        -11    1    4    4    0    0 -0.40218973821E+02  0.96332115465E+01 -0.29000134972E+02  0.50511112127E+02  0.00000000000E+00 0. -1.
         11    1    4    4    0    0  0.47666819592E+02  0.29844983017E+02 -0.66680694063E+02  0.87230520244E+02  0.00000000000E+00 0.  1.
        -13    1    3    3    0    0 -0.26467440374E+02 -0.50995003362E+02 -0.12102605115E+03  0.13397134329E+03  0.00000000000E+00 0. -1.
         13    1    3    3    0    0  0.28162418371E+01  0.35987740630E+02 -0.39646031985E+02  0.53617688740E+02  0.00000000000E+00 0.  1.
         21    1    1    2  502  501  0.16203352766E+02 -0.24470931832E+02 -0.47205013331E+00  0.29352989233E+02  0.00000000000E+00 0. -1.
<scales pt_clust_5="13000.00000" pt_clust_6="13000.00000" pt_clust_7="13000.00000" pt_clust_8="13000.00000" pt_clust_9="29.34919"></scales>
<clustering>
<clus scale="   29.349">  1  9  2 -1</clus>
<clus scale="   90.576">  5  6 -1 -1</clus>
<clus scale="   92.680">  7  8 -1 -1</clus>
<clus scale="   95.432">  1  5  2 -1</clus>
<clus scale="   29.349">  1  5  2 -1</clus>
</clustering>
</event>
<event>
 9    1  0.1296032E-005  0.1819649E+03  0.7546771E-02  0.1166321E+00
         -2   -1    0    0    0  501 -0.00000000000E+00  0.00000000000E+00  0.16896469775E+03  0.16896469775E+03  0.00000000000E+00 0.  1.
          2   -1    0    0  502    0  0.00000000000E+00 -0.00000000000E+00 -0.30652848204E+03  0.30652848204E+03  0.00000000000E+00 0. -1.
         23    2    1    2    0    0 -0.14514087755E+03  0.28847494097E+02  0.27451522932E+02  0.17454719586E+03  0.88402970644E+02 0.  0.
         23    2    1    2    0    0  0.17101942549E+03 -0.66504075605E+02 -0.14389428593E+03  0.25060897057E+03  0.91808793904E+02 0.  0.
        -11    1    4    4    0    0  0.68845808969E+02 -0.14936727069E+02 -0.11110249263E+03  0.13155460880E+03  0.00000000000E+00 0. -1.
         11    1    4    4    0    0  0.10217361652E+03 -0.51567348535E+02 -0.32791793303E+02  0.11905436177E+03  0.00000000000E+00 0.  1.
        -13    1    3    3    0    0 -0.97457774577E+02  0.20297508382E+01  0.56434887383E+02  0.11263673569E+03  0.00000000000E+00 0.  1.
         13    1    3    3    0    0 -0.47683102971E+02  0.26817743258E+02 -0.28983364451E+02  0.61910460161E+02  0.00000000000E+00 0. -1.
         21    1    1    2  502  501 -0.25878547938E+02  0.37656581508E+02 -0.21121021292E+02  0.50337013366E+02  0.00000000000E+00 0. -1.
<scales pt_clust_5="13000.00000" pt_clust_6="13000.00000" pt_clust_7="13000.00000" pt_clust_8="13000.00000" pt_clust_9="45.69155"></scales>
<clustering>
<clus scale="   45.692">  2  9  1 -1</clus>
<clus scale="   88.403">  7  8 -1 -1</clus>
<clus scale="   91.809">  5  6 -1 -1</clus>
<clus scale="  180.270">  1  7  2 -1</clus>
<clus scale="   45.692">  2  5  1 -1</clus>
</clustering>
</event>
<event>
 9    1  0.1296032E-005  0.3973278E+03  0.7546771E-02  0.1044995E+00
         -3   -1    0    0    0  501 -0.00000000000E+00  0.00000000000E+00  0.48666239724E+03  0.48666239724E+03  0.00000000000E+00 0.  1.
          3   -1    0    0  502    0  0.00000000000E+00 -0.00000000000E+00 -0.43999265169E+03  0.43999265169E+03  0.00000000000E+00 0. -1.
         23    2    1    2    0    0 -0.17814497257E+02  0.37242273596E+03  0.70748382580E+02  0.39184536412E+03  0.97577687879E+02 0.  0.
         23    2    1    2    0    0 -0.29715161442E+02 -0.39835209388E+03  0.81543798456E+02  0.41611891458E+03  0.83295729096E+02 0.  0.
        -11    1    4    4    0    0  0.13362959557E+01 -0.34654284401E+03  0.80187418038E+02  0.35570177176E+03  0.00000000000E+00 0. -1.
         11    1    4    4    0    0 -0.31051457397E+02 -0.51809249868E+02  0.13563804187E+01  0.60417142817E+02  0.00000000000E+00 0.  1.
        -13    1    3    3    0    0  0.50944967942E+01  0.22367321106E+02 -0.18950150596E+02  0.29754985442E+02  0.00000000000E+00 0.  1.
         13    1    3    3    0    0 -0.22908994051E+02  0.35005541485E+03  0.89698533176E+02  0.36209037867E+03  0.00000000000E+00 0. -1.
         21    1    1    2  502  501  0.47529658699E+02  0.25929357924E+02 -0.10562243549E+03  0.11869077023E+03  0.00000000000E+00 0. -1.
<scales pt_clust_5="13000.00000" pt_clust_6="13000.00000" pt_clust_7="13000.00000" pt_clust_8="13000.00000" pt_clust_9="54.14241"></scales>
<clustering>
<clus scale="   54.142">  2  9  1 -1</clus>
<clus scale="   83.296">  5  6 -1 -1</clus>
<clus scale="   97.578">  7  8 -1 -1</clus>
<clus scale="  394.064">  2  5  1 -1</clus>
<clus scale="   54.142">  2  5  1 -1</clus>
</clustering>
</event>
<event>
 9    1  0.1296032E-005  0.9376787E+02  0.7546771E-02  0.1294004E+00
         -2   -1    0    0    0  501 -0.00000000000E+00  0.00000000000E+00  0.95145068600E+02  0.95145068600E+02  0.00000000000E+00 0.  1.
          2   -1    0    0  502    0  0.00000000000E+00 -0.00000000000E+00 -0.16291288719E+03  0.16291288719E+03  0.00000000000E+00 0. -1.
         23    2    1    2    0    0  0.99554349810E+01  0.10867377427E+02  0.14523684666E+02  0.94112843037E+02  0.91810017048E+02 0.  0.
         23    2    1    2    0    0 -0.32831852584E+02  0.78227399610E+01 -0.27281435171E+02  0.10150507303E+03  0.91759889606E+02 0.  0.
        -13    1    3    3    0    0 -0.86915083075E+00 -0.34305745977E+02  0.29554966878E+02  0.45289465634E+02  0.00000000000E+00 0.  1.
         13    1    3    3    0    0  0.10824585812E+02  0.45173123404E+02 -0.15031282213E+02  0.48823377403E+02  0.00000000000E+00 0. -1.
        -13    1    4    4    0    0  0.23863846513E+02 -0.22845719563E+02 -0.12869200301E+02  0.35454567959E+02  0.00000000000E+00 0.  1.
         13    1    4    4    0    0 -0.56695699098E+02  0.30668459524E+02 -0.14412234869E+02  0.66050505068E+02  0.00000000000E+00 0. -1.
         21    1    1    2  502  501  0.22876417603E+02 -0.18690117388E+02 -0.55010068090E+02  0.62440039731E+02  0.00000000000E+00 0.  1.
<scales pt_clust_5="13000.00000" pt_clust_6="13000.00000" pt_clust_7="13000.00000" pt_clust_8="13000.00000" pt_clust_9="29.54067"></scales>
<clustering>
<clus scale="   29.541">  2  9  1 -1</clus>
<clus scale="   91.760">  7  8 -1 -1</clus>
<clus scale="   91.810">  5  6 -1 -1</clus>
<clus scale="   93.719">  2  7  1 -1</clus>
<clus scale="   29.541">  2  5  1 -1</clus>
</clustering>
</event>
<event>
 9    1  0.1296032E-005  0.9365640E+02  0.7546771E-02  0.1299384E+00
         -1   -1    0    0    0  501 -0.00000000000E+00  0.00000000000E+00  0.47974996347E+02  0.47974996347E+02  0.00000000000E+00 0.  1.
          1   -1    0    0  502    0  0.00000000000E+00 -0.00000000000E+00 -0.29996158832E+03  0.29996158832E+03  0.00000000000E+00 0. -1.
         23    2    1    2    0    0 -0.22716078981E+02  0.59854243587E+00 -0.27298229114E+02  0.97582007787E+02  0.90888263454E+02 0.  0.
         23    2    1    2    0    0  0.18798940910E+02 -0.23181218781E+02 -0.18341017960E+03  0.20314007005E+03  0.82072071972E+02 0.  0.
        -13    1    4    4    0    0 -0.32039877015E+02 -0.31213253254E+01 -0.57913887874E+02  0.66259450644E+02  0.00000000000E+00 0.  1.
         13    1    4    4    0    0  0.50838817926E+02 -0.20059893456E+02 -0.12549629172E+03  0.13688061941E+03  0.00000000000E+00 0. -1.
        -13    1    3    3    0    0  0.15118320305E+02 -0.37166063535E+02 -0.94116836630E+01  0.41212372862E+02  0.00000000000E+00 0.  1.
         13    1    3    3    0    0 -0.37834399286E+02  0.37764605971E+02 -0.17886545451E+02  0.56369634925E+02  0.00000000000E+00 0. -1.
         21    1    1    2  502  501  0.39171380703E+01  0.22582676345E+02 -0.41278183265E+02  0.47214506830E+02  0.00000000000E+00 0. -1.
<scales pt_clust_5="13000.00000" pt_clust_6="13000.00000" pt_clust_7="13000.00000" pt_clust_8="13000.00000" pt_clust_9="22.91989"></scales>
<clustering>
<clus scale="   22.920">  2  9  1 -1</clus>
<clus scale="   82.072">  5  6 -1 -1</clus>
<clus scale="   85.127">  2  5  1 -1</clus>
<clus scale="   90.888">  7  8 -1 -1</clus>
<clus scale="   22.920">  2  5  1 -1</clus>
</clustering>
</event>
<event>
 9    1  0.1296032E-005  0.1963675E+03  0.7546771E-02  0.1170120E+00
          2   -1    0    0  502    0  0.00000000000E+00  0.00000000000E+00  0.98399005694E+03  0.98399005694E+03  0.00000000000E+00 0. -1.
         -2   -1    0    0    0  501 -0.00000000000E+00 -0.00000000000E+00 -0.11799482117E+03  0.11799482117E+03  0.00000000000E+00 0.  1.
         23    2    1    2    0    0  0.60452311572E+02  0.67565353095E+02  0.44499113148E+01  0.13154518529E+03  0.95209112748E+02 0.  0.
         23    2    1    2    0    0  0.12056619777E+03 -0.97489417666E+02  0.14579466924E+03  0.23154717642E+03  0.91200957923E+02 0.  0.
        -11    1    4    4    0    0  0.50125619991E+02 -0.89875654816E+01  0.94498507522E+02  0.10734673743E+03  0.00000000000E+00 0. -1.
         11    1    4    4    0    0  0.70440577777E+02 -0.88501852184E+02  0.51296161721E+02  0.12420043899E+03  0.00000000000E+00 0.  1.
        -13    1    3    3    0    0  0.34244121948E+02 -0.20042553649E+02 -0.30423285773E+01  0.39794718342E+02  0.00000000000E+00 0.  1.
         13    1    3    3    0    0  0.26208189624E+02  0.87607906744E+02  0.74922398922E+01  0.91750466953E+02  0.00000000000E+00 0. -1.
         21    1    1    2  502  501 -0.18101850934E+03  0.29924064571E+02  0.71575065521E+03  0.73889251640E+03  0.00000000000E+00 0.  1.
<scales pt_clust_5="13000.00000" pt_clust_6="13000.00000" pt_clust_7="13000.00000" pt_clust_8="13000.00000" pt_clust_9="173.90395"></scales>
<clustering>
<clus scale="   91.201">  5  6 -1 -1</clus>
<clus scale="   95.209">  7  8 -1 -1</clus>
<clus scale="  131.470">  2  7  1 -1</clus>
<clus scale="  173.904">  1  9  2 -1</clus>
<clus scale="  173.904">  1  5  2 -1</clus>
</clustering>
</event>
<event>
 9    1  0.1296032E-005  0.1085793E+03  0.7546771E-02  0.1268144E+00
          1   -1    0    0  502    0  0.00000000000E+00  0.00000000000E+00  0.11350093942E+03  0.11350093942E+03  0.00000000000E+00 0. -1.
         -1   -1    0    0    0  501 -0.00000000000E+00 -0.00000000000E+00 -0.22954728071E+03  0.22954728071E+03  0.00000000000E+00 0.  1.
         23    2    1    2    0    0  0.53889320126E+02  0.13503921538E+02 -0.14135240727E+03  0.17083379993E+03  0.78212974870E+02 0.  0.
         23    2    1    2    0    0 -0.77755627250E+02  0.33362928670E+00 -0.18272900437E+02  0.12063724751E+03  0.90406845528E+02 0.  0.
        -13    1    4    4    0    0 -0.96625460720E+02  0.10593151040E+02 -0.19431026943E+02  0.99127490215E+02  0.00000000000E+00 0.  1.
         13    1    4    4    0    0  0.18869833470E+02 -0.10259521754E+02  0.11581265053E+01  0.21509757293E+02  0.00000000000E+00 0. -1.
        -13    1    3    3    0    0  0.52771304948E+02 -0.19963315115E+02 -0.11544904724E+03  0.12849835441E+03  0.00000000000E+00 0. -1.
         13    1    3    3    0    0  0.11180151776E+01  0.33467236653E+02 -0.25903360029E+02  0.42335445526E+02  0.00000000000E+00 0.  1.
         21    1    1    2  502  501  0.23866307124E+02 -0.13837550824E+02  0.43578966414E+02  0.51577172686E+02  0.00000000000E+00 0. -1.
<scales pt_clust_5="13000.00000" pt_clust_6="13000.00000" pt_clust_7="13000.00000" pt_clust_8="13000.00000" pt_clust_9="27.58765"></scales>
<clustering>
<clus scale="   27.588">  1  9  2 -1</clus>
<clus scale="   78.213">  7  8 -1 -1</clus>
<clus scale="   90.407">  5  6 -1 -1</clus>
<clus scale="   98.658">  2  7  1 -1</clus>
<clus scale="   27.588">  1  5  2 -1</clus>
</clustering>
</event>
<event>
 9    1  0.1296032E-005  0.1259984E+03  0.7546771E-02  0.1233969E+00
         -1   -1    0    0    0  501 -0.00000000000E+00  0.00000000000E+00  0.53403792624E+02  0.53403792624E+02  0.00000000000E+00 0.  1.
          1   -1    0    0  502    0  0.00000000000E+00 -0.00000000000E+00 -0.91337807189E+03  0.91337807189E+03  0.00000000000E+00 0. -1.
         23    2    1    2    0    0 -0.81339407179E+02 -0.38920119585E+02 -0.45017079216E+02  0.13413556166E+03  0.88515177300E+02 0.  0.
         23    2    1    2    0    0  0.78983164421E+02 -0.24543556699E+01 -0.70538339243E+03  0.71549760077E+03  0.90148334834E+02 0.  0.
        -11    1    3    3    0    0 -0.86429772775E+02 -0.59567230812E+02 -0.39613412994E+02  0.11219439869E+03  0.00000000000E+00 0.  1.
         11    1    3    3    0    0  0.50903655961E+01  0.20647111226E+02 -0.54036662223E+01  0.21941162971E+02  0.00000000000E+00 0. -1.
        -13    1    4    4    0    0  0.30176448876E+02 -0.45617164075E+02 -0.32987884706E+03  0.33438241202E+03  0.00000000000E+00 0.  1.
         13    1    4    4    0    0  0.48806715546E+02  0.43162808405E+02 -0.37550454536E+03  0.38111518876E+03  0.00000000000E+00 0. -1.
         21    1    1    2  502  501  0.23562427573E+01  0.41374475255E+02 -0.10957380762E+03  0.11714870208E+03  0.00000000000E+00 0.  1.
<scales pt_clust_5="13000.00000" pt_clust_6="13000.00000" pt_clust_7="13000.00000" pt_clust_8="13000.00000" pt_clust_9="41.44151"></scales>
<clustering>
<clus scale="   41.442">  2  9  1 -1</clus>
<clus scale="   88.515">  5  6 -1 -1</clus>
<clus scale="   90.148">  7  8 -1 -1</clus>
<clus scale="  124.835">  1  5  2 -1</clus>
<clus scale="   41.442">  2  5  1 -1</clus>
</clustering>
</event>
<event>
 9    1  0.1296032E-005  0.1075925E+03  0.7546771E-02  0.1265853E+00
          1   -1    0    0  502    0  0.00000000000E+00  0.00000000000E+00  0.29185504222E+03  0.29185504222E+03  0.00000000000E+00 0. -1.
         -1   -1    0    0    0  501 -0.00000000000E+00 -0.00000000000E+00 -0.74349164641E+02  0.74349164641E+02  0.00000000000E+00 0.  1.
         23    2    1    2    0    0 -0.53434411294E+01 -0.58286759339E+02  0.94665685620E+01  0.11041186706E+03  0.93141106874E+02 0.  0.
         23    2    1    2    0    0  0.39312822934E+02  0.35460547839E+02  0.12808086910E+03  0.16596858490E+03  0.91312176859E+02 0.  0.
        -11    1    4    4    0    0  0.53698148544E+02  0.55441251940E+02  0.11380314427E+03  0.13750774240E+03  0.00000000000E+00 0. -1.
         11    1    4    4    0    0 -0.14385325609E+02 -0.19980704102E+02  0.14277724828E+02  0.28460842495E+02  0.00000000000E+00 0.  1.
        -13    1    3    3    0    0  0.43138591490E+02 -0.35131094417E+02  0.10776177208E+02  0.56667961547E+02  0.00000000000E+00 0. -1.
         13    1    3    3    0    0 -0.48482032619E+02 -0.23155664922E+02 -0.13096086460E+01  0.53743905512E+02  0.00000000000E+00 0.  1.
         21    1    1    2  502  501 -0.33969381805E+02  0.22826211500E+02  0.79958439912E+02  0.89823754903E+02  0.00000000000E+00 0.  1.
<scales pt_clust_5="13000.00000" pt_clust_6="13000.00000" pt_clust_7="13000.00000" pt_clust_8="13000.00000" pt_clust_9="40.92621"></scales>
<clustering>
<clus scale="   40.926">  1  9  2 -1</clus>
<clus scale="   91.312">  5  6 -1 -1</clus>
<clus scale="   93.141">  7  8 -1 -1</clus>
<clus scale="  106.013">  1  5  2 -1</clus>
<clus scale="   40.926">  1  5  2 -1</clus>
</clustering>
</event>
<event>
 9    1  0.1296032E-005  0.1034819E+03  0.7546771E-02  0.1273762E+00
         -1   -1    0    0    0  501 -0.00000000000E+00  0.00000000000E+00  0.15958687151E+03  0.15958687151E+03  0.00000000000E+00 0.  1.
          1   -1    0    0  502    0  0.00000000000E+00 -0.00000000000E+00 -0.11100643691E+03  0.11100643691E+03  0.00000000000E+00 0. -1.
         23    2    1    2    0    0  0.45029722138E+02 -0.13353347510E+02  0.78303685485E+02  0.12973441755E+03  0.92160534778E+02 0.  0.
         23    2    1    2    0    0 -0.36834434847E+02  0.35287754526E+02 -0.14347181956E+01  0.10413666291E+03  0.90776566005E+02 0.  0.
        -11    1    3    3    0    0 -0.15484090365E+02 -0.35310995473E+02  0.35642444297E+02  0.52507211802E+02  0.00000000000E+00 0.  1.
         11    1    3    3    0    0  0.60513812504E+02  0.21957647963E+02  0.42661241188E+02  0.77227205747E+02  0.00000000000E+00 0. -1.
        -13    1    4    4    0    0 -0.48841597810E+02 -0.37989086855E+00  0.28052834180E+02  0.56325904335E+02  0.00000000000E+00 0.  1.
         13    1    4    4    0    0  0.12007162963E+02  0.35667645395E+02 -0.29487552375E+02  0.47810758575E+02  0.00000000000E+00 0. -1.
         21    1    1    2  502  501 -0.81952872912E+01 -0.21934407017E+02 -0.28288532689E+02  0.36722227964E+02  0.00000000000E+00 0.  1.
<scales pt_clust_5="13000.00000" pt_clust_6="13000.00000" pt_clust_7="13000.00000" pt_clust_8="13000.00000" pt_clust_9="23.41540"></scales>
<clustering>
<clus scale="   23.415">  2  9  1 -1</clus>
<clus scale="   90.777">  7  8 -1 -1</clus>
<clus scale="   92.161">  5  6 -1 -1</clus>
<clus scale="  102.251">  2  7  1 -1</clus>
<clus scale="   23.415">  2  5  1 -1</clus>
</clustering>
</event>
<event>
 9    1  0.1296032E-005  0.1988836E+03  0.7546771E-02  0.1150860E+00
         -1   -1    0    0    0  501 -0.00000000000E+00  0.00000000000E+00  0.29393288398E+03  0.29393288398E+03  0.00000000000E+00 0.  1.
          1   -1    0    0  502    0  0.00000000000E+00 -0.00000000000E+00 -0.32151656034E+03  0.32151656034E+03  0.00000000000E+00 0. -1.
         23    2    1    2    0    0 -0.50055841235E+01 -0.17778115856E+03  0.20886626140E+03  0.28824269583E+03  0.88473387744E+02 0.  0.
         23    2    1    2    0    0  0.25331585375E+02  0.17888355144E+03 -0.18839106067E+03  0.27501462971E+03  0.86607393576E+02 0.  0.
        -11    1    3    3    0    0  0.45897594473E+01 -0.13563573039E+03  0.92850152597E+02  0.16443621282E+03  0.00000000000E+00 0.  1.
         11    1    3    3    0    0 -0.95953435708E+01 -0.42145428168E+02  0.11601610880E+03  0.12380648301E+03  0.00000000000E+00 0. -1.
        -11    1    4    4    0    0  0.54427237874E+02  0.14550920227E+03 -0.13651945622E+03  0.20681589421E+03  0.00000000000E+00 0. -1.
         11    1    4    4    0    0 -0.29095652499E+02  0.33374349162E+02 -0.51871604450E+02  0.68198735505E+02  0.00000000000E+00 0.  1.
         21    1    1    2  502  501 -0.20326001252E+02 -0.11023928795E+01 -0.48058877081E+02  0.52192118785E+02  0.00000000000E+00 0. -1.
<scales pt_clust_5="13000.00000" pt_clust_6="13000.00000" pt_clust_7="13000.00000" pt_clust_8="13000.00000" pt_clust_9="20.35587"></scales>
<clustering>
<clus scale="   20.356">  2  9  1 -1</clus>
<clus scale="   86.607">  7  8 -1 -1</clus>
<clus scale="   88.473">  5  6 -1 -1</clus>
<clus scale="  198.061">  2  7  1 -1</clus>
<clus scale="   20.356">  2  5  1 -1</clus>
</clustering>
</event>
<event>
 9    1  0.1296032E-005  0.1091858E+03  0.7546771E-02  0.1264927E+00
          3   -1    0    0  502    0  0.00000000000E+00  0.00000000000E+00  0.30663236860E+03  0.30663236860E+03  0.00000000000E+00 0. -1.
         -3   -1    0    0    0  501 -0.00000000000E+00 -0.00000000000E+00 -0.64432562959E+02  0.64432562959E+02  0.00000000000E+00 0.  1.
         23    2    1    2    0    0 -0.12195135225E+02 -0.48090398916E+02  0.39293296818E+02  0.11590796908E+03  0.97104512405E+02 0.  0.
         23    2    1    2    0    0  0.52878500297E+02  0.32857652184E+02  0.16046369683E+03  0.19442340458E+03  0.90421795742E+02 0.  0.
        -11    1    3    3    0    0  0.32813962342E+02  0.98146691741E+01  0.38928466725E+01  0.34470829853E+02  0.00000000000E+00 0.  1.
         11    1    3    3    0    0 -0.45009097566E+02 -0.57905068090E+02  0.35400450146E+02  0.81437139223E+02  0.00000000000E+00 0. -1.
        -13    1    4    4    0    0  0.19006827811E+02  0.45724684868E+02  0.27563152099E+02  0.56672159508E+02  0.00000000000E+00 0.  1.
         13    1    4    4    0    0  0.33871672486E+02 -0.12867032684E+02  0.13290054474E+03  0.13775124507E+03  0.00000000000E+00 0. -1.
         21    1    1    2  502  501 -0.40683365072E+02  0.15232746732E+02  0.42442811991E+02  0.60733557909E+02  0.00000000000E+00 0. -1.
<scales pt_clust_5="13000.00000" pt_clust_6="13000.00000" pt_clust_7="13000.00000" pt_clust_8="13000.00000" pt_clust_9="43.44160"></scales>
<clustering>
<clus scale="   43.442">  1  9  2 -1</clus>
<clus scale="   90.422">  7  8 -1 -1</clus>
<clus scale="   97.105">  5  6 -1 -1</clus>
<clus scale="  103.288">  1  7  2 -1</clus>
<clus scale="   43.442">  1  5  2 -1</clus>
</clustering>
</event>
<event>
 9    1  0.1546343E-005  0.3240550E+03  0.7546771E-02  0.1073897E+00
          1   -1    0    0  502    0  0.00000000000E+00  0.00000000000E+00  0.26683563336E+04  0.26683563336E+04  0.00000000000E+00 0. -1.
         -1   -1    0    0    0  501 -0.00000000000E+00 -0.00000000000E+00 -0.43349323792E+02  0.43349323792E+02  0.00000000000E+00 0.  1.
         23    2    1    2    0    0  0.97062073997E+02 -0.30679798277E+03  0.11073844644E+04  0.11566949747E+04  0.89982576956E+02 0.  0.
         23    2    1    2    0    0 -0.82209774085E+02  0.29116893423E+03  0.14444561826E+04  0.14787337228E+04  0.93069672922E+02 0.  0.
        -13    1    3    3    0    0  0.10027355538E+03 -0.28550331967E+03  0.10814360439E+04  0.11229741086E+04  0.00000000000E+00 0.  1.
         13    1    3    3    0    0 -0.32114813822E+01 -0.21294663095E+02  0.25948420468E+02  0.33720866148E+02  0.00000000000E+00 0. -1.
        -13    1    4    4    0    0 -0.86430604447E+02  0.13875081689E+03  0.79266436896E+03  0.80934469813E+03  0.00000000000E+00 0.  1.
         13    1    4    4    0    0  0.42208303627E+01  0.15241811734E+03  0.65179181369E+03  0.66938902462E+03  0.00000000000E+00 0. -1.
         21    1    1    2  502  501 -0.14852299912E+02  0.15629048542E+02  0.73166362736E+02  0.76276959870E+02  0.00000000000E+00 0. -1.
<scales pt_clust_5="13000.00000" pt_clust_6="13000.00000" pt_clust_7="13000.00000" pt_clust_8="13000.00000" pt_clust_9="21.56057"></scales>
<clustering>
<clus scale="   21.561">  2  9  1 -1</clus>
<clus scale="   89.983">  5  6 -1 -1</clus>
<clus scale="   93.070">  7  8 -1 -1</clus>
<clus scale="  323.182">  2  5  1 -1</clus>
<clus scale="  324.055">  1  5  2 -1</clus>
</clustering>
</event>
<event>
 9    1  0.1296032E-005  0.1150076E+03  0.7546771E-02  0.1252780E+00
         -1   -1    0    0    0  501 -0.00000000000E+00  0.00000000000E+00  0.28711620606E+03  0.28711620606E+03  0.00000000000E+00 0.  1.
          1   -1    0    0  502    0  0.00000000000E+00 -0.00000000000E+00 -0.17643576349E+03  0.17643576349E+03  0.00000000000E+00 0. -1.
         23    2    1    2    0    0 -0.51241578382E+02  0.50331055462E+02  0.24428807361E+03  0.27046879465E+03  0.91201926894E+02 0.  0.
         23    2    1    2    0    0  0.21861541373E+02 -0.55824545976E+02 -0.85195189054E+02  0.13618739692E+03  0.87718184644E+02 0.  0.
        -11    1    4    4    0    0 -0.28292160543E+02  0.25072119183E+01 -0.15368091447E+02  0.32294127864E+02  0.00000000000E+00 0.  1.
         11    1    4    4    0    0  0.50153701916E+02 -0.58331757894E+02 -0.69827097608E+02  0.10389326906E+03  0.00000000000E+00 0. -1.
        -13    1    3    3    0    0 -0.76791605659E+02  0.33744639863E+02  0.19826250924E+03  0.21527580911E+03  0.00000000000E+00 0.  1.
         13    1    3    3    0    0  0.25550027277E+02  0.16586415599E+02  0.46025564373E+02  0.55192985533E+02  0.00000000000E+00 0. -1.
         21    1    1    2  502  501  0.29380037009E+02  0.54934905139E+01 -0.48412441994E+02  0.56895777985E+02  0.00000000000E+00 0. -1.
<scales pt_clust_5="13000.00000" pt_clust_6="13000.00000" pt_clust_7="13000.00000" pt_clust_8="13000.00000" pt_clust_9="29.88921"></scales>
<clustering>
<clus scale="   29.889">  2  9  1 -1</clus>
<clus scale="   87.718">  5  6 -1 -1</clus>
<clus scale="   91.202">  7  8 -1 -1</clus>
<clus scale="  112.265">  2  5  1 -1</clus>
<clus scale="   29.889">  2  5  1 -1</clus>
</clustering>
</event>
<event>
 9    1  0.1296032E-005  0.1481613E+03  0.7546771E-02  0.1203001E+00
         -2   -1    0    0    0  501 -0.00000000000E+00  0.00000000000E+00  0.99140473065E+02  0.99140473065E+02  0.00000000000E+00 0.  1.
          2   -1    0    0  502    0  0.00000000000E+00 -0.00000000000E+00 -0.47994104470E+03  0.47994104470E+03  0.00000000000E+00 0. -1.
         23    2    1    2    0    0 -0.11546056559E+03  0.45764794481E+02  0.89388601775E+01  0.15396881432E+03  0.90559008063E+02 0.  0.
         23    2    1    2    0    0  0.75071094741E+02 -0.27373530814E+02 -0.32079100688E+03  0.34311615940E+03  0.91852323299E+02 0.  0.
        -11    1    4    4    0    0  0.41315382647E+02 -0.59720915665E+02 -0.16087094718E+03  0.17650215369E+03  0.00000000000E+00 0.  1.
         11    1    4    4    0    0  0.33755712094E+02  0.32347384851E+02 -0.15992005970E+03  0.16661400572E+03  0.00000000000E+00 0. -1.
        -13    1    3    3    0    0 -0.42442769816E+02 -0.24251278087E+02 -0.12726974012E+02  0.50512266490E+02  0.00000000000E+00 0. -1.
         13    1    3    3    0    0 -0.73017795770E+02  0.70016072568E+02  0.21665834190E+02  0.10345654783E+03  0.00000000000E+00 0.  1.
         21    1    1    2  502  501  0.40389470844E+02 -0.18391263668E+02 -0.68948424933E+02  0.81996544044E+02  0.00000000000E+00 0.  1.
<scales pt_clust_5="13000.00000" pt_clust_6="13000.00000" pt_clust_7="13000.00000" pt_clust_8="13000.00000" pt_clust_9="44.37959"></scales>
<clustering>
<clus scale="   44.380">  2  9  1 -1</clus>
<clus scale="   90.559">  7  8 -1 -1</clus>
<clus scale="   91.852">  5  6 -1 -1</clus>
<clus scale="  147.363">  1  7  2 -1</clus>
<clus scale="   44.380">  2  5  1 -1</clus>
</clustering>
</event>
<event>
 9    1  0.1296032E-005  0.9713608E+02  0.7546771E-02  0.1288926E+00
          1   -1    0    0  502    0  0.00000000000E+00  0.00000000000E+00  0.18235132434E+03  0.18235132434E+03  0.00000000000E+00 0. -1.
         -1   -1    0    0    0  501 -0.00000000000E+00 -0.00000000000E+00 -0.83244922264E+02  0.83244922264E+02  0.00000000000E+00 0.  1.
         23    2    1    2    0    0  0.39162526780E+01 -0.12297040000E+02 -0.10215743912E+02  0.97154080174E+02  0.95749671764E+02 0.  0.
         23    2    1    2    0    0  0.18764459400E+02  0.23227998206E+02  0.60401224194E+02  0.11342255959E+03  0.91239927128E+02 0.  0.
        -11    1    4    4    0    0  0.47057022296E+02  0.25568590134E+02  0.65470511173E+02  0.84584301038E+02  0.00000000000E+00 0. -1.
         11    1    4    4    0    0 -0.28292562896E+02 -0.23405919277E+01 -0.50692869789E+01  0.28838258552E+02  0.00000000000E+00 0.  1.
        -11    1    3    3    0    0  0.10146660975E+02  0.40982147583E+02  0.15046514637E+01  0.42246362275E+02  0.00000000000E+00 0. -1.
         11    1    3    3    0    0 -0.62304082971E+01 -0.53279187583E+02 -0.11720395376E+02  0.54907717899E+02  0.00000000000E+00 0.  1.
         21    1    1    2  502  501 -0.22680712078E+02 -0.10930958207E+02  0.48920921794E+02  0.55019606840E+02  0.00000000000E+00 0.  1.
<scales pt_clust_5="13000.00000" pt_clust_6="13000.00000" pt_clust_7="13000.00000" pt_clust_8="13000.00000" pt_clust_9="25.17738"></scales>
<clustering>
<clus scale="   25.177">  1  9  2 -1</clus>
<clus scale="   91.240">  5  6 -1 -1</clus>
<clus scale="   92.694">  1  5  2 -1</clus>
<clus scale="   95.750">  7  8 -1 -1</clus>
<clus scale="   25.177">  1  5  2 -1</clus>
</clustering>
</event>
<event>
 9    1  0.1296032E-005  0.1369902E+03  0.7546771E-02  0.1217921E+00
         -1   -1    0    0    0  501 -0.00000000000E+00  0.00000000000E+00  0.40334819065E+03  0.40334819065E+03  0.00000000000E+00 0.  1.
          1   -1    0    0  502    0  0.00000000000E+00 -0.00000000000E+00 -0.16354416153E+03  0.16354416153E+03  0.00000000000E+00 0. -1.
         23    2    1    2    0    0  0.63210203300E+02  0.76098539936E+02  0.32358362599E+03  0.34991932720E+03  0.89166445237E+02 0.  0.
         23    2    1    2    0    0 -0.10062004354E+03 -0.85307960773E+02 -0.57806421389E+02  0.17050889447E+03  0.91268063453E+02 0.  0.
        -11    1    4    4    0    0 -0.32519049171E+02 -0.24625123554E+02 -0.67409002160E+02  0.78789966628E+02  0.00000000000E+00 0.  1.
         11    1    4    4    0    0 -0.68100994371E+02 -0.60682837219E+02  0.96025807710E+01  0.91718927844E+02  0.00000000000E+00 0. -1.
        -13    1    3    3    0    0  0.40008129838E+02 -0.12025446320E+02  0.91480700943E+02  0.10056828753E+03  0.00000000000E+00 0.  1.
         13    1    3    3    0    0  0.23202073463E+02  0.88123986256E+02  0.23210292505E+03  0.24935103967E+03  0.00000000000E+00 0. -1.
         21    1    1    2  502  501  0.37409840241E+02  0.92094208370E+01 -0.25973175488E+02  0.46464130509E+02  0.00000000000E+00 0. -1.
<scales pt_clust_5="13000.00000" pt_clust_6="13000.00000" pt_clust_7="13000.00000" pt_clust_8="13000.00000" pt_clust_9="38.52674"></scales>
<clustering>
<clus scale="   38.527">  2  9  1 -1</clus>
<clus scale="   89.166">  7  8 -1 -1</clus>
<clus scale="   91.268">  5  6 -1 -1</clus>
<clus scale="  135.599">  1  7  2 -1</clus>
<clus scale="   38.527">  2  5  1 -1</clus>
</clustering>
</event>
<event>
 9    1  0.1296032E-005  0.1028040E+03  0.7546771E-02  0.1276214E+00
          3   -1    0    0  502    0  0.00000000000E+00  0.00000000000E+00  0.79706907585E+02  0.79706907585E+02  0.00000000000E+00 0. -1.
         -3   -1    0    0    0  501 -0.00000000000E+00 -0.00000000000E+00 -0.34409512627E+03  0.34409512627E+03  0.00000000000E+00 0.  1.
         23    2    1    2    0    0 -0.97672992281E+00  0.31815962995E+02 -0.22341862465E+03  0.24508859573E+03  0.95599834791E+02 0.  0.
         23    2    1    2    0    0  0.81189139777E+01 -0.51855550345E+02 -0.81011751642E+02  0.13337063009E+03  0.92032093321E+02 0.  0.
        -11    1    3    3    0    0  0.43726385568E+02  0.26359702491E+01 -0.13365165421E+03  0.14064746641E+03  0.00000000000E+00 0. -1.
         11    1    3    3    0    0 -0.44703115491E+02  0.29179992746E+02 -0.89766970440E+02  0.10444112932E+03  0.00000000000E+00 0.  1.
        -13    1    4    4    0    0 -0.16617875634E+02 -0.61017688452E+02 -0.85772304086E+02  0.10656547397E+03  0.00000000000E+00 0.  1.
         13    1    4    4    0    0  0.24736789612E+02  0.91621381070E+01  0.47605524442E+01  0.26805156119E+02  0.00000000000E+00 0. -1.
         21    1    1    2  502  501 -0.71421840549E+01  0.20039587350E+02  0.40042157611E+02  0.45342808033E+02  0.00000000000E+00 0. -1.
<scales pt_clust_5="13000.00000" pt_clust_6="13000.00000" pt_clust_7="13000.00000" pt_clust_8="13000.00000" pt_clust_9="21.27430"></scales>
<clustering>
<clus scale="   21.274">  1  9  2 -1</clus>
<clus scale="   92.032">  7  8 -1 -1</clus>
<clus scale="   95.600">  5  6 -1 -1</clus>
<clus scale="   99.495">  1  7  2 -1</clus>
<clus scale="   21.274">  1  5  2 -1</clus>
</clustering>
</event>
<event>
 9    1  0.1296032E-005  0.9166155E+02  0.7546771E-02  0.1300144E+00
          2   -1    0    0  502    0  0.00000000000E+00  0.00000000000E+00  0.25011422656E+03  0.25011422656E+03  0.00000000000E+00 0. -1.
         -2   -1    0    0    0  501 -0.00000000000E+00 -0.00000000000E+00 -0.55579033160E+02  0.55579033160E+02  0.00000000000E+00 0.  1.
         23    2    1    2    0    0 -0.14858702545E+02 -0.76053942842E+01  0.22179293986E+02  0.95310053801E+02  0.91178189334E+02 0.  0.
         23    2    1    2    0    0 -0.26883232934E+01 -0.14757303779E+02  0.11365555688E+03  0.14516266779E+03  0.89048354352E+02 0.  0.
        -11    1    3    3    0    0  0.22767451847E+02 -0.37024534822E+02  0.21484081049E+01  0.43517682611E+02  0.00000000000E+00 0.  1.
         11    1    3    3    0    0 -0.37626154392E+02  0.29419140538E+02  0.20030885881E+02  0.51792371190E+02  0.00000000000E+00 0. -1.
        -13    1    4    4    0    0  0.16380767369E+02  0.33952446095E+02  0.41867310492E+02  0.56337996266E+02  0.00000000000E+00 0. -1.
         13    1    4    4    0    0 -0.19069090663E+02 -0.48709749875E+02  0.71788246387E+02  0.88824671521E+02  0.00000000000E+00 0.  1.
         21    1    1    2  502  501  0.17547025838E+02  0.22362698064E+02  0.58700342540E+02  0.65220538136E+02  0.00000000000E+00 0. -1.
<scales pt_clust_5="13000.00000" pt_clust_6="13000.00000" pt_clust_7="13000.00000" pt_clust_8="13000.00000" pt_clust_9="28.42514"></scales>
<clustering>
<clus scale="   28.425">  1  9  2 -1</clus>
<clus scale="   89.048">  7  8 -1 -1</clus>
<clus scale="   89.543">  1  7  2 -1</clus>
<clus scale="   91.178">  5  6 -1 -1</clus>
<clus scale="   28.425">  1  5  2 -1</clus>
</clustering>
</event>
<event>
 9    1  0.1296032E-005  0.1313093E+03  0.7546771E-02  0.1225948E+00
          1   -1    0    0  502    0  0.00000000000E+00  0.00000000000E+00  0.58583091220E+02  0.58583091220E+02  0.00000000000E+00 0. -1.
         -1   -1    0    0    0  501 -0.00000000000E+00 -0.00000000000E+00 -0.60657414144E+03  0.60657414144E+03  0.00000000000E+00 0.  1.
         23    2    1    2    0    0 -0.15931271896E+02 -0.96269970010E+02 -0.47869390064E+03  0.49687895662E+03  0.90659442277E+02 0.  0.
         23    2    1    2    0    0 -0.10925464900E+02  0.85487706084E+02 -0.50561458798E+02  0.13380266675E+03  0.88989768166E+02 0.  0.
        -11    1    4    4    0    0 -0.45443034444E+02  0.19580830248E+02 -0.19948310991E+02  0.53351789137E+02  0.00000000000E+00 0.  1.
         11    1    4    4    0    0  0.34517569544E+02  0.65906875837E+02 -0.30613147807E+02  0.80450877612E+02  0.00000000000E+00 0. -1.
        -13    1    3    3    0    0  0.18646666997E+02 -0.63127934912E+02 -0.39501822875E+03  0.40046502395E+03  0.00000000000E+00 0.  1.
         13    1    3    3    0    0 -0.34577938892E+02 -0.33142035098E+02 -0.83675671888E+02  0.96413932677E+02  0.00000000000E+00 0. -1.
         21    1    1    2  502  501  0.26856736796E+02  0.10782263925E+02 -0.18735690776E+02  0.34475609285E+02  0.00000000000E+00 0.  1.
<scales pt_clust_5="13000.00000" pt_clust_6="13000.00000" pt_clust_7="13000.00000" pt_clust_8="13000.00000" pt_clust_9="28.94031"></scales>
<clustering>
<clus scale="   28.940">  1  9  2 -1</clus>
<clus scale="   88.990">  5  6 -1 -1</clus>
<clus scale="   90.659">  7  8 -1 -1</clus>
<clus scale="  130.162">  1  5  2 -1</clus>
<clus scale="   28.940">  1  5  2 -1</clus>
</clustering>
</event>
<event>
 9    1  0.1296032E-005  0.1303907E+03  0.7546771E-02  0.1227054E+00
         -1   -1    0    0    0  501 -0.00000000000E+00  0.00000000000E+00  0.11597315778E+03  0.11597315778E+03  0.00000000000E+00 0.  1.
          1   -1    0    0  502    0  0.00000000000E+00 -0.00000000000E+00 -0.20072302820E+03  0.20072302820E+03  0.00000000000E+00 0. -1.
         23    2    1    2    0    0  0.65894900395E+02 -0.66833855469E+02  0.40886819835E+01  0.13226246455E+03  0.93100698568E+02 0.  0.
         23    2    1    2    0    0 -0.80487456906E+02  0.41394981739E+02 -0.83068787813E+02  0.15454443930E+03  0.93764518760E+02 0.  0.
        -11    1    4    4    0    0 -0.60142293518E+02  0.42246202201E+02 -0.10267989485E+03  0.12627350425E+03  0.00000000000E+00 0. -1.
         11    1    4    4    0    0 -0.20345163388E+02 -0.85122046206E+00  0.19611107034E+02  0.28270935051E+02  0.00000000000E+00 0.  1.
        -13    1    3    3    0    0  0.85244012162E+02 -0.39256265820E+02  0.18442232342E+02  0.95643671768E+02  0.00000000000E+00 0.  1.
         13    1    3    3    0    0 -0.19349111767E+02 -0.27577589649E+02 -0.14353550359E+02  0.36618792783E+02  0.00000000000E+00 0. -1.
         21    1    1    2  502  501  0.14592556511E+02  0.25438873730E+02 -0.57697645888E+01  0.29889282119E+02  0.00000000000E+00 0.  1.
<scales pt_clust_5="13000.00000" pt_clust_6="13000.00000" pt_clust_7="13000.00000" pt_clust_8="13000.00000" pt_clust_9="29.32710"></scales>
<clustering>
<clus scale="   29.327">  1  9  2 -1</clus>
<clus scale="   93.101">  7  8 -1 -1</clus>
<clus scale="   93.765">  5  6 -1 -1</clus>
<clus scale="  129.914">  1  7  2 -1</clus>
<clus scale="  130.391">  2  5  1 -1</clus>
</clustering>
</event>
<event>
 9    1  0.2543695E-005  0.9768807E+02  0.7546771E-02  0.1285564E+00
         -1   -1    0    0    0  501 -0.00000000000E+00  0.00000000000E+00  0.48396354670E+03  0.48396354670E+03  0.00000000000E+00 0.  1.
          1   -1    0    0  502    0  0.00000000000E+00 -0.00000000000E+00 -0.23883052669E+03  0.23883052669E+03  0.00000000000E+00 0. -1.
         23    2    1    2    0    0  0.31979092550E+02  0.19965649823E+02  0.40984654077E+03  0.42139314868E+03  0.90425158245E+02 0.  0.
         23    2    1    2    0    0 -0.53374683692E+02  0.67250877550E+02 -0.17102656591E+03  0.21137676959E+03  0.89769232402E+02 0.  0.
        -13    1    3    3    0    0  0.31616402102E+02 -0.32473206172E+02  0.20372008633E+03  0.20870069376E+03  0.00000000000E+00 0.  1.
         13    1    3    3    0    0  0.36269044840E+00  0.52438855994E+02  0.20612645443E+03  0.21269245492E+03  0.00000000000E+00 0. -1.
        -13    1    4    4    0    0 -0.24063324601E+02 -0.18182100447E+02 -0.67850958550E+02  0.74252171306E+02  0.00000000000E+00 0.  1.
         13    1    4    4    0    0 -0.29311359092E+02  0.85432977997E+02 -0.10317560736E+03  0.13712459828E+03  0.00000000000E+00 0. -1.
         21    1    1    2  502  501  0.21395591142E+02 -0.87216527373E+02  0.63130451524E+01  0.90024155127E+02  0.00000000000E+00 0. -1.
<scales pt_clust_5="13000.00000" pt_clust_6="13000.00000" pt_clust_7="13000.00000" pt_clust_8="13000.00000" pt_clust_9="89.80253"></scales>
<clustering>
<clus scale="   89.769">  7  8 -1 -1</clus>
<clus scale="   89.803">  2  9  1 -1</clus>
<clus scale="   90.425">  5  6 -1 -1</clus>
<clus scale="   97.081">  2  7  1 -1</clus>
<clus scale="   89.803">  2  5  1 -1</clus>
</clustering>
</event>
<event>
 9    1  0.1296032E-005  0.1200990E+03  0.7546771E-02  0.1243211E+00
          1   -1    0    0  502    0  0.00000000000E+00  0.00000000000E+00  0.33340819356E+03  0.33340819356E+03  0.00000000000E+00 0. -1.
         -1   -1    0    0    0  501 -0.00000000000E+00 -0.00000000000E+00 -0.16555540095E+03  0.16555540095E+03  0.00000000000E+00 0.  1.
         23    2    1    2    0    0  0.15332397591E+02 -0.80891900222E+02 -0.12061415402E+03  0.17203808978E+03  0.90943654241E+02 0.  0.
         23    2    1    2    0    0  0.28220290282E+01  0.48118992274E+02  0.14259423442E+03  0.17631841701E+03  0.91824110250E+02 0.  0.
        -13    1    3    3    0    0  0.37669512343E+02 -0.90696742224E+02 -0.94202302652E+02  0.13608440409E+03  0.00000000000E+00 0.  1.
         13    1    3    3    0    0 -0.22337114752E+02  0.98048420021E+01 -0.26411851371E+02  0.35953685694E+02  0.00000000000E+00 0. -1.
        -13    1    4    4    0    0 -0.67180068598E+01 -0.23119571161E+02  0.11206211940E+02  0.26556079772E+02  0.00000000000E+00 0.  1.
         13    1    4    4    0    0  0.95400358880E+01  0.71238563435E+02  0.13138802248E+03  0.14976233724E+03  0.00000000000E+00 0. -1.
         21    1    1    2  502  501 -0.18154426619E+02  0.32772907948E+02  0.14587271221E+03  0.15060708772E+03  0.00000000000E+00 0. -1.
<scales pt_clust_5="13000.00000" pt_clust_6="13000.00000" pt_clust_7="13000.00000" pt_clust_8="13000.00000" pt_clust_9="37.46527"></scales>
<clustering>
<clus scale="   37.465">  1  9  2 -1</clus>
<clus scale="   90.944">  5  6 -1 -1</clus>
<clus scale="   91.824">  7  8 -1 -1</clus>
<clus scale="  119.427">  2  5  1 -1</clus>
<clus scale="   37.465">  1  5  2 -1</clus>
</clustering>
</event>
<event>
 9    1  0.1296032E-005  0.9805178E+02  0.7546771E-02  0.1284643E+00
          1   -1    0    0  502    0  0.00000000000E+00  0.00000000000E+00  0.32924045784E+03  0.32924045784E+03  0.00000000000E+00 0. -1.
         -1   -1    0    0    0  501 -0.00000000000E+00 -0.00000000000E+00 -0.71744787182E+02  0.71744787182E+02  0.00000000000E+00 0.  1.
         23    2    1    2    0    0 -0.34038370786E+02 -0.36234980248E+02  0.29427075195E+02  0.10786057988E+03  0.91084397445E+02 0.  0.
         23    2    1    2    0    0  0.19803673312E+02  0.12206373029E+02  0.38051834059E+02  0.10106641827E+03  0.90693427588E+02 0.  0.
        -11    1    3    3    0    0 -0.28917709396E+02  0.13378183226E+02 -0.20017964661E+02  0.37628826880E+02  0.00000000000E+00 0.  1.
         11    1    3    3    0    0 -0.51206613900E+01 -0.49613163474E+02  0.49445039856E+02  0.70231752999E+02  0.00000000000E+00 0. -1.
        -13    1    4    4    0    0  0.16631265149E+02 -0.14702174972E+02  0.61406317481E+02  0.65295396131E+02  0.00000000000E+00 0.  1.
         13    1    4    4    0    0  0.31724081635E+01  0.26908548001E+02 -0.23354483422E+02  0.35771022140E+02  0.00000000000E+00 0. -1.
         21    1    1    2  502  501  0.14234697474E+02  0.24028607219E+02  0.19001676140E+03  0.19205824687E+03  0.00000000000E+00 0. -1.
<scales pt_clust_5="13000.00000" pt_clust_6="13000.00000" pt_clust_7="13000.00000" pt_clust_8="13000.00000" pt_clust_9="27.92849"></scales>
<clustering>
<clus scale="   27.928">  1  9  2 -1</clus>
<clus scale="   90.693">  7  8 -1 -1</clus>
<clus scale="   91.084">  5  6 -1 -1</clus>
<clus scale="   97.689">  1  7  2 -1</clus>
<clus scale="   27.928">  1  5  2 -1</clus>
</clustering>
</event>
<event>
 9    1  0.1296032E-005  0.1042155E+03  0.7546771E-02  0.1272195E+00
          1   -1    0    0  502    0  0.00000000000E+00  0.00000000000E+00  0.44910871237E+02  0.44910871237E+02  0.00000000000E+00 0. -1.
         -1   -1    0    0    0  501 -0.00000000000E+00 -0.00000000000E+00 -0.67880367059E+03  0.67880367059E+03  0.00000000000E+00 0.  1.
         23    2    1    2    0    0  0.56070056845E+02  0.11537626920E+02 -0.53973802306E+03  0.55012670357E+03  0.89695531269E+02 0.  0.
         23    2    1    2    0    0 -0.25838670147E+02  0.24304002391E+02 -0.74433344677E+02  0.12272042238E+03  0.90893662386E+02 0.  0.
        -13    1    3    3    0    0  0.66830069003E+02 -0.21830783699E+02 -0.39458853663E+03  0.40080288732E+03  0.00000000000E+00 0.  1.
         13    1    3    3    0    0 -0.10760012158E+02  0.33368410618E+02 -0.14514948643E+03  0.14932381625E+03  0.00000000000E+00 0. -1.
        -13    1    4    4    0    0 -0.50601786994E+02  0.54350043420E+01 -0.11013200185E+02  0.52070823860E+02  0.00000000000E+00 0. -1.
         13    1    4    4    0    0  0.24763116848E+02  0.18868998049E+02 -0.63420144493E+02  0.70649598519E+02  0.00000000000E+00 0.  1.
         21    1    1    2  502  501 -0.30231386699E+02 -0.35841629311E+02 -0.19721431613E+02  0.50867415879E+02  0.00000000000E+00 0. -1.
<scales pt_clust_5="13000.00000" pt_clust_6="13000.00000" pt_clust_7="13000.00000" pt_clust_8="13000.00000" pt_clust_9="46.88880"></scales>
<clustering>
<clus scale="   46.889">  1  9  2 -1</clus>
<clus scale="   89.696">  5  6 -1 -1</clus>
<clus scale="   90.894">  7  8 -1 -1</clus>
<clus scale="  103.172">  2  5  1 -1</clus>
<clus scale="   46.889">  1  5  2 -1</clus>
</clustering>
</event>
<event>
 9    1  0.1296032E-005  0.1103264E+03  0.7546771E-02  0.1266990E+00
          2   -1    0    0  502    0  0.00000000000E+00  0.00000000000E+00  0.12114459904E+03  0.12114459904E+03  0.00000000000E+00 0. -1.
         -2   -1    0    0    0  501 -0.00000000000E+00 -0.00000000000E+00 -0.15270413371E+03  0.15270413371E+03  0.00000000000E+00 0.  1.
         23    2    1    2    0    0  0.37700312009E+02 -0.23056560729E+02 -0.73402994465E+02  0.12121007731E+03  0.85737767218E+02 0.  0.
         23    2    1    2    0    0 -0.49124222433E+02 -0.54831354076E+01  0.19040400213E+02  0.11436334340E+03  0.10135671399E+03 0.  0.
        -13    1    4    4    0    0 -0.26926334797E+02  0.11769219167E+02 -0.39611511806E+02  0.49321535793E+02  0.00000000000E+00 0.  1.
         13    1    4    4    0    0 -0.22197887636E+02 -0.17252354575E+02  0.58651912019E+02  0.65041807612E+02  0.00000000000E+00 0. -1.
        -13    1    3    3    0    0 -0.24934437853E+02 -0.18801340152E+01 -0.39450456753E+01  0.25314511260E+02  0.00000000000E+00 0. -1.
         13    1    3    3    0    0  0.62634749861E+02 -0.21176426714E+02 -0.69457948789E+02  0.95895566053E+02  0.00000000000E+00 0.  1.
         21    1    1    2  502  501  0.11423910425E+02  0.28539696137E+02  0.22803059584E+02  0.38275312035E+02  0.00000000000E+00 0. -1.
<scales pt_clust_5="13000.00000" pt_clust_6="13000.00000" pt_clust_7="13000.00000" pt_clust_8="13000.00000" pt_clust_9="30.74118"></scales>
<clustering>
<clus scale="   30.741">  1  9  2 -1</clus>
<clus scale="   85.738">  7  8 -1 -1</clus>
<clus scale="   96.175">  2  7  1 -1</clus>
<clus scale="  101.357">  5  6 -1 -1</clus>
<clus scale="   30.741">  1  5  2 -1</clus>
</clustering>
</event>
<event>
 9    1  0.1296032E-005  0.1010123E+03  0.7546771E-02  0.1279207E+00
         -3   -1    0    0    0  501 -0.00000000000E+00  0.00000000000E+00  0.70426301320E+02  0.70426301320E+02  0.00000000000E+00 0.  1.
          3   -1    0    0  502    0  0.00000000000E+00 -0.00000000000E+00 -0.46914907333E+03  0.46914907333E+03  0.00000000000E+00 0. -1.
         23    2    1    2    0    0 -0.28786803892E+02  0.18688619031E+02  0.10203327142E+02  0.97636240141E+02  0.90833820489E+02 0.  0.
         23    2    1    2    0    0  0.56259015127E+02 -0.30721797982E+02 -0.19041735068E+03  0.22138167500E+03  0.92963288089E+02 0.  0.
        -11    1    3    3    0    0  0.32801055041E+02  0.32624018006E+01  0.88547902797E+01  0.34131507265E+02  0.00000000000E+00 0.  1.
         11    1    3    3    0    0 -0.61587858933E+02  0.15426217230E+02  0.13485368621E+01  0.63504732876E+02  0.00000000000E+00 0. -1.
        -13    1    4    4    0    0 -0.24152017941E+02  0.46825244232E+01 -0.33832144088E+02  0.41831327724E+02  0.00000000000E+00 0. -1.
         13    1    4    4    0    0  0.80411033068E+02 -0.35404322405E+02 -0.15658520659E+03  0.17955034728E+03  0.00000000000E+00 0.  1.
         21    1    1    2  502  501 -0.27472211235E+02  0.12033178952E+02 -0.21850874847E+03  0.22055745950E+03  0.00000000000E+00 0. -1.
<scales pt_clust_5="13000.00000" pt_clust_6="13000.00000" pt_clust_7="13000.00000" pt_clust_8="13000.00000" pt_clust_9="29.99200"></scales>
<clustering>
<clus scale="   29.992">  2  9  1 -1</clus>
<clus scale="   90.834">  5  6 -1 -1</clus>
<clus scale="   92.963">  7  8 -1 -1</clus>
<clus scale="   99.056">  1  5  2 -1</clus>
<clus scale="   29.992">  2  5  1 -1</clus>
</clustering>
</event>
<event>
 9    1  0.1296032E-005  0.1111410E+03  0.7546771E-02  0.1264736E+00
          2   -1    0    0  502    0  0.00000000000E+00  0.00000000000E+00  0.25075173922E+03  0.25075173922E+03  0.00000000000E+00 0. -1.
         -2   -1    0    0    0  501 -0.00000000000E+00 -0.00000000000E+00 -0.10343625216E+03  0.10343625216E+03  0.00000000000E+00 0.  1.
         23    2    1    2    0    0 -0.48558424549E+02 -0.27727017903E+02  0.18242562084E+02  0.12094303906E+03  0.10567743141E+03 0.  0.
         23    2    1    2    0    0  0.12078078966E+02 -0.51495564660E+02  0.81799700566E+02  0.13403915133E+03  0.92074045782E+02 0.  0.
        -13    1    3    3    0    0 -0.67605209229E+02  0.11691282259E+02  0.31081117465E+02  0.75320556680E+02  0.00000000000E+00 0.  1.
         13    1    3    3    0    0  0.19046784680E+02 -0.39418300162E+02 -0.12838555381E+02  0.45622482381E+02  0.00000000000E+00 0. -1.
        -13    1    4    4    0    0  0.47786225490E+02 -0.47991803035E+02  0.38859667417E+02  0.78082073851E+02  0.00000000000E+00 0.  1.
         13    1    4    4    0    0 -0.35708146524E+02 -0.35037616246E+01  0.42940033149E+02  0.55957077484E+02  0.00000000000E+00 0. -1.
         21    1    1    2  502  501  0.36480345583E+02  0.79222582563E+02  0.47273224413E+02  0.99205800981E+02  0.00000000000E+00 0.  1.
<scales pt_clust_5="13000.00000" pt_clust_6="13000.00000" pt_clust_7="13000.00000" pt_clust_8="13000.00000" pt_clust_9="87.21831"></scales>
<clustering>
<clus scale="   87.218">  1  9  2 -1</clus>
<clus scale="   92.074">  7  8 -1 -1</clus>
<clus scale="   98.297">  1  7  2 -1</clus>
<clus scale="  105.677">  5  6 -1 -1</clus>
<clus scale="   87.218">  1  5  2 -1</clus>
</clustering>
</event>
<event>
 9    1  0.1296032E-005  0.1535796E+03  0.7546771E-02  0.1200125E+00
         -2   -1    0    0    0  501 -0.00000000000E+00  0.00000000000E+00  0.74513787429E+03  0.74513787429E+03  0.00000000000E+00 0.  1.
          2   -1    0    0  502    0  0.00000000000E+00 -0.00000000000E+00 -0.85098842514E+02  0.85098842514E+02  0.00000000000E+00 0. -1.
         23    2    1    2    0    0  0.45307185537E+01  0.10675185276E+03  0.40181424545E+03  0.42580003083E+03  0.91839495472E+02 0.  0.
         23    2    1    2    0    0  0.79339461698E+02 -0.98899385684E+02  0.27131632246E+03  0.31918847959E+03  0.11042146528E+03 0.  0.
        -11    1    4    4    0    0  0.54126478365E+02 -0.40132822567E+02  0.23745379406E+03  0.24682913811E+03  0.00000000000E+00 0.  1.
         11    1    4    4    0    0  0.25212983333E+02 -0.58766563116E+02  0.33862528405E+02  0.72359341477E+02  0.00000000000E+00 0. -1.
        -13    1    3    3    0    0 -0.25632478044E+02 -0.39569129145E+01  0.65375051415E+02  0.70331916212E+02  0.00000000000E+00 0. -1.
         13    1    3    3    0    0  0.30163196598E+02  0.11070876568E+03  0.33643919403E+03  0.35546811461E+03  0.00000000000E+00 0.  1.
         21    1    1    2  502  501 -0.83870180252E+02 -0.78524670781E+01 -0.13091536133E+02  0.85248206392E+02  0.00000000000E+00 0. -1.
<scales pt_clust_5="13000.00000" pt_clust_6="13000.00000" pt_clust_7="13000.00000" pt_clust_8="13000.00000" pt_clust_9="84.23698"></scales>
<clustering>
<clus scale="   84.237">  2  9  1 -1</clus>
<clus scale="   91.839">  7  8 -1 -1</clus>
<clus scale="  110.421">  5  6 -1 -1</clus>
<clus scale="  140.813">  1  7  2 -1</clus>
<clus scale="   84.237">  2  5  1 -1</clus>
</clustering>
</event>
<event>
 9    1  0.1296032E-005  0.9857030E+02  0.7546771E-02  0.1283707E+00
          1   -1    0    0  502    0  0.00000000000E+00  0.00000000000E+00  0.45318493215E+03  0.45318493215E+03  0.00000000000E+00 0. -1.
         -1   -1    0    0    0  501 -0.00000000000E+00 -0.00000000000E+00 -0.46311850894E+02  0.46311850894E+02  0.00000000000E+00 0.  1.
         23    2    1    2    0    0  0.13479745970E+02 -0.40921290230E+02  0.34176144618E+02  0.10570186600E+03  0.90269707376E+02 0.  0.
         23    2    1    2    0    0 -0.23003839863E+02  0.21291582825E+02  0.22032321271E+03  0.23986705887E+03  0.89506311093E+02 0.  0.
        -11    1    3    3    0    0 -0.36395571112E+02 -0.47696810627E+01  0.34614679263E+01  0.36869624547E+02  0.00000000000E+00 0. -1.
         11    1    3    3    0    0  0.49875317082E+02 -0.36151609168E+02  0.30714676692E+02  0.68832241455E+02  0.00000000000E+00 0.  1.
        -13    1    4    4    0    0  0.18163454131E+02  0.26419153143E+02  0.17701546208E+03  0.17989540443E+03  0.00000000000E+00 0. -1.
         13    1    4    4    0    0 -0.41167293994E+02 -0.51275703179E+01  0.43307750628E+02  0.59971654443E+02  0.00000000000E+00 0.  1.
         21    1    1    2  502  501  0.95240938937E+01  0.19629707405E+02  0.15237372392E+03  0.15392785817E+03  0.00000000000E+00 0. -1.
<scales pt_clust_5="13000.00000" pt_clust_6="13000.00000" pt_clust_7="13000.00000" pt_clust_8="13000.00000" pt_clust_9="21.81820"></scales>
<clustering>
<clus scale="   21.818">  1  9  2 -1</clus>
<clus scale="   89.506">  7  8 -1 -1</clus>
<clus scale="   90.270">  5  6 -1 -1</clus>
<clus scale="   97.872">  1  7  2 -1</clus>
<clus scale="   21.818">  1  5  2 -1</clus>
</clustering>
</event>
<event>
 9    1  0.1296032E-005  0.1005574E+03  0.7546771E-02  0.1281149E+00
         -1   -1    0    0    0  501 -0.00000000000E+00  0.00000000000E+00  0.43342573116E+03  0.43342573116E+03  0.00000000000E+00 0.  1.
          1   -1    0    0  502    0  0.00000000000E+00 -0.00000000000E+00 -0.72818706434E+02  0.72818706434E+02  0.00000000000E+00 0. -1.
         23    2    1    2    0    0  0.39085802212E+02  0.24423683426E+02  0.36199705387E+03  0.37525176234E+03  0.87451711719E+02 0.  0.
         23    2    1    2    0    0 -0.14675512270E+02 -0.20230177387E+01  0.15007550730E+02  0.94026032139E+02  0.91630807482E+02 0.  0.
        -11    1    4    4    0    0 -0.51504264773E+02  0.96272348607E+01  0.17698995838E+02  0.55304858689E+02  0.00000000000E+00 0. -1.
         11    1    4    4    0    0  0.36828752503E+02 -0.11650252599E+02 -0.26914451086E+01  0.38721173450E+02  0.00000000000E+00 0.  1.
        -13    1    3    3    0    0  0.36194029075E+02  0.56111485035E+02  0.23205695106E+03  0.24147243120E+03  0.00000000000E+00 0. -1.
         13    1    3    3    0    0  0.28917731368E+01 -0.31687801609E+02  0.12994010281E+03  0.13377933114E+03  0.00000000000E+00 0.  1.
         21    1    1    2  502  501 -0.24410289942E+02 -0.22400665688E+02 -0.16397579866E+02  0.36966643123E+02  0.00000000000E+00 0. -1.
<scales pt_clust_5="13000.00000" pt_clust_6="13000.00000" pt_clust_7="13000.00000" pt_clust_8="13000.00000" pt_clust_9="33.13083"></scales>
<clustering>
<clus scale="   33.131">  2  9  1 -1</clus>
<clus scale="   87.452">  7  8 -1 -1</clus>
<clus scale="   91.631">  5  6 -1 -1</clus>
<clus scale="   96.765">  1  7  2 -1</clus>
<clus scale="   33.131">  2  5  1 -1</clus>
</clustering>
</event>
<event>
 9    1  0.1296032E-005  0.9632103E+02  0.7546771E-02  0.1288445E+00
          2   -1    0    0  502    0  0.00000000000E+00  0.00000000000E+00  0.41053606268E+03  0.41053606268E+03  0.00000000000E+00 0. -1.
         -2   -1    0    0    0  501 -0.00000000000E+00 -0.00000000000E+00 -0.33320252456E+02  0.33320252456E+02  0.00000000000E+00 0.  1.
         23    2    1    2    0    0  0.33250384881E+01 -0.15439993060E+02  0.12374669072E+03  0.15452882454E+03  0.91194653806E+02 0.  0.
         23    2    1    2    0    0 -0.20948695188E+02  0.45663582701E+02  0.18656037027E+03  0.21382358759E+03  0.91606463945E+02 0.  0.
        -13    1    4    4    0    0  0.32345343974E+02 -0.23864340931E+01  0.50915116155E+02  0.60367751304E+02  0.00000000000E+00 0. -1.
         13    1    4    4    0    0 -0.53294039162E+02  0.48050016794E+02  0.13564525412E+03  0.15345583628E+03  0.00000000000E+00 0.  1.
        -13    1    3    3    0    0 -0.68523609878E+01  0.37710253083E+02  0.55017621803E+02  0.67051895928E+02  0.00000000000E+00 0. -1.
         13    1    3    3    0    0  0.10177399476E+02 -0.53150246143E+02  0.68729068919E+02  0.87476928614E+02  0.00000000000E+00 0.  1.
         21    1    1    2  502  501  0.17623656700E+02 -0.30223589640E+02  0.66908749226E+02  0.75503903007E+02  0.00000000000E+00 0.  1.
<scales pt_clust_5="13000.00000" pt_clust_6="13000.00000" pt_clust_7="13000.00000" pt_clust_8="13000.00000" pt_clust_9="34.98655"></scales>
<clustering>
<clus scale="   34.987">  1  9  2 -1</clus>
<clus scale="   91.195">  7  8 -1 -1</clus>
<clus scale="   91.606">  5  6 -1 -1</clus>
<clus scale="   95.929">  2  7  1 -1</clus>
<clus scale="   34.987">  1  5  2 -1</clus>
</clustering>
</event>
<event>
 9    1  0.1296032E-005  0.1055338E+03  0.7546771E-02  0.1269919E+00
          1   -1    0    0  502    0  0.00000000000E+00  0.00000000000E+00  0.50103361778E+02  0.50103361778E+02  0.00000000000E+00 0. -1.
         -1   -1    0    0    0  501 -0.00000000000E+00 -0.00000000000E+00 -0.49080047474E+03  0.49080047474E+03  0.00000000000E+00 0.  1.
         23    2    1    2    0    0 -0.31877279217E+02 -0.26867999722E+02 -0.38008731747E+03  0.39352544915E+03  0.93047621613E+02 0.  0.
         23    2    1    2    0    0  0.22103063456E+02  0.46884109882E+02 -0.29071197475E+02  0.10876669064E+03  0.91095517429E+02 0.  0.
        -11    1    4    4    0    0 -0.31066480176E+02  0.16790622228E+02  0.94312640463E+01  0.36551332764E+02  0.00000000000E+00 0. -1.
         11    1    4    4    0    0  0.53169543633E+02  0.30093487654E+02 -0.38502461521E+02  0.72215357872E+02  0.00000000000E+00 0.  1.
        -11    1    3    3    0    0  0.27160283546E+02 -0.28417728588E+02 -0.10373995399E+03  0.11093793920E+03  0.00000000000E+00 0.  1.
         11    1    3    3    0    0 -0.59037562764E+02  0.15497288659E+01 -0.27634736348E+03  0.28258750995E+03  0.00000000000E+00 0. -1.
         21    1    1    2  502  501  0.97742157611E+01 -0.20016110160E+02 -0.31538598018E+02  0.38611696733E+02  0.00000000000E+00 0.  1.
<scales pt_clust_5="13000.00000" pt_clust_6="13000.00000" pt_clust_7="13000.00000" pt_clust_8="13000.00000" pt_clust_9="22.27510"></scales>
<clustering>
<clus scale="   22.275">  2  9  1 -1</clus>
<clus scale="   91.096">  5  6 -1 -1</clus>
<clus scale="   93.048">  7  8 -1 -1</clus>
<clus scale="  103.817">  1  5  2 -1</clus>
<clus scale="  103.817">  1  5  2 -1</clus>
</clustering>
</event>
<event>
 9    1  0.1296032E-005  0.1130958E+03  0.7546771E-02  0.1255827E+00
         -1   -1    0    0    0  501 -0.00000000000E+00  0.00000000000E+00  0.37829446839E+03  0.37829446839E+03  0.00000000000E+00 0.  1.
          1   -1    0    0  502    0  0.00000000000E+00 -0.00000000000E+00 -0.70205758113E+02  0.70205758113E+02  0.00000000000E+00 0. -1.
         23    2    1    2    0    0 -0.52694418901E+02  0.25821022327E+02  0.26308402359E+03  0.28480032318E+03  0.91948864244E+02 0.  0.
         23    2    1    2    0    0  0.81317328052E+02 -0.12618588117E+02  0.29617119586E+02  0.12862352355E+03  0.94313840073E+02 0.  0.
        -11    1    3    3    0    0  0.20204708885E+02 -0.10827077920E+02  0.98105669157E+02  0.10074809278E+03  0.00000000000E+00 0. -1.
         11    1    3    3    0    0 -0.72899127787E+02  0.36648100247E+02  0.16497835443E+03  0.18405223040E+03  0.00000000000E+00 0.  1.
        -13    1    4    4    0    0  0.10256958587E+02  0.23697998772E+02  0.40551511146E+02  0.48075205683E+02  0.00000000000E+00 0.  1.
         13    1    4    4    0    0  0.71060369465E+02 -0.36316586889E+02 -0.10934391560E+02  0.80548317863E+02  0.00000000000E+00 0. -1.
         21    1    1    2  502  501 -0.28622909150E+02 -0.13202434210E+02  0.15387567101E+02  0.35076379781E+02  0.00000000000E+00 0. -1.
<scales pt_clust_5="13000.00000" pt_clust_6="13000.00000" pt_clust_7="13000.00000" pt_clust_8="13000.00000" pt_clust_9="31.52103"></scales>
<clustering>
<clus scale="   31.521">  2  9  1 -1</clus>
<clus scale="   91.949">  5  6 -1 -1</clus>
<clus scale="   94.314">  7  8 -1 -1</clus>
<clus scale="  111.131">  1  5  2 -1</clus>
<clus scale="   31.521">  2  5  1 -1</clus>
</clustering>
</event>
<event>
 9    1  0.1296032E-005  0.1195734E+03  0.7546771E-02  0.1243982E+00
         -1   -1    0    0    0  501 -0.00000000000E+00  0.00000000000E+00  0.47476295922E+02  0.47476295922E+02  0.00000000000E+00 0.  1.
          1   -1    0    0  502    0  0.00000000000E+00 -0.00000000000E+00 -0.69441832036E+03  0.69441832036E+03  0.00000000000E+00 0. -1.
         23    2    1    2    0    0  0.79695879173E+01  0.69609736769E+02 -0.62424237191E+02  0.13191605879E+03  0.92714785198E+02 0.  0.
         23    2    1    2    0    0 -0.17348792868E+02 -0.95093201379E+02 -0.36274347199E+03  0.38654797909E+03  0.92156476211E+02 0.  0.
        -13    1    4    4    0    0  0.91885921890E+01 -0.95718595238E+02 -0.33335225570E+03  0.34694409648E+03  0.00000000000E+00 0. -1.
         13    1    4    4    0    0 -0.26537385057E+02  0.62539385959E+00 -0.29391216285E+02  0.39603882611E+02  0.00000000000E+00 0.  1.
        -13    1    3    3    0    0 -0.34601416527E+02  0.41730629114E+02 -0.60155982750E+02  0.80978056858E+02  0.00000000000E+00 0. -1.
         13    1    3    3    0    0  0.42571004444E+02  0.27879107655E+02 -0.22682544411E+01  0.50938001936E+02  0.00000000000E+00 0.  1.
         21    1    1    2  502  501  0.93792049505E+01  0.25483464610E+02 -0.22177431526E+03  0.22343057840E+03  0.00000000000E+00 0. -1.
<scales pt_clust_5="13000.00000" pt_clust_6="13000.00000" pt_clust_7="13000.00000" pt_clust_8="13000.00000" pt_clust_9="27.15468"></scales>
<clustering>
<clus scale="   27.155">  2  9  1 -1</clus>
<clus scale="   92.156">  5  6 -1 -1</clus>
<clus scale="   92.715">  7  8 -1 -1</clus>
<clus scale="  119.141">  2  5  1 -1</clus>
<clus scale="   27.155">  2  5  1 -1</clus>
</clustering>
</event>
<event>
 9    1  0.1296032E-005  0.9965323E+02  0.7546771E-02  0.1282823E+00
         -2   -1    0    0    0  501 -0.00000000000E+00  0.00000000000E+00  0.13993463472E+03  0.13993463472E+03  0.00000000000E+00 0.  1.
          2   -1    0    0  502    0  0.00000000000E+00 -0.00000000000E+00 -0.34968085123E+03  0.34968085123E+03  0.00000000000E+00 0. -1.
         23    2    1    2    0    0 -0.27961402661E+02  0.26644445779E+02  0.76856189810E+02  0.12742325382E+03  0.94010877949E+02 0.  0.
         23    2    1    2    0    0  0.32715458377E+02  0.13890066554E+02 -0.29074949803E+02  0.10145090706E+03  0.90463797570E+02 0.  0.
        -11    1    4    4    0    0 -0.58609206555E+00  0.32086066586E+02  0.21199924582E+02  0.38461616907E+02  0.00000000000E+00 0.  1.
         11    1    4    4    0    0  0.33301550443E+02 -0.18196000032E+02 -0.50274874385E+02  0.62989290149E+02  0.00000000000E+00 0. -1.
        -13    1    3    3    0    0  0.10497156235E+02  0.31150025804E+02  0.82017307433E+02  0.88359227674E+02  0.00000000000E+00 0. -1.
         13    1    3    3    0    0 -0.38458558896E+02 -0.45055800256E+01 -0.51611176230E+01  0.39064026147E+02  0.00000000000E+00 0.  1.
         21    1    1    2  502  501 -0.47540557162E+01 -0.40534512333E+02 -0.25752745652E+03  0.26074132507E+03  0.00000000000E+00 0. -1.
<scales pt_clust_5="13000.00000" pt_clust_6="13000.00000" pt_clust_7="13000.00000" pt_clust_8="13000.00000" pt_clust_9="40.81235"></scales>
<clustering>
<clus scale="   40.812">  2  9  1 -1</clus>
<clus scale="   90.464">  5  6 -1 -1</clus>
<clus scale="   94.011">  7  8 -1 -1</clus>
<clus scale="   96.314">  2  5  1 -1</clus>
<clus scale="   40.812">  2  5  1 -1</clus>
</clustering>
</event>
<event>
 9    1  0.1296032E-005  0.9311217E+02  0.7546771E-02  0.1302321E+00
          2   -1    0    0  502    0  0.00000000000E+00  0.00000000000E+00  0.44660693655E+02  0.44660693655E+02  0.00000000000E+00 0. -1.
         -2   -1    0    0    0  501 -0.00000000000E+00 -0.00000000000E+00 -0.27862101054E+03  0.27862101054E+03  0.00000000000E+00 0.  1.
         23    2    1    2    0    0 -0.99498397788E+01 -0.41153793803E+00 -0.15286183544E+03  0.17327693327E+03  0.80987568135E+02 0.  0.
         23    2    1    2    0    0  0.14419483662E+02  0.19961867203E+02 -0.86991106435E+02  0.12910223233E+03  0.92160382711E+02 0.  0.
        -11    1    4    4    0    0  0.32928506004E+01 -0.37103361835E+02 -0.33356958062E+02  0.50001889722E+02  0.00000000000E+00 0.  1.
         11    1    4    4    0    0  0.11126633062E+02  0.57065229039E+02 -0.53634148373E+02  0.79100342605E+02  0.00000000000E+00 0. -1.
        -11    1    3    3    0    0 -0.42924085758E+02  0.11100331610E+02 -0.64550709434E+02  0.78310207435E+02  0.00000000000E+00 0. -1.
         11    1    3    3    0    0  0.32974245980E+02 -0.11511869548E+02 -0.88311126007E+02  0.94966725831E+02  0.00000000000E+00 0.  1.
         21    1    1    2  502  501 -0.44696438832E+01 -0.19550329265E+02  0.58926249898E+01  0.20902538604E+02  0.00000000000E+00 0.  1.
<scales pt_clust_5="13000.00000" pt_clust_6="13000.00000" pt_clust_7="13000.00000" pt_clust_8="13000.00000" pt_clust_9="20.05475"></scales>
<clustering>
<clus scale="   20.055">  1  9  2 -1</clus>
<clus scale="   80.988">  7  8 -1 -1</clus>
<clus scale="   82.069">  2  7  1 -1</clus>
<clus scale="   92.160">  5  6 -1 -1</clus>
<clus scale="   20.055">  1  5  2 -1</clus>
</clustering>
</event>
<event>
 9    1  0.1296032E-005  0.1208948E+03  0.7546771E-02  0.1241961E+00
          1   -1    0    0  502    0  0.00000000000E+00  0.00000000000E+00  0.62039582463E+02  0.62039582463E+02  0.00000000000E+00 0. -1.
         -1   -1    0    0    0  501 -0.00000000000E+00 -0.00000000000E+00 -0.39726432839E+03  0.39726432839E+03  0.00000000000E+00 0.  1.
         23    2    1    2    0    0  0.84302709232E+02 -0.82505977301E+01 -0.29128003751E+03  0.31700825821E+03  0.92060612496E+02 0.  0.
         23    2    1    2    0    0 -0.59865440188E+02 -0.59455514223E+00 -0.39871026670E+02  0.11598953680E+03  0.90992579118E+02 0.  0.
        -11    1    3    3    0    0 -0.11347907305E+02  0.19228999019E+02 -0.86371761149E+02  0.89211044873E+02  0.00000000000E+00 0.  1.
         11    1    3    3    0    0  0.95650616537E+02 -0.27479596749E+02 -0.20490827636E+03  0.22779721334E+03  0.00000000000E+00 0. -1.
        -13    1    4    4    0    0  0.22565081697E+02 -0.11844028045E+02 -0.61180965845E+01  0.26208682114E+02  0.00000000000E+00 0. -1.
         13    1    4    4    0    0 -0.82430521885E+02  0.11249472903E+02 -0.33752930085E+02  0.89780854686E+02  0.00000000000E+00 0.  1.
         21    1    1    2  502  501 -0.24437269044E+02  0.88451528723E+01 -0.40736817399E+01  0.26306115840E+02  0.00000000000E+00 0.  1.
<scales pt_clust_5="13000.00000" pt_clust_6="13000.00000" pt_clust_7="13000.00000" pt_clust_8="13000.00000" pt_clust_9="25.98878"></scales>
<clustering>
<clus scale="   25.989">  1  9  2 -1</clus>
<clus scale="   90.993">  7  8 -1 -1</clus>
<clus scale="   92.061">  5  6 -1 -1</clus>
<clus scale="  120.084">  1  7  2 -1</clus>
<clus scale="   25.989">  1  5  2 -1</clus>
</clustering>
</event>
<event>
 9    1  0.1296032E-005  0.1071259E+03  0.7546771E-02  0.1266022E+00
          1   -1    0    0  502    0  0.00000000000E+00  0.00000000000E+00  0.31960189796E+03  0.31960189796E+03  0.00000000000E+00 0. -1.
         -1   -1    0    0    0  501 -0.00000000000E+00 -0.00000000000E+00 -0.10439257859E+03  0.10439257859E+03  0.00000000000E+00 0.  1.
         23    2    1    2    0    0  0.23457475922E+02  0.92087282925E+02 -0.77213620616E+01  0.13251637993E+03  0.92036137825E+02 0.  0.
         23    2    1    2    0    0 -0.16955492246E+02 -0.44970652510E+02  0.22061429695E+03  0.24385858076E+03  0.92122153091E+02 0.  0.
        -11    1    3    3    0    0 -0.31906057032E+02  0.17519753538E+02 -0.14976261362E+02  0.39360216510E+02  0.00000000000E+00 0.  1.
         11    1    3    3    0    0  0.55363532954E+02  0.74567529388E+02  0.72548993009E+01  0.93156163424E+02  0.00000000000E+00 0. -1.
        -13    1    4    4    0    0  0.26464635814E+02 -0.52352072457E+01  0.16950781361E+02  0.31860843248E+02  0.00000000000E+00 0. -1.
         13    1    4    4    0    0 -0.43420128060E+02 -0.39735445265E+02  0.20366351559E+03  0.21199773752E+03  0.00000000000E+00 0.  1.
         21    1    1    2  502  501 -0.65019836759E+01 -0.47116630415E+02  0.23163844830E+01  0.47619515857E+02  0.00000000000E+00 0.  1.
<scales pt_clust_5="13000.00000" pt_clust_6="13000.00000" pt_clust_7="13000.00000" pt_clust_8="13000.00000" pt_clust_9="47.56314"></scales>
<clustering>
<clus scale="   47.563">  2  9  1 -1</clus>
<clus scale="   92.036">  5  6 -1 -1</clus>
<clus scale="   92.122">  7  8 -1 -1</clus>
<clus scale="  107.052">  2  5  1 -1</clus>
<clus scale="  107.126">  1  5  2 -1</clus>
</clustering>
</event>
<event>
 9    1  0.1296032E-005  0.1117945E+03  0.7546771E-02  0.1259842E+00
         -1   -1    0    0    0  501 -0.00000000000E+00  0.00000000000E+00  0.20403145626E+03  0.20403145626E+03  0.00000000000E+00 0.  1.
          1   -1    0    0  502    0  0.00000000000E+00 -0.00000000000E+00 -0.12198891507E+03  0.12198891507E+03  0.00000000000E+00 0. -1.
         23    2    1    2    0    0  0.37678718632E+02  0.45034302672E+02  0.13403831770E+03  0.17315077715E+03  0.92558882667E+02 0.  0.
         23    2    1    2    0    0 -0.45450424118E+02 -0.67543305068E+02 -0.51563300300E+02  0.12905275916E+03  0.85837064231E+02 0.  0.
        -11    1    3    3    0    0 -0.14927334014E+02  0.18926912685E+02  0.10481966338E+03  0.10755563749E+03  0.00000000000E+00 0.  1.
         11    1    3    3    0    0  0.52606052646E+02  0.26107389987E+02  0.29218654322E+02  0.65595139662E+02  0.00000000000E+00 0. -1.
        -13    1    4    4    0    0 -0.10741303571E+02 -0.71214966952E+02 -0.68724895218E+01  0.72347620780E+02  0.00000000000E+00 0. -1.
         13    1    4    4    0    0 -0.34709120547E+02  0.36716618834E+01 -0.44690810779E+02  0.56705138375E+02  0.00000000000E+00 0.  1.
         21    1    1    2  502  501  0.77717054860E+01  0.22509002396E+02 -0.43247620433E+00  0.23816835027E+02  0.00000000000E+00 0. -1.
<scales pt_clust_5="13000.00000" pt_clust_6="13000.00000" pt_clust_7="13000.00000" pt_clust_8="13000.00000" pt_clust_9="23.81291"></scales>
<clustering>
<clus scale="   23.813">  2  9  1 -1</clus>
<clus scale="   85.837">  7  8 -1 -1</clus>
<clus scale="   92.559">  5  6 -1 -1</clus>
<clus scale="  106.296">  2  7  1 -1</clus>
<clus scale="   23.813">  2  5  1 -1</clus>
</clustering>
</event>
<event>
 9    1  0.1296032E-005  0.1416858E+03  0.7546771E-02  0.1211137E+00
          1   -1    0    0  502    0  0.00000000000E+00  0.00000000000E+00  0.41609929016E+03  0.41609929016E+03  0.00000000000E+00 0. -1.
         -1   -1    0    0    0  501 -0.00000000000E+00 -0.00000000000E+00 -0.69958161119E+02  0.69958161119E+02  0.00000000000E+00 0.  1.
         23    2    1    2    0    0 -0.43689078953E+02  0.10496422196E+03  0.56350812041E+02  0.15621920081E+03  0.91119707932E+02 0.  0.
         23    2    1    2    0    0  0.46672863007E+02 -0.84492457199E+02  0.21994501356E+03  0.25699346663E+03  0.91392020629E+02 0.  0.
        -11    1    4    4    0    0  0.56361004308E+01 -0.51431132852E+02  0.29856664060E+02  0.59735646337E+02  0.00000000000E+00 0.  1.
         11    1    4    4    0    0  0.41036762576E+02 -0.33061324347E+02  0.19008834950E+03  0.19725782029E+03  0.00000000000E+00 0. -1.
        -13    1    3    3    0    0  0.13271296679E+01  0.93589084807E+02  0.16521489588E+02  0.95045450635E+02  0.00000000000E+00 0.  1.
         13    1    3    3    0    0 -0.45016208621E+02  0.11375137155E+02  0.39829322454E+02  0.61173750180E+02  0.00000000000E+00 0. -1.
         21    1    1    2  502  501 -0.29837840534E+01 -0.20471764762E+02  0.69845303441E+02  0.72844783838E+02  0.00000000000E+00 0. -1.
<scales pt_clust_5="13000.00000" pt_clust_6="13000.00000" pt_clust_7="13000.00000" pt_clust_8="13000.00000" pt_clust_9="20.68807"></scales>
<clustering>
<clus scale="   20.688">  1  9  2 -1</clus>
<clus scale="   91.120">  7  8 -1 -1</clus>
<clus scale="   91.392">  5  6 -1 -1</clus>
<clus scale="  141.510">  2  7  1 -1</clus>
<clus scale="   20.688">  1  5  2 -1</clus>
</clustering>
</event>
<event>
 9    1  0.1296032E-005  0.1383332E+03  0.7546771E-02  0.1215694E+00
          1   -1    0    0  502    0  0.00000000000E+00  0.00000000000E+00  0.10233714517E+03  0.10233714517E+03  0.00000000000E+00 0. -1.
         -1   -1    0    0    0  501 -0.00000000000E+00 -0.00000000000E+00 -0.42779189157E+03  0.42779189157E+03  0.00000000000E+00 0.  1.
         23    2    1    2    0    0  0.96049534112E+02  0.47958243429E+02 -0.33650067146E+03  0.36454211790E+03  0.90181748251E+02 0.  0.
         23    2    1    2    0    0 -0.93383477814E+02 -0.13764920552E+02  0.70766940022E+01  0.13106089994E+03  0.90647299628E+02 0.  0.
        -11    1    3    3    0    0  0.38838553933E+02  0.64889191739E+02 -0.13918142024E+03  0.15839983654E+03  0.00000000000E+00 0.  1.
         11    1    3    3    0    0  0.57210980178E+02 -0.16930948311E+02 -0.19731925122E+03  0.20614228137E+03  0.00000000000E+00 0. -1.
        -11    1    4    4    0    0 -0.10247938355E+03  0.52247701232E+01 -0.11144222511E+02  0.10321587073E+03  0.00000000000E+00 0.  1.
         11    1    4    4    0    0  0.90959057386E+01 -0.18989690675E+02  0.18220916513E+02  0.27845029210E+02  0.00000000000E+00 0. -1.
         21    1    1    2  502  501 -0.26660562979E+01 -0.34193322877E+02  0.39692310589E+01  0.34526018895E+02  0.00000000000E+00 0. -1.
<scales pt_clust_5="13000.00000" pt_clust_6="13000.00000" pt_clust_7="13000.00000" pt_clust_8="13000.00000" pt_clust_9="34.29710"></scales>
<clustering>
<clus scale="   34.297">  1  9  2 -1</clus>
<clus scale="   90.182">  5  6 -1 -1</clus>
<clus scale="   90.647">  7  8 -1 -1</clus>
<clus scale="  138.029">  2  5  1 -1</clus>
<clus scale="   34.297">  1  5  2 -1</clus>
</clustering>
</event>
<event>
 9    1  0.1296032E-005  0.1238833E+03  0.7546771E-02  0.1237001E+00
          1   -1    0    0  502    0  0.00000000000E+00  0.00000000000E+00  0.74666326645E+03  0.74666326645E+03  0.00000000000E+00 0. -1.
         -1   -1    0    0    0  501 -0.00000000000E+00 -0.00000000000E+00 -0.28133497995E+02  0.28133497995E+02  0.00000000000E+00 0.  1.
         23    2    1    2    0    0 -0.69975028959E+02 -0.48317807659E+02  0.19647702653E+03  0.23305382009E+03  0.92085535727E+02 0.  0.
         23    2    1    2    0    0  0.51438196859E+02  0.61805838723E+02  0.43820893479E+03  0.45482157114E+03  0.91486289957E+02 0.  0.
        -11    1    4    4    0    0  0.63210516966E+02  0.82324356656E+01  0.18298986788E+03  0.19377469958E+03  0.00000000000E+00 0.  1.
         11    1    4    4    0    0 -0.11772320107E+02  0.53573403057E+02  0.25521906691E+03  0.26104687156E+03  0.00000000000E+00 0. -1.
        -11    1    3    3    0    0  0.92709543923E+01 -0.45087681639E+02  0.71942612548E+02  0.85408366868E+02  0.00000000000E+00 0.  1.
         11    1    3    3    0    0 -0.79245983351E+02 -0.32301260201E+01  0.12453441398E+03  0.14764545322E+03  0.00000000000E+00 0. -1.
         21    1    1    2  502  501  0.18536832100E+02 -0.13488031064E+02  0.83843807139E+02  0.86921373217E+02  0.00000000000E+00 0.  1.
<scales pt_clust_5="13000.00000" pt_clust_6="13000.00000" pt_clust_7="13000.00000" pt_clust_8="13000.00000" pt_clust_9="22.92468"></scales>
<clustering>
<clus scale="   22.925">  1  9  2 -1</clus>
<clus scale="   91.486">  5  6 -1 -1</clus>
<clus scale="   92.086">  7  8 -1 -1</clus>
<clus scale="  123.439">  1  5  2 -1</clus>
<clus scale="   22.925">  1  5  2 -1</clus>
</clustering>
</event>
<event>
 9    1  0.1323639E-005  0.9701917E+02  0.7546771E-02  0.1287456E+00
         -2   -1    0    0    0  501 -0.00000000000E+00  0.00000000000E+00  0.38846282818E+02  0.38846282818E+02  0.00000000000E+00 0.  1.
          2   -1    0    0  502    0  0.00000000000E+00 -0.00000000000E+00 -0.53952906759E+03  0.53952906759E+03  0.00000000000E+00 0. -1.
         23    2    1    2    0    0  0.70884027968E+01  0.31321608598E+02 -0.44756877991E+02  0.10636495241E+03  0.90989210101E+02 0.  0.
         23    2    1    2    0    0 -0.27438399968E+02 -0.35992518856E+02 -0.39772342128E+03  0.41017619140E+03  0.89511233628E+02 0.  0.
        -11    1    4    4    0    0 -0.60434751736E+02 -0.20241182504E+02 -0.25075680136E+03  0.25872966223E+03  0.00000000000E+00 0. -1.
         11    1    4    4    0    0  0.32996351768E+02 -0.15751336352E+02 -0.14696661992E+03  0.15144652917E+03  0.00000000000E+00 0.  1.
        -13    1    3    3    0    0  0.28563142192E+02 -0.20140263952E+02 -0.35540123994E+02  0.49845598977E+02  0.00000000000E+00 0.  1.
         13    1    3    3    0    0 -0.21474739395E+02  0.51461872550E+02 -0.92167539979E+01  0.56519353435E+02  0.00000000000E+00 0. -1.
         21    1    1    2  502  501  0.20349997171E+02  0.46709102576E+01 -0.58202485501E+02  0.61834206601E+02  0.00000000000E+00 0.  1.
<scales pt_clust_5="13000.00000" pt_clust_6="13000.00000" pt_clust_7="13000.00000" pt_clust_8="13000.00000" pt_clust_9="20.87917"></scales>
<clustering>
<clus scale="   20.879">  2  9  1 -1</clus>
<clus scale="   89.511">  5  6 -1 -1</clus>
<clus scale="   90.989">  7  8 -1 -1</clus>
<clus scale="   95.634">  2  5  1 -1</clus>
<clus scale="   20.879">  2  5  1 -1</clus>
</clustering>
</event>
<event>
 9    1  0.1296032E-005  0.1044978E+03  0.7546771E-02  0.1276400E+00
         -2   -1    0    0    0  501 -0.00000000000E+00  0.00000000000E+00  0.67057243411E+02  0.67057243411E+02  0.00000000000E+00 0.  1.
          2   -1    0    0  502    0  0.00000000000E+00 -0.00000000000E+00 -0.40452499026E+03  0.40452499026E+03  0.00000000000E+00 0. -1.
         23    2    1    2    0    0  0.34696164921E+01  0.24731754975E+02 -0.57691634942E+00  0.10288102101E+03  0.99802172868E+02 0.  0.
         23    2    1    2    0    0  0.60605980436E+01 -0.53275696699E+02 -0.17151005628E+03  0.20060486505E+03  0.89171642180E+02 0.  0.
        -11    1    3    3    0    0 -0.20827883865E+01 -0.35042476430E+02  0.18771989844E+02  0.39808300197E+02  0.00000000000E+00 0. -1.
         11    1    3    3    0    0  0.55524048786E+01  0.59774231406E+02 -0.19348906194E+02  0.63072720815E+02  0.00000000000E+00 0.  1.
        -13    1    4    4    0    0  0.66498803161E+01  0.20938086646E+02 -0.79034780224E+02  0.82031218848E+02  0.00000000000E+00 0.  1.
         13    1    4    4    0    0 -0.58928227257E+00 -0.74213783345E+02 -0.92475276053E+02  0.11857364620E+03  0.00000000000E+00 0. -1.
         21    1    1    2  502  501 -0.95302145356E+01  0.28543941724E+02 -0.16538077422E+03  0.16809634761E+03  0.00000000000E+00 0. -1.
<scales pt_clust_5="13000.00000" pt_clust_6="13000.00000" pt_clust_7="13000.00000" pt_clust_8="13000.00000" pt_clust_9="30.09288"></scales>
<clustering>
<clus scale="   30.093">  2  9  1 -1</clus>
<clus scale="   89.172">  7  8 -1 -1</clus>
<clus scale="   94.398">  2  7  1 -1</clus>
<clus scale="   99.802">  5  6 -1 -1</clus>
<clus scale="   30.093">  2  5  1 -1</clus>
</clustering>
</event>
<event>
 9    1  0.1296032E-005  0.9683619E+02  0.7546771E-02  0.1288252E+00
          1   -1    0    0  502    0  0.00000000000E+00  0.00000000000E+00  0.58866811511E+03  0.58866811511E+03  0.00000000000E+00 0. -1.
         -1   -1    0    0    0  501 -0.00000000000E+00 -0.00000000000E+00 -0.24743389194E+02  0.24743389194E+02  0.00000000000E+00 0.  1.
         23    2    1    2    0    0 -0.15614839346E+02 -0.14560861781E+02  0.13304106568E+03  0.16357669701E+03  0.92744642664E+02 0.  0.
         23    2    1    2    0    0  0.36715140684E+02  0.18410696104E+02  0.27390424575E+03  0.29139686830E+03  0.90562926903E+02 0.  0.
        -13    1    3    3    0    0  0.26605826709E+02  0.29029753323E+01  0.10842137872E+03  0.11167583734E+03  0.00000000000E+00 0. -1.
         13    1    3    3    0    0 -0.42220666055E+02 -0.17463837113E+02  0.24619686961E+02  0.51900859674E+02  0.00000000000E+00 0.  1.
        -13    1    4    4    0    0  0.63651293487E+02 -0.28005848047E+01  0.15326603038E+03  0.16598134385E+03  0.00000000000E+00 0. -1.
         13    1    4    4    0    0 -0.26936152804E+02  0.21211280908E+02  0.12063821537E+03  0.12541552445E+03  0.00000000000E+00 0.  1.
         21    1    1    2  502  501 -0.21100301338E+02 -0.38498343226E+01  0.15697941448E+03  0.15843793899E+03  0.00000000000E+00 0.  1.
<scales pt_clust_5="13000.00000" pt_clust_6="13000.00000" pt_clust_7="13000.00000" pt_clust_8="13000.00000" pt_clust_9="21.44863"></scales>
<clustering>
<clus scale="   21.449">  1  9  2 -1</clus>
<clus scale="   90.563">  7  8 -1 -1</clus>
<clus scale="   92.745">  5  6 -1 -1</clus>
<clus scale="   94.749">  1  7  2 -1</clus>
<clus scale="   21.449">  1  5  2 -1</clus>
</clustering>
</event>
<event>
 9    1  0.1296032E-005  0.9303677E+02  0.7546771E-02  0.1296807E+00
          3   -1    0    0  502    0  0.00000000000E+00  0.00000000000E+00  0.14491465523E+02  0.14491465523E+02  0.00000000000E+00 0. -1.
         -3   -1    0    0    0  501 -0.00000000000E+00 -0.00000000000E+00 -0.77388316844E+03  0.77388316844E+03  0.00000000000E+00 0.  1.
         23    2    1    2    0    0  0.24460486282E+01  0.61726107156E+01 -0.36351202328E+03  0.37448791017E+03  0.89755888514E+02 0.  0.
         23    2    1    2    0    0 -0.24342045180E+02 -0.27785408634E+01 -0.27345484244E+03  0.28947291772E+03  0.91742922291E+02 0.  0.
        -11    1    4    4    0    0  0.24579101536E+02  0.32402906423E+01 -0.21727745364E+02  0.32965537071E+02  0.00000000000E+00 0. -1.
         11    1    4    4    0    0 -0.48921146716E+02 -0.60188315057E+01 -0.25172709707E+03  0.25650738065E+03  0.00000000000E+00 0.  1.
        -13    1    3    3    0    0 -0.27209147450E+02  0.36121804445E+02 -0.23270213154E+03  0.23705569912E+03  0.00000000000E+00 0. -1.
         13    1    3    3    0    0  0.29655196078E+02 -0.29949193730E+02 -0.13080989174E+03  0.13743221106E+03  0.00000000000E+00 0.  1.
         21    1    1    2  502  501  0.21895996551E+02 -0.33940698522E+01 -0.12242483720E+03  0.12441380606E+03  0.00000000000E+00 0.  1.
<scales pt_clust_5="13000.00000" pt_clust_6="13000.00000" pt_clust_7="13000.00000" pt_clust_8="13000.00000" pt_clust_9="22.15749"></scales>
<clustering>
<clus scale="   22.157">  2  9  1 -1</clus>
<clus scale="   89.756">  7  8 -1 -1</clus>
<clus scale="   91.078">  2  7  1 -1</clus>
<clus scale="   91.743">  5  6 -1 -1</clus>
<clus scale="   93.037">  1  5  2 -1</clus>
</clustering>
</event>
<event>
 9    1  0.1296032E-005  0.1039451E+03  0.7546771E-02  0.1272623E+00
          1   -1    0    0  502    0  0.00000000000E+00  0.00000000000E+00  0.21719327474E+02  0.21719327474E+02  0.00000000000E+00 0. -1.
         -1   -1    0    0    0  501 -0.00000000000E+00 -0.00000000000E+00 -0.65346203402E+03  0.65346203402E+03  0.00000000000E+00 0.  1.
         23    2    1    2    0    0  0.46236220701E+02  0.28582879565E+02 -0.40022129255E+03  0.41445014933E+03  0.92935860468E+02 0.  0.
         23    2    1    2    0    0 -0.27362757576E+02 -0.18191390515E+02 -0.17837037361E+03  0.20337945762E+03  0.92019380619E+02 0.  0.
        -11    1    3    3    0    0  0.68325189286E+02 -0.14274761216E+01 -0.29541057021E+03  0.30321242417E+03  0.00000000000E+00 0.  1.
         11    1    3    3    0    0 -0.22088968585E+02  0.30010355686E+02 -0.10481072234E+03  0.11123772516E+03  0.00000000000E+00 0. -1.
        -11    1    4    4    0    0  0.32049141945E+01  0.32660885320E+02 -0.98904803175E+02  0.10420731738E+03  0.00000000000E+00 0.  1.
         11    1    4    4    0    0 -0.30567671771E+02 -0.50852275835E+02 -0.79465570435E+02  0.99172140239E+02  0.00000000000E+00 0. -1.
         21    1    1    2  502  501 -0.18873463125E+02 -0.10391489050E+02 -0.53151040385E+02  0.57351754542E+02  0.00000000000E+00 0.  1.
<scales pt_clust_5="13000.00000" pt_clust_6="13000.00000" pt_clust_7="13000.00000" pt_clust_8="13000.00000" pt_clust_9="21.54508"></scales>
<clustering>
<clus scale="   21.545">  1  9  2 -1</clus>
<clus scale="   92.019">  7  8 -1 -1</clus>
<clus scale="   92.936">  5  6 -1 -1</clus>
<clus scale="  103.126">  1  7  2 -1</clus>
<clus scale="   21.545">  1  5  2 -1</clus>
</clustering>
</event>
<event>
 9    1  0.1296032E-005  0.2426160E+03  0.7546771E-02  0.1118141E+00
          1   -1    0    0  502    0  0.00000000000E+00  0.00000000000E+00  0.45513194145E+03  0.45513194145E+03  0.00000000000E+00 0. -1.
         -1   -1    0    0    0  501 -0.00000000000E+00 -0.00000000000E+00 -0.28800305022E+03  0.28800305022E+03  0.00000000000E+00 0.  1.
         23    2    1    2    0    0 -0.41449026677E+02  0.25210715588E+03 -0.13171556148E+03  0.30118747756E+03  0.89938132317E+02 0.  0.
         23    2    1    2    0    0  0.63794633627E+02 -0.20999837113E+03  0.31226237898E+03  0.39242462397E+03  0.91215245503E+02 0.  0.
        -11    1    4    4    0    0  0.23382068828E+02 -0.17851212352E+02  0.83124727855E+01  0.30569333145E+02  0.00000000000E+00 0.  1.
         11    1    4    4    0    0  0.40412564799E+02 -0.19214715878E+03  0.30394990620E+03  0.36185529082E+03  0.00000000000E+00 0. -1.
        -11    1    3    3    0    0 -0.26971374570E+02  0.52174595172E+02  0.43805217569E+01  0.58896794466E+02  0.00000000000E+00 0. -1.
         11    1    3    3    0    0 -0.14477652107E+02  0.19993256071E+03 -0.13609608324E+03  0.24229068309E+03  0.00000000000E+00 0.  1.
         21    1    1    2  502  501 -0.22345606950E+02 -0.42108784749E+02 -0.13417926274E+02  0.49522890146E+02  0.00000000000E+00 0. -1.
<scales pt_clust_5="13000.00000" pt_clust_6="13000.00000" pt_clust_7="13000.00000" pt_clust_8="13000.00000" pt_clust_9="47.67049"></scales>
<clustering>
<clus scale="   47.670">  2  9  1 -1</clus>
<clus scale="   89.938">  7  8 -1 -1</clus>
<clus scale="   91.215">  5  6 -1 -1</clus>
<clus scale="  242.139">  2  7  1 -1</clus>
<clus scale="  242.616">  1  5  2 -1</clus>
</clustering>
</event>
<event>
 9    1  0.1296032E-005  0.9580402E+02  0.7546771E-02  0.1289524E+00
          2   -1    0    0  502    0  0.00000000000E+00  0.00000000000E+00  0.36576627778E+03  0.36576627778E+03  0.00000000000E+00 0.  1.
         -2   -1    0    0    0  501 -0.00000000000E+00 -0.00000000000E+00 -0.42047394318E+02  0.42047394318E+02  0.00000000000E+00 0. -1.
         23    2    1    2    0    0 -0.26521763177E+02 -0.23850894474E+02  0.78014745457E+02  0.12543191471E+03  0.91512816750E+02 0.  0.
         23    2    1    2    0    0  0.25212380417E+02 -0.13909135459E+02  0.13783363618E+03  0.16808574037E+03  0.91790940053E+02 0.  0.
        -13    1    4    4    0    0  0.37193026851E+01 -0.51461013295E+02  0.60881691369E+02  0.79803818491E+02  0.00000000000E+00 0. -1.
         13    1    4    4    0    0  0.21493077731E+02  0.37551877837E+02  0.76951944815E+02  0.88281921876E+02  0.00000000000E+00 0.  1.
        -13    1    3    3    0    0  0.28193644216E+02  0.36075757643E+01  0.51279054707E+02  0.58629665092E+02  0.00000000000E+00 0.  1.
         13    1    3    3    0    0 -0.54715407393E+02 -0.27458470238E+02  0.26735690750E+02  0.66802249617E+02  0.00000000000E+00 0. -1.
         21    1    1    2  502  501  0.13093827605E+01  0.37760029933E+02  0.10787050182E+03  0.11429601702E+03  0.00000000000E+00 0.  1.
<scales pt_clust_5="13000.00000" pt_clust_6="13000.00000" pt_clust_7="13000.00000" pt_clust_8="13000.00000" pt_clust_9="37.78273"></scales>
<clustering>
<clus scale="   37.783">  1  9  2 -1</clus>
<clus scale="   91.513">  7  8 -1 -1</clus>
<clus scale="   91.791">  5  6 -1 -1</clus>
<clus scale="   95.538">  2  7  1 -1</clus>
<clus scale="   37.783">  1  5  2 -1</clus>
</clustering>
</event>
<event>
 9    1  0.1296032E-005  0.1780441E+03  0.7546771E-02  0.1184741E+00
          1   -1    0    0  502    0  0.00000000000E+00  0.00000000000E+00  0.28821345987E+03  0.28821345987E+03  0.00000000000E+00 0. -1.
         -1   -1    0    0    0  501 -0.00000000000E+00 -0.00000000000E+00 -0.35256813397E+03  0.35256813397E+03  0.00000000000E+00 0.  1.
         23    2    1    2    0    0  0.15647496359E+03  0.15040873660E+02 -0.23756277061E+03  0.29935405793E+03  0.92011629203E+02 0.  0.
         23    2    1    2    0    0 -0.18093233568E+02 -0.86241783596E+02  0.12612794440E+03  0.17883721177E+03  0.91156347101E+02 0.  0.
        -11    1    3    3    0    0  0.46258587104E+02  0.48378089039E+02 -0.83582086639E+02  0.10708063124E+03  0.00000000000E+00 0. -1.
         11    1    3    3    0    0  0.11021637649E+03 -0.33337215379E+02 -0.15398068397E+03  0.19227342669E+03  0.00000000000E+00 0.  1.
        -13    1    4    4    0    0  0.15207471443E+02 -0.91601840534E+02  0.96871689307E+02  0.13418751271E+03  0.00000000000E+00 0.  1.
         13    1    4    4    0    0 -0.33300705011E+02  0.53600569384E+01  0.29256255094E+02  0.44649699067E+02  0.00000000000E+00 0. -1.
         21    1    1    2  502  501 -0.13838173003E+03  0.71200909936E+02  0.47080152108E+02  0.16259032414E+03  0.00000000000E+00 0. -1.
<scales pt_clust_5="13000.00000" pt_clust_6="13000.00000" pt_clust_7="13000.00000" pt_clust_8="13000.00000" pt_clust_9="152.42563"></scales>
<clustering>
<clus scale="   91.156">  7  8 -1 -1</clus>
<clus scale="   92.012">  5  6 -1 -1</clus>
<clus scale="  126.785">  1  7  2 -1</clus>
<clus scale="  152.426">  1  9  2 -1</clus>
<clus scale="  126.785">  1  5  2 -1</clus>
</clustering>
</event>
<event>
 9    1  0.1296032E-005  0.9686122E+02  0.7546771E-02  0.1287449E+00
         -1   -1    0    0    0  501 -0.00000000000E+00  0.00000000000E+00  0.52555164896E+02  0.52555164896E+02  0.00000000000E+00 0.  1.
          1   -1    0    0  502    0  0.00000000000E+00 -0.00000000000E+00 -0.38509700956E+03  0.38509700956E+03  0.00000000000E+00 0. -1.
         23    2    1    2    0    0  0.23014591271E+02  0.23997251256E+02 -0.14434772406E+02  0.98504890069E+02  0.91593183337E+02 0.  0.
         23    2    1    2    0    0 -0.21526221010E+01 -0.13185700221E+02 -0.23739818994E+03  0.25508757300E+03  0.92375715642E+02 0.  0.
        -11    1    4    4    0    0  0.38444971225E+02 -0.16852702218E+02 -0.61044390955E+02  0.74084053963E+02  0.00000000000E+00 0.  1.
         11    1    4    4    0    0 -0.40597593326E+02  0.36670019968E+01 -0.17635379898E+03  0.18100351904E+03  0.00000000000E+00 0. -1.
        -13    1    3    3    0    0  0.54423898952E+02 -0.45325104311E+01 -0.12522535627E+02  0.56029620081E+02  0.00000000000E+00 0.  1.
         13    1    3    3    0    0 -0.31409307682E+02  0.28529761688E+02 -0.19122367795E+01  0.42475269987E+02  0.00000000000E+00 0. -1.
         21    1    1    2  502  501 -0.20861969170E+02 -0.10811551035E+02 -0.80708882320E+02  0.84059711389E+02  0.00000000000E+00 0. -1.
<scales pt_clust_5="13000.00000" pt_clust_6="13000.00000" pt_clust_7="13000.00000" pt_clust_8="13000.00000" pt_clust_9="23.49705"></scales>
<clustering>
<clus scale="   23.497">  2  9  1 -1</clus>
<clus scale="   91.593">  7  8 -1 -1</clus>
<clus scale="   92.376">  5  6 -1 -1</clus>
<clus scale="   96.115">  1  7  2 -1</clus>
<clus scale="   23.497">  2  5  1 -1</clus>
</clustering>
</event>
<event>
 9    1  0.1296032E-005  0.1557946E+03  0.7546771E-02  0.1194898E+00
          1   -1    0    0  502    0  0.00000000000E+00  0.00000000000E+00  0.23978705992E+03  0.23978705992E+03  0.00000000000E+00 0. -1.
         -1   -1    0    0    0  501 -0.00000000000E+00 -0.00000000000E+00 -0.59965684880E+03  0.59965684880E+03  0.00000000000E+00 0.  1.
         23    2    1    2    0    0 -0.12281545512E+03 -0.12542398463E+02 -0.52373463434E+03  0.54685174817E+03  0.97508561148E+02 0.  0.
         23    2    1    2    0    0  0.10353580202E+03  0.41165288152E+02  0.19932898855E+02  0.14458074177E+03  0.89955695679E+02 0.  0.
        -11    1    4    4    0    0  0.35290043777E+02 -0.22039012305E+02  0.29601172008E+02  0.51062066521E+02  0.00000000000E+00 0.  1.
         11    1    4    4    0    0  0.68245758246E+02  0.63204300456E+02 -0.96682731531E+01  0.93518675250E+02  0.00000000000E+00 0. -1.
        -11    1    3    3    0    0 -0.35748529605E+02  0.36000309911E+02 -0.10785269819E+03  0.11918969833E+03  0.00000000000E+00 0. -1.
         11    1    3    3    0    0 -0.87066925513E+02 -0.48542708373E+02 -0.41588193615E+03  0.42766204984E+03  0.00000000000E+00 0.  1.
         21    1    1    2  502  501  0.19279653094E+02 -0.28622889689E+02  0.14393194661E+03  0.14801141879E+03  0.00000000000E+00 0. -1.
<scales pt_clust_5="13000.00000" pt_clust_6="13000.00000" pt_clust_7="13000.00000" pt_clust_8="13000.00000" pt_clust_9="34.51050"></scales>
<clustering>
<clus scale="   34.511">  1  9  2 -1</clus>
<clus scale="   89.956">  5  6 -1 -1</clus>
<clus scale="   97.509">  7  8 -1 -1</clus>
<clus scale="  151.182">  1  5  2 -1</clus>
<clus scale="   34.511">  1  5  2 -1</clus>
</clustering>
</event>
<event>
 9    1  0.1296032E-005  0.1053433E+03  0.7546771E-02  0.1269569E+00
         -1   -1    0    0    0  501 -0.00000000000E+00  0.00000000000E+00  0.22243210048E+02  0.22243210048E+02  0.00000000000E+00 0.  1.
          1   -1    0    0  502    0  0.00000000000E+00 -0.00000000000E+00 -0.62368084894E+03  0.62368084894E+03  0.00000000000E+00 0. -1.
         23    2    1    2    0    0 -0.44246534930E+02  0.94487909850E+01 -0.25873660449E+03  0.28032525007E+03  0.97931505772E+02 0.  0.
         23    2    1    2    0    0  0.24917068030E+02 -0.22236064625E+02 -0.26746223003E+03  0.28687130202E+03  0.98202833876E+02 0.  0.
        -11    1    4    4    0    0 -0.27890261480E+02 -0.12546750113E+02 -0.28000383605E+02  0.41464552401E+02  0.00000000000E+00 0.  1.
         11    1    4    4    0    0  0.52807329510E+02 -0.96893145120E+01 -0.23946184642E+03  0.24540674962E+03  0.00000000000E+00 0. -1.
        -13    1    3    3    0    0 -0.65066673777E+02 -0.21233621658E+02 -0.19402596677E+03  0.20574405096E+03  0.00000000000E+00 0.  1.
         13    1    3    3    0    0  0.20820138847E+02  0.30682412643E+02 -0.64710637719E+02  0.74581199113E+02  0.00000000000E+00 0. -1.
         21    1    1    2  502  501  0.19329466901E+02  0.12787273640E+02 -0.75238804374E+02  0.78727506892E+02  0.00000000000E+00 0.  1.
<scales pt_clust_5="13000.00000" pt_clust_6="13000.00000" pt_clust_7="13000.00000" pt_clust_8="13000.00000" pt_clust_9="23.17634"></scales>
<clustering>
<clus scale="   23.176">  2  9  1 -1</clus>
<clus scale="   97.932">  7  8 -1 -1</clus>
<clus scale="   98.203">  5  6 -1 -1</clus>
<clus scale="  105.090">  1  7  2 -1</clus>
<clus scale="   23.176">  2  5  1 -1</clus>
</clustering>
</event>
<event>
 9    1  0.1296032E-005  0.1031561E+03  0.7546771E-02  0.1273867E+00
         -1   -1    0    0    0  501 -0.00000000000E+00  0.00000000000E+00  0.45784026410E+02  0.45784026410E+02  0.00000000000E+00 0.  1.
          1   -1    0    0  502    0  0.00000000000E+00 -0.00000000000E+00 -0.28723671909E+03  0.28723671909E+03  0.00000000000E+00 0. -1.
         23    2    1    2    0    0  0.29825782648E+02 -0.23377012801E+02 -0.95084628126E+02  0.13738398771E+03  0.91636300314E+02 0.  0.
         23    2    1    2    0    0 -0.46092516671E+02  0.36261485106E+02 -0.11698476536E+03  0.15966462227E+03  0.91476449883E+02 0.  0.
        -11    1    3    3    0    0  0.29668321402E+02 -0.50452422408E+02 -0.27679700644E+02  0.64744281982E+02  0.00000000000E+00 0.  1.
         11    1    3    3    0    0  0.15746124539E+00  0.27075409607E+02 -0.67404927481E+02  0.72639705728E+02  0.00000000000E+00 0. -1.
        -13    1    4    4    0    0 -0.41582744072E+01  0.59421497276E+02 -0.52986496462E+02  0.79723110777E+02  0.00000000000E+00 0. -1.
         13    1    4    4    0    0 -0.41934242264E+02 -0.23160012170E+02 -0.63998268894E+02  0.79941511491E+02  0.00000000000E+00 0.  1.
         21    1    1    2  502  501  0.16266734023E+02 -0.12884472305E+02 -0.29383299202E+02  0.35972135527E+02  0.00000000000E+00 0. -1.
<scales pt_clust_5="13000.00000" pt_clust_6="13000.00000" pt_clust_7="13000.00000" pt_clust_8="13000.00000" pt_clust_9="20.75130"></scales>
<clustering>
<clus scale="   20.751">  2  9  1 -1</clus>
<clus scale="   91.476">  7  8 -1 -1</clus>
<clus scale="   91.636">  5  6 -1 -1</clus>
<clus scale="  103.014">  2  7  1 -1</clus>
<clus scale="   20.751">  2  5  1 -1</clus>
</clustering>
</event>
<event>
 9    1  0.1296032E-005  0.1054045E+03  0.7546771E-02  0.1273611E+00
          2   -1    0    0  502    0  0.00000000000E+00  0.00000000000E+00  0.10972558119E+03  0.10972558119E+03  0.00000000000E+00 0. -1.
         -2   -1    0    0    0  501 -0.00000000000E+00 -0.00000000000E+00 -0.16484672706E+03  0.16484672706E+03  0.00000000000E+00 0.  1.
         23    2    1    2    0    0 -0.30461383926E+02  0.66849287187E+01 -0.94404617475E+02  0.13476069515E+03  0.90970484087E+02 0.  0.
         23    2    1    2    0    0  0.37459250247E+02 -0.28267458162E+02  0.39322383199E+02  0.11712291053E+03  0.99846290525E+02 0.  0.
        -13    1    3    3    0    0  0.10576828781E+02  0.39316028229E+02 -0.24994153068E+02  0.47773706894E+02  0.00000000000E+00 0.  1.
         13    1    3    3    0    0 -0.41038212707E+02 -0.32631099510E+02 -0.69410464407E+02  0.86986988260E+02  0.00000000000E+00 0. -1.
        -13    1    4    4    0    0  0.32821526396E+02  0.32475896700E+02  0.31053819005E+02  0.55644192296E+02  0.00000000000E+00 0.  1.
         13    1    4    4    0    0  0.46377238507E+01 -0.60743354863E+02  0.82685641941E+01  0.61478718239E+02  0.00000000000E+00 0. -1.
         21    1    1    2  502  501 -0.69978663212E+01  0.21582529443E+02 -0.38911594360E-01  0.22688702571E+02  0.00000000000E+00 0.  1.
<scales pt_clust_5="13000.00000" pt_clust_6="13000.00000" pt_clust_7="13000.00000" pt_clust_8="13000.00000" pt_clust_9="22.68867"></scales>
<clustering>
<clus scale="   22.689">  1  9  2 -1</clus>
<clus scale="   90.970">  5  6 -1 -1</clus>
<clus scale="   97.038">  2  5  1 -1</clus>
<clus scale="   99.846">  7  8 -1 -1</clus>
<clus scale="   22.689">  1  5  2 -1</clus>
</clustering>
</event>
<event>
 9    1  0.1296032E-005  0.1001239E+03  0.7546771E-02  0.1280153E+00
         -1   -1    0    0    0  501 -0.00000000000E+00  0.00000000000E+00  0.24338197988E+02  0.24338197988E+02  0.00000000000E+00 0.  1.
          1   -1    0    0  502    0  0.00000000000E+00 -0.00000000000E+00 -0.90446905316E+03  0.90446905316E+03  0.00000000000E+00 0. -1.
         23    2    1    2    0    0  0.49750243827E+02  0.35338887131E+02 -0.18870452782E+03  0.21833438970E+03  0.91304891454E+02 0.  0.
         23    2    1    2    0    0  0.16037147798E+02 -0.15627605449E+02 -0.43639206507E+03  0.44635358828E+03  0.91060854085E+02 0.  0.
        -11    1    3    3    0    0  0.98631634874E+01 -0.17547212346E+02 -0.20015003481E+01  0.20228511036E+02  0.00000000000E+00 0. -1.
         11    1    3    3    0    0  0.39887080340E+02  0.52886099477E+02 -0.18670302747E+03  0.19810587867E+03  0.00000000000E+00 0.  1.
        -11    1    4    4    0    0 -0.36718358304E+02 -0.33739466907E+01 -0.12650407829E+03  0.13176836941E+03  0.00000000000E+00 0.  1.
         11    1    4    4    0    0  0.52755506101E+02 -0.12253658759E+02 -0.30988798678E+03  0.31458521887E+03  0.00000000000E+00 0. -1.
         21    1    1    2  502  501 -0.65787391625E+02 -0.19711281681E+02 -0.25503426228E+03  0.26411927317E+03  0.00000000000E+00 0.  1.
<scales pt_clust_5="13000.00000" pt_clust_6="13000.00000" pt_clust_7="13000.00000" pt_clust_8="13000.00000" pt_clust_9="68.67689"></scales>
<clustering>
<clus scale="   68.677">  2  9  1 -1</clus>
<clus scale="   91.061">  7  8 -1 -1</clus>
<clus scale="   91.305">  5  6 -1 -1</clus>
<clus scale="   99.901">  2  7  1 -1</clus>
<clus scale="   68.677">  2  5  1 -1</clus>
</clustering>
</event>
<event>
 9    1  0.1296032E-005  0.1536742E+03  0.7546771E-02  0.1203943E+00
         -2   -1    0    0    0  501 -0.00000000000E+00  0.00000000000E+00  0.21786812397E+03  0.21786812397E+03  0.00000000000E+00 0.  1.
          2   -1    0    0  502    0  0.00000000000E+00 -0.00000000000E+00 -0.26695912578E+03  0.26695912578E+03  0.00000000000E+00 0. -1.
         23    2    1    2    0    0 -0.24023294017E+02  0.79237177053E+02  0.77128862526E+02  0.16716910327E+03  0.12304876582E+03 0.  0.
         23    2    1    2    0    0 -0.30841695394E+02 -0.10875091644E+03  0.31163516891E+02  0.14839280284E+03  0.90946617021E+02 0.  0.
        -13    1    3    3    0    0 -0.57939718398E+02  0.60173311109E+02  0.93126549376E+02  0.12510152891E+03  0.00000000000E+00 0.  1.
         13    1    3    3    0    0  0.33916424380E+02  0.19063865944E+02 -0.15997686850E+02  0.42067574354E+02  0.00000000000E+00 0. -1.
        -13    1    4    4    0    0 -0.24683202589E+02 -0.15388957220E+02  0.45230718499E+02  0.53776373904E+02  0.00000000000E+00 0.  1.
         13    1    4    4    0    0 -0.61584928050E+01 -0.93361959219E+02 -0.14067201608E+02  0.94616428933E+02  0.00000000000E+00 0. -1.
         21    1    1    2  502  501  0.54864989411E+02  0.29513739387E+02 -0.15738338123E+03  0.16926534365E+03  0.00000000000E+00 0. -1.
<scales pt_clust_5="13000.00000" pt_clust_6="13000.00000" pt_clust_7="13000.00000" pt_clust_8="13000.00000" pt_clust_9="62.29950"></scales>
<clustering>
<clus scale="   62.300">  2  9  1 -1</clus>
<clus scale="   90.947">  7  8 -1 -1</clus>
<clus scale="  123.049">  5  6 -1 -1</clus>
<clus scale="  129.407">  2  7  1 -1</clus>
<clus scale="   62.300">  2  5  1 -1</clus>
</clustering>
</event>
<event>
 9    1  0.1296032E-005  0.1059020E+03  0.7546771E-02  0.1268777E+00
         -2   -1    0    0    0  501 -0.00000000000E+00  0.00000000000E+00  0.81220999296E+02  0.81220999296E+02  0.00000000000E+00 0.  1.
          2   -1    0    0  502    0  0.00000000000E+00 -0.00000000000E+00 -0.35028848289E+03  0.35028848289E+03  0.00000000000E+00 0. -1.
         23    2    1    2    0    0  0.53222595200E+02  0.22026390806E+02  0.16582456717E+02  0.10891757921E+03  0.90940940502E+02 0.  0.
         23    2    1    2    0    0 -0.32226799171E+02 -0.34190924796E+02 -0.12923865628E+03  0.16430959471E+03  0.89930121274E+02 0.  0.
        -11    1    3    3    0    0  0.22737614842E+02  0.31288363497E+02 -0.32419979612E+02  0.50467969021E+02  0.00000000000E+00 0. -1.
         11    1    3    3    0    0  0.30484980358E+02 -0.92619726914E+01  0.49002436329E+02  0.58449610193E+02  0.00000000000E+00 0.  1.
        -13    1    4    4    0    0 -0.70989514928E+01 -0.62849027738E+02 -0.77052757416E+02  0.99687124672E+02  0.00000000000E+00 0.  1.
         13    1    4    4    0    0 -0.25127847678E+02  0.28658102942E+02 -0.52185898867E+02  0.64622470037E+02  0.00000000000E+00 0. -1.
         21    1    1    2  502  501 -0.20995796029E+02  0.12164533990E+02 -0.15641128403E+03  0.15828230826E+03  0.00000000000E+00 0. -1.
<scales pt_clust_5="13000.00000" pt_clust_6="13000.00000" pt_clust_7="13000.00000" pt_clust_8="13000.00000" pt_clust_9="24.26519"></scales>
<clustering>
<clus scale="   24.265">  2  9  1 -1</clus>
<clus scale="   89.930">  7  8 -1 -1</clus>
<clus scale="   90.941">  5  6 -1 -1</clus>
<clus scale="  105.035">  2  7  1 -1</clus>
<clus scale="   24.265">  2  5  1 -1</clus>
</clustering>
</event>
<event>
 9    1  0.1296032E-005  0.1136720E+03  0.7546771E-02  0.1254197E+00
         -1   -1    0    0    0  501 -0.00000000000E+00  0.00000000000E+00  0.47469641493E+02  0.47469641493E+02  0.00000000000E+00 0.  1.
          1   -1    0    0  502    0  0.00000000000E+00 -0.00000000000E+00 -0.40911546546E+03  0.40911546546E+03  0.00000000000E+00 0. -1.
         23    2    1    2    0    0  0.27414708965E+02 -0.68321772080E+02 -0.92527427394E+02  0.14937779207E+03  0.91285098099E+02 0.  0.
         23    2    1    2    0    0 -0.38658609997E+02  0.47628319987E+02 -0.14903423262E+03  0.18483554240E+03  0.90498785895E+02 0.  0.
        -13    1    3    3    0    0 -0.16155916766E+02  0.12212508699E+02 -0.15683987435E+01  0.20313022667E+02  0.00000000000E+00 0. -1.
         13    1    3    3    0    0  0.43570625731E+02 -0.80534280779E+02 -0.90959028651E+02  0.12906476940E+03  0.00000000000E+00 0.  1.
        -13    1    4    4    0    0 -0.66711882437E+02  0.38846846236E+02 -0.12476085529E+03  0.14671340679E+03  0.00000000000E+00 0. -1.
         13    1    4    4    0    0  0.28053272439E+02  0.87814737508E+01 -0.24273377331E+02  0.38122135602E+02  0.00000000000E+00 0.  1.
         21    1    1    2  502  501  0.11243901032E+02  0.20693452093E+02 -0.12008416396E+03  0.12237177249E+03  0.00000000000E+00 0.  1.
<scales pt_clust_5="13000.00000" pt_clust_6="13000.00000" pt_clust_7="13000.00000" pt_clust_8="13000.00000" pt_clust_9="23.55089"></scales>
<clustering>
<clus scale="   23.551">  2  9  1 -1</clus>
<clus scale="   90.499">  7  8 -1 -1</clus>
<clus scale="   91.285">  5  6 -1 -1</clus>
<clus scale="  113.042">  2  7  1 -1</clus>
<clus scale="   23.551">  2  5  1 -1</clus>
</clustering>
</event>
<event>
 9    1  0.1296032E-005  0.1056204E+03  0.7546771E-02  0.1271335E+00
         -1   -1    0    0    0  501 -0.00000000000E+00  0.00000000000E+00  0.58261502199E+02  0.58261502199E+02  0.00000000000E+00 0.  1.
          1   -1    0    0  502    0  0.00000000000E+00 -0.00000000000E+00 -0.32494617442E+03  0.32494617442E+03  0.00000000000E+00 0. -1.
         23    2    1    2    0    0 -0.63492118437E+02  0.28006134731E+02 -0.29927353972E+02  0.11360086544E+03  0.84816964268E+02 0.  0.
         23    2    1    2    0    0  0.48934214137E+02 -0.12080011662E+02 -0.21646804083E+03  0.23998876344E+03  0.90530160061E+02 0.  0.
        -11    1    3    3    0    0 -0.70637743428E+02 -0.82399390778E+01 -0.10585518045E+02  0.71900212690E+02  0.00000000000E+00 0. -1.
         11    1    3    3    0    0  0.71456249910E+01  0.36246073809E+02 -0.19341835927E+02  0.41700652754E+02  0.00000000000E+00 0.  1.
        -11    1    4    4    0    0 -0.26674322562E+02  0.10119677330E+00 -0.47551490759E+02  0.54522233981E+02  0.00000000000E+00 0. -1.
         11    1    4    4    0    0  0.75608536699E+02 -0.12181208436E+02 -0.16891655007E+03  0.18546652946E+03  0.00000000000E+00 0.  1.
         21    1    1    2  502  501  0.14557904300E+02 -0.15926123069E+02 -0.20289277418E+02  0.29618047737E+02  0.00000000000E+00 0. -1.
<scales pt_clust_5="13000.00000" pt_clust_6="13000.00000" pt_clust_7="13000.00000" pt_clust_8="13000.00000" pt_clust_9="21.57716"></scales>
<clustering>
<clus scale="   21.577">  1  9  2 -1</clus>
<clus scale="   84.817">  5  6 -1 -1</clus>
<clus scale="   90.530">  7  8 -1 -1</clus>
<clus scale="  100.766">  1  5  2 -1</clus>
<clus scale="  105.620">  2  5  1 -1</clus>
</clustering>
</event>
<event>
 9    1  0.1296032E-005  0.1068564E+03  0.7546771E-02  0.1269912E+00
          1   -1    0    0  502    0  0.00000000000E+00  0.00000000000E+00  0.86632861331E+02  0.86632861331E+02  0.00000000000E+00 0. -1.
         -1   -1    0    0    0  501 -0.00000000000E+00 -0.00000000000E+00 -0.22135025550E+03  0.22135025550E+03  0.00000000000E+00 0.  1.
         23    2    1    2    0    0  0.63265101054E+02  0.28720011882E+02 -0.10589711678E+03  0.14706627032E+03  0.74746079699E+02 0.  0.
         23    2    1    2    0    0 -0.43239945084E+02 -0.49112730771E+02 -0.57198669382E+02  0.12064026538E+03  0.83669783545E+02 0.  0.
        -11    1    4    4    0    0 -0.26326304520E+02  0.18324626729E+02 -0.35414650761E+02  0.47781416293E+02  0.00000000000E+00 0.  1.
         11    1    4    4    0    0 -0.16913640564E+02 -0.67437357500E+02 -0.21784018621E+02  0.72858849092E+02  0.00000000000E+00 0. -1.
        -11    1    3    3    0    0  0.18651463894E+02  0.19322995197E+02 -0.96954067565E+02  0.10060490279E+03  0.00000000000E+00 0.  1.
         11    1    3    3    0    0  0.44613637160E+02  0.93970166851E+01 -0.89430492118E+01  0.46461367526E+02  0.00000000000E+00 0. -1.
         21    1    1    2  502  501 -0.20025155969E+02  0.20392718889E+02  0.28378391990E+02  0.40276581126E+02  0.00000000000E+00 0. -1.
<scales pt_clust_5="13000.00000" pt_clust_6="13000.00000" pt_clust_7="13000.00000" pt_clust_8="13000.00000" pt_clust_9="28.58094"></scales>
<clustering>
<clus scale="   28.581">  1  9  2 -1</clus>
<clus scale="   74.746">  7  8 -1 -1</clus>
<clus scale="   83.670">  5  6 -1 -1</clus>
<clus scale="  100.023">  2  7  1 -1</clus>
<clus scale="   28.581">  1  5  2 -1</clus>
</clustering>
</event>
<event>
 9    1  0.2353069E-005  0.9308728E+02  0.7546771E-02  0.1298773E+00
          2   -1    0    0  502    0  0.00000000000E+00  0.00000000000E+00  0.33339237491E+03  0.33339237491E+03  0.00000000000E+00 0. -1.
         -2   -1    0    0    0  501 -0.00000000000E+00 -0.00000000000E+00 -0.11657446041E+03  0.11657446041E+03  0.00000000000E+00 0.  1.
         23    2    1    2    0    0  0.11269096776E+02  0.17171842216E+01 -0.84948849418E+02  0.12604499071E+03  0.92418025314E+02 0.  0.
         23    2    1    2    0    0 -0.98685490083E+01  0.19742404287E+02  0.19022226879E+03  0.21032320963E+03  0.86972352956E+02 0.  0.
        -11    1    3    3    0    0  0.23918359360E+02 -0.36500296560E+02 -0.71192811398E+02  0.83503149390E+02  0.00000000000E+00 0.  1.
         11    1    3    3    0    0 -0.12649262584E+02  0.38217480781E+02 -0.13756038020E+02  0.42541841324E+02  0.00000000000E+00 0. -1.
        -11    1    4    4    0    0 -0.38863827260E+02  0.24190606307E+02  0.16625616740E+03  0.17244331156E+03  0.00000000000E+00 0. -1.
         11    1    4    4    0    0  0.28995278252E+02 -0.44482020195E+01  0.23966101394E+02  0.37879898075E+02  0.00000000000E+00 0.  1.
         21    1    1    2  502  501 -0.14005477675E+01 -0.21459588509E+02  0.11154449513E+03  0.11359863497E+03  0.00000000000E+00 0. -1.
<scales pt_clust_5="13000.00000" pt_clust_6="13000.00000" pt_clust_7="13000.00000" pt_clust_8="13000.00000" pt_clust_9="21.50524"></scales>
<clustering>
<clus scale="   21.505">  1  9  2 -1</clus>
<clus scale="   86.972">  7  8 -1 -1</clus>
<clus scale="   87.683">  1  7  2 -1</clus>
<clus scale="   92.418">  5  6 -1 -1</clus>
<clus scale="   21.505">  1  5  2 -1</clus>
</clustering>
</event>
<event>
 9    1  0.1296032E-005  0.9769173E+02  0.7546771E-02  0.1286553E+00
          1   -1    0    0  502    0  0.00000000000E+00  0.00000000000E+00  0.20157788265E+03  0.20157788265E+03  0.00000000000E+00 0. -1.
         -1   -1    0    0    0  501 -0.00000000000E+00 -0.00000000000E+00 -0.97410945661E+02  0.97410945661E+02  0.00000000000E+00 0.  1.
         23    2    1    2    0    0 -0.14211649384E+02  0.20996156864E+02 -0.18735848662E+02  0.98517238786E+02  0.93337049084E+02 0.  0.
         23    2    1    2    0    0 -0.21528849575E+02 -0.44380411156E+02  0.47327230328E+02  0.11366219385E+03  0.90808123661E+02 0.  0.
        -11    1    4    4    0    0 -0.27291257573E+01 -0.59391399037E+02 -0.12358130887E+01  0.59466912153E+02  0.00000000000E+00 0.  1.
         11    1    4    4    0    0 -0.18799723818E+02  0.15010987881E+02  0.48563043417E+02  0.54195281701E+02  0.00000000000E+00 0. -1.
        -13    1    3    3    0    0 -0.53729288533E+02  0.55895323147E+01 -0.67352575366E+01  0.54437514747E+02  0.00000000000E+00 0.  1.
         13    1    3    3    0    0  0.39517639150E+02  0.15406624549E+02 -0.12000591126E+02  0.44079724039E+02  0.00000000000E+00 0. -1.
         21    1    1    2  502  501  0.35740498959E+02  0.23384254292E+02  0.75575555326E+02  0.86809395675E+02  0.00000000000E+00 0.  1.
<scales pt_clust_5="13000.00000" pt_clust_6="13000.00000" pt_clust_7="13000.00000" pt_clust_8="13000.00000" pt_clust_9="42.71073"></scales>
<clustering>
<clus scale="   42.711">  1  9  2 -1</clus>
<clus scale="   90.808">  5  6 -1 -1</clus>
<clus scale="   93.337">  7  8 -1 -1</clus>
<clus scale="   95.278">  1  5  2 -1</clus>
<clus scale="   42.711">  1  5  2 -1</clus>
</clustering>
</event>
<event>
 9    1  0.1296032E-005  0.1100072E+03  0.7546771E-02  0.1260791E+00
         -1   -1    0    0    0  501 -0.00000000000E+00  0.00000000000E+00  0.74809527534E+03  0.74809527534E+03  0.00000000000E+00 0.  1.
          1   -1    0    0  502    0  0.00000000000E+00 -0.00000000000E+00 -0.26470519537E+02  0.26470519537E+02  0.00000000000E+00 0. -1.
         23    2    1    2    0    0  0.26857912725E+02 -0.60193852336E+02  0.54640170157E+03  0.55799306539E+03  0.91960829759E+02 0.  0.
         23    2    1    2    0    0 -0.21239464130E+02  0.36746900504E+02  0.15295928182E+03  0.18375501968E+03  0.92563037061E+02 0.  0.
        -11    1    3    3    0    0  0.46267855347E+02  0.29875834902E+01  0.19569176610E+03  0.20110919276E+03  0.00000000000E+00 0. -1.
         11    1    3    3    0    0 -0.19409942622E+02 -0.63181435826E+02  0.35070993548E+03  0.35688387263E+03  0.00000000000E+00 0.  1.
        -13    1    4    4    0    0 -0.55463657781E+02  0.34850604519E+02  0.82004781234E+02  0.10495506712E+03  0.00000000000E+00 0.  1.
         13    1    4    4    0    0  0.34224193651E+02  0.18962959852E+01  0.70954500588E+02  0.78799952559E+02  0.00000000000E+00 0. -1.
         21    1    1    2  502  501 -0.56184485949E+01  0.23446951832E+02  0.22263772410E+02  0.32817709803E+02  0.00000000000E+00 0.  1.
<scales pt_clust_5="13000.00000" pt_clust_6="13000.00000" pt_clust_7="13000.00000" pt_clust_8="13000.00000" pt_clust_9="24.11071"></scales>
<clustering>
<clus scale="   24.111">  2  9  1 -1</clus>
<clus scale="   91.961">  5  6 -1 -1</clus>
<clus scale="   92.563">  7  8 -1 -1</clus>
<clus scale="  109.501">  1  5  2 -1</clus>
<clus scale="   24.111">  2  5  1 -1</clus>
</clustering>
</event>
<event>
 9    1  0.1296032E-005  0.1218742E+03  0.7546771E-02  0.1240503E+00
         -1   -1    0    0    0  501 -0.00000000000E+00  0.00000000000E+00  0.10420621298E+03  0.10420621298E+03  0.00000000000E+00 0.  1.
          1   -1    0    0  502    0  0.00000000000E+00 -0.00000000000E+00 -0.21602088286E+03  0.21602088286E+03  0.00000000000E+00 0. -1.
         23    2    1    2    0    0  0.66456151157E+02  0.52517536248E+02  0.25496875090E+02  0.12858338096E+03  0.93322470922E+02 0.  0.
         23    2    1    2    0    0 -0.49635728138E+02 -0.36854525258E+02 -0.11267941489E+03  0.15795397792E+03  0.91819644203E+02 0.  0.
        -11    1    4    4    0    0  0.17060627250E+02  0.17529564107E+02 -0.21371200590E+02  0.32481977074E+02  0.00000000000E+00 0.  1.
         11    1    4    4    0    0 -0.66696355388E+02 -0.54384089365E+02 -0.91308214296E+02  0.12547200085E+03  0.00000000000E+00 0. -1.
        -11    1    3    3    0    0  0.83191796250E+02  0.15409778129E+02  0.23579059840E+02  0.87831135073E+02  0.00000000000E+00 0.  1.
         11    1    3    3    0    0 -0.16735645093E+02  0.37107758119E+02  0.19178152496E+01  0.40752245884E+02  0.00000000000E+00 0. -1.
         21    1    1    2  502  501 -0.16820423020E+02 -0.15663010989E+02 -0.24632130087E+02  0.33689736960E+02  0.00000000000E+00 0.  1.
<scales pt_clust_5="13000.00000" pt_clust_6="13000.00000" pt_clust_7="13000.00000" pt_clust_8="13000.00000" pt_clust_9="22.98383"></scales>
<clustering>
<clus scale="   22.984">  2  9  1 -1</clus>
<clus scale="   91.820">  5  6 -1 -1</clus>
<clus scale="   93.322">  7  8 -1 -1</clus>
<clus scale="  120.727">  2  5  1 -1</clus>
<clus scale="   22.984">  2  5  1 -1</clus>
</clustering>
</event>
<event>
 9    1  0.1296032E-005  0.9344511E+02  0.7546771E-02  0.1295301E+00
          1   -1    0    0  502    0  0.00000000000E+00  0.00000000000E+00  0.46390061454E+03  0.46390061454E+03  0.00000000000E+00 0. -1.
         -1   -1    0    0    0  501 -0.00000000000E+00 -0.00000000000E+00 -0.34826841388E+02  0.34826841388E+02  0.00000000000E+00 0.  1.
         23    2    1    2    0    0  0.17315657916E+02 -0.33168055344E+01  0.65104214443E+02  0.11356452030E+03  0.91364699550E+02 0.  0.
         23    2    1    2    0    0 -0.25013277999E+02 -0.20926218233E+02  0.23791938047E+03  0.25657201453E+03  0.90332698121E+02 0.  0.
        -11    1    4    4    0    0  0.32415335657E+02 -0.45894089373E+01  0.53439035257E+02  0.62670145599E+02  0.00000000000E+00 0.  1.
         11    1    4    4    0    0 -0.57428613656E+02 -0.16336809296E+02  0.18448034521E+03  0.19390186893E+03  0.00000000000E+00 0. -1.
        -13    1    3    3    0    0  0.13778439136E+02  0.37385922761E+02  0.60511129174E+02  0.72451013517E+02  0.00000000000E+00 0. -1.
         13    1    3    3    0    0  0.35372187796E+01 -0.40702728295E+02  0.45930852686E+01  0.41113506779E+02  0.00000000000E+00 0.  1.
         21    1    1    2  502  501  0.76976200827E+01  0.24243023768E+02  0.12605017824E+03  0.12859092111E+03  0.00000000000E+00 0. -1.
<scales pt_clust_5="13000.00000" pt_clust_6="13000.00000" pt_clust_7="13000.00000" pt_clust_8="13000.00000" pt_clust_9="25.43575"></scales>
<clustering>
<clus scale="   25.436">  1  9  2 -1</clus>
<clus scale="   90.333">  5  6 -1 -1</clus>
<clus scale="   91.365">  7  8 -1 -1</clus>
<clus scale="   92.436">  1  5  2 -1</clus>
<clus scale="   25.436">  1  5  2 -1</clus>
</clustering>
</event>
<event>
 9    1  0.1296032E-005  0.9519979E+02  0.7546771E-02  0.1300468E+00
          1   -1    0    0  502    0  0.00000000000E+00  0.00000000000E+00  0.17603277566E+03  0.17603277566E+03  0.00000000000E+00 0. -1.
         -1   -1    0    0    0  501 -0.00000000000E+00 -0.00000000000E+00 -0.13254380125E+03  0.13254380125E+03  0.00000000000E+00 0.  1.
         23    2    1    2    0    0 -0.12591601198E+02 -0.16875266603E+02 -0.83803543370E+02  0.12580954433E+03  0.91442246912E+02 0.  0.
         23    2    1    2    0    0  0.32689590040E+02  0.46961415536E+02  0.10018249924E+03  0.13755576608E+03  0.74907087668E+02 0.  0.
        -11    1    3    3    0    0 -0.22694472973E+02  0.22617343429E+02 -0.78392675089E+02  0.84687630944E+02  0.00000000000E+00 0.  1.
         11    1    3    3    0    0  0.10102871774E+02 -0.39492610032E+02 -0.54108682807E+01  0.41121913389E+02  0.00000000000E+00 0. -1.
        -11    1    4    4    0    0  0.51749846276E+02  0.10050446923E+02  0.55573913675E+02  0.76599725548E+02  0.00000000000E+00 0. -1.
         11    1    4    4    0    0 -0.19060256236E+02  0.36910968613E+02  0.44608585564E+02  0.60956040535E+02  0.00000000000E+00 0.  1.
         21    1    1    2  502  501 -0.20097988842E+02 -0.30086148933E+02  0.27110018541E+02  0.45211266498E+02  0.00000000000E+00 0. -1.
<scales pt_clust_5="13000.00000" pt_clust_6="13000.00000" pt_clust_7="13000.00000" pt_clust_8="13000.00000" pt_clust_9="36.18156"></scales>
<clustering>
<clus scale="   36.182">  1  9  2 -1</clus>
<clus scale="   74.907">  7  8 -1 -1</clus>
<clus scale="   79.451">  1  7  2 -1</clus>
<clus scale="   91.442">  5  6 -1 -1</clus>
<clus scale="   36.182">  1  5  2 -1</clus>
</clustering>
</event>
<event>
 9    1  0.1296032E-005  0.9116891E+02  0.7546771E-02  0.1302363E+00
         -1   -1    0    0    0  501 -0.00000000000E+00  0.00000000000E+00  0.24113100283E+03  0.24113100283E+03  0.00000000000E+00 0.  1.
          1   -1    0    0  502    0  0.00000000000E+00 -0.00000000000E+00 -0.30859785957E+03  0.30859785957E+03  0.00000000000E+00 0. -1.
         23    2    1    2    0    0 -0.13572982339E+02 -0.12755294423E+02  0.19798361497E+03  0.21838039746E+03  0.90252771776E+02 0.  0.
         23    2    1    2    0    0 -0.53134876027E+02 -0.87603830392E+01 -0.69591395617E+02  0.12332529211E+03  0.86406631507E+02 0.  0.
        -11    1    3    3    0    0  0.25623863947E+02  0.26014014826E+02  0.67881114787E+02  0.77078901884E+02  0.00000000000E+00 0. -1.
         11    1    3    3    0    0 -0.39196846286E+02 -0.38769309249E+02  0.13010250018E+03  0.14130149558E+03  0.00000000000E+00 0.  1.
        -13    1    4    4    0    0 -0.74185388613E+02 -0.55886821812E+01 -0.69832668593E+02  0.10203581163E+03  0.00000000000E+00 0.  1.
         13    1    4    4    0    0  0.21050512585E+02 -0.31717008580E+01  0.24127297564E+00  0.21289480479E+02  0.00000000000E+00 0. -1.
         21    1    1    2  502  501  0.66707858367E+02  0.21515677462E+02 -0.19585907609E+03  0.20802317282E+03  0.00000000000E+00 0. -1.
<scales pt_clust_5="13000.00000" pt_clust_6="13000.00000" pt_clust_7="13000.00000" pt_clust_8="13000.00000" pt_clust_9="70.09182"></scales>
<clustering>
<clus scale="   70.092">  2  9  1 -1</clus>
<clus scale="   86.407">  7  8 -1 -1</clus>
<clus scale="   87.363">  2  7  1 -1</clus>
<clus scale="   90.253">  5  6 -1 -1</clus>
<clus scale="   70.092">  2  5  1 -1</clus>
</clustering>
</event>
<event>
 9    1  0.1296032E-005  0.1161823E+03  0.7546771E-02  0.1250340E+00
          1   -1    0    0  502    0  0.00000000000E+00  0.00000000000E+00  0.21765271469E+03  0.21765271469E+03  0.00000000000E+00 0. -1.
         -1   -1    0    0    0  501 -0.00000000000E+00 -0.00000000000E+00 -0.38238847714E+03  0.38238847714E+03  0.00000000000E+00 0.  1.
         23    2    1    2    0    0  0.68534874573E+02  0.14294354092E+02 -0.34504651314E+03  0.36391172157E+03  0.92050460484E+02 0.  0.
         23    2    1    2    0    0 -0.88784796289E+02  0.21822460434E+01  0.14553172645E+03  0.19264248131E+03  0.89689129512E+02 0.  0.
        -13    1    3    3    0    0  0.14986391014E+02 -0.35870616317E+02 -0.80779247507E+02  0.89646973504E+02  0.00000000000E+00 0.  1.
         13    1    3    3    0    0  0.53548483559E+02  0.50164970408E+02 -0.26426726563E+03  0.27426474806E+03  0.00000000000E+00 0. -1.
        -13    1    4    4    0    0 -0.21418597983E+02 -0.17028625590E+02 -0.38678160933E+01  0.27634949437E+02  0.00000000000E+00 0.  1.
         13    1    4    4    0    0 -0.67366198305E+02  0.19210871633E+02  0.14939954255E+03  0.16500753188E+03  0.00000000000E+00 0. -1.
         21    1    1    2  502  501  0.20249921716E+02 -0.16476600135E+02  0.34779024225E+02  0.43486988945E+02  0.00000000000E+00 0.  1.
<scales pt_clust_5="13000.00000" pt_clust_6="13000.00000" pt_clust_7="13000.00000" pt_clust_8="13000.00000" pt_clust_9="26.10628"></scales>
<clustering>
<clus scale="   26.106">  1  9  2 -1</clus>
<clus scale="   89.689">  7  8 -1 -1</clus>
<clus scale="   92.050">  5  6 -1 -1</clus>
<clus scale="  114.320">  1  7  2 -1</clus>
<clus scale="   26.106">  1  5  2 -1</clus>
</clustering>
</event>
<event>
 9    1  0.1296032E-005  0.1133396E+03  0.7546771E-02  0.1256997E+00
         -1   -1    0    0    0  501 -0.00000000000E+00  0.00000000000E+00  0.10225282425E+03  0.10225282425E+03  0.00000000000E+00 0.  1.
          1   -1    0    0  502    0  0.00000000000E+00 -0.00000000000E+00 -0.21107502455E+03  0.21107502455E+03  0.00000000000E+00 0. -1.
         23    2    1    2    0    0  0.48187357763E+02 -0.20811402103E+02 -0.81029587027E+01  0.10288230582E+03  0.88113421250E+02 0.  0.
         23    2    1    2    0    0 -0.50385536473E+02  0.74664239034E+02 -0.75484079507E+02  0.15093274234E+03  0.94706892968E+02 0.  0.
        -11    1    3    3    0    0  0.37251299935E+02 -0.46112665306E+02 -0.31138797298E+02  0.66960151924E+02  0.00000000000E+00 0.  1.
         11    1    3    3    0    0  0.10936057827E+02  0.25301263202E+02  0.23035838595E+02  0.35922153892E+02  0.00000000000E+00 0. -1.
        -13    1    4    4    0    0 -0.52423466906E+02  0.95916755459E+02 -0.64570215726E+02  0.12695493933E+03  0.00000000000E+00 0. -1.
         13    1    4    4    0    0  0.20379304325E+01 -0.21252516426E+02 -0.10913863781E+02  0.23977803017E+02  0.00000000000E+00 0.  1.
         21    1    1    2  502  501  0.21981787104E+01 -0.53852836930E+02 -0.25235162088E+02  0.59512800646E+02  0.00000000000E+00 0. -1.
<scales pt_clust_5="13000.00000" pt_clust_6="13000.00000" pt_clust_7="13000.00000" pt_clust_8="13000.00000" pt_clust_9="53.89768"></scales>
<clustering>
<clus scale="   53.898">  2  9  1 -1</clus>
<clus scale="   88.113">  5  6 -1 -1</clus>
<clus scale="   94.707">  7  8 -1 -1</clus>
<clus scale="  107.891">  1  5  2 -1</clus>
<clus scale="   53.898">  2  5  1 -1</clus>
</clustering>
</event>
<event>
 9    1  0.1296032E-005  0.1748155E+03  0.7546771E-02  0.1173088E+00
         -1   -1    0    0    0  501 -0.00000000000E+00  0.00000000000E+00  0.37522304949E+03  0.37522304949E+03  0.00000000000E+00 0.  1.
          1   -1    0    0  502    0  0.00000000000E+00 -0.00000000000E+00 -0.36645674694E+03  0.36645674694E+03  0.00000000000E+00 0. -1.
         23    2    1    2    0    0 -0.90072186755E+02 -0.12087039235E+03  0.30854657421E+03  0.35539484554E+03  0.91552483335E+02 0.  0.
         23    2    1    2    0    0  0.53085928083E+02  0.12931200504E+03 -0.12680648957E+03  0.20919973569E+03  0.90249283690E+02 0.  0.
        -11    1    4    4    0    0  0.58574226821E+02  0.37327262442E+02 -0.79668863931E+02  0.10569480805E+03  0.00000000000E+00 0.  1.
         11    1    4    4    0    0 -0.54882987378E+01  0.91984742600E+02 -0.47137625644E+02  0.10350492764E+03  0.00000000000E+00 0. -1.
        -13    1    3    3    0    0  0.14953077558E+02 -0.30120225268E+02  0.34361252780E+02  0.48078250709E+02  0.00000000000E+00 0. -1.
         13    1    3    3    0    0 -0.10502526431E+03 -0.90750167083E+02  0.27418532143E+03  0.30731659483E+03  0.00000000000E+00 0.  1.
         21    1    1    2  502  501  0.36986258672E+02 -0.84416126910E+01 -0.17297378208E+03  0.17708521520E+03  0.00000000000E+00 0. -1.
<scales pt_clust_5="13000.00000" pt_clust_6="13000.00000" pt_clust_7="13000.00000" pt_clust_8="13000.00000" pt_clust_9="37.93737"></scales>
<clustering>
<clus scale="   37.937">  2  9  1 -1</clus>
<clus scale="   90.249">  5  6 -1 -1</clus>
<clus scale="   91.552">  7  8 -1 -1</clus>
<clus scale="  174.137">  2  5  1 -1</clus>
<clus scale="   37.937">  2  5  1 -1</clus>
</clustering>
</event>
<event>
 9    1  0.1296032E-005  0.1371704E+03  0.7546771E-02  0.1218464E+00
          1   -1    0    0  502    0  0.00000000000E+00  0.00000000000E+00  0.24911478333E+03  0.24911478333E+03  0.00000000000E+00 0. -1.
         -1   -1    0    0    0  501 -0.00000000000E+00 -0.00000000000E+00 -0.14520872627E+03  0.14520872627E+03  0.00000000000E+00 0.  1.
         23    2    1    2    0    0 -0.94551826983E+01 -0.10276219759E+03 -0.78658441454E+02  0.16090374250E+03  0.95149325822E+02 0.  0.
         23    2    1    2    0    0  0.14343382103E+02  0.80235696078E+02  0.14187899749E+03  0.18665816150E+03  0.89822713116E+02 0.  0.
        -11    1    4    4    0    0  0.39366163509E+02  0.38711977277E+02  0.25961121900E+02  0.61010588134E+02  0.00000000000E+00 0. -1.
         11    1    4    4    0    0 -0.25022781406E+02  0.41523718801E+02  0.11591787559E+03  0.12564757337E+03  0.00000000000E+00 0.  1.
        -11    1    3    3    0    0 -0.71608143955E+01 -0.57844408708E+02  0.12175981397E+02  0.59544163480E+02  0.00000000000E+00 0.  1.
         11    1    3    3    0    0 -0.22943683029E+01 -0.44917788886E+02 -0.90834422851E+02  0.10135957902E+03  0.00000000000E+00 0. -1.
         21    1    1    2  502  501 -0.48881994049E+01  0.22526501516E+02  0.40685501026E+02  0.46761605594E+02  0.00000000000E+00 0.  1.
<scales pt_clust_5="13000.00000" pt_clust_6="13000.00000" pt_clust_7="13000.00000" pt_clust_8="13000.00000" pt_clust_9="23.05076"></scales>
<clustering>
<clus scale="   23.051">  1  9  2 -1</clus>
<clus scale="   89.823">  5  6 -1 -1</clus>
<clus scale="   95.149">  7  8 -1 -1</clus>
<clus scale="  133.531">  1  5  2 -1</clus>
<clus scale="   23.051">  1  5  2 -1</clus>
</clustering>
</event>
<event>
 9    1  0.1296032E-005  0.2702901E+03  0.7546771E-02  0.1101219E+00
          2   -1    0    0  502    0  0.00000000000E+00  0.00000000000E+00  0.31000100020E+04  0.31000100020E+04  0.00000000000E+00 0. -1.
         -2   -1    0    0    0  501 -0.00000000000E+00 -0.00000000000E+00 -0.13701763704E+03  0.13701763704E+03  0.00000000000E+00 0.  1.
         23    2    1    2    0    0 -0.37591365867E+02 -0.23797090477E+03  0.75625182863E+02  0.26936058599E+03  0.93769369703E+02 0.  0.
         23    2    1    2    0    0  0.20473145583E+03  0.38589550331E+03  0.22050579736E+04  0.22497789333E+04  0.91620266197E+02 0.  0.
        -11    1    3    3    0    0  0.13218666287E+02 -0.18231468167E+03  0.46931413390E+02  0.18872184254E+03  0.00000000000E+00 0.  1.
         11    1    3    3    0    0 -0.50810032155E+02 -0.55656223108E+02  0.28693769473E+02  0.80638743447E+02  0.00000000000E+00 0. -1.
        -13    1    4    4    0    0  0.68669881998E+02  0.61206146936E+02  0.55642993469E+03  0.56398228459E+03  0.00000000000E+00 0.  1.
         13    1    4    4    0    0  0.13606157383E+03  0.32468935637E+03  0.16486280389E+04  0.16857966487E+04  0.00000000000E+00 0. -1.
         21    1    1    2  502  501 -0.16714008996E+03 -0.14792459853E+03  0.68230920853E+03  0.71788811981E+03  0.00000000000E+00 0.  1.
<scales pt_clust_5="13000.00000" pt_clust_6="13000.00000" pt_clust_7="13000.00000" pt_clust_8="13000.00000" pt_clust_9="223.19833"></scales>
<clustering>
<clus scale="   91.620">  7  8 -1 -1</clus>
<clus scale="   93.769">  5  6 -1 -1</clus>
<clus scale="  223.198">  1  9  2 -1</clus>
<clus scale="  269.552">  1  7  2 -1</clus>
<clus scale="  223.198">  1  5  2 -1</clus>
</clustering>
</event>
<event>
 9    1  0.1296032E-005  0.1005636E+03  0.7546771E-02  0.1279381E+00
          2   -1    0    0  502    0  0.00000000000E+00  0.00000000000E+00  0.16523985757E+03  0.16523985757E+03  0.00000000000E+00 0. -1.
         -2   -1    0    0    0  501 -0.00000000000E+00 -0.00000000000E+00 -0.18184562104E+03  0.18184562104E+03  0.00000000000E+00 0.  1.
         23    2    1    2    0    0 -0.17517516308E+02  0.16592953324E+02 -0.89211657217E+02  0.13021120251E+03  0.91728119999E+02 0.  0.
         23    2    1    2    0    0 -0.41535656095E+02 -0.25549108826E+02  0.10573565174E+03  0.14857295285E+03  0.92281778157E+02 0.  0.
        -13    1    3    3    0    0 -0.40203701121E+02 -0.95129738494E+01 -0.86083633940E+02  0.95484167732E+02  0.00000000000E+00 0. -1.
         13    1    3    3    0    0  0.22686184813E+02  0.26105927173E+02 -0.31280232775E+01  0.34727034780E+02  0.00000000000E+00 0.  1.
        -13    1    4    4    0    0 -0.18550893513E+02 -0.44220787414E+02  0.10870403143E+03  0.11881153201E+03  0.00000000000E+00 0. -1.
         13    1    4    4    0    0 -0.22984762583E+02  0.18671678588E+02 -0.29683796883E+01  0.29761420837E+02  0.00000000000E+00 0.  1.
         21    1    1    2  502  501  0.59053172403E+02  0.89561555021E+01 -0.33129758005E+02  0.68301323250E+02  0.00000000000E+00 0.  1.
<scales pt_clust_5="13000.00000" pt_clust_6="13000.00000" pt_clust_7="13000.00000" pt_clust_8="13000.00000" pt_clust_9="59.72847"></scales>
<clustering>
<clus scale="   59.728">  2  9  1 -1</clus>
<clus scale="   91.728">  5  6 -1 -1</clus>
<clus scale="   92.282">  7  8 -1 -1</clus>
<clus scale="  100.056">  2  5  1 -1</clus>
<clus scale="  100.564">  1  5  2 -1</clus>
</clustering>
</event>
<event>
 9    1  0.1296032E-005  0.1172413E+03  0.7546771E-02  0.1248361E+00
         -1   -1    0    0    0  501 -0.00000000000E+00  0.00000000000E+00  0.91293589815E+02  0.91293589815E+02  0.00000000000E+00 0.  1.
          1   -1    0    0  502    0  0.00000000000E+00 -0.00000000000E+00 -0.21224055972E+03  0.21224055972E+03  0.00000000000E+00 0. -1.
         23    2    1    2    0    0  0.52022643117E+01 -0.61996974197E+02  0.40563983309E+00  0.10901767061E+03  0.89520945027E+02 0.  0.
         23    2    1    2    0    0  0.80334028640E+01  0.78289575319E+02 -0.12440757421E+03  0.17330411119E+03  0.91450955544E+02 0.  0.
        -11    1    4    4    0    0  0.49762983492E+02  0.37891720948E+02 -0.66272521294E+02  0.91127296246E+02  0.00000000000E+00 0.  1.
         11    1    4    4    0    0 -0.41729580628E+02  0.40397854371E+02 -0.58135052920E+02  0.82176814949E+02  0.00000000000E+00 0. -1.
        -13    1    3    3    0    0 -0.78185543890E+01 -0.82263975146E+02 -0.90716687429E+01  0.83131140816E+02  0.00000000000E+00 0.  1.
         13    1    3    3    0    0  0.13020818701E+02  0.20267000949E+02  0.94773085760E+01  0.25886529797E+02  0.00000000000E+00 0. -1.
         21    1    1    2  502  501 -0.13235667176E+02 -0.16292601122E+02  0.30549644713E+01  0.21212367732E+02  0.00000000000E+00 0. -1.
<scales pt_clust_5="13000.00000" pt_clust_6="13000.00000" pt_clust_7="13000.00000" pt_clust_8="13000.00000" pt_clust_9="20.99123"></scales>
<clustering>
<clus scale="   20.991">  1  9  2 -1</clus>
<clus scale="   89.521">  7  8 -1 -1</clus>
<clus scale="   91.451">  5  6 -1 -1</clus>
<clus scale="  115.742">  1  7  2 -1</clus>
<clus scale="  117.241">  2  5  1 -1</clus>
</clustering>
</event>
<event>
 9    1  0.1296032E-005  0.2453419E+03  0.7546771E-02  0.1130745E+00
          3   -1    0    0  502    0  0.00000000000E+00  0.00000000000E+00  0.23710836544E+04  0.23710836544E+04  0.00000000000E+00 0. -1.
         -3   -1    0    0    0  501 -0.00000000000E+00 -0.00000000000E+00 -0.61122620893E+02  0.61122620893E+02  0.00000000000E+00 0.  1.
         23    2    1    2    0    0 -0.11334015686E+03 -0.94535340524E+02  0.38282567734E+03  0.41939436905E+03  0.86909238819E+02 0.  0.
         23    2    1    2    0    0  0.42383905395E+02  0.29690935072E+03  0.69917566989E+03  0.76626667211E+03  0.91468231868E+02 0.  0.
        -11    1    4    4    0    0  0.68527155364E+02  0.18261112450E+03  0.46923262139E+03  0.50815553405E+03  0.00000000000E+00 0.  1.
         11    1    4    4    0    0 -0.26143249970E+02  0.11429822621E+03  0.22994304850E+03  0.25811113806E+03  0.00000000000E+00 0. -1.
        -13    1    3    3    0    0 -0.15888754814E+02 -0.44989780895E+02  0.50170896663E+02  0.69236202860E+02  0.00000000000E+00 0.  1.
         13    1    3    3    0    0 -0.97451402050E+02 -0.49545559628E+02  0.33265478068E+03  0.35015816619E+03  0.00000000000E+00 0. -1.
         21    1    1    2  502  501  0.70956251469E+02 -0.20237401019E+03  0.12279596862E+04  0.12465452341E+04  0.00000000000E+00 0. -1.
<scales pt_clust_5="13000.00000" pt_clust_6="13000.00000" pt_clust_7="13000.00000" pt_clust_8="13000.00000" pt_clust_9="227.65371"></scales>
<clustering>
<clus scale="   86.909">  7  8 -1 -1</clus>
<clus scale="   91.468">  5  6 -1 -1</clus>
<clus scale="  171.278">  2  7  1 -1</clus>
<clus scale="  227.654">  1  9  2 -1</clus>
<clus scale="  227.654">  1  5  2 -1</clus>
</clustering>
</event>
<event>
 9    1  0.1296032E-005  0.9280274E+02  0.7546771E-02  0.1296770E+00
          1   -1    0    0  502    0  0.00000000000E+00  0.00000000000E+00  0.36773090935E+03  0.36773090935E+03  0.00000000000E+00 0. -1.
         -1   -1    0    0    0  501 -0.00000000000E+00 -0.00000000000E+00 -0.20898737147E+03  0.20898737147E+03  0.00000000000E+00 0.  1.
         23    2    1    2    0    0  0.24485542275E+02  0.35826667487E+01 -0.17840932216E+03  0.20212639339E+03  0.91721400927E+02 0.  0.
         23    2    1    2    0    0  0.85706808138E+00  0.47630729436E+01  0.33522810035E+03  0.34784111229E+03  0.92693789994E+02 0.  0.
        -11    1    3    3    0    0 -0.14771727498E+01  0.44097496688E+02 -0.61402173380E+02  0.75610833544E+02  0.00000000000E+00 0.  1.
         11    1    3    3    0    0  0.25962715025E+02 -0.40514829939E+02 -0.11700714878E+03  0.12651555984E+03  0.00000000000E+00 0. -1.
        -13    1    4    4    0    0  0.33640325094E+02 -0.25308872569E+02  0.10093908382E+03  0.10936594143E+03  0.00000000000E+00 0.  1.
         13    1    4    4    0    0 -0.32783257012E+02  0.30071945512E+02  0.23428901654E+03  0.23847517086E+03  0.00000000000E+00 0. -1.
         21    1    1    2  502  501 -0.25342610357E+02 -0.83457396923E+01  0.19247596895E+01  0.26750775139E+02  0.00000000000E+00 0. -1.
<scales pt_clust_5="13000.00000" pt_clust_6="13000.00000" pt_clust_7="13000.00000" pt_clust_8="13000.00000" pt_clust_9="26.68144"></scales>
<clustering>
<clus scale="   26.681">  2  9  1 -1</clus>
<clus scale="   91.721">  5  6 -1 -1</clus>
<clus scale="   91.832">  2  5  1 -1</clus>
<clus scale="   92.694">  7  8 -1 -1</clus>
<clus scale="   92.803">  1  5  2 -1</clus>
</clustering>
</event>
<event>
 9    1  0.1296032E-005  0.9134802E+02  0.7546771E-02  0.1300086E+00
         -1   -1    0    0    0  501 -0.00000000000E+00  0.00000000000E+00  0.12477202443E+03  0.12477202443E+03  0.00000000000E+00 0.  1.
          1   -1    0    0  502    0  0.00000000000E+00 -0.00000000000E+00 -0.16448844319E+03  0.16448844319E+03  0.00000000000E+00 0. -1.
         23    2    1    2    0    0  0.86314780514E+01 -0.19460182261E+01  0.71797536143E+02  0.11584338670E+03  0.90479360334E+02 0.  0.
         23    2    1    2    0    0  0.21300012265E+02 -0.14136348732E+02 -0.99407406702E+02  0.13734624576E+03  0.91261338143E+02 0.  0.
        -11    1    3    3    0    0  0.22512864393E+02  0.34476650903E+02  0.63986271124E+02  0.76090153194E+02  0.00000000000E+00 0. -1.
         11    1    3    3    0    0 -0.13881386342E+02 -0.36422669129E+02  0.78112650188E+01  0.39753233510E+02  0.00000000000E+00 0.  1.
        -13    1    4    4    0    0  0.50624982461E+02  0.14092368402E+02 -0.43660970359E+02  0.68321036504E+02  0.00000000000E+00 0.  1.
         13    1    4    4    0    0 -0.29324970196E+02 -0.28228717134E+02 -0.55746436344E+02  0.69025209257E+02  0.00000000000E+00 0. -1.
         21    1    1    2  502  501 -0.29931490316E+02  0.16082366958E+02 -0.12106548193E+02  0.36070835154E+02  0.00000000000E+00 0. -1.
<scales pt_clust_5="13000.00000" pt_clust_6="13000.00000" pt_clust_7="13000.00000" pt_clust_8="13000.00000" pt_clust_9="33.97847"></scales>
<clustering>
<clus scale="   33.978">  2  9  1 -1</clus>
<clus scale="   90.479">  5  6 -1 -1</clus>
<clus scale="   90.567">  1  5  2 -1</clus>
<clus scale="   91.261">  7  8 -1 -1</clus>
<clus scale="   33.978">  2  5  1 -1</clus>
</clustering>
</event>
<event>
 9    1  0.1296032E-005  0.2533416E+03  0.7546771E-02  0.1113147E+00
          2   -1    0    0  502    0  0.00000000000E+00  0.00000000000E+00  0.52988251092E+03  0.52988251092E+03  0.00000000000E+00 0. -1.
         -2   -1    0    0    0  501 -0.00000000000E+00 -0.00000000000E+00 -0.14174242014E+03  0.14174242014E+03  0.00000000000E+00 0.  1.
         23    2    1    2    0    0 -0.22136415975E+03  0.15307737220E+02  0.96910098381E+02  0.25868339399E+03  0.91044566650E+02 0.  0.
         23    2    1    2    0    0  0.21975218777E+03 -0.49453202643E+02  0.27519442286E+03  0.37518374644E+03  0.11955847915E+03 0.  0.
        -11    1    3    3    0    0 -0.99971461735E+01 -0.22411158555E+02  0.45660267778E+01  0.24961000780E+02  0.00000000000E+00 0.  1.
         11    1    3    3    0    0 -0.21136701358E+03  0.37718895775E+02  0.92344071603E+02  0.23372239321E+03  0.00000000000E+00 0. -1.
        -11    1    4    4    0    0  0.17808469296E+03 -0.83911164849E+02  0.18572713425E+03  0.27064702077E+03  0.00000000000E+00 0.  1.
         11    1    4    4    0    0  0.41667494808E+02  0.34457962206E+02  0.89467288613E+02  0.10453672567E+03  0.00000000000E+00 0. -1.
         21    1    1    2  502  501  0.16119719825E+01  0.34145465423E+02  0.16035569532E+02  0.37757790625E+02  0.00000000000E+00 0.  1.
<scales pt_clust_5="13000.00000" pt_clust_6="13000.00000" pt_clust_7="13000.00000" pt_clust_8="13000.00000" pt_clust_9="34.18349"></scales>
<clustering>
<clus scale="   34.183">  2  9  1 -1</clus>
<clus scale="   91.045">  5  6 -1 -1</clus>
<clus scale="  119.558">  7  8 -1 -1</clus>
<clus scale="  241.199">  2  5  1 -1</clus>
<clus scale="  253.342">  1  5  2 -1</clus>
</clustering>
</event>
<event>
 9    1  0.1296032E-005  0.2512837E+03  0.7546771E-02  0.1112639E+00
         -2   -1    0    0    0  501 -0.00000000000E+00  0.00000000000E+00  0.59910466590E+03  0.59910466590E+03  0.00000000000E+00 0.  1.
          2   -1    0    0  502    0  0.00000000000E+00 -0.00000000000E+00 -0.17238887362E+03  0.17238887362E+03  0.00000000000E+00 0. -1.
         23    2    1    2    0    0 -0.19258590372E+03  0.11223889462E+03  0.35868098192E+03  0.43180380770E+03  0.90086523816E+02 0.  0.
         23    2    1    2    0    0  0.23897198874E+03 -0.12316078712E+03  0.49784091033E+02  0.28865988394E+03  0.92573657128E+02 0.  0.
        -11    1    4    4    0    0  0.18662292719E+03 -0.12567844980E+03  0.14465572681E+02  0.22546051204E+03  0.00000000000E+00 0. -1.
         11    1    4    4    0    0  0.52349061549E+02  0.25176626818E+01  0.35318518352E+02  0.63199371904E+02  0.00000000000E+00 0.  1.
        -13    1    3    3    0    0 -0.12474974193E+03  0.35937477131E+02  0.14276276816E+03  0.19296426702E+03  0.00000000000E+00 0. -1.
         13    1    3    3    0    0 -0.67836161794E+02  0.76301417488E+02  0.21591821376E+03  0.23883954068E+03  0.00000000000E+00 0.  1.
         21    1    1    2  502  501 -0.46386085013E+02  0.10921892500E+02  0.18250719334E+02  0.51029847881E+02  0.00000000000E+00 0. -1.
<scales pt_clust_5="13000.00000" pt_clust_6="13000.00000" pt_clust_7="13000.00000" pt_clust_8="13000.00000" pt_clust_9="47.65456"></scales>
<clustering>
<clus scale="   47.655">  2  9  1 -1</clus>
<clus scale="   90.087">  7  8 -1 -1</clus>
<clus scale="   92.574">  5  6 -1 -1</clus>
<clus scale="  250.378">  1  7  2 -1</clus>
<clus scale="   47.655">  2  5  1 -1</clus>
</clustering>
</event>
<event>
 9    1  0.1296032E-005  0.1941257E+03  0.7546771E-02  0.1154871E+00
          1   -1    0    0  502    0  0.00000000000E+00  0.00000000000E+00  0.42489048944E+03  0.42489048944E+03  0.00000000000E+00 0. -1.
         -1   -1    0    0    0  501 -0.00000000000E+00 -0.00000000000E+00 -0.11325549665E+03  0.11325549665E+03  0.00000000000E+00 0.  1.
         23    2    1    2    0    0 -0.15288382433E+03 -0.54826133413E+02  0.11212956955E+03  0.21753665346E+03  0.91486537740E+02 0.  0.
         23    2    1    2    0    0  0.16277330758E+03  0.77030654178E+02  0.11511382650E+03  0.23278687409E+03  0.92247842003E+02 0.  0.
        -11    1    4    4    0    0 -0.48419899160E+01  0.21907124943E+02  0.61252279537E+00  0.22444201340E+02  0.00000000000E+00 0. -1.
         11    1    4    4    0    0  0.16761529750E+03  0.55123529234E+02  0.11450130371E+03  0.21034267275E+03  0.00000000000E+00 0.  1.
        -11    1    3    3    0    0 -0.83287627696E+02 -0.48654860860E+02  0.14590649967E+02  0.97555171463E+02  0.00000000000E+00 0. -1.
         11    1    3    3    0    0 -0.69596196629E+02 -0.61712725528E+01  0.97538919580E+02  0.11998148200E+03  0.00000000000E+00 0.  1.
         21    1    1    2  502  501 -0.98894832564E+01 -0.22204520764E+02  0.84391596739E+02  0.87822458526E+02  0.00000000000E+00 0. -1.
<scales pt_clust_5="13000.00000" pt_clust_6="13000.00000" pt_clust_7="13000.00000" pt_clust_8="13000.00000" pt_clust_9="24.30725"></scales>
<clustering>
<clus scale="   24.307">  1  9  2 -1</clus>
<clus scale="   91.487">  7  8 -1 -1</clus>
<clus scale="   92.248">  5  6 -1 -1</clus>
<clus scale="  193.765">  2  7  1 -1</clus>
<clus scale="   24.307">  1  5  2 -1</clus>
</clustering>
</event>
<event>
 9    1  0.1296032E-005  0.1206102E+03  0.7546771E-02  0.1243877E+00
          2   -1    0    0  502    0  0.00000000000E+00  0.00000000000E+00  0.12628418521E+03  0.12628418521E+03  0.00000000000E+00 0. -1.
         -2   -1    0    0    0  501 -0.00000000000E+00 -0.00000000000E+00 -0.16539392428E+03  0.16539392428E+03  0.00000000000E+00 0.  1.
         23    2    1    2    0    0 -0.10812378716E+02  0.60833864915E+02 -0.75189776750E+02  0.13485521739E+03  0.93352881449E+02 0.  0.
         23    2    1    2    0    0  0.56934152271E+01 -0.81784906784E+02  0.51121750113E+02  0.13052834789E+03  0.87766908996E+02 0.  0.
        -11    1    3    3    0    0  0.40122607631E+02  0.40593496395E+02 -0.40621940306E+02  0.70055675194E+02  0.00000000000E+00 0. -1.
         11    1    3    3    0    0 -0.50934986347E+02  0.20240368519E+02 -0.34567836444E+02  0.64799542193E+02  0.00000000000E+00 0.  1.
        -13    1    4    4    0    0 -0.38942860533E+02 -0.23102438642E+02  0.11031885935E+02  0.46604415724E+02  0.00000000000E+00 0.  1.
         13    1    4    4    0    0  0.44636275760E+02 -0.58682468142E+02  0.40089864177E+02  0.83923932169E+02  0.00000000000E+00 0. -1.
         21    1    1    2  502  501  0.51189634892E+01  0.20951041869E+02 -0.15041712426E+02  0.26294544212E+02  0.00000000000E+00 0. -1.
<scales pt_clust_5="13000.00000" pt_clust_6="13000.00000" pt_clust_7="13000.00000" pt_clust_8="13000.00000" pt_clust_9="21.56734"></scales>
<clustering>
<clus scale="   21.567">  2  9  1 -1</clus>
<clus scale="   87.767">  7  8 -1 -1</clus>
<clus scale="   93.353">  5  6 -1 -1</clus>
<clus scale="  116.340">  1  7  2 -1</clus>
<clus scale="  116.340">  1  5  2 -1</clus>
</clustering>
</event>
<event>
 9    1  0.1296032E-005  0.9737355E+02  0.7546771E-02  0.1289059E+00
          1   -1    0    0  502    0  0.00000000000E+00  0.00000000000E+00  0.13275769316E+03  0.13275769316E+03  0.00000000000E+00 0. -1.
         -1   -1    0    0    0  501 -0.00000000000E+00 -0.00000000000E+00 -0.17401990193E+03  0.17401990193E+03  0.00000000000E+00 0.  1.
         23    2    1    2    0    0  0.99877053803E+01  0.18436866035E+01 -0.11737987143E+03  0.14918318916E+03  0.91511946053E+02 0.  0.
         23    2    1    2    0    0  0.11919008519E+02  0.19811415296E+02  0.78069724700E+02  0.12672924599E+03  0.97112640450E+02 0.  0.
        -13    1    4    4    0    0 -0.11748134300E+02 -0.34451144699E+02  0.48261321653E+02  0.60448781612E+02  0.00000000000E+00 0.  1.
         13    1    4    4    0    0  0.23667142819E+02  0.54262559995E+02  0.29808403047E+02  0.66280464382E+02  0.00000000000E+00 0. -1.
        -13    1    3    3    0    0 -0.27295463123E+02 -0.29529229006E+02 -0.72663109007E+02  0.83047848156E+02  0.00000000000E+00 0.  1.
         13    1    3    3    0    0  0.37283168503E+02  0.31372915610E+02 -0.44716762425E+02  0.66135341000E+02  0.00000000000E+00 0. -1.
         21    1    1    2  502  501 -0.21906713899E+02 -0.21655101900E+02 -0.19520620415E+01  0.30865159944E+02  0.00000000000E+00 0. -1.
<scales pt_clust_5="13000.00000" pt_clust_6="13000.00000" pt_clust_7="13000.00000" pt_clust_8="13000.00000" pt_clust_9="30.80337"></scales>
<clustering>
<clus scale="   30.803">  1  9  2 -1</clus>
<clus scale="   91.512">  7  8 -1 -1</clus>
<clus scale="   91.789">  2  7  1 -1</clus>
<clus scale="   97.113">  5  6 -1 -1</clus>
<clus scale="   30.803">  1  5  2 -1</clus>
</clustering>
</event>
<event>
 9    1  0.1296032E-005  0.1206462E+03  0.7546771E-02  0.1242701E+00
         -2   -1    0    0    0  501 -0.00000000000E+00  0.00000000000E+00  0.22301642951E+03  0.22301642951E+03  0.00000000000E+00 0. -1.
          2   -1    0    0  502    0  0.00000000000E+00 -0.00000000000E+00 -0.65575925454E+03  0.65575925454E+03  0.00000000000E+00 0.  1.
         23    2    1    2    0    0  0.55836033846E+02 -0.53149521774E+02  0.19683288267E+03  0.23003619289E+03  0.90724484011E+02 0.  0.
         23    2    1    2    0    0 -0.76637938992E+02  0.29547372190E+02 -0.46850669661E+03  0.48462670354E+03  0.92833701428E+02 0.  0.
        -13    1    4    4    0    0 -0.71697877545E+02  0.54939008773E+02 -0.42052365423E+03  0.43011512888E+03  0.00000000000E+00 0.  1.
         13    1    4    4    0    0 -0.49400614473E+01 -0.25391636583E+02 -0.47983042382E+02  0.54511574657E+02  0.00000000000E+00 0. -1.
        -13    1    3    3    0    0  0.29848552737E+02 -0.61607812039E+02  0.18986934732E+03  0.20183366334E+03  0.00000000000E+00 0. -1.
         13    1    3    3    0    0  0.25987481109E+02  0.84582902658E+01  0.69635353509E+01  0.28202529553E+02  0.00000000000E+00 0.  1.
         21    1    1    2  502  501  0.20801905146E+02  0.23602149584E+02 -0.16106901110E+03  0.16411278762E+03  0.00000000000E+00 0. -1.
<scales pt_clust_5="13000.00000" pt_clust_6="13000.00000" pt_clust_7="13000.00000" pt_clust_8="13000.00000" pt_clust_9="31.46078"></scales>
<clustering>
<clus scale="   31.461">  2  9  1 -1</clus>
<clus scale="   90.724">  7  8 -1 -1</clus>
<clus scale="   92.834">  5  6 -1 -1</clus>
<clus scale="  119.031">  1  7  2 -1</clus>
<clus scale="   31.461">  2  5  1 -1</clus>
</clustering>
</event>
<event>
 9    1  0.1296032E-005  0.2041097E+03  0.7546771E-02  0.1146456E+00
         -1   -1    0    0    0  501 -0.00000000000E+00  0.00000000000E+00  0.27979072253E+03  0.27979072253E+03  0.00000000000E+00 0.  1.
          1   -1    0    0  502    0  0.00000000000E+00 -0.00000000000E+00 -0.30068341354E+03  0.30068341354E+03  0.00000000000E+00 0. -1.
         23    2    1    2    0    0  0.11703734563E+03  0.14366899435E+03  0.16730993802E+03  0.26510649477E+03  0.89164555733E+02 0.  0.
         23    2    1    2    0    0 -0.72496726100E+02 -0.16671122517E+03 -0.16202981622E+03  0.25880062511E+03  0.87611039946E+02 0.  0.
        -11    1    3    3    0    0  0.11592827744E+03  0.82657353733E+02  0.98460796320E+02  0.17310728479E+03  0.00000000000E+00 0.  1.
         11    1    3    3    0    0  0.11090681854E+01  0.61011640619E+02  0.68849141704E+02  0.91999209978E+02  0.00000000000E+00 0. -1.
        -11    1    4    4    0    0 -0.11462349699E+02 -0.23241129345E+02  0.89416327266E+01  0.27413287830E+02  0.00000000000E+00 0.  1.
         11    1    4    4    0    0 -0.61034376400E+02 -0.14347009583E+03 -0.17097144895E+03  0.23138733728E+03  0.00000000000E+00 0. -1.
         21    1    1    2  502  501 -0.44540619526E+02  0.23042230823E+02 -0.26172812811E+02  0.56567016180E+02  0.00000000000E+00 0. -1.
<scales pt_clust_5="13000.00000" pt_clust_6="13000.00000" pt_clust_7="13000.00000" pt_clust_8="13000.00000" pt_clust_9="50.14789"></scales>
<clustering>
<clus scale="   50.148">  2  9  1 -1</clus>
<clus scale="   87.611">  7  8 -1 -1</clus>
<clus scale="   89.165">  5  6 -1 -1</clus>
<clus scale="  203.436">  2  7  1 -1</clus>
<clus scale="   50.148">  2  5  1 -1</clus>
</clustering>
</event>
<event>
 9    1  0.1296032E-005  0.1562855E+03  0.7546771E-02  0.1193126E+00
          1   -1    0    0  502    0  0.00000000000E+00  0.00000000000E+00  0.59067818221E+03  0.59067818221E+03  0.00000000000E+00 0. -1.
         -1   -1    0    0    0  501 -0.00000000000E+00 -0.00000000000E+00 -0.52650001332E+02  0.52650001332E+02  0.00000000000E+00 0.  1.
         23    2    1    2    0    0  0.10722053341E+03 -0.28059632770E+02  0.16424045172E+03  0.21781666217E+03  0.90474231483E+02 0.  0.
         23    2    1    2    0    0 -0.12953896301E+03  0.47291609366E+02  0.35170838999E+03  0.38869469856E+03  0.91476433280E+02 0.  0.
        -11    1    4    4    0    0 -0.59511348287E+02 -0.49444047229E+01  0.23756079344E+03  0.24495137945E+03  0.00000000000E+00 0. -1.
         11    1    4    4    0    0 -0.70027614724E+02  0.52236014089E+02  0.11414759655E+03  0.14374331911E+03  0.00000000000E+00 0.  1.
        -13    1    3    3    0    0  0.14364124743E+02  0.21785954673E+02  0.76028544974E+02  0.80382184291E+02  0.00000000000E+00 0.  1.
         13    1    3    3    0    0  0.92856408672E+02 -0.49845587443E+02  0.88211906747E+02  0.13743447788E+03  0.00000000000E+00 0. -1.
         21    1    1    2  502  501  0.22318429596E+02 -0.19231976596E+02  0.22079339166E+02  0.36816822804E+02  0.00000000000E+00 0. -1.
<scales pt_clust_5="13000.00000" pt_clust_6="13000.00000" pt_clust_7="13000.00000" pt_clust_8="13000.00000" pt_clust_9="29.46152"></scales>
<clustering>
<clus scale="   29.462">  2  9  1 -1</clus>
<clus scale="   90.474">  7  8 -1 -1</clus>
<clus scale="   91.476">  5  6 -1 -1</clus>
<clus scale="  155.701">  2  7  1 -1</clus>
<clus scale="  156.286">  1  5  2 -1</clus>
</clustering>
</event>
<event>
 9    1  0.1296032E-005  0.9989530E+02  0.7546771E-02  0.1284643E+00
         -4   -1    0    0    0  501 -0.00000000000E+00  0.00000000000E+00  0.21883772098E+03  0.21883772098E+03  0.00000000000E+00 0.  1.
          4   -1    0    0  502    0  0.00000000000E+00 -0.00000000000E+00 -0.30464713657E+03  0.30464713657E+03  0.00000000000E+00 0. -1.
         23    2    1    2    0    0 -0.18415658324E+02 -0.22461912442E+02  0.19039608998E+03  0.21149488887E+03  0.87382738308E+02 0.  0.
         23    2    1    2    0    0  0.14225062338E+02  0.54565168591E+02 -0.23327547772E+03  0.25822039139E+03  0.95292245236E+02 0.  0.
        -11    1    4    4    0    0 -0.31082091449E+02  0.23401827260E+02 -0.16997172943E+03  0.17436780303E+03  0.00000000000E+00 0. -1.
         11    1    4    4    0    0  0.45307153787E+02  0.31163341330E+02 -0.63303748288E+02  0.83852588358E+02  0.00000000000E+00 0.  1.
        -11    1    3    3    0    0  0.32543074864E+02 -0.11133108157E+02  0.42608080023E+02  0.54758070658E+02  0.00000000000E+00 0. -1.
         11    1    3    3    0    0 -0.50958733188E+02 -0.11328804284E+02  0.14778800996E+03  0.15673681821E+03  0.00000000000E+00 0.  1.
         21    1    1    2  502  501  0.41905959862E+01 -0.32103256149E+02 -0.42930027865E+02  0.53769577296E+02  0.00000000000E+00 0.  1.
<scales pt_clust_5="13000.00000" pt_clust_6="13000.00000" pt_clust_7="13000.00000" pt_clust_8="13000.00000" pt_clust_9="32.37561"></scales>
<clustering>
<clus scale="   32.376">  2  9  1 -1</clus>
<clus scale="   87.383">  7  8 -1 -1</clus>
<clus scale="   92.381">  1  7  2 -1</clus>
<clus scale="   95.292">  5  6 -1 -1</clus>
<clus scale="   32.376">  2  5  1 -1</clus>
</clustering>
</event>
<event>
 9    1  0.1296032E-005  0.2076872E+03  0.7546771E-02  0.1143667E+00
         -1   -1    0    0    0  501 -0.00000000000E+00  0.00000000000E+00  0.28220484112E+03  0.28220484112E+03  0.00000000000E+00 0.  1.
          1   -1    0    0  502    0  0.00000000000E+00 -0.00000000000E+00 -0.19786250444E+03  0.19786250444E+03  0.00000000000E+00 0. -1.
         23    2    1    2    0    0 -0.17526252714E+03 -0.26583639461E+02  0.13300937609E+03  0.23859320712E+03  0.88383149133E+02 0.  0.
         23    2    1    2    0    0  0.18530920272E+03  0.45528270109E+02 -0.55963719240E+02  0.21882295178E+03  0.91319342750E+02 0.  0.
        -11    1    3    3    0    0 -0.26388137695E+02 -0.37131350590E+02  0.13849506585E+02  0.47611761575E+02  0.00000000000E+00 0. -1.
         11    1    3    3    0    0 -0.14887438945E+03  0.10547711129E+02  0.11915986950E+03  0.19098144555E+03  0.00000000000E+00 0.  1.
        -13    1    4    4    0    0  0.17362365052E+03  0.27460870421E+02 -0.20002876648E+02  0.17691632627E+03  0.00000000000E+00 0.  1.
         13    1    4    4    0    0  0.11685552198E+02  0.18067399687E+02 -0.35960842592E+02  0.41906625509E+02  0.00000000000E+00 0. -1.
         21    1    1    2  502  501 -0.10046675578E+02 -0.18944630647E+02  0.72966798327E+01  0.22651186660E+02  0.00000000000E+00 0. -1.
<scales pt_clust_5="13000.00000" pt_clust_6="13000.00000" pt_clust_7="13000.00000" pt_clust_8="13000.00000" pt_clust_9="21.44376"></scales>
<clustering>
<clus scale="   21.444">  1  9  2 -1</clus>
<clus scale="   88.383">  5  6 -1 -1</clus>
<clus scale="   91.319">  7  8 -1 -1</clus>
<clus scale="  206.413">  1  5  2 -1</clus>
<clus scale="  207.687">  2  5  1 -1</clus>
</clustering>
</event>
<event>
 9    1  0.1296032E-005  0.1492642E+03  0.7546771E-02  0.1201742E+00
         -1   -1    0    0    0  501 -0.00000000000E+00  0.00000000000E+00  0.19444733293E+03  0.19444733293E+03  0.00000000000E+00 0.  1.
          1   -1    0    0  502    0  0.00000000000E+00 -0.00000000000E+00 -0.38018659160E+03  0.38018659160E+03  0.00000000000E+00 0. -1.
         23    2    1    2    0    0  0.28502167002E+02  0.96571245001E+02  0.53323256687E+02  0.14658777322E+03  0.92229207243E+02 0.  0.
         23    2    1    2    0    0 -0.13688982968E+03 -0.11844945679E+03 -0.48997161167E+02  0.20815667808E+03  0.90329295059E+02 0.  0.
        -11    1    4    4    0    0 -0.12636391298E+03 -0.10021825853E+03 -0.72306829896E+02  0.17674788682E+03  0.00000000000E+00 0.  1.
         11    1    4    4    0    0 -0.10525916696E+02 -0.18231198261E+02  0.23309668729E+02  0.31408791263E+02  0.00000000000E+00 0. -1.
        -11    1    3    3    0    0 -0.19278136812E+02  0.18976154398E+02  0.48256279164E+02  0.55320967755E+02  0.00000000000E+00 0.  1.
         11    1    3    3    0    0  0.47780303814E+02  0.77595090603E+02  0.50669775235E+01  0.91266805463E+02  0.00000000000E+00 0. -1.
         21    1    1    2  502  501  0.10838766267E+03  0.21878211788E+02 -0.19006535419E+03  0.21988947323E+03  0.00000000000E+00 0. -1.
<scales pt_clust_5="13000.00000" pt_clust_6="13000.00000" pt_clust_7="13000.00000" pt_clust_8="13000.00000" pt_clust_9="110.57369"></scales>
<clustering>
<clus scale="   90.329">  5  6 -1 -1</clus>
<clus scale="   92.229">  7  8 -1 -1</clus>
<clus scale="  110.574">  2  9  1 -1</clus>
<clus scale="  148.098">  2  5  1 -1</clus>
<clus scale="  110.574">  2  5  1 -1</clus>
</clustering>
</event>
<event>
 9    1  0.1296032E-005  0.9281489E+02  0.7546771E-02  0.1296932E+00
          1   -1    0    0  502    0  0.00000000000E+00  0.00000000000E+00  0.23325874924E+03  0.23325874924E+03  0.00000000000E+00 0. -1.
         -1   -1    0    0    0  501 -0.00000000000E+00 -0.00000000000E+00 -0.49230088738E+02  0.49230088738E+02  0.00000000000E+00 0.  1.
         23    2    1    2    0    0  0.16238657920E+02  0.97716369398E+01  0.71457144112E+02  0.11775711291E+03  0.91659343756E+02 0.  0.
         23    2    1    2    0    0  0.88644011757E+01 -0.18530746085E+02  0.77972179021E+02  0.12109687987E+03  0.90348367186E+02 0.  0.
        -11    1    4    4    0    0  0.49007699180E+02 -0.17731039656E+02  0.49476467658E+02  0.71861430532E+02  0.00000000000E+00 0. -1.
         11    1    4    4    0    0 -0.40143298004E+02 -0.79970642953E+00  0.28495711363E+02  0.49235449334E+02  0.00000000000E+00 0.  1.
        -11    1    3    3    0    0  0.30101825983E+02  0.29219867231E+02 -0.48490935024E+00  0.41954209629E+02  0.00000000000E+00 0. -1.
         11    1    3    3    0    0 -0.13863168063E+02 -0.19448230291E+02  0.71942053462E+02  0.75802903286E+02  0.00000000000E+00 0.  1.
         21    1    1    2  502  501 -0.25103059095E+02  0.87591091456E+01  0.34599337365E+02  0.43634845193E+02  0.00000000000E+00 0.  1.
<scales pt_clust_5="13000.00000" pt_clust_6="13000.00000" pt_clust_7="13000.00000" pt_clust_8="13000.00000" pt_clust_9="26.58732"></scales>
<clustering>
<clus scale="   26.587">  1  9  2 -1</clus>
<clus scale="   90.348">  5  6 -1 -1</clus>
<clus scale="   91.520">  1  5  2 -1</clus>
<clus scale="   91.659">  7  8 -1 -1</clus>
<clus scale="   26.587">  1  5  2 -1</clus>
</clustering>
</event>
<event>
 9    1  0.1296032E-005  0.9957654E+02  0.7546771E-02  0.1283307E+00
          1   -1    0    0  502    0  0.00000000000E+00  0.00000000000E+00  0.25799229569E+03  0.25799229569E+03  0.00000000000E+00 0. -1.
         -1   -1    0    0    0  501 -0.00000000000E+00 -0.00000000000E+00 -0.73874208512E+02  0.73874208512E+02  0.00000000000E+00 0.  1.
         23    2    1    2    0    0  0.15419263302E+02  0.19929510392E+02 -0.15235313087E+02  0.96398744016E+02  0.91791415817E+02 0.  0.
         23    2    1    2    0    0 -0.43044642449E+01 -0.37975270311E+02  0.15371822782E+03  0.18515119061E+03  0.95869808883E+02 0.  0.
        -11    1    4    4    0    0  0.81691298626E+01  0.31457978765E+02  0.53373523704E+02  0.62490576436E+02  0.00000000000E+00 0.  1.
         11    1    4    4    0    0 -0.12473594108E+02 -0.69433249076E+02  0.10034470411E+03  0.12266061418E+03  0.00000000000E+00 0. -1.
        -13    1    3    3    0    0  0.27652694334E+01 -0.24198860160E+02 -0.38016926733E+02  0.45149953116E+02  0.00000000000E+00 0. -1.
         13    1    3    3    0    0  0.12653993869E+02  0.44128370552E+02  0.22781613647E+02  0.51248790900E+02  0.00000000000E+00 0.  1.
         21    1    1    2  502  501 -0.11114799057E+02  0.18045759919E+02  0.45635172448E+02  0.50316569572E+02  0.00000000000E+00 0. -1.
<scales pt_clust_5="13000.00000" pt_clust_6="13000.00000" pt_clust_7="13000.00000" pt_clust_8="13000.00000" pt_clust_9="21.19406"></scales>
<clustering>
<clus scale="   21.194">  1  9  2 -1</clus>
<clus scale="   91.791">  7  8 -1 -1</clus>
<clus scale="   95.656">  2  7  1 -1</clus>
<clus scale="   95.870">  5  6 -1 -1</clus>
<clus scale="   21.194">  1  5  2 -1</clus>
</clustering>
</event>
<event>
 9    1  0.1296032E-005  0.1418526E+03  0.7546771E-02  0.1211713E+00
         -1   -1    0    0    0  501 -0.00000000000E+00  0.00000000000E+00  0.20971918211E+03  0.20971918211E+03  0.00000000000E+00 0.  1.
          1   -1    0    0  502    0  0.00000000000E+00 -0.00000000000E+00 -0.29996503267E+03  0.29996503267E+03  0.00000000000E+00 0. -1.
         23    2    1    2    0    0 -0.19304879830E+02  0.11111049537E+03  0.13793333658E+03  0.20142589728E+03  0.93960450117E+02 0.  0.
         23    2    1    2    0    0 -0.82118478055E+01 -0.87135208281E+02 -0.65680914369E+02  0.14171200759E+03  0.90046274853E+02 0.  0.
        -11    1    3    3    0    0  0.50709473186E+01  0.97323873225E+02  0.14291598641E+03  0.17298158855E+03  0.00000000000E+00 0.  1.
         11    1    3    3    0    0 -0.24375827149E+02  0.13786622146E+02 -0.49826498312E+01  0.28444308723E+02  0.00000000000E+00 0. -1.
        -13    1    4    4    0    0 -0.36361317212E+02 -0.90184619926E+02 -0.49837561967E+02  0.10926661724E+03  0.00000000000E+00 0. -1.
         13    1    4    4    0    0  0.28149469406E+02  0.30494116450E+01 -0.15843352403E+02  0.32445390344E+02  0.00000000000E+00 0.  1.
         21    1    1    2  502  501  0.27516727636E+02 -0.23975287090E+02 -0.16249827278E+03  0.16654630992E+03  0.00000000000E+00 0. -1.
<scales pt_clust_5="13000.00000" pt_clust_6="13000.00000" pt_clust_7="13000.00000" pt_clust_8="13000.00000" pt_clust_9="36.49637"></scales>
<clustering>
<clus scale="   36.496">  2  9  1 -1</clus>
<clus scale="   90.046">  7  8 -1 -1</clus>
<clus scale="   93.960">  5  6 -1 -1</clus>
<clus scale="  139.291">  2  7  1 -1</clus>
<clus scale="   36.496">  2  5  1 -1</clus>
</clustering>
</event>
<event>
 9    1  0.1296032E-005  0.1565700E+03  0.7546771E-02  0.1192804E+00
          3   -1    0    0  502    0  0.00000000000E+00  0.00000000000E+00  0.11332740223E+03  0.11332740223E+03  0.00000000000E+00 0. -1.
         -3   -1    0    0    0  501 -0.00000000000E+00 -0.00000000000E+00 -0.33738260169E+03  0.33738260169E+03  0.00000000000E+00 0.  1.
         23    2    1    2    0    0 -0.38516156519E+02 -0.12791595203E+03 -0.20215977678E+03  0.25922737436E+03  0.92110103524E+02 0.  0.
         23    2    1    2    0    0  0.61314923225E+02  0.97724276886E+02 -0.35637594391E+02  0.15123131536E+03  0.91056677456E+02 0.  0.
        -11    1    4    4    0    0  0.30906137467E+02  0.13551410569E+02 -0.50269034599E+02  0.60545899127E+02  0.00000000000E+00 0.  1.
         11    1    4    4    0    0  0.30408785759E+02  0.84172866317E+02  0.14631440208E+02  0.90685416236E+02  0.00000000000E+00 0. -1.
        -11    1    3    3    0    0  0.14200504127E+02 -0.57275885281E+02 -0.13835908342E+03  0.15041747677E+03  0.00000000000E+00 0. -1.
         11    1    3    3    0    0 -0.52716660646E+02 -0.70640066752E+02 -0.63800693360E+02  0.10880989759E+03  0.00000000000E+00 0.  1.
         21    1    1    2  502  501 -0.22798766706E+02  0.30191675146E+02  0.13742171713E+02  0.40251314200E+02  0.00000000000E+00 0.  1.
<scales pt_clust_5="13000.00000" pt_clust_6="13000.00000" pt_clust_7="13000.00000" pt_clust_8="13000.00000" pt_clust_9="37.83280"></scales>
<clustering>
<clus scale="   37.833">  1  9  2 -1</clus>
<clus scale="   91.057">  5  6 -1 -1</clus>
<clus scale="   92.110">  7  8 -1 -1</clus>
<clus scale="  155.953">  1  5  2 -1</clus>
<clus scale="   37.833">  1  5  2 -1</clus>
</clustering>
</event>
<event>
 9    1  0.1296032E-005  0.9295195E+02  0.7546771E-02  0.1295926E+00
          1   -1    0    0  502    0  0.00000000000E+00  0.00000000000E+00  0.28180438147E+03  0.28180438147E+03  0.00000000000E+00 0. -1.
         -1   -1    0    0    0  501 -0.00000000000E+00 -0.00000000000E+00 -0.57870115746E+02  0.57870115746E+02  0.00000000000E+00 0.  1.
         23    2    1    2    0    0  0.22788672548E+02 -0.24491947223E+02  0.33174335882E+02  0.10187745798E+03  0.90328848146E+02 0.  0.
         23    2    1    2    0    0 -0.12644639030E+02 -0.76395928932E+01  0.78171030784E+02  0.12027428622E+03  0.90205008708E+02 0.  0.
        -11    1    4    4    0    0 -0.26414963214E+02 -0.44109486082E+02  0.35511026655E+02  0.62485438769E+02  0.00000000000E+00 0.  1.
         11    1    4    4    0    0  0.13770324185E+02  0.36469893189E+02  0.42660004129E+02  0.57788847450E+02  0.00000000000E+00 0. -1.
        -13    1    3    3    0    0 -0.15397329213E+02 -0.29627144107E+02 -0.17911903232E+02  0.37890390500E+02  0.00000000000E+00 0.  1.
         13    1    3    3    0    0  0.38186001761E+02  0.51351968848E+01  0.51086239114E+02  0.63987067477E+02  0.00000000000E+00 0. -1.
         21    1    1    2  502  501 -0.10144033518E+02  0.32131540116E+02  0.11258889906E+03  0.11752275302E+03  0.00000000000E+00 0.  1.
<scales pt_clust_5="13000.00000" pt_clust_6="13000.00000" pt_clust_7="13000.00000" pt_clust_8="13000.00000" pt_clust_9="33.69477"></scales>
<clustering>
<clus scale="   33.695">  1  9  2 -1</clus>
<clus scale="   90.205">  5  6 -1 -1</clus>
<clus scale="   90.329">  7  8 -1 -1</clus>
<clus scale="   92.832">  1  5  2 -1</clus>
<clus scale="   33.695">  1  5  2 -1</clus>
</clustering>
</event>
<event>
 9    1  0.1296032E-005  0.1514560E+03  0.7546771E-02  0.1198981E+00
         -2   -1    0    0    0  501 -0.00000000000E+00  0.00000000000E+00  0.16732993401E+03  0.16732993401E+03  0.00000000000E+00 0.  1.
          2   -1    0    0  502    0  0.00000000000E+00 -0.00000000000E+00 -0.26371578442E+03  0.26371578442E+03  0.00000000000E+00 0. -1.
         23    2    1    2    0    0  0.99320305041E+02  0.30589970850E+01 -0.23565601203E+02  0.13797762393E+03  0.92782577509E+02 0.  0.
         23    2    1    2    0    0 -0.13415028645E+03 -0.93266542362E+02 -0.50403051911E+02  0.19380551562E+03  0.91242330989E+02 0.  0.
        -11    1    3    3    0    0  0.60148476263E+02  0.45195608847E+02 -0.27994103384E+02  0.80275476206E+02  0.00000000000E+00 0.  1.
         11    1    3    3    0    0  0.39171828777E+02 -0.42136611762E+02  0.44285021806E+01  0.57702147726E+02  0.00000000000E+00 0. -1.
        -11    1    4    4    0    0 -0.54663509787E+02  0.41809534060E+01  0.75487905155E+01  0.55340436498E+02  0.00000000000E+00 0.  1.
         11    1    4    4    0    0 -0.79486776664E+02 -0.97447495768E+02 -0.57951842427E+02  0.13846507912E+03  0.00000000000E+00 0. -1.
         21    1    1    2  502  501  0.34829981410E+02  0.90207545277E+02 -0.22417197292E+02  0.99262578872E+02  0.00000000000E+00 0. -1.
<scales pt_clust_5="13000.00000" pt_clust_6="13000.00000" pt_clust_7="13000.00000" pt_clust_8="13000.00000" pt_clust_9="96.69813"></scales>
<clustering>
<clus scale="   91.242">  7  8 -1 -1</clus>
<clus scale="   92.783">  5  6 -1 -1</clus>
<clus scale="   96.698">  2  9  1 -1</clus>
<clus scale="  150.517">  2  7  1 -1</clus>
<clus scale="   96.698">  2  5  1 -1</clus>
</clustering>
</event>
<event>
 9    1  0.1296032E-005  0.1648229E+03  0.7546771E-02  0.1184612E+00
          2   -1    0    0  502    0  0.00000000000E+00  0.00000000000E+00  0.30381581563E+03  0.30381581563E+03  0.00000000000E+00 0. -1.
         -2   -1    0    0    0  501 -0.00000000000E+00 -0.00000000000E+00 -0.14508300029E+03  0.14508300029E+03  0.00000000000E+00 0.  1.
         23    2    1    2    0    0  0.11391820323E+03  0.77353155206E+02 -0.52103260492E+02  0.17289258528E+03  0.90643414770E+02 0.  0.
         23    2    1    2    0    0 -0.92040220502E+02 -0.63716666686E+02  0.19600564162E+03  0.24626498444E+03  0.98473423862E+02 0.  0.
        -13    1    4    4    0    0 -0.11693380640E+02 -0.60301883291E+02  0.48511100997E+02  0.78271190097E+02  0.00000000000E+00 0.  1.
         13    1    4    4    0    0 -0.80346839863E+02 -0.34147833943E+01  0.14749454063E+03  0.16799379434E+03  0.00000000000E+00 0. -1.
        -13    1    3    3    0    0  0.11914574515E+03  0.44775262367E+02 -0.23940998509E+02  0.12951333567E+03  0.00000000000E+00 0.  1.
         13    1    3    3    0    0 -0.52275419147E+01  0.32577892839E+02 -0.28162261982E+02  0.43379249604E+02  0.00000000000E+00 0. -1.
         21    1    1    2  502  501 -0.21877982732E+02 -0.13636488520E+02  0.14830434208E+02  0.29741246214E+02  0.00000000000E+00 0.  1.
<scales pt_clust_5="13000.00000" pt_clust_6="13000.00000" pt_clust_7="13000.00000" pt_clust_8="13000.00000" pt_clust_9="25.77984"></scales>
<clustering>
<clus scale="   25.780">  1  9  2 -1</clus>
<clus scale="   90.643">  7  8 -1 -1</clus>
<clus scale="   98.473">  5  6 -1 -1</clus>
<clus scale="  160.268">  2  7  1 -1</clus>
<clus scale="   25.780">  1  5  2 -1</clus>
</clustering>
</event>
<event>
 9    1  0.1296032E-005  0.9198904E+02  0.7546771E-02  0.1303090E+00
          1   -1    0    0  502    0  0.00000000000E+00  0.00000000000E+00  0.74540992348E+02  0.74540992348E+02  0.00000000000E+00 0. -1.
         -1   -1    0    0    0  501 -0.00000000000E+00 -0.00000000000E+00 -0.18698519423E+03  0.18698519423E+03  0.00000000000E+00 0.  1.
         23    2    1    2    0    0  0.43810976950E+02 -0.22952047699E+02 -0.87836251040E+02  0.12546998432E+03  0.74708177428E+02 0.  0.
         23    2    1    2    0    0 -0.83779409338E+01  0.26016799054E+02 -0.40752928934E+02  0.96997873319E+02  0.83670320212E+02 0.  0.
        -11    1    4    4    0    0 -0.21635091817E+02 -0.25926511201E+02 -0.21528452718E+02  0.40046665996E+02  0.00000000000E+00 0.  1.
         11    1    4    4    0    0  0.13257150883E+02  0.51943310254E+02 -0.19224476216E+02  0.56951207323E+02  0.00000000000E+00 0. -1.
        -13    1    3    3    0    0  0.15978434686E+02 -0.42927135942E+02 -0.21050458233E+02  0.50410030421E+02  0.00000000000E+00 0.  1.
         13    1    3    3    0    0  0.27832542264E+02  0.19975088243E+02 -0.66785792806E+02  0.75059953903E+02  0.00000000000E+00 0. -1.
         21    1    1    2  502  501 -0.35433036016E+02 -0.30647513544E+01  0.16144978087E+02  0.39058328940E+02  0.00000000000E+00 0.  1.
<scales pt_clust_5="13000.00000" pt_clust_6="13000.00000" pt_clust_7="13000.00000" pt_clust_8="13000.00000" pt_clust_9="35.56533"></scales>
<clustering>
<clus scale="   35.565">  1  9  2 -1</clus>
<clus scale="   74.708">  7  8 -1 -1</clus>
<clus scale="   83.670">  5  6 -1 -1</clus>
<clus scale="   83.920">  2  7  1 -1</clus>
<clus scale="   35.565">  1  5  2 -1</clus>
</clustering>
</event>
<event>
 9    1  0.1296032E-005  0.1076201E+03  0.7546771E-02  0.1266599E+00
          1   -1    0    0  502    0  0.00000000000E+00  0.00000000000E+00  0.76250563381E+02  0.76250563381E+02  0.00000000000E+00 0. -1.
         -1   -1    0    0    0  501 -0.00000000000E+00 -0.00000000000E+00 -0.21220635022E+03  0.21220635022E+03  0.00000000000E+00 0.  1.
         23    2    1    2    0    0 -0.20744046618E+02  0.41800940384E+02 -0.91502591330E+02  0.13534592576E+03  0.88137173278E+02 0.  0.
         23    2    1    2    0    0  0.39062546236E+02 -0.62220825835E+02 -0.44130635607E+02  0.12567664449E+03  0.91922751728E+02 0.  0.
        -11    1    3    3    0    0  0.86284258840E+01 -0.18962393712E+02  0.97966710199E+00  0.20856218645E+02  0.00000000000E+00 0. -1.
         11    1    3    3    0    0 -0.29372472502E+02  0.60763334096E+02 -0.92482258432E+02  0.11448970712E+03  0.00000000000E+00 0.  1.
        -13    1    4    4    0    0 -0.15370298959E+02 -0.59188495259E+02 -0.34819777097E+02  0.70370028693E+02  0.00000000000E+00 0.  1.
         13    1    4    4    0    0  0.54432845195E+02 -0.30323305755E+01 -0.93108585094E+01  0.55306615797E+02  0.00000000000E+00 0. -1.
         21    1    1    2  502  501 -0.18318499618E+02  0.20419885451E+02 -0.32255990305E+00  0.27434343349E+02  0.00000000000E+00 0. -1.
<scales pt_clust_5="13000.00000" pt_clust_6="13000.00000" pt_clust_7="13000.00000" pt_clust_8="13000.00000" pt_clust_9="27.43245"></scales>
<clustering>
<clus scale="   27.432">  1  9  2 -1</clus>
<clus scale="   88.137">  5  6 -1 -1</clus>
<clus scale="   91.923">  7  8 -1 -1</clus>
<clus scale="  104.405">  2  5  1 -1</clus>
<clus scale="   27.432">  1  5  2 -1</clus>
</clustering>
</event>
<event>
 9    1  0.1307196E-005  0.1136935E+03  0.7546771E-02  0.1256904E+00
          2   -1    0    0  502    0  0.00000000000E+00  0.00000000000E+00  0.63600537537E+03  0.63600537537E+03  0.00000000000E+00 0. -1.
         -2   -1    0    0    0  501 -0.00000000000E+00 -0.00000000000E+00 -0.70403579826E+02  0.70403579826E+02  0.00000000000E+00 0.  1.
         23    2    1    2    0    0 -0.24891490587E+02 -0.77185276034E+02  0.99046794250E+01  0.12425938126E+03  0.93622315808E+02 0.  0.
         23    2    1    2    0    0  0.16182287131E+02 -0.81818626367E+01  0.26311896772E+03  0.27724734123E+03  0.85473316008E+02 0.  0.
        -11    1    4    4    0    0  0.18803464331E+02  0.36821532291E+02  0.14637658794E+03  0.15210358644E+03  0.00000000000E+00 0. -1.
         11    1    4    4    0    0 -0.26211772005E+01 -0.45003394928E+02  0.11674237979E+03  0.12514375479E+03  0.00000000000E+00 0.  1.
        -13    1    3    3    0    0  0.82622398054E+00 -0.24588243361E+02 -0.40245309671E+02  0.47169368324E+02  0.00000000000E+00 0.  1.
         13    1    3    3    0    0 -0.25717714567E+02 -0.52597032673E+02  0.50149989096E+02  0.77090012939E+02  0.00000000000E+00 0. -1.
         21    1    1    2  502  501  0.87092034561E+01  0.85367138670E+02  0.29257814839E+03  0.30490223270E+03  0.00000000000E+00 0. -1.
<scales pt_clust_5="13000.00000" pt_clust_6="13000.00000" pt_clust_7="13000.00000" pt_clust_8="13000.00000" pt_clust_9="85.81025"></scales>
<clustering>
<clus scale="   85.473">  5  6 -1 -1</clus>
<clus scale="   85.810">  1  9  2 -1</clus>
<clus scale="   93.622">  7  8 -1 -1</clus>
<clus scale="  107.083">  1  5  2 -1</clus>
<clus scale="   85.810">  1  5  2 -1</clus>
</clustering>
</event>
<event>
 9    1  0.1296032E-005  0.1348578E+03  0.7546771E-02  0.1221157E+00
         -1   -1    0    0    0  501 -0.00000000000E+00  0.00000000000E+00  0.21657544125E+03  0.21657544125E+03  0.00000000000E+00 0.  1.
          1   -1    0    0  502    0  0.00000000000E+00 -0.00000000000E+00 -0.22502668789E+03  0.22502668789E+03  0.00000000000E+00 0. -1.
         23    2    1    2    0    0  0.38522657011E+00 -0.10830687566E+03  0.14650168604E+03  0.20489780730E+03  0.93754145028E+02 0.  0.
         23    2    1    2    0    0  0.36345724187E+02  0.49485422853E+02 -0.93399564800E+02  0.14397922734E+03  0.90756379713E+02 0.  0.
        -11    1    3    3    0    0  0.46211556271E+02 -0.60278568285E+02  0.66598751667E+02  0.10101686716E+03  0.00000000000E+00 0.  1.
         11    1    3    3    0    0 -0.45826329701E+02 -0.48028307372E+02  0.79902934374E+02  0.10388094014E+03  0.00000000000E+00 0. -1.
        -13    1    4    4    0    0  0.75920583446E+01  0.70489123499E+02 -0.77337033580E+02  0.10491602663E+03  0.00000000000E+00 0. -1.
         13    1    4    4    0    0  0.28753665842E+02 -0.21003700646E+02 -0.16062531220E+02  0.39063200706E+02  0.00000000000E+00 0.  1.
         21    1    1    2  502  501 -0.36730950757E+02  0.58821452804E+02 -0.61553367882E+02  0.92725094506E+02  0.00000000000E+00 0. -1.
<scales pt_clust_5="13000.00000" pt_clust_6="13000.00000" pt_clust_7="13000.00000" pt_clust_8="13000.00000" pt_clust_9="69.34786"></scales>
<clustering>
<clus scale="   69.348">  2  9  1 -1</clus>
<clus scale="   90.756">  7  8 -1 -1</clus>
<clus scale="   93.754">  5  6 -1 -1</clus>
<clus scale="  132.791">  2  7  1 -1</clus>
<clus scale="   69.348">  2  5  1 -1</clus>
</clustering>
</event>
<event>
 9    1  0.1296032E-005  0.1051286E+03  0.7546771E-02  0.1271945E+00
         -3   -1    0    0    0  501 -0.00000000000E+00  0.00000000000E+00  0.35361498516E+02  0.35361498516E+02  0.00000000000E+00 0.  1.
          3   -1    0    0  502    0  0.00000000000E+00 -0.00000000000E+00 -0.39969630341E+03  0.39969630341E+03  0.00000000000E+00 0. -1.
         23    2    1    2    0    0  0.62462353033E+01 -0.63152662508E+02 -0.16409434498E+03  0.19939352319E+03  0.93827228443E+02 0.  0.
         23    2    1    2    0    0 -0.23898204990E+01  0.35314545041E+02 -0.16058282875E+03  0.18705810188E+03  0.89168717923E+02 0.  0.
        -11    1    4    4    0    0  0.83577220677E+01 -0.18469101417E+02 -0.11190118676E+03  0.11372262231E+03  0.00000000000E+00 0.  1.
         11    1    4    4    0    0 -0.10747542567E+02  0.53783646458E+02 -0.48681641983E+02  0.73335479570E+02  0.00000000000E+00 0. -1.
        -11    1    3    3    0    0  0.33917737222E+02  0.81792498586E+01 -0.35610071473E+02  0.49853688097E+02  0.00000000000E+00 0.  1.
         11    1    3    3    0    0 -0.27671501919E+02 -0.71331912367E+02 -0.12848427351E+03  0.14953983509E+03  0.00000000000E+00 0. -1.
         21    1    1    2  502  501 -0.38564148044E+01  0.27838117467E+02 -0.39657631167E+02  0.48606176861E+02  0.00000000000E+00 0. -1.
<scales pt_clust_5="13000.00000" pt_clust_6="13000.00000" pt_clust_7="13000.00000" pt_clust_8="13000.00000" pt_clust_9="28.10396"></scales>
<clustering>
<clus scale="   28.104">  1  9  2 -1</clus>
<clus scale="   89.169">  5  6 -1 -1</clus>
<clus scale="   93.827">  7  8 -1 -1</clus>
<clus scale="  100.993">  2  5  1 -1</clus>
<clus scale="  100.993">  2  5  1 -1</clus>
</clustering>
</event>
<event>
 9    1  0.1296032E-005  0.1021190E+03  0.7546771E-02  0.1276386E+00
         -1   -1    0    0    0  501 -0.00000000000E+00  0.00000000000E+00  0.33949395702E+02  0.33949395702E+02  0.00000000000E+00 0.  1.
          1   -1    0    0  502    0  0.00000000000E+00 -0.00000000000E+00 -0.38174454517E+03  0.38174454517E+03  0.00000000000E+00 0. -1.
         23    2    1    2    0    0 -0.29979240550E+02  0.10444758886E+02 -0.13217663350E+03  0.16396333163E+03  0.91681316667E+02 0.  0.
         23    2    1    2    0    0  0.52688816865E+02 -0.77800388647E+01 -0.18160722076E+03  0.21074776172E+03  0.92718908580E+02 0.  0.
        -13    1    3    3    0    0 -0.58509136993E+02 -0.10364470967E+02 -0.99271808817E+02  0.11569629811E+03  0.00000000000E+00 0. -1.
         13    1    3    3    0    0  0.28529896444E+02  0.20809229853E+02 -0.32904824679E+02  0.48267033525E+02  0.00000000000E+00 0.  1.
        -13    1    4    4    0    0  0.68720001646E+02 -0.28240036888E+02 -0.16188511530E+03  0.17811998447E+03  0.00000000000E+00 0. -1.
         13    1    4    4    0    0 -0.16031184781E+02  0.20459998023E+02 -0.19722105462E+02  0.32627777252E+02  0.00000000000E+00 0.  1.
         21    1    1    2  502  501 -0.22709576316E+02 -0.26647200211E+01 -0.34011295208E+02  0.40982847521E+02  0.00000000000E+00 0.  1.
<scales pt_clust_5="13000.00000" pt_clust_6="13000.00000" pt_clust_7="13000.00000" pt_clust_8="13000.00000" pt_clust_9="22.86538"></scales>
<clustering>
<clus scale="   22.865">  1  9  2 -1</clus>
<clus scale="   91.681">  5  6 -1 -1</clus>
<clus scale="   92.719">  7  8 -1 -1</clus>
<clus scale="  101.178">  1  5  2 -1</clus>
<clus scale="  102.119">  2  5  1 -1</clus>
</clustering>
</event>
<event>
 9    1  0.1296032E-005  0.1299144E+03  0.7546771E-02  0.1228760E+00
          1   -1    0    0  502    0  0.00000000000E+00  0.00000000000E+00  0.20824891658E+03  0.20824891658E+03  0.00000000000E+00 0. -1.
         -1   -1    0    0    0  501 -0.00000000000E+00 -0.00000000000E+00 -0.10916933322E+03  0.10916933322E+03  0.00000000000E+00 0.  1.
         23    2    1    2    0    0  0.42498369289E+02  0.84808274879E+02 -0.67963342398E+01  0.13201631436E+03  0.91561794531E+02 0.  0.
         23    2    1    2    0    0 -0.26776727350E+02 -0.71662247665E+02  0.62978395619E+02  0.13786052771E+03  0.95847670378E+02 0.  0.
        -11    1    4    4    0    0  0.17300204060E+02 -0.60135823186E+02  0.67541839707E+02  0.92073418541E+02  0.00000000000E+00 0. -1.
         11    1    4    4    0    0 -0.44076931410E+02 -0.11526424479E+02 -0.45634440885E+01  0.45787109165E+02  0.00000000000E+00 0.  1.
        -13    1    3    3    0    0 -0.41399683937E+01  0.81450215134E+02 -0.18898746554E+02  0.83716423149E+02  0.00000000000E+00 0.  1.
         13    1    3    3    0    0  0.46638337683E+02  0.33580597452E+01  0.12102412314E+02  0.48299891210E+02  0.00000000000E+00 0. -1.
         21    1    1    2  502  501 -0.15721641939E+02 -0.13146027214E+02  0.42897521987E+02  0.47541407735E+02  0.00000000000E+00 0. -1.
<scales pt_clust_5="13000.00000" pt_clust_6="13000.00000" pt_clust_7="13000.00000" pt_clust_8="13000.00000" pt_clust_9="20.49361"></scales>
<clustering>
<clus scale="   20.494">  1  9  2 -1</clus>
<clus scale="   91.562">  7  8 -1 -1</clus>
<clus scale="   95.848">  5  6 -1 -1</clus>
<clus scale="  126.785">  2  7  1 -1</clus>
<clus scale="   20.494">  1  5  2 -1</clus>
</clustering>
</event>
<event>
 9    1  0.1296032E-005  0.1729569E+03  0.7546771E-02  0.1176538E+00
          2   -1    0    0  502    0  0.00000000000E+00  0.00000000000E+00  0.19301100110E+03  0.19301100110E+03  0.00000000000E+00 0. -1.
         -2   -1    0    0    0  501 -0.00000000000E+00 -0.00000000000E+00 -0.43679521051E+03  0.43679521051E+03  0.00000000000E+00 0.  1.
         23    2    1    2    0    0  0.75001736021E+02 -0.12461820084E+03 -0.28934366593E+03  0.33972542820E+03  0.10265794251E+03 0.  0.
         23    2    1    2    0    0 -0.51922117352E+02  0.11622760208E+03 -0.70391943428E+02  0.17155737603E+03  0.90951337626E+02 0.  0.
        -11    1    3    3    0    0  0.50604293672E+02 -0.11814312102E+03 -0.14744061926E+03  0.19559480512E+03  0.00000000000E+00 0.  1.
         11    1    3    3    0    0  0.24397442349E+02 -0.64750798124E+01 -0.14190304668E+03  0.14413062308E+03  0.00000000000E+00 0. -1.
        -13    1    4    4    0    0 -0.56631641461E+02  0.20031855472E+02 -0.24552491447E+02  0.64894089750E+02  0.00000000000E+00 0.  1.
         13    1    4    4    0    0  0.47095241083E+01  0.96195746607E+02 -0.45839451980E+02  0.10666328628E+03  0.00000000000E+00 0. -1.
         21    1    1    2  502  501 -0.23079618669E+02  0.83905987558E+01  0.11595139995E+03  0.11852340737E+03  0.00000000000E+00 0. -1.
<scales pt_clust_5="13000.00000" pt_clust_6="13000.00000" pt_clust_7="13000.00000" pt_clust_8="13000.00000" pt_clust_9="24.55750"></scales>
<clustering>
<clus scale="   24.558">  1  9  2 -1</clus>
<clus scale="   90.951">  7  8 -1 -1</clus>
<clus scale="  102.658">  5  6 -1 -1</clus>
<clus scale="  166.276">  1  7  2 -1</clus>
<clus scale="   24.558">  1  5  2 -1</clus>
</clustering>
</event>
<event>
 9    1  0.1296032E-005  0.1224270E+03  0.7546771E-02  0.1241000E+00
          2   -1    0    0  502    0  0.00000000000E+00  0.00000000000E+00  0.37176354447E+03  0.37176354447E+03  0.00000000000E+00 0. -1.
         -2   -1    0    0    0  501 -0.00000000000E+00 -0.00000000000E+00 -0.10371787924E+03  0.10371787924E+03  0.00000000000E+00 0.  1.
         23    2    1    2    0    0  0.81925827561E+02  0.18989011690E+02 -0.26483875247E+02  0.12535819796E+03  0.89111493996E+02 0.  0.
         23    2    1    2    0    0 -0.59998905638E+02  0.41469128381E+02  0.15019762469E+03  0.19211158529E+03  0.95015669515E+02 0.  0.
        -11    1    3    3    0    0  0.48804412700E+02  0.55045897521E+02 -0.16290979501E+02  0.75347976390E+02  0.00000000000E+00 0.  1.
         11    1    3    3    0    0  0.33121414861E+02 -0.36056885831E+02 -0.10192895746E+02  0.50010221575E+02  0.00000000000E+00 0. -1.
        -13    1    4    4    0    0 -0.85925044779E+02  0.28991080976E+02  0.11985858696E+03  0.15029862596E+03  0.00000000000E+00 0. -1.
         13    1    4    4    0    0  0.25926139140E+02  0.12478047405E+02  0.30339037728E+02  0.41812959331E+02  0.00000000000E+00 0.  1.
         21    1    1    2  502  501 -0.21926921923E+02 -0.60458140071E+02  0.14433191579E+03  0.15801164046E+03  0.00000000000E+00 0. -1.
<scales pt_clust_5="13000.00000" pt_clust_6="13000.00000" pt_clust_7="13000.00000" pt_clust_8="13000.00000" pt_clust_9="64.31156"></scales>
<clustering>
<clus scale="   64.312">  1  9  2 -1</clus>
<clus scale="   89.111">  5  6 -1 -1</clus>
<clus scale="   95.016">  7  8 -1 -1</clus>
<clus scale="  117.904">  2  5  1 -1</clus>
<clus scale="   64.312">  1  5  2 -1</clus>
</clustering>
</event>
<event>
 9    1  0.4533410E-005  0.1018305E+03  0.7546771E-02  0.1277048E+00
          2   -1    0    0  502    0  0.00000000000E+00  0.00000000000E+00  0.26608337633E+03  0.26608337633E+03  0.00000000000E+00 0. -1.
         -2   -1    0    0    0  501 -0.00000000000E+00 -0.00000000000E+00 -0.15803635360E+03  0.15803635360E+03  0.00000000000E+00 0.  1.
         23    2    1    2    0    0  0.27043693890E+02  0.35352593620E+02 -0.12665917560E+03  0.16294713160E+03  0.92347461679E+02 0.  0.
         23    2    1    2    0    0 -0.18000650448E+02 -0.17508218543E+02  0.19399995365E+03  0.21581626786E+03  0.91159850401E+02 0.  0.
        -11    1    4    4    0    0 -0.52926089335E+02  0.46685515106E+01  0.10550234346E+03  0.11812582606E+03  0.00000000000E+00 0.  1.
         11    1    4    4    0    0  0.34925438887E+02 -0.22176770054E+02  0.88497610184E+02  0.97690441803E+02  0.00000000000E+00 0. -1.
        -11    1    3    3    0    0  0.24719703696E+02  0.59954986387E+02 -0.12146805017E+03  0.13769586543E+03  0.00000000000E+00 0.  1.
         11    1    3    3    0    0  0.23239901936E+01 -0.24602392766E+02 -0.51911254315E+01  0.25251266176E+02  0.00000000000E+00 0. -1.
         21    1    1    2  502  501 -0.90430434410E+01 -0.17844375077E+02  0.40706244685E+02  0.45356330461E+02  0.00000000000E+00 0.  1.
<scales pt_clust_5="13000.00000" pt_clust_6="13000.00000" pt_clust_7="13000.00000" pt_clust_8="13000.00000" pt_clust_9="20.00496"></scales>
<clustering>
<clus scale="   20.005">  1  9  2 -1</clus>
<clus scale="   91.160">  5  6 -1 -1</clus>
<clus scale="   92.347">  7  8 -1 -1</clus>
<clus scale="  100.755">  1  5  2 -1</clus>
<clus scale="   20.005">  1  5  2 -1</clus>
</clustering>
</event>
<event>
 9    1  0.1296032E-005  0.9532604E+02  0.7546771E-02  0.1292002E+00
          1   -1    0    0  502    0  0.00000000000E+00  0.00000000000E+00  0.58108776860E+02  0.58108776860E+02  0.00000000000E+00 0. -1.
         -1   -1    0    0    0  501 -0.00000000000E+00 -0.00000000000E+00 -0.20421087507E+03  0.20421087507E+03  0.00000000000E+00 0.  1.
         23    2    1    2    0    0 -0.33855060664E+02 -0.64650391040E+01 -0.90887761744E+02  0.13121052171E+03  0.88134294743E+02 0.  0.
         23    2    1    2    0    0  0.14328561287E+02  0.19784966550E+02 -0.50852716477E+02  0.10707314940E+03  0.91004988759E+02 0.  0.
        -13    1    3    3    0    0 -0.15355310009E+01 -0.42079796078E+02 -0.22899774762E+02  0.47931897288E+02  0.00000000000E+00 0.  1.
         13    1    3    3    0    0 -0.32319529663E+02  0.35614756974E+02 -0.67987986982E+02  0.83278624424E+02  0.00000000000E+00 0. -1.
        -13    1    4    4    0    0  0.47911953393E+02  0.31403840576E+02 -0.40165345724E+02  0.69964358626E+02  0.00000000000E+00 0.  1.
         13    1    4    4    0    0 -0.33583392106E+02 -0.11618874026E+02 -0.10687370753E+02  0.37108790772E+02  0.00000000000E+00 0. -1.
         21    1    1    2  502  501  0.19526499376E+02 -0.13319927446E+02 -0.43616199895E+01  0.24035980820E+02  0.00000000000E+00 0. -1.
<scales pt_clust_5="13000.00000" pt_clust_6="13000.00000" pt_clust_7="13000.00000" pt_clust_8="13000.00000" pt_clust_9="23.63693"></scales>
<clustering>
<clus scale="   23.637">  1  9  2 -1</clus>
<clus scale="   88.134">  5  6 -1 -1</clus>
<clus scale="   91.005">  7  8 -1 -1</clus>
<clus scale="   92.589">  2  5  1 -1</clus>
<clus scale="   23.637">  1  5  2 -1</clus>
</clustering>
</event>
<event>
 9    1  0.1296032E-005  0.2530207E+03  0.7546771E-02  0.1111470E+00
          1   -1    0    0  502    0  0.00000000000E+00  0.00000000000E+00  0.59004384827E+03  0.59004384827E+03  0.00000000000E+00 0. -1.
         -1   -1    0    0    0  501 -0.00000000000E+00 -0.00000000000E+00 -0.41952073810E+03  0.41952073810E+03  0.00000000000E+00 0.  1.
         23    2    1    2    0    0 -0.20775579449E+03  0.60672249297E+02 -0.14102870664E+03  0.27392596048E+03  0.91119392833E+02 0.  0.
         23    2    1    2    0    0  0.26470125016E+03 -0.27697577698E+02 -0.11532783277E+03  0.30371693263E+03  0.90053087178E+02 0.  0.
        -11    1    4    4    0    0  0.12399288474E+03 -0.57594383084E+02 -0.64330501163E+02  0.15109520776E+03  0.00000000000E+00 0. -1.
         11    1    4    4    0    0  0.14070836542E+03  0.29896805386E+02 -0.50997331606E+02  0.15262172487E+03  0.00000000000E+00 0.  1.
        -11    1    3    3    0    0 -0.18046434459E+03  0.82202700295E+02 -0.13128519184E+03  0.23782444198E+03  0.00000000000E+00 0. -1.
         11    1    3    3    0    0 -0.27291449896E+02 -0.21530450998E+02 -0.97435147996E+01  0.36101518504E+02  0.00000000000E+00 0.  1.
         21    1    1    2  502  501 -0.56945455669E+02 -0.32974671599E+02  0.42687964957E+03  0.43192169326E+03  0.00000000000E+00 0. -1.
<scales pt_clust_5="13000.00000" pt_clust_6="13000.00000" pt_clust_7="13000.00000" pt_clust_8="13000.00000" pt_clust_9="65.80360"></scales>
<clustering>
<clus scale="   65.804">  1  9  2 -1</clus>
<clus scale="   90.053">  5  6 -1 -1</clus>
<clus scale="   91.119">  7  8 -1 -1</clus>
<clus scale="  252.639">  1  5  2 -1</clus>
<clus scale="   65.804">  1  5  2 -1</clus>
</clustering>
</event>
<event>
 9    1  0.1296032E-005  0.9829243E+02  0.7546771E-02  0.1284750E+00
          1   -1    0    0  502    0  0.00000000000E+00  0.00000000000E+00  0.20337098026E+03  0.20337098026E+03  0.00000000000E+00 0. -1.
         -1   -1    0    0    0  501 -0.00000000000E+00 -0.00000000000E+00 -0.37089963707E+03  0.37089963707E+03  0.00000000000E+00 0.  1.
         23    2    1    2    0    0  0.65238298647E+01 -0.30564538855E+02 -0.18456566167E+03  0.20876373941E+03  0.92417877237E+02 0.  0.
         23    2    1    2    0    0 -0.33594885421E+02  0.24139251582E+02 -0.15876408954E+03  0.18751768961E+03  0.90804889723E+02 0.  0.
        -11    1    3    3    0    0 -0.26671640008E+02 -0.51215273982E+02 -0.97364002243E+02  0.11319951238E+03  0.00000000000E+00 0.  1.
         11    1    3    3    0    0  0.33195469872E+02  0.20650735127E+02 -0.87201659428E+02  0.95564227033E+02  0.00000000000E+00 0. -1.
        -13    1    4    4    0    0 -0.24069760705E+02  0.50592120943E+02 -0.49717549215E+02  0.74904944976E+02  0.00000000000E+00 0. -1.
         13    1    4    4    0    0 -0.95251247158E+01 -0.26452869361E+02 -0.10904654032E+03  0.11261274464E+03  0.00000000000E+00 0.  1.
         21    1    1    2  502  501  0.27071055556E+02  0.64252872735E+01  0.17580109440E+03  0.17798918831E+03  0.00000000000E+00 0. -1.
<scales pt_clust_5="13000.00000" pt_clust_6="13000.00000" pt_clust_7="13000.00000" pt_clust_8="13000.00000" pt_clust_9="27.82313"></scales>
<clustering>
<clus scale="   27.823">  1  9  2 -1</clus>
<clus scale="   90.805">  7  8 -1 -1</clus>
<clus scale="   92.418">  5  6 -1 -1</clus>
<clus scale="   96.777">  1  7  2 -1</clus>
<clus scale="   27.823">  1  5  2 -1</clus>
</clustering>
</event>
<event>
 9    1  0.1296032E-005  0.9671255E+02  0.7546771E-02  0.1287629E+00
          1   -1    0    0  502    0  0.00000000000E+00  0.00000000000E+00  0.13528948902E+03  0.13528948902E+03  0.00000000000E+00 0. -1.
         -1   -1    0    0    0  501 -0.00000000000E+00 -0.00000000000E+00 -0.13107062400E+03  0.13107062400E+03  0.00000000000E+00 0.  1.
         23    2    1    2    0    0  0.19153563245E+02 -0.35963212400E+02 -0.61198074516E+02  0.11663599912E+03  0.90545791369E+02 0.  0.
         23    2    1    2    0    0  0.72895152600E+01  0.24668569831E+02  0.19654298412E+02  0.95677609168E+02  0.90034649329E+02 0.  0.
        -11    1    4    4    0    0 -0.15794670469E+02  0.53220627448E+02  0.36803126230E+01  0.55636781918E+02  0.00000000000E+00 0. -1.
         11    1    4    4    0    0  0.23084185729E+02 -0.28552057616E+02  0.15973985789E+02  0.40040827250E+02  0.00000000000E+00 0.  1.
        -11    1    3    3    0    0  0.50627698811E+02 -0.19243890593E+01 -0.19516565152E+02  0.54293309675E+02  0.00000000000E+00 0.  1.
         11    1    3    3    0    0 -0.31474135566E+02 -0.34038823340E+02 -0.41681509364E+02  0.62342689442E+02  0.00000000000E+00 0. -1.
         21    1    1    2  502  501 -0.26443078505E+02  0.11294642568E+02  0.45762641120E+02  0.54046504733E+02  0.00000000000E+00 0.  1.
<scales pt_clust_5="13000.00000" pt_clust_6="13000.00000" pt_clust_7="13000.00000" pt_clust_8="13000.00000" pt_clust_9="28.75422"></scales>
<clustering>
<clus scale="   28.754">  1  9  2 -1</clus>
<clus scale="   90.035">  5  6 -1 -1</clus>
<clus scale="   90.546">  7  8 -1 -1</clus>
<clus scale="   96.234">  1  5  2 -1</clus>
<clus scale="   28.754">  1  5  2 -1</clus>
</clustering>
</event>
<event>
 9    1  0.1296032E-005  0.1431171E+03  0.7546771E-02  0.1218340E+00
         -1   -1    0    0    0  501 -0.00000000000E+00  0.00000000000E+00  0.13090948395E+03  0.13090948395E+03  0.00000000000E+00 0.  1.
          1   -1    0    0  502    0  0.00000000000E+00 -0.00000000000E+00 -0.26339184386E+03  0.26339184386E+03  0.00000000000E+00 0. -1.
         23    2    1    2    0    0 -0.45596638448E+02 -0.53301341120E+02  0.49864849545E+02  0.14973758265E+03  0.12253470542E+03 0.  0.
         23    2    1    2    0    0  0.32870673167E+02  0.84605047945E+02 -0.14772753037E+03  0.19618612189E+03  0.91799106202E+02 0.  0.
        -11    1    4    4    0    0  0.59695288114E+02  0.82944080965E+02 -0.11531867863E+03  0.15408324254E+03  0.00000000000E+00 0. -1.
         11    1    4    4    0    0 -0.26824614947E+02  0.16609669796E+01 -0.32408851734E+02  0.42102879344E+02  0.00000000000E+00 0.  1.
        -13    1    3    3    0    0 -0.59651098995E+01 -0.68390411308E+02 -0.16848082822E+02  0.70687260449E+02  0.00000000000E+00 0. -1.
         13    1    3    3    0    0 -0.39631528549E+02  0.15089070189E+02  0.66712932367E+02  0.79050322196E+02  0.00000000000E+00 0.  1.
         21    1    1    2  502  501  0.12725965281E+02 -0.31303706825E+02 -0.34619679095E+02  0.48377623278E+02  0.00000000000E+00 0. -1.
<scales pt_clust_5="13000.00000" pt_clust_6="13000.00000" pt_clust_7="13000.00000" pt_clust_8="13000.00000" pt_clust_9="33.79160"></scales>
<clustering>
<clus scale="   33.792">  2  9  1 -1</clus>
<clus scale="   91.799">  5  6 -1 -1</clus>
<clus scale="  117.876">  2  5  1 -1</clus>
<clus scale="  122.535">  7  8 -1 -1</clus>
<clus scale="   33.792">  2  5  1 -1</clus>
</clustering>
</event>
<event>
 9    1  0.1296032E-005  0.2127220E+03  0.7546771E-02  0.1139658E+00
         -2   -1    0    0    0  501 -0.00000000000E+00  0.00000000000E+00  0.34794665106E+03  0.34794665106E+03  0.00000000000E+00 0.  1.
          2   -1    0    0  502    0  0.00000000000E+00 -0.00000000000E+00 -0.35661945890E+03  0.35661945890E+03  0.00000000000E+00 0. -1.
         23    2    1    2    0    0 -0.19180029298E+03  0.21856534496E+02  0.26397722793E+03  0.33874421088E+03  0.88309699646E+02 0.  0.
         23    2    1    2    0    0  0.18790878468E+03 -0.15447753344E+01 -0.19589392410E+03  0.28632842716E+03  0.91090290432E+02 0.  0.
        -13    1    4    4    0    0  0.81316927095E+01  0.25106079972E+02 -0.17515187684E+02  0.31673671676E+02  0.00000000000E+00 0.  1.
         13    1    4    4    0    0  0.17977709197E+03 -0.26650855306E+02 -0.17837873641E+03  0.25465475549E+03  0.00000000000E+00 0. -1.
        -13    1    3    3    0    0 -0.59787885641E+02  0.48587091831E+02  0.84513722501E+02  0.11435849795E+03  0.00000000000E+00 0. -1.
         13    1    3    3    0    0 -0.13201240734E+03 -0.26730557335E+02  0.17946350543E+03  0.22438571294E+03  0.00000000000E+00 0.  1.
         21    1    1    2  502  501  0.38915082984E+01 -0.20311759161E+02 -0.76756111675E+02  0.79493471911E+02  0.00000000000E+00 0. -1.
<scales pt_clust_5="13000.00000" pt_clust_6="13000.00000" pt_clust_7="13000.00000" pt_clust_8="13000.00000" pt_clust_9="20.68118"></scales>
<clustering>
<clus scale="   20.681">  2  9  1 -1</clus>
<clus scale="   88.310">  7  8 -1 -1</clus>
<clus scale="   91.090">  5  6 -1 -1</clus>
<clus scale="  211.546">  1  7  2 -1</clus>
<clus scale="   20.681">  2  5  1 -1</clus>
</clustering>
</event>
<event>
 9    1  0.1296032E-005  0.1000988E+03  0.7546771E-02  0.1280151E+00
          3   -1    0    0  502    0  0.00000000000E+00  0.00000000000E+00  0.47442199339E+03  0.47442199339E+03  0.00000000000E+00 0. -1.
         -3   -1    0    0    0  501 -0.00000000000E+00 -0.00000000000E+00 -0.57666742179E+02  0.57666742179E+02  0.00000000000E+00 0.  1.
         23    2    1    2    0    0  0.30534972466E+02  0.16962003688E+02  0.16842914969E+02  0.99335834016E+02  0.91453977619E+02 0.  0.
         23    2    1    2    0    0 -0.54473416262E+02 -0.53137030058E+02  0.32670108398E+03  0.34765549218E+03  0.91322756893E+02 0.  0.
        -13    1    3    3    0    0 -0.22587399500E+01 -0.32737510138E+02  0.22095431882E+02  0.39560770800E+02  0.00000000000E+00 0. -1.
         13    1    3    3    0    0  0.32793712416E+02  0.49699513826E+02 -0.52525169125E+01  0.59775063216E+02  0.00000000000E+00 0.  1.
        -13    1    4    4    0    0 -0.37336876626E+02  0.11365203570E+02  0.52314046541E+02  0.65268443170E+02  0.00000000000E+00 0.  1.
         13    1    4    4    0    0 -0.17136539636E+02 -0.64502233628E+02  0.27438703744E+03  0.28238704901E+03  0.00000000000E+00 0. -1.
         21    1    1    2  502  501  0.23938443796E+02  0.36175026370E+02  0.73211252257E+02  0.85097409369E+02  0.00000000000E+00 0.  1.
<scales pt_clust_5="13000.00000" pt_clust_6="13000.00000" pt_clust_7="13000.00000" pt_clust_8="13000.00000" pt_clust_9="43.37835"></scales>
<clustering>
<clus scale="   43.378">  1  9  2 -1</clus>
<clus scale="   91.323">  7  8 -1 -1</clus>
<clus scale="   91.454">  5  6 -1 -1</clus>
<clus scale="   99.979">  1  7  2 -1</clus>
<clus scale="   43.378">  1  5  2 -1</clus>
</clustering>
</event>
<event>
 9    1  0.1296032E-005  0.9996890E+02  0.7546771E-02  0.1281062E+00
          2   -1    0    0  502    0  0.00000000000E+00  0.00000000000E+00  0.71271272735E+02  0.71271272735E+02  0.00000000000E+00 0. -1.
         -2   -1    0    0    0  501 -0.00000000000E+00 -0.00000000000E+00 -0.19750796873E+03  0.19750796873E+03  0.00000000000E+00 0.  1.
         23    2    1    2    0    0  0.17300101570E+02  0.45912885941E+02 -0.60040502748E+02  0.12038320414E+03  0.92086737699E+02 0.  0.
         23    2    1    2    0    0  0.11447665227E+02 -0.26379493695E+02 -0.44919893305E+02  0.10764473737E+03  0.93502224266E+02 0.  0.
        -11    1    3    3    0    0  0.24358253450E+02 -0.13163369944E+02  0.91217508755E+01  0.29151417778E+02  0.00000000000E+00 0.  1.
         11    1    3    3    0    0 -0.70581518800E+01  0.59076255884E+02 -0.69162253624E+02  0.91231786366E+02  0.00000000000E+00 0. -1.
        -13    1    4    4    0    0 -0.37710490846E+02 -0.30281104631E+02 -0.19282282446E+02  0.52065658873E+02  0.00000000000E+00 0. -1.
         13    1    4    4    0    0  0.49158156073E+02  0.39016109353E+01 -0.25637610859E+02  0.55579078500E+02  0.00000000000E+00 0.  1.
         21    1    1    2  502  501 -0.28747766797E+02 -0.19533392245E+02 -0.21276299944E+02  0.40751299951E+02  0.00000000000E+00 0.  1.
<scales pt_clust_5="13000.00000" pt_clust_6="13000.00000" pt_clust_7="13000.00000" pt_clust_8="13000.00000" pt_clust_9="34.75611"></scales>
<clustering>
<clus scale="   34.756">  2  9  1 -1</clus>
<clus scale="   92.087">  5  6 -1 -1</clus>
<clus scale="   93.502">  7  8 -1 -1</clus>
<clus scale="   98.646">  2  5  1 -1</clus>
<clus scale="   99.969">  1  5  2 -1</clus>
</clustering>
</event>
<event>
 9    1  0.1296032E-005  0.9047660E+02  0.7546771E-02  0.1302999E+00
         -1   -1    0    0    0  501 -0.00000000000E+00  0.00000000000E+00  0.82698190431E+02  0.82698190431E+02  0.00000000000E+00 0.  1.
          1   -1    0    0  502    0  0.00000000000E+00 -0.00000000000E+00 -0.26536219046E+03  0.26536219046E+03  0.00000000000E+00 0. -1.
         23    2    1    2    0    0  0.20740653611E+01  0.30654250182E+01  0.31386217065E+02  0.93384677361E+02  0.87874369224E+02 0.  0.
         23    2    1    2    0    0 -0.62381904049E+01 -0.30615238243E+02 -0.10355621773E+03  0.14072283590E+03  0.90015656863E+02 0.  0.
        -13    1    4    4    0    0 -0.25784044487E+02  0.86601156294E+01 -0.91165273744E+02  0.95136332122E+02  0.00000000000E+00 0. -1.
         13    1    4    4    0    0  0.19545854082E+02 -0.39275353872E+02 -0.12390943984E+02  0.45586503774E+02  0.00000000000E+00 0.  1.
        -13    1    3    3    0    0 -0.31574525072E+02  0.24420304445E+02 -0.39643095436E+01  0.40112562282E+02  0.00000000000E+00 0. -1.
         13    1    3    3    0    0  0.33648590433E+02 -0.21354879426E+02  0.35350526608E+02  0.53272115079E+02  0.00000000000E+00 0.  1.
         21    1    1    2  502  501  0.41641250438E+01  0.27549813225E+02 -0.11049399937E+03  0.11395286763E+03  0.00000000000E+00 0. -1.
<scales pt_clust_5="13000.00000" pt_clust_6="13000.00000" pt_clust_7="13000.00000" pt_clust_8="13000.00000" pt_clust_9="27.86274"></scales>
<clustering>
<clus scale="   27.863">  2  9  1 -1</clus>
<clus scale="   87.874">  7  8 -1 -1</clus>
<clus scale="   88.346">  1  7  2 -1</clus>
<clus scale="   90.016">  5  6 -1 -1</clus>
<clus scale="   27.863">  2  5  1 -1</clus>
</clustering>
</event>
<event>
 9    1  0.1296032E-005  0.9831392E+02  0.7546771E-02  0.1287205E+00
         -1   -1    0    0    0  501 -0.00000000000E+00  0.00000000000E+00  0.29455261368E+03  0.29455261368E+03  0.00000000000E+00 0.  1.
          1   -1    0    0  502    0  0.00000000000E+00 -0.00000000000E+00 -0.11077423498E+03  0.11077423498E+03  0.00000000000E+00 0. -1.
         23    2    1    2    0    0  0.43851224131E+01 -0.29493002562E+02  0.22805943057E+03  0.24556428941E+03  0.86032841770E+02 0.  0.
         23    2    1    2    0    0 -0.17265278324E+02  0.65628998635E+02 -0.38621954732E+02  0.12098454990E+03  0.92414017500E+02 0.  0.
        -11    1    4    4    0    0 -0.20780064926E+01 -0.23377659503E+02 -0.14261210497E+02  0.27462978711E+02  0.00000000000E+00 0. -1.
         11    1    4    4    0    0 -0.15187271832E+02  0.89006658138E+02 -0.24360744236E+02  0.93521571193E+02  0.00000000000E+00 0.  1.
        -11    1    3    3    0    0 -0.37877250335E+02 -0.27586228089E+02  0.14446766516E+03  0.15187689867E+03  0.00000000000E+00 0. -1.
         11    1    3    3    0    0  0.42262372748E+02 -0.19067744727E+01  0.83591765410E+02  0.93687390739E+02  0.00000000000E+00 0.  1.
         21    1    1    2  502  501  0.12880155911E+02 -0.36135996073E+02 -0.56590971455E+01  0.38778009348E+02  0.00000000000E+00 0. -1.
<scales pt_clust_5="13000.00000" pt_clust_6="13000.00000" pt_clust_7="13000.00000" pt_clust_8="13000.00000" pt_clust_9="38.36285"></scales>
<clustering>
<clus scale="   38.363">  2  9  1 -1</clus>
<clus scale="   86.033">  7  8 -1 -1</clus>
<clus scale="   92.341">  1  7  2 -1</clus>
<clus scale="   92.414">  5  6 -1 -1</clus>
<clus scale="   38.363">  2  5  1 -1</clus>
</clustering>
</event>
<event>
 9    1  0.1296032E-005  0.1024673E+03  0.7546771E-02  0.1276252E+00
         -2   -1    0    0    0  501 -0.00000000000E+00  0.00000000000E+00  0.19838788479E+03  0.19838788479E+03  0.00000000000E+00 0.  1.
          2   -1    0    0  502    0  0.00000000000E+00 -0.00000000000E+00 -0.12239244867E+03  0.12239244867E+03  0.00000000000E+00 0. -1.
         23    2    1    2    0    0  0.26223461907E+02 -0.48164117419E+02  0.96348987801E+02  0.14531945119E+03  0.93952984425E+02 0.  0.
         23    2    1    2    0    0  0.40422160492E+02  0.21706028981E+02 -0.13674586300E+02  0.10344506452E+03  0.91699423717E+02 0.  0.
        -11    1    4    4    0    0 -0.17977085290E+02  0.18848635173E+02 -0.32839503247E+02  0.41915147821E+02  0.00000000000E+00 0.  1.
         11    1    4    4    0    0  0.58399245782E+02  0.28573938087E+01  0.19164916947E+02  0.61529916698E+02  0.00000000000E+00 0. -1.
        -13    1    3    3    0    0 -0.16436637657E+02 -0.50046937992E+02  0.17248658479E+02  0.55429011168E+02  0.00000000000E+00 0. -1.
         13    1    3    3    0    0  0.42660099564E+02  0.18828205730E+01  0.79100329323E+02  0.89890440020E+02  0.00000000000E+00 0.  1.
         21    1    1    2  502  501 -0.66645622399E+02  0.26458088437E+02 -0.66789653795E+01  0.72015817757E+02  0.00000000000E+00 0. -1.
<scales pt_clust_5="13000.00000" pt_clust_6="13000.00000" pt_clust_7="13000.00000" pt_clust_8="13000.00000" pt_clust_9="71.70544"></scales>
<clustering>
<clus scale="   71.705">  2  9  1 -1</clus>
<clus scale="   91.699">  5  6 -1 -1</clus>
<clus scale="   93.953">  7  8 -1 -1</clus>
<clus scale="  100.405">  2  5  1 -1</clus>
<clus scale="   71.705">  2  5  1 -1</clus>
</clustering>
</event>
<event>
 9    1  0.1296032E-005  0.1299036E+03  0.7546771E-02  0.1227695E+00
         -1   -1    0    0    0  501 -0.00000000000E+00  0.00000000000E+00  0.16913231764E+03  0.16913231764E+03  0.00000000000E+00 0.  1.
          1   -1    0    0  502    0  0.00000000000E+00 -0.00000000000E+00 -0.19263524943E+03  0.19263524943E+03  0.00000000000E+00 0. -1.
         23    2    1    2    0    0 -0.33552207108E+02 -0.10433384906E+03  0.85255251916E+01  0.14331339583E+03  0.91949672015E+02 0.  0.
         23    2    1    2    0    0 -0.48494390209E+02  0.77878259880E+02 -0.14012942471E+02  0.13038544186E+03  0.91582048724E+02 0.  0.
        -11    1    4    4    0    0  0.72509383740E+01  0.33513099091E+02  0.30906743336E+02  0.46162004957E+02  0.00000000000E+00 0.  1.
         11    1    4    4    0    0 -0.55745328583E+02  0.44365160790E+02 -0.44919685807E+02  0.84223436903E+02  0.00000000000E+00 0. -1.
        -13    1    3    3    0    0 -0.64107832258E+02 -0.54953761620E+02  0.11229737391E+02  0.85181201417E+02  0.00000000000E+00 0. -1.
         13    1    3    3    0    0  0.30555625149E+02 -0.49380087444E+02 -0.27042121995E+01  0.58132194418E+02  0.00000000000E+00 0.  1.
         21    1    1    2  502  501  0.82046597318E+02  0.26455589183E+02 -0.18015514506E+02  0.88068729373E+02  0.00000000000E+00 0.  1.
<scales pt_clust_5="13000.00000" pt_clust_6="13000.00000" pt_clust_7="13000.00000" pt_clust_8="13000.00000" pt_clust_9="86.20639"></scales>
<clustering>
<clus scale="   86.206">  2  9  1 -1</clus>
<clus scale="   91.582">  5  6 -1 -1</clus>
<clus scale="   91.950">  7  8 -1 -1</clus>
<clus scale="  129.644">  2  5  1 -1</clus>
<clus scale="   86.206">  2  5  1 -1</clus>
</clustering>
</event>
<event>
 9    1  0.1296032E-005  0.1015488E+03  0.7546771E-02  0.1277716E+00
          1   -1    0    0  502    0  0.00000000000E+00  0.00000000000E+00  0.32930111479E+03  0.32930111479E+03  0.00000000000E+00 0. -1.
         -1   -1    0    0    0  501 -0.00000000000E+00 -0.00000000000E+00 -0.10708625564E+03  0.10708625564E+03  0.00000000000E+00 0.  1.
         23    2    1    2    0    0 -0.47972925544E+02 -0.54187944000E+02  0.37541460583E+01  0.11554345030E+03  0.89991446455E+02 0.  0.
         23    2    1    2    0    0 -0.39177948025E+02  0.32279832874E+02  0.24917256337E+02  0.10745622192E+03  0.91373249607E+02 0.  0.
        -11    1    3    3    0    0  0.10970891291E+02 -0.33001752566E+02  0.31606698201E+02  0.46994249641E+02  0.00000000000E+00 0.  1.
         11    1    3    3    0    0 -0.58943816835E+02 -0.21186191434E+02 -0.27852552143E+02  0.68549200662E+02  0.00000000000E+00 0. -1.
        -11    1    4    4    0    0  0.62143810488E+01 -0.27864788444E+02  0.12166081751E+02  0.31033506280E+02  0.00000000000E+00 0.  1.
         11    1    4    4    0    0 -0.45392329074E+02  0.60144621318E+02  0.12751174586E+02  0.76422715639E+02  0.00000000000E+00 0. -1.
         21    1    1    2  502  501  0.87150873569E+02  0.21908111125E+02  0.19354345675E+03  0.21338769821E+03  0.00000000000E+00 0.  1.
<scales pt_clust_5="13000.00000" pt_clust_6="13000.00000" pt_clust_7="13000.00000" pt_clust_8="13000.00000" pt_clust_9="89.86234"></scales>
<clustering>
<clus scale="   89.862">  1  9  2 -1</clus>
<clus scale="   89.991">  5  6 -1 -1</clus>
<clus scale="   91.373">  7  8 -1 -1</clus>
<clus scale="  100.307">  2  5  1 -1</clus>
<clus scale="   89.862">  1  5  2 -1</clus>
</clustering>
</event>
<event>
 9    1  0.1296032E-005  0.1571562E+03  0.7546771E-02  0.1193934E+00
          3   -1    0    0  502    0  0.00000000000E+00  0.00000000000E+00  0.61451577228E+02  0.61451577228E+02  0.00000000000E+00 0. -1.
         -3   -1    0    0    0  501 -0.00000000000E+00 -0.00000000000E+00 -0.74378551391E+03  0.74378551391E+03  0.00000000000E+00 0.  1.
         23    2    1    2    0    0  0.41980433432E+01 -0.15281088755E+03 -0.52718053647E+03  0.55459083371E+03  0.79264644621E+02 0.  0.
         23    2    1    2    0    0  0.77917256489E+01  0.78199553824E+02 -0.10590979389E+03  0.16044903771E+03  0.91384506640E+02 0.  0.
        -11    1    3    3    0    0  0.38978580095E+02 -0.57529207828E+02 -0.24815465478E+03  0.25770074146E+03  0.00000000000E+00 0.  1.
         11    1    3    3    0    0 -0.34780536751E+02 -0.95281679718E+02 -0.27902588169E+03  0.29689009225E+03  0.00000000000E+00 0. -1.
        -13    1    4    4    0    0  0.37907538943E+02  0.43391044056E+02 -0.98091415627E+02  0.11376154901E+03  0.00000000000E+00 0.  1.
         13    1    4    4    0    0 -0.30115813295E+02  0.34808509768E+02 -0.78183782602E+01  0.46687488702E+02  0.00000000000E+00 0. -1.
         21    1    1    2  502  501 -0.11989768992E+02  0.74611333722E+02 -0.49243606324E+02  0.90197219713E+02  0.00000000000E+00 0. -1.
<scales pt_clust_5="13000.00000" pt_clust_6="13000.00000" pt_clust_7="13000.00000" pt_clust_8="13000.00000" pt_clust_9="75.56855"></scales>
<clustering>
<clus scale="   75.569">  1  9  2 -1</clus>
<clus scale="   79.265">  5  6 -1 -1</clus>
<clus scale="   91.385">  7  8 -1 -1</clus>
<clus scale="  150.432">  2  5  1 -1</clus>
<clus scale="   75.569">  1  5  2 -1</clus>
</clustering>
</event>
<event>
 9    1  0.1296032E-005  0.9562168E+02  0.7546771E-02  0.1293279E+00
         -2   -1    0    0    0  501 -0.00000000000E+00  0.00000000000E+00  0.46820811298E+02  0.46820811298E+02  0.00000000000E+00 0.  1.
          2   -1    0    0  502    0  0.00000000000E+00 -0.00000000000E+00 -0.34018889405E+03  0.34018889405E+03  0.00000000000E+00 0. -1.
         23    2    1    2    0    0 -0.71274361288E+01  0.82419271216E+01 -0.79417848289E+02  0.11785321008E+03  0.86391288853E+02 0.  0.
         23    2    1    2    0    0 -0.60844701744E+01 -0.31982499078E+02 -0.22035190128E+03  0.24124322669E+03  0.92646818629E+02 0.  0.
        -11    1    4    4    0    0 -0.11984364338E+02  0.20783414240E+02 -0.13174360074E+02  0.27370404809E+02  0.00000000000E+00 0.  1.
         11    1    4    4    0    0  0.58998941639E+01 -0.52765913318E+02 -0.20717754121E+03  0.21387282188E+03  0.00000000000E+00 0. -1.
        -11    1    3    3    0    0  0.10681954323E+02  0.43385520519E+02 -0.26738976589E+02  0.52070917102E+02  0.00000000000E+00 0.  1.
         11    1    3    3    0    0 -0.17809390452E+02 -0.35143593397E+02 -0.52678871700E+02  0.65782292973E+02  0.00000000000E+00 0. -1.
         21    1    1    2  502  501  0.13211906303E+02  0.23740571956E+02  0.64016668155E+01  0.27913268583E+02  0.00000000000E+00 0.  1.
<scales pt_clust_5="13000.00000" pt_clust_6="13000.00000" pt_clust_7="13000.00000" pt_clust_8="13000.00000" pt_clust_9="27.16927"></scales>
<clustering>
<clus scale="   27.169">  1  9  2 -1</clus>
<clus scale="   86.391">  7  8 -1 -1</clus>
<clus scale="   89.574">  1  7  2 -1</clus>
<clus scale="   92.647">  5  6 -1 -1</clus>
<clus scale="   95.622">  2  5  1 -1</clus>
</clustering>
</event>
<event>
 9    1  0.1296032E-005  0.9561298E+02  0.7546771E-02  0.1290345E+00
         -2   -1    0    0    0  501 -0.00000000000E+00  0.00000000000E+00  0.12307342492E+03  0.12307342492E+03  0.00000000000E+00 0.  1.
          2   -1    0    0  502    0  0.00000000000E+00 -0.00000000000E+00 -0.17031053034E+03  0.17031053034E+03  0.00000000000E+00 0. -1.
         23    2    1    2    0    0  0.23708846336E+02 -0.88715313037E+01  0.65869870538E+02  0.11610090273E+03  0.92194177187E+02 0.  0.
         23    2    1    2    0    0 -0.29565878057E+02 -0.14294338462E+02 -0.48462143374E+02  0.10836341293E+03  0.91189805706E+02 0.  0.
        -11    1    3    3    0    0 -0.30176279818E+01 -0.39953273296E+02  0.18852999428E+01  0.40111400893E+02  0.00000000000E+00 0. -1.
         11    1    3    3    0    0  0.26726474318E+02  0.31081741993E+02  0.63984570595E+02  0.75989501834E+02  0.00000000000E+00 0.  1.
        -13    1    4    4    0    0  0.28057356274E+02 -0.12357952994E+02  0.33588473234E+01  0.30841791431E+02  0.00000000000E+00 0.  1.
         13    1    4    4    0    0 -0.57623234331E+02 -0.19363854683E+01 -0.51820990697E+02  0.77521621502E+02  0.00000000000E+00 0. -1.
         21    1    1    2  502  501  0.58570317210E+01  0.23165869766E+02 -0.64644832585E+02  0.68919639599E+02  0.00000000000E+00 0. -1.
<scales pt_clust_5="13000.00000" pt_clust_6="13000.00000" pt_clust_7="13000.00000" pt_clust_8="13000.00000" pt_clust_9="23.89482"></scales>
<clustering>
<clus scale="   23.895">  2  9  1 -1</clus>
<clus scale="   91.190">  7  8 -1 -1</clus>
<clus scale="   92.194">  5  6 -1 -1</clus>
<clus scale="   94.645">  2  7  1 -1</clus>
<clus scale="   23.895">  2  5  1 -1</clus>
</clustering>
</event>
<event>
 9    1  0.1296032E-005  0.9907200E+02  0.7546771E-02  0.1283141E+00
          2   -1    0    0  502    0  0.00000000000E+00  0.00000000000E+00  0.15213023880E+03  0.15213023880E+03  0.00000000000E+00 0. -1.
         -2   -1    0    0    0  501 -0.00000000000E+00 -0.00000000000E+00 -0.84902429190E+02  0.84902429190E+02  0.00000000000E+00 0.  1.
         23    2    1    2    0    0 -0.27544352071E+02  0.64226225695E+01  0.12697553243E+02  0.97378303046E+02  0.92311237854E+02 0.  0.
         23    2    1    2    0    0  0.41021103223E+02  0.16279962882E+02  0.51341729629E+02  0.11306119081E+03  0.90548835245E+02 0.  0.
        -11    1    3    3    0    0 -0.83010625922E+01 -0.23991592276E+02 -0.31450861329E+02  0.40418570218E+02  0.00000000000E+00 0.  1.
         11    1    3    3    0    0 -0.19243289479E+02  0.30414214845E+02  0.44148414572E+02  0.56959732828E+02  0.00000000000E+00 0. -1.
        -13    1    4    4    0    0 -0.13207019674E+02  0.30209513472E+02 -0.53282957115E+01  0.33398065933E+02  0.00000000000E+00 0.  1.
         13    1    4    4    0    0  0.54228122897E+02 -0.13929550589E+02  0.56670025341E+02  0.79663124874E+02  0.00000000000E+00 0. -1.
         21    1    1    2  502  501 -0.13476751153E+02 -0.22702585452E+02  0.31885267363E+01  0.26593174135E+02  0.00000000000E+00 0.  1.
<scales pt_clust_5="13000.00000" pt_clust_6="13000.00000" pt_clust_7="13000.00000" pt_clust_8="13000.00000" pt_clust_9="26.40133"></scales>
<clustering>
<clus scale="   26.401">  2  9  1 -1</clus>
<clus scale="   90.549">  7  8 -1 -1</clus>
<clus scale="   92.311">  5  6 -1 -1</clus>
<clus scale="   97.432">  1  7  2 -1</clus>
<clus scale="   97.432">  1  5  2 -1</clus>
</clustering>
</event>
<event>
 9    1  0.1296032E-005  0.1359795E+03  0.7546771E-02  0.1219457E+00
          1   -1    0    0  502    0  0.00000000000E+00  0.00000000000E+00  0.52915057128E+03  0.52915057128E+03  0.00000000000E+00 0. -1.
         -1   -1    0    0    0  501 -0.00000000000E+00 -0.00000000000E+00 -0.86094440502E+02  0.86094440502E+02  0.00000000000E+00 0.  1.
         23    2    1    2    0    0 -0.71927795657E+02  0.89360975170E+02  0.18372679880E+02  0.14691096196E+03  0.89923766086E+02 0.  0.
         23    2    1    2    0    0  0.33405379107E+02 -0.61098902525E+02  0.14980865578E+03  0.18933785931E+03  0.92505115423E+02 0.  0.
        -11    1    3    3    0    0 -0.33030728663E+02 -0.36742805605E+01  0.30796244846E+02  0.45309359631E+02  0.00000000000E+00 0.  1.
         11    1    3    3    0    0 -0.38897066995E+02  0.93035255730E+02 -0.12423564965E+02  0.10160160233E+03  0.00000000000E+00 0. -1.
        -13    1    4    4    0    0  0.48843894949E+02 -0.78060436816E+02  0.12806736794E+03  0.15773524844E+03  0.00000000000E+00 0. -1.
         13    1    4    4    0    0 -0.15438515842E+02  0.16961534292E+02  0.21741287839E+02  0.31602610871E+02  0.00000000000E+00 0.  1.
         21    1    1    2  502  501  0.38522416551E+02 -0.28262072645E+02  0.27487479512E+03  0.27899619051E+03  0.00000000000E+00 0. -1.
<scales pt_clust_5="13000.00000" pt_clust_6="13000.00000" pt_clust_7="13000.00000" pt_clust_8="13000.00000" pt_clust_9="47.77783"></scales>
<clustering>
<clus scale="   47.778">  1  9  2 -1</clus>
<clus scale="   89.924">  5  6 -1 -1</clus>
<clus scale="   92.505">  7  8 -1 -1</clus>
<clus scale="  134.237">  2  5  1 -1</clus>
<clus scale="   47.778">  1  5  2 -1</clus>
</clustering>
</event>
<event>
 9    1  0.1296032E-005  0.1153302E+03  0.7546771E-02  0.1251786E+00
         -1   -1    0    0    0  501 -0.00000000000E+00  0.00000000000E+00  0.10865850664E+03  0.10865850664E+03  0.00000000000E+00 0.  1.
          1   -1    0    0  502    0  0.00000000000E+00 -0.00000000000E+00 -0.16100545550E+03  0.16100545550E+03  0.00000000000E+00 0. -1.
         23    2    1    2    0    0 -0.46774399150E+02  0.59660770282E+02 -0.27173204501E+01  0.11964729566E+03  0.92524805337E+02 0.  0.
         23    2    1    2    0    0  0.53210668650E+02 -0.34040770122E+02 -0.23129766003E+02  0.11259938865E+03  0.90296660842E+02 0.  0.
        -11    1    3    3    0    0 -0.12393631042E+02 -0.25122834339E+02  0.15705910192E+01  0.28057541799E+02  0.00000000000E+00 0.  1.
         11    1    3    3    0    0 -0.34380768108E+02  0.84783604621E+02 -0.42879114693E+01  0.91589753865E+02  0.00000000000E+00 0. -1.
        -13    1    4    4    0    0  0.22149042437E+02 -0.54201929872E+02  0.13953733600E+02  0.60192490928E+02  0.00000000000E+00 0.  1.
         13    1    4    4    0    0  0.31061626213E+02  0.20161159750E+02 -0.37083499604E+02  0.52406897717E+02  0.00000000000E+00 0. -1.
         21    1    1    2  502  501 -0.64362694997E+01 -0.25620000160E+02 -0.26499862398E+02  0.37417277832E+02  0.00000000000E+00 0. -1.
<scales pt_clust_5="13000.00000" pt_clust_6="13000.00000" pt_clust_7="13000.00000" pt_clust_8="13000.00000" pt_clust_9="26.41609"></scales>
<clustering>
<clus scale="   26.416">  2  9  1 -1</clus>
<clus scale="   90.297">  7  8 -1 -1</clus>
<clus scale="   92.525">  5  6 -1 -1</clus>
<clus scale="  113.550">  2  7  1 -1</clus>
<clus scale="   26.416">  2  5  1 -1</clus>
</clustering>
</event>
<event>
 9    1  0.1296032E-005  0.2600556E+03  0.7546771E-02  0.1107170E+00
          1   -1    0    0  502    0  0.00000000000E+00  0.00000000000E+00  0.65532077657E+03  0.65532077657E+03  0.00000000000E+00 0. -1.
         -1   -1    0    0    0  501 -0.00000000000E+00 -0.00000000000E+00 -0.16569974484E+03  0.16569974484E+03  0.00000000000E+00 0.  1.
         23    2    1    2    0    0 -0.22475677666E+03 -0.75655888306E+02  0.31139085336E+02  0.25552440594E+03  0.89909161402E+02 0.  0.
         23    2    1    2    0    0  0.25993869301E+03  0.44981262180E+02  0.35181594477E+03  0.44906443667E+03  0.91065752167E+02 0.  0.
        -11    1    4    4    0    0  0.44969544324E+02 -0.24905519436E+02  0.47582250840E+02  0.70047236991E+02  0.00000000000E+00 0.  1.
         11    1    4    4    0    0  0.21496914868E+03  0.69886781615E+02  0.30423369393E+03  0.37901719968E+03  0.00000000000E+00 0. -1.
        -13    1    3    3    0    0 -0.14344423468E+03 -0.40514967248E+02 -0.24301811218E+02  0.15102413404E+03  0.00000000000E+00 0.  1.
         13    1    3    3    0    0 -0.81312541987E+02 -0.35140921059E+02  0.55440896554E+02  0.10450027190E+03  0.00000000000E+00 0. -1.
         21    1    1    2  502  501 -0.35181916345E+02  0.30674626127E+02  0.10666600162E+03  0.11643167880E+03  0.00000000000E+00 0. -1.
<scales pt_clust_5="13000.00000" pt_clust_6="13000.00000" pt_clust_7="13000.00000" pt_clust_8="13000.00000" pt_clust_9="46.67655"></scales>
<clustering>
<clus scale="   46.677">  1  9  2 -1</clus>
<clus scale="   89.909">  7  8 -1 -1</clus>
<clus scale="   91.066">  5  6 -1 -1</clus>
<clus scale="  259.653">  2  7  1 -1</clus>
<clus scale="   46.677">  1  5  2 -1</clus>
</clustering>
</event>
<event>
 9    1  0.1296032E-005  0.1414014E+03  0.7546771E-02  0.1216465E+00
          3   -1    0    0  502    0  0.00000000000E+00  0.00000000000E+00  0.15381875720E+03  0.15381875720E+03  0.00000000000E+00 0. -1.
         -3   -1    0    0    0  501 -0.00000000000E+00 -0.00000000000E+00 -0.32299019787E+03  0.32299019787E+03  0.00000000000E+00 0.  1.
         23    2    1    2    0    0 -0.51159585665E+02  0.74450500062E+02 -0.22072326878E+03  0.25314522554E+03  0.84873810260E+02 0.  0.
         23    2    1    2    0    0  0.55113648794E+02 -0.10033305746E+03 -0.11108293265E+02  0.15575325757E+03  0.10503069247E+03 0.  0.
        -11    1    3    3    0    0  0.10219049237E+02  0.43950863715E+02 -0.41663110214E+02  0.61415976271E+02  0.00000000000E+00 0. -1.
         11    1    3    3    0    0 -0.61378634903E+02  0.30499636347E+02 -0.17906015856E+03  0.19172924927E+03  0.00000000000E+00 0.  1.
        -11    1    4    4    0    0 -0.10802553685E+02 -0.85150042563E+02  0.58049150113E+01  0.86028611246E+02  0.00000000000E+00 0.  1.
         11    1    4    4    0    0  0.65916202479E+02 -0.15183014900E+02 -0.16913208276E+02  0.69724646323E+02  0.00000000000E+00 0. -1.
         21    1    1    2  502  501 -0.39540631282E+01  0.25882557401E+02  0.62660121364E+02  0.67910471962E+02  0.00000000000E+00 0. -1.
<scales pt_clust_5="13000.00000" pt_clust_6="13000.00000" pt_clust_7="13000.00000" pt_clust_8="13000.00000" pt_clust_9="26.18285"></scales>
<clustering>
<clus scale="   26.183">  1  9  2 -1</clus>
<clus scale="   84.874">  5  6 -1 -1</clus>
<clus scale="  105.031">  7  8 -1 -1</clus>
<clus scale="  127.147">  2  5  1 -1</clus>
<clus scale="   26.183">  1  5  2 -1</clus>
</clustering>
</event>
<event>
 9    1  0.1296032E-005  0.1258985E+03  0.7546771E-02  0.1238763E+00
          2   -1    0    0  502    0  0.00000000000E+00  0.00000000000E+00  0.18088198334E+03  0.18088198334E+03  0.00000000000E+00 0. -1.
         -2   -1    0    0    0  501 -0.00000000000E+00 -0.00000000000E+00 -0.98284801925E+02  0.98284801925E+02  0.00000000000E+00 0.  1.
         23    2    1    2    0    0  0.27230921739E+02  0.69378312466E+02  0.19414374042E+02  0.12053963235E+03  0.92725464186E+02 0.  0.
         23    2    1    2    0    0 -0.16347638790E+02 -0.52155107777E+02  0.38603652284E+02  0.12670193573E+03  0.10759060361E+03 0.  0.
        -11    1    4    4    0    0 -0.24370506043E+02  0.77431888861E+01 -0.27217550871E+02  0.37345329217E+02  0.00000000000E+00 0. -1.
         11    1    4    4    0    0  0.80228672532E+01 -0.59898296663E+02  0.65821203155E+02  0.89356606509E+02  0.00000000000E+00 0.  1.
        -13    1    3    3    0    0  0.41954442574E+02  0.22522127792E+02 -0.25472989891E+02  0.54002728690E+02  0.00000000000E+00 0.  1.
         13    1    3    3    0    0 -0.14723520835E+02  0.46856184675E+02  0.44887363933E+02  0.66536903662E+02  0.00000000000E+00 0. -1.
         21    1    1    2  502  501 -0.10883282949E+02 -0.17223204690E+02  0.24579155087E+02  0.31925217185E+02  0.00000000000E+00 0. -1.
<scales pt_clust_5="13000.00000" pt_clust_6="13000.00000" pt_clust_7="13000.00000" pt_clust_8="13000.00000" pt_clust_9="20.37363"></scales>
<clustering>
<clus scale="   20.374">  1  9  2 -1</clus>
<clus scale="   92.725">  7  8 -1 -1</clus>
<clus scale="  107.591">  5  6 -1 -1</clus>
<clus scale="  113.458">  2  7  1 -1</clus>
<clus scale="   20.374">  1  5  2 -1</clus>
</clustering>
</event>
<event>
 9    1  0.1296032E-005  0.1192032E+03  0.7546771E-02  0.1245254E+00
          2   -1    0    0  502    0  0.00000000000E+00  0.00000000000E+00  0.23006755378E+03  0.23006755378E+03  0.00000000000E+00 0. -1.
         -2   -1    0    0    0  501 -0.00000000000E+00 -0.00000000000E+00 -0.17654856802E+03  0.17654856802E+03  0.00000000000E+00 0.  1.
         23    2    1    2    0    0  0.34612332051E+02 -0.73698879104E+02 -0.11219068073E+03  0.16616301479E+03  0.91618013138E+02 0.  0.
         23    2    1    2    0    0 -0.55248000599E+02  0.36824303636E+02  0.59140665266E+02  0.12581228898E+03  0.89009790826E+02 0.  0.
        -11    1    3    3    0    0  0.63652544846E+02 -0.39024111044E+02 -0.52504534367E+02  0.91275702338E+02  0.00000000000E+00 0. -1.
         11    1    3    3    0    0 -0.29040212794E+02 -0.34674768060E+02 -0.59686146365E+02  0.74887312457E+02  0.00000000000E+00 0.  1.
        -11    1    4    4    0    0 -0.78885592977E+02  0.37615153992E+02  0.46520289238E+02  0.99004918565E+02  0.00000000000E+00 0.  1.
         11    1    4    4    0    0  0.23637592378E+02 -0.79085035582E+00  0.12620376028E+02  0.26807370419E+02  0.00000000000E+00 0. -1.
         21    1    1    2  502  501  0.20635668547E+02  0.36874575468E+02  0.10656900123E+03  0.11464081802E+03  0.00000000000E+00 0. -1.
<scales pt_clust_5="13000.00000" pt_clust_6="13000.00000" pt_clust_7="13000.00000" pt_clust_8="13000.00000" pt_clust_9="42.25595"></scales>
<clustering>
<clus scale="   42.256">  1  9  2 -1</clus>
<clus scale="   89.010">  7  8 -1 -1</clus>
<clus scale="   91.618">  5  6 -1 -1</clus>
<clus scale="  117.210">  1  7  2 -1</clus>
<clus scale="   42.256">  1  5  2 -1</clus>
</clustering>
</event>
<event>
 9    1  0.1296032E-005  0.1167725E+03  0.7546771E-02  0.1249933E+00
         -1   -1    0    0    0  501 -0.00000000000E+00  0.00000000000E+00  0.14902753776E+03  0.14902753776E+03  0.00000000000E+00 0.  1.
          1   -1    0    0  502    0  0.00000000000E+00 -0.00000000000E+00 -0.15270422985E+03  0.15270422985E+03  0.00000000000E+00 0. -1.
         23    2    1    2    0    0 -0.86765100231E+02 -0.30108838508E+02  0.58310542278E+02  0.13984373194E+03  0.87871640750E+02 0.  0.
         23    2    1    2    0    0  0.60273076641E+02  0.25942664517E+02 -0.71128677607E+02  0.13355518716E+03  0.92042564231E+02 0.  0.
        -11    1    4    4    0    0 -0.12973266844E+02 -0.20022166086E+02 -0.42425206658E+01  0.24232040133E+02  0.00000000000E+00 0.  1.
         11    1    4    4    0    0  0.73246343486E+02  0.45964830603E+02 -0.66886156942E+02  0.10932314703E+03  0.00000000000E+00 0. -1.
        -13    1    3    3    0    0 -0.10073394048E+03 -0.83220432150E+01  0.43651163232E+02  0.11009998737E+03  0.00000000000E+00 0.  1.
         13    1    3    3    0    0  0.13968840248E+02 -0.21786795293E+02  0.14659379046E+02  0.29743744570E+02  0.00000000000E+00 0. -1.
         21    1    1    2  502  501  0.26492023590E+02  0.41661739909E+01  0.91414432437E+01  0.28332848501E+02  0.00000000000E+00 0.  1.
<scales pt_clust_5="13000.00000" pt_clust_6="13000.00000" pt_clust_7="13000.00000" pt_clust_8="13000.00000" pt_clust_9="26.81761"></scales>
<clustering>
<clus scale="   26.818">  1  9  2 -1</clus>
<clus scale="   87.872">  7  8 -1 -1</clus>
<clus scale="   92.043">  5  6 -1 -1</clus>
<clus scale="  113.514">  1  7  2 -1</clus>
<clus scale="  116.773">  2  5  1 -1</clus>
</clustering>
</event>
<event>
 9    1  0.1296032E-005  0.1295594E+03  0.7546771E-02  0.1229656E+00
          1   -1    0    0  502    0  0.00000000000E+00  0.00000000000E+00  0.25688229926E+03  0.25688229926E+03  0.00000000000E+00 0. -1.
         -1   -1    0    0    0  501 -0.00000000000E+00 -0.00000000000E+00 -0.11163130701E+03  0.11163130701E+03  0.00000000000E+00 0.  1.
         23    2    1    2    0    0  0.36004978743E+02  0.89364800560E+02 -0.18916703927E+01  0.13297406191E+03  0.91630216902E+02 0.  0.
         23    2    1    2    0    0 -0.10092878188E+02 -0.86493849853E+02  0.45204313876E+02  0.13032021979E+03  0.85772241669E+02 0.  0.
        -11    1    3    3    0    0  0.45796379625E+02  0.30117615014E+01 -0.37457451396E+01  0.46047906584E+02  0.00000000000E+00 0. -1.
         11    1    3    3    0    0 -0.97914008818E+01  0.86353039059E+02  0.18540747469E+01  0.86926155322E+02  0.00000000000E+00 0.  1.
        -13    1    4    4    0    0  0.28366232724E+01 -0.10196155409E+03  0.36112240372E+02  0.10820489291E+03  0.00000000000E+00 0. -1.
         13    1    4    4    0    0 -0.12929501460E+02  0.15467704241E+02  0.90920735045E+01  0.22115326882E+02  0.00000000000E+00 0.  1.
         21    1    1    2  502  501 -0.25912100555E+02 -0.28709507078E+01  0.10193834877E+03  0.10521932457E+03  0.00000000000E+00 0. -1.
<scales pt_clust_5="13000.00000" pt_clust_6="13000.00000" pt_clust_7="13000.00000" pt_clust_8="13000.00000" pt_clust_9="26.07066"></scales>
<clustering>
<clus scale="   26.071">  1  9  2 -1</clus>
<clus scale="   85.772">  7  8 -1 -1</clus>
<clus scale="   91.630">  5  6 -1 -1</clus>
<clus scale="  125.485">  1  7  2 -1</clus>
<clus scale="   26.071">  1  5  2 -1</clus>
</clustering>
</event>
<event>
 9    1  0.1296032E-005  0.1285018E+03  0.7546771E-02  0.1229733E+00
         -1   -1    0    0    0  501 -0.00000000000E+00  0.00000000000E+00  0.54500219161E+03  0.54500219161E+03  0.00000000000E+00 0.  1.
          1   -1    0    0  502    0  0.00000000000E+00 -0.00000000000E+00 -0.10212554060E+03  0.10212554060E+03  0.00000000000E+00 0. -1.
         23    2    1    2    0    0 -0.73443851015E+02 -0.11334829617E+02  0.32483673281E+03  0.34587542746E+03  0.92673786609E+02 0.  0.
         23    2    1    2    0    0  0.15257929285E+03  0.10508187709E+02  0.13024946718E+03  0.22117624980E+03  0.92537274429E+02 0.  0.
        -13    1    4    4    0    0  0.11815329711E+02 -0.28975159006E+02  0.33634881420E+02  0.45939820458E+02  0.00000000000E+00 0.  1.
         13    1    4    4    0    0  0.14076396314E+03  0.39483346715E+02  0.96614585760E+02  0.17523642934E+03  0.00000000000E+00 0. -1.
        -13    1    3    3    0    0 -0.76910958175E+02 -0.35035952883E+02  0.29868406805E+03  0.31041099528E+03  0.00000000000E+00 0.  1.
         13    1    3    3    0    0  0.34671071600E+01  0.23701123266E+02  0.26152664760E+02  0.35464432185E+02  0.00000000000E+00 0. -1.
         21    1    1    2  502  501 -0.79135441835E+02  0.82664190861E+00 -0.12209548980E+02  0.80076054958E+02  0.00000000000E+00 0.  1.
<scales pt_clust_5="13000.00000" pt_clust_6="13000.00000" pt_clust_7="13000.00000" pt_clust_8="13000.00000" pt_clust_9="79.13976"></scales>
<clustering>
<clus scale="   79.140">  2  9  1 -1</clus>
<clus scale="   92.537">  5  6 -1 -1</clus>
<clus scale="   92.674">  7  8 -1 -1</clus>
<clus scale="  128.403">  2  5  1 -1</clus>
<clus scale="   79.140">  2  5  1 -1</clus>
</clustering>
</event>
<event>
 9    1  0.1296032E-005  0.9719630E+02  0.7546771E-02  0.1286717E+00
          2   -1    0    0  502    0  0.00000000000E+00  0.00000000000E+00  0.38907299031E+03  0.38907299031E+03  0.00000000000E+00 0. -1.
         -2   -1    0    0    0  501 -0.00000000000E+00 -0.00000000000E+00 -0.60972321668E+02  0.60972321668E+02  0.00000000000E+00 0.  1.
         23    2    1    2    0    0  0.61261826904E+02  0.61103082326E+01  0.71423119159E+02  0.13114748348E+03  0.91148522594E+02 0.  0.
         23    2    1    2    0    0  0.25659820574E+02 -0.26115991878E+02  0.15193870567E+03  0.18132666298E+03  0.91943009536E+02 0.  0.
        -11    1    3    3    0    0  0.42288523515E+02 -0.71222999687E+01 -0.12036696566E+02  0.44541311635E+02  0.00000000000E+00 0.  1.
         11    1    3    3    0    0  0.18973303388E+02  0.13232608201E+02  0.83459815724E+02  0.86606171847E+02  0.00000000000E+00 0. -1.
        -13    1    4    4    0    0  0.11861926139E+02 -0.47642321282E+02  0.14739539692E+03  0.15535732716E+03  0.00000000000E+00 0.  1.
         13    1    4    4    0    0  0.13797894435E+02  0.21526329405E+02  0.45433087500E+01  0.25969335819E+02  0.00000000000E+00 0. -1.
         21    1    1    2  502  501 -0.86921647477E+02  0.20005683645E+02  0.10473884381E+03  0.13757116552E+03  0.00000000000E+00 0. -1.
<scales pt_clust_5="13000.00000" pt_clust_6="13000.00000" pt_clust_7="13000.00000" pt_clust_8="13000.00000" pt_clust_9="89.19417"></scales>
<clustering>
<clus scale="   89.194">  1  9  2 -1</clus>
<clus scale="   91.149">  5  6 -1 -1</clus>
<clus scale="   91.943">  7  8 -1 -1</clus>
<clus scale="   96.445">  2  5  1 -1</clus>
<clus scale="   89.194">  1  5  2 -1</clus>
</clustering>
</event>
<event>
 9    1  0.1296032E-005  0.1921924E+03  0.7546771E-02  0.1156590E+00
         -1   -1    0    0    0  501 -0.00000000000E+00  0.00000000000E+00  0.96475801365E+03  0.96475801365E+03  0.00000000000E+00 0.  1.
          1   -1    0    0  502    0  0.00000000000E+00 -0.00000000000E+00 -0.51757071586E+02  0.51757071586E+02  0.00000000000E+00 0. -1.
         23    2    1    2    0    0  0.14483176574E+03  0.87636337233E+02  0.57001490637E+03  0.60169156167E+03  0.91974854903E+02 0.  0.
         23    2    1    2    0    0 -0.15691101882E+03 -0.63423633317E+02  0.33564935401E+03  0.38678800531E+03  0.91108984774E+02 0.  0.
        -13    1    4    4    0    0 -0.38292901405E+02 -0.55330840152E+02  0.17046243213E+03  0.18326289570E+03  0.00000000000E+00 0.  1.
         13    1    4    4    0    0 -0.11861811742E+03 -0.80927931654E+01  0.16518692188E+03  0.20352510961E+03  0.00000000000E+00 0. -1.
        -13    1    3    3    0    0  0.15674871146E+03  0.70982581174E+02  0.51526036925E+03  0.54323285384E+03  0.00000000000E+00 0.  1.
         13    1    3    3    0    0 -0.11916945718E+02  0.16653756059E+02  0.54754537121E+02  0.58458707833E+02  0.00000000000E+00 0. -1.
         21    1    1    2  502  501  0.12079253082E+02 -0.24212703916E+02  0.73366816840E+01  0.28035518260E+02  0.00000000000E+00 0. -1.
<scales pt_clust_5="13000.00000" pt_clust_6="13000.00000" pt_clust_7="13000.00000" pt_clust_8="13000.00000" pt_clust_9="27.05852"></scales>
<clustering>
<clus scale="   27.059">  2  9  1 -1</clus>
<clus scale="   91.109">  5  6 -1 -1</clus>
<clus scale="   91.975">  7  8 -1 -1</clus>
<clus scale="  191.780">  2  5  1 -1</clus>
<clus scale="   27.059">  2  5  1 -1</clus>
</clustering>
</event>
<event>
 9    1  0.1296032E-005  0.1166149E+03  0.7546771E-02  0.1248857E+00
          1   -1    0    0  502    0  0.00000000000E+00  0.00000000000E+00  0.17991972433E+03  0.17991972433E+03  0.00000000000E+00 0. -1.
         -1   -1    0    0    0  501 -0.00000000000E+00 -0.00000000000E+00 -0.31718557896E+03  0.31718557896E+03  0.00000000000E+00 0.  1.
         23    2    1    2    0    0 -0.70959589915E+02  0.88832893633E+02 -0.19366038767E+03  0.24305023378E+03  0.92965176244E+02 0.  0.
         23    2    1    2    0    0  0.15869451218E+02 -0.15426825895E+02 -0.54708464390E+02  0.10994660273E+03  0.92765364964E+02 0.  0.
        -13    1    4    4    0    0  0.11145161212E+02 -0.38287545019E+02  0.10037806923E+02  0.41120655270E+02  0.00000000000E+00 0. -1.
         13    1    4    4    0    0  0.47242900059E+01  0.22860719124E+02 -0.64746271313E+02  0.68825947461E+02  0.00000000000E+00 0.  1.
        -13    1    3    3    0    0 -0.42064315667E+02  0.10473053155E+03 -0.16114103121E+03  0.19673414252E+03  0.00000000000E+00 0.  1.
         13    1    3    3    0    0 -0.28895274248E+02 -0.15897637917E+02 -0.32519356458E+02  0.46316091261E+02  0.00000000000E+00 0. -1.
         21    1    1    2  502  501  0.55090138697E+02 -0.73406067738E+02  0.11110299743E+03  0.14410846679E+03  0.00000000000E+00 0. -1.
<scales pt_clust_5="13000.00000" pt_clust_6="13000.00000" pt_clust_7="13000.00000" pt_clust_8="13000.00000" pt_clust_9="91.77894"></scales>
<clustering>
<clus scale="   91.779">  1  9  2 -1</clus>
<clus scale="   92.765">  5  6 -1 -1</clus>
<clus scale="   92.965">  7  8 -1 -1</clus>
<clus scale="  116.456">  1  5  2 -1</clus>
<clus scale="   91.779">  1  5  2 -1</clus>
</clustering>
</event>
<event>
 9    1  0.1296032E-005  0.1117578E+03  0.7546771E-02  0.1257429E+00
          1   -1    0    0  502    0  0.00000000000E+00  0.00000000000E+00  0.35934255251E+03  0.35934255251E+03  0.00000000000E+00 0. -1.
         -1   -1    0    0    0  501 -0.00000000000E+00 -0.00000000000E+00 -0.52277098214E+02  0.52277098214E+02  0.00000000000E+00 0.  1.
         23    2    1    2    0    0 -0.24533048265E+02  0.58304221185E+02  0.65679878006E+02  0.13003217362E+03  0.92699876682E+02 0.  0.
         23    2    1    2    0    0  0.30147415384E+01 -0.63378480874E+02  0.14843880420E+03  0.18604749554E+03  0.92486061103E+02 0.  0.
        -13    1    3    3    0    0 -0.42179501507E+02 -0.79830240263E+01  0.18312068296E+02  0.46670878128E+02  0.00000000000E+00 0.  1.
         13    1    3    3    0    0  0.17646453242E+02  0.66287245211E+02  0.47367809710E+02  0.83361295494E+02  0.00000000000E+00 0. -1.
        -13    1    4    4    0    0  0.19424372165E+02  0.19305512074E+02  0.29343357872E+02  0.40137783716E+02  0.00000000000E+00 0. -1.
         13    1    4    4    0    0 -0.16409630627E+02 -0.82683992948E+02  0.11909544633E+03  0.14590971182E+03  0.00000000000E+00 0.  1.
         21    1    1    2  502  501  0.21518306727E+02  0.50742596892E+01  0.92946772090E+02  0.95539981567E+02  0.00000000000E+00 0. -1.
<scales pt_clust_5="13000.00000" pt_clust_6="13000.00000" pt_clust_7="13000.00000" pt_clust_8="13000.00000" pt_clust_9="22.10850"></scales>
<clustering>
<clus scale="   22.108">  1  9  2 -1</clus>
<clus scale="   92.486">  7  8 -1 -1</clus>
<clus scale="   92.700">  5  6 -1 -1</clus>
<clus scale="  111.580">  1  7  2 -1</clus>
<clus scale="   22.108">  1  5  2 -1</clus>
</clustering>
</event>
<event>
 9    1  0.1296032E-005  0.1947604E+03  0.7546771E-02  0.1154323E+00
         -1   -1    0    0    0  501 -0.00000000000E+00  0.00000000000E+00  0.39832880509E+03  0.39832880509E+03  0.00000000000E+00 0.  1.
          1   -1    0    0  502    0  0.00000000000E+00 -0.00000000000E+00 -0.40353333479E+03  0.40353333479E+03  0.00000000000E+00 0. -1.
         23    2    1    2    0    0  0.12397207069E+03  0.12199525415E+03  0.34614100226E+03  0.39778481237E+03  0.90372823124E+02 0.  0.
         23    2    1    2    0    0 -0.10501048977E+03 -0.11252938925E+03 -0.32079436127E+03  0.36689509815E+03  0.89514939653E+02 0.  0.
        -13    1    4    4    0    0  0.86424300059E+01 -0.39225102301E+02 -0.49385474330E+02  0.63657091684E+02  0.00000000000E+00 0.  1.
         13    1    4    4    0    0 -0.11365291977E+03 -0.73304286952E+02 -0.27140888694E+03  0.30323800647E+03  0.00000000000E+00 0. -1.
        -13    1    3    3    0    0  0.69197082670E+02  0.82327583267E+01  0.11839788405E+03  0.13738294475E+03  0.00000000000E+00 0. -1.
         13    1    3    3    0    0  0.54774988015E+02  0.11376249583E+03  0.22774311822E+03  0.26040186763E+03  0.00000000000E+00 0.  1.
         21    1    1    2  502  501 -0.18961580920E+02 -0.94658649012E+01 -0.30551170694E+02  0.37182229359E+02  0.00000000000E+00 0.  1.
<scales pt_clust_5="13000.00000" pt_clust_6="13000.00000" pt_clust_7="13000.00000" pt_clust_8="13000.00000" pt_clust_9="21.19302"></scales>
<clustering>
<clus scale="   21.193">  2  9  1 -1</clus>
<clus scale="   89.515">  5  6 -1 -1</clus>
<clus scale="   90.373">  7  8 -1 -1</clus>
<clus scale="  194.364">  2  5  1 -1</clus>
<clus scale="   21.193">  2  5  1 -1</clus>
</clustering>
</event>
<event>
 9    1  0.1296032E-005  0.1613997E+03  0.7546771E-02  0.1200247E+00
         -2   -1    0    0    0  501 -0.00000000000E+00  0.00000000000E+00  0.19226776723E+03  0.19226776723E+03  0.00000000000E+00 0.  1.
          2   -1    0    0  502    0  0.00000000000E+00 -0.00000000000E+00 -0.41536190818E+03  0.41536190818E+03  0.00000000000E+00 0. -1.
         23    2    1    2    0    0  0.26586189888E+02 -0.73794196227E+02 -0.10971739905E+03  0.16537754073E+03  0.95704829734E+02 0.  0.
         23    2    1    2    0    0 -0.36216747977E+02 -0.70422864402E+02 -0.22777558541E+03  0.25791981623E+03  0.91487057166E+02 0.  0.
        -11    1    4    4    0    0 -0.20016012066E+02  0.19120758616E+02 -0.34014270171E+02  0.43854472114E+02  0.00000000000E+00 0.  1.
         11    1    4    4    0    0 -0.16200735911E+02 -0.89543623018E+02 -0.19376131524E+03  0.21406534412E+03  0.00000000000E+00 0. -1.
        -13    1    3    3    0    0  0.59400274112E+02 -0.24162445334E+02 -0.53333637617E+02  0.83406793671E+02  0.00000000000E+00 0.  1.
         13    1    3    3    0    0 -0.32814084223E+02 -0.49631750893E+02 -0.56383761437E+02  0.81970747063E+02  0.00000000000E+00 0. -1.
         21    1    1    2  502  501  0.96305580890E+01  0.14421706063E+03  0.11439884352E+03  0.18433231845E+03  0.00000000000E+00 0.  1.
<scales pt_clust_5="13000.00000" pt_clust_6="13000.00000" pt_clust_7="13000.00000" pt_clust_8="13000.00000" pt_clust_9="129.96329"></scales>
<clustering>
<clus scale="   91.487">  5  6 -1 -1</clus>
<clus scale="   95.705">  7  8 -1 -1</clus>
<clus scale="  121.000">  2  5  1 -1</clus>
<clus scale="  129.963">  1  9  2 -1</clus>
<clus scale="  121.000">  2  5  1 -1</clus>
</clustering>
</event>
<event>
 9    1  0.1296032E-005  0.2367613E+03  0.7546771E-02  0.1160206E+00
          2   -1    0    0  502    0  0.00000000000E+00  0.00000000000E+00  0.81650680987E+03  0.81650680987E+03  0.00000000000E+00 0. -1.
         -2   -1    0    0    0  501 -0.00000000000E+00 -0.00000000000E+00 -0.23516956522E+03  0.23516956522E+03  0.00000000000E+00 0.  1.
         23    2    1    2    0    0 -0.23515641697E+03 -0.39481840102E+02  0.39016063774E+03  0.46813546346E+03  0.10034008554E+03 0.  0.
         23    2    1    2    0    0  0.28537385337E+02 -0.41739571293E+01  0.32173299586E+03  0.33526239150E+03  0.89760493832E+02 0.  0.
        -11    1    4    4    0    0  0.43168213772E+02  0.29247787632E+02  0.24236193431E+03  0.24790771461E+03  0.00000000000E+00 0. -1.
         11    1    4    4    0    0 -0.14630828436E+02 -0.33421744761E+02  0.79371061545E+02  0.87354676889E+02  0.00000000000E+00 0.  1.
        -11    1    3    3    0    0 -0.94749898303E+02 -0.28850858497E+02  0.79329247353E+02  0.12689777283E+03  0.00000000000E+00 0.  1.
         11    1    3    3    0    0 -0.14040651867E+03 -0.10630981606E+02  0.31083139038E+03  0.34123769063E+03  0.00000000000E+00 0. -1.
         21    1    1    2  502  501  0.20661903164E+03  0.43655797232E+02 -0.13055638894E+03  0.24827852013E+03  0.00000000000E+00 0.  1.
<scales pt_clust_5="13000.00000" pt_clust_6="13000.00000" pt_clust_7="13000.00000" pt_clust_8="13000.00000" pt_clust_9="214.44760"></scales>
<clustering>
<clus scale="   89.760">  5  6 -1 -1</clus>
<clus scale="   94.280">  1  5  2 -1</clus>
<clus scale="  100.340">  7  8 -1 -1</clus>
<clus scale="  214.448">  2  9  1 -1</clus>
<clus scale="   94.280">  1  5  2 -1</clus>
</clustering>
</event>
<event>
 9    1  0.1296032E-005  0.1633896E+03  0.7546771E-02  0.1186731E+00
         -1   -1    0    0    0  501 -0.00000000000E+00  0.00000000000E+00  0.85176550888E+02  0.85176550888E+02  0.00000000000E+00 0.  1.
          1   -1    0    0  502    0  0.00000000000E+00 -0.00000000000E+00 -0.53759536599E+03  0.53759536599E+03  0.00000000000E+00 0. -1.
         23    2    1    2    0    0  0.95747700676E+02 -0.74319337489E+02 -0.39909632657E+02  0.15720815119E+03  0.91818505288E+02 0.  0.
         23    2    1    2    0    0 -0.11729459199E+03  0.88566639765E+02 -0.29411782259E+03  0.34438716632E+03  0.10244586749E+03 0.  0.
        -11    1    4    4    0    0 -0.47855383951E+02  0.19314915382E+02 -0.23800600753E+02  0.56830206102E+02  0.00000000000E+00 0.  1.
         11    1    4    4    0    0 -0.69439208041E+02  0.69251724383E+02 -0.27031722184E+03  0.28755696021E+03  0.00000000000E+00 0. -1.
        -13    1    3    3    0    0 -0.16644749457E+02 -0.18300650394E+02 -0.15749530955E+02  0.29325913705E+02  0.00000000000E+00 0.  1.
         13    1    3    3    0    0  0.11239245013E+03 -0.56018687095E+02 -0.24160101702E+02  0.12788223749E+03  0.00000000000E+00 0. -1.
         21    1    1    2  502  501  0.21546891317E+02 -0.14247302276E+02 -0.11839135985E+03  0.12117659937E+03  0.00000000000E+00 0. -1.
<scales pt_clust_5="13000.00000" pt_clust_6="13000.00000" pt_clust_7="13000.00000" pt_clust_8="13000.00000" pt_clust_9="25.83126"></scales>
<clustering>
<clus scale="   25.831">  2  9  1 -1</clus>
<clus scale="   91.819">  7  8 -1 -1</clus>
<clus scale="  102.446">  5  6 -1 -1</clus>
<clus scale="  156.945">  1  7  2 -1</clus>
<clus scale="   25.831">  2  5  1 -1</clus>
</clustering>
</event>
<event>
 9    1  0.1296032E-005  0.1037011E+03  0.7546771E-02  0.1272885E+00
          1   -1    0    0  502    0  0.00000000000E+00  0.00000000000E+00  0.26761038591E+03  0.26761038591E+03  0.00000000000E+00 0. -1.
         -1   -1    0    0    0  501 -0.00000000000E+00 -0.00000000000E+00 -0.85025760759E+02  0.85025760759E+02  0.00000000000E+00 0.  1.
         23    2    1    2    0    0  0.54674398177E+02  0.15088023428E+02  0.24411472842E+02  0.11011683394E+03  0.91174880555E+02 0.  0.
         23    2    1    2    0    0 -0.15688460907E+02 -0.51615902771E+02  0.41346847955E+02  0.11405696547E+03  0.91592031921E+02 0.  0.
        -11    1    4    4    0    0 -0.32461407405E+02 -0.73809903919E+01  0.55463888373E+02  0.64687440074E+02  0.00000000000E+00 0. -1.
         11    1    4    4    0    0  0.16772946498E+02 -0.44234912379E+02 -0.14117040418E+02  0.49369525393E+02  0.00000000000E+00 0.  1.
        -13    1    3    3    0    0  0.19930197769E+02 -0.25599614251E+02 -0.22073516050E+02  0.39240198059E+02  0.00000000000E+00 0. -1.
         13    1    3    3    0    0  0.34744200408E+02  0.40687637679E+02  0.46484988892E+02  0.70876635884E+02  0.00000000000E+00 0.  1.
         21    1    1    2  502  501 -0.38985937269E+02  0.36527879343E+02  0.11682630435E+03  0.12846234726E+03  0.00000000000E+00 0. -1.
<scales pt_clust_5="13000.00000" pt_clust_6="13000.00000" pt_clust_7="13000.00000" pt_clust_8="13000.00000" pt_clust_9="53.42461"></scales>
<clustering>
<clus scale="   53.425">  1  9  2 -1</clus>
<clus scale="   91.175">  7  8 -1 -1</clus>
<clus scale="   91.592">  5  6 -1 -1</clus>
<clus scale="  103.333">  2  7  1 -1</clus>
<clus scale="   53.425">  1  5  2 -1</clus>
</clustering>
</event>
<event>
 9    1  0.1296032E-005  0.9213324E+02  0.7546771E-02  0.1299895E+00
          1   -1    0    0  502    0  0.00000000000E+00  0.00000000000E+00  0.45469127906E+03  0.45469127906E+03  0.00000000000E+00 0. -1.
         -1   -1    0    0    0  501 -0.00000000000E+00 -0.00000000000E+00 -0.38878040441E+02  0.38878040441E+02  0.00000000000E+00 0.  1.
         23    2    1    2    0    0 -0.44652876622E+02  0.23346751391E+02  0.14225172296E+03  0.17462354805E+03  0.87857160547E+02 0.  0.
         23    2    1    2    0    0 -0.11536597930E+02  0.14931626570E+02  0.18571483890E+03  0.20786233484E+03  0.91436876013E+02 0.  0.
        -11    1    3    3    0    0 -0.14213407140E+01 -0.31259072592E+02  0.37643990234E+02  0.48951198448E+02  0.00000000000E+00 0.  1.
         11    1    3    3    0    0 -0.43231535909E+02  0.54605823983E+02  0.10460773272E+03  0.12567234960E+03  0.00000000000E+00 0. -1.
        -13    1    4    4    0    0 -0.32278653525E+02  0.31306783970E+02  0.17259766646E+03  0.17835913395E+03  0.00000000000E+00 0. -1.
         13    1    4    4    0    0  0.20742055595E+02 -0.16375157400E+02  0.13117172441E+02  0.29503200894E+02  0.00000000000E+00 0.  1.
         21    1    1    2  502  501  0.56189474552E+02 -0.38278377961E+02  0.87846676767E+02  0.11108343661E+03  0.00000000000E+00 0.  1.
<scales pt_clust_5="13000.00000" pt_clust_6="13000.00000" pt_clust_7="13000.00000" pt_clust_8="13000.00000" pt_clust_9="67.98891"></scales>
<clustering>
<clus scale="   67.989">  2  9  1 -1</clus>
<clus scale="   87.857">  5  6 -1 -1</clus>
<clus scale="   88.582">  2  5  1 -1</clus>
<clus scale="   91.437">  7  8 -1 -1</clus>
<clus scale="   92.133">  1  5  2 -1</clus>
</clustering>
</event>
<event>
 9    1  0.1296032E-005  0.1157702E+03  0.7546771E-02  0.1250388E+00
         -1   -1    0    0    0  501 -0.00000000000E+00  0.00000000000E+00  0.55730353563E+02  0.55730353563E+02  0.00000000000E+00 0.  1.
          1   -1    0    0  502    0  0.00000000000E+00 -0.00000000000E+00 -0.83453152838E+03  0.83453152838E+03  0.00000000000E+00 0. -1.
         23    2    1    2    0    0 -0.73153923702E+02 -0.30487096466E+02 -0.65739325549E+02  0.13378252154E+03  0.85411618307E+02 0.  0.
         23    2    1    2    0    0  0.18315661300E+02  0.11213564410E+03 -0.29978269479E+03  0.33165777446E+03  0.84954983023E+02 0.  0.
        -13    1    3    3    0    0 -0.67573881113E+02 -0.55953605650E+02 -0.37683011639E+02  0.95483217164E+02  0.00000000000E+00 0.  1.
         13    1    3    3    0    0 -0.55800425884E+01  0.25466509184E+02 -0.28056313910E+02  0.38299304374E+02  0.00000000000E+00 0. -1.
        -13    1    4    4    0    0  0.50639329338E+02  0.46890465325E+02 -0.14993081081E+03  0.16505243241E+03  0.00000000000E+00 0.  1.
         13    1    4    4    0    0 -0.32323668038E+02  0.65245178774E+02 -0.14985188398E+03  0.16660534205E+03  0.00000000000E+00 0. -1.
         21    1    1    2  502  501  0.54838262401E+02 -0.81648547633E+02 -0.41327915448E+03  0.42482158594E+03  0.00000000000E+00 0.  1.
<scales pt_clust_5="13000.00000" pt_clust_6="13000.00000" pt_clust_7="13000.00000" pt_clust_8="13000.00000" pt_clust_9="98.35507"></scales>
<clustering>
<clus scale="   84.955">  7  8 -1 -1</clus>
<clus scale="   85.412">  5  6 -1 -1</clus>
<clus scale="   98.355">  2  9  1 -1</clus>
<clus scale="  115.434">  2  7  1 -1</clus>
<clus scale="   98.355">  2  5  1 -1</clus>
</clustering>
</event>
<event>
 9    1  0.1296032E-005  0.1598931E+03  0.7546771E-02  0.1189200E+00
         -2   -1    0    0    0  501 -0.00000000000E+00  0.00000000000E+00  0.40607438672E+02  0.40607438672E+02  0.00000000000E+00 0.  1.
          2   -1    0    0  502    0  0.00000000000E+00 -0.00000000000E+00 -0.95011964677E+03  0.95011964677E+03  0.00000000000E+00 0. -1.
         23    2    1    2    0    0 -0.96166214978E+02  0.11690322543E+03 -0.25999310519E+03  0.31397108011E+03  0.89817144129E+02 0.  0.
         23    2    1    2    0    0  0.77685317270E+02 -0.64166565017E+02 -0.48495761661E+03  0.50296537928E+03  0.87395230191E+02 0.  0.
        -11    1    4    4    0    0 -0.44632740156E+01 -0.27448659813E+02 -0.38281346939E+02  0.47316078282E+02  0.00000000000E+00 0.  1.
         11    1    4    4    0    0  0.82148591286E+02 -0.36717905204E+02 -0.44667626967E+03  0.45564930100E+03  0.00000000000E+00 0. -1.
        -13    1    3    3    0    0 -0.91822084481E+02  0.84587829267E+02 -0.13116963471E+03  0.18108525376E+03  0.00000000000E+00 0.  1.
         13    1    3    3    0    0 -0.43441304973E+01  0.32315396163E+02 -0.12882347047E+03  0.13288582635E+03  0.00000000000E+00 0. -1.
         21    1    1    2  502  501  0.18480897708E+02 -0.52736660412E+02 -0.16456148630E+03  0.17379062606E+03  0.00000000000E+00 0.  1.
<scales pt_clust_5="13000.00000" pt_clust_6="13000.00000" pt_clust_7="13000.00000" pt_clust_8="13000.00000" pt_clust_9="55.88111"></scales>
<clustering>
<clus scale="   55.881">  2  9  1 -1</clus>
<clus scale="   87.395">  5  6 -1 -1</clus>
<clus scale="   89.817">  7  8 -1 -1</clus>
<clus scale="  158.545">  2  5  1 -1</clus>
<clus scale="   55.881">  2  5  1 -1</clus>
</clustering>
</event>
<event>
 9    1  0.1296032E-005  0.9628044E+02  0.7546771E-02  0.1288735E+00
         -1   -1    0    0    0  501 -0.00000000000E+00  0.00000000000E+00  0.64108414603E+02  0.64108414603E+02  0.00000000000E+00 0.  1.
          1   -1    0    0  502    0  0.00000000000E+00 -0.00000000000E+00 -0.25226503406E+03  0.25226503406E+03  0.00000000000E+00 0. -1.
         23    2    1    2    0    0 -0.76007545378E+01 -0.58526441031E+01 -0.87603591088E+01  0.92668598326E+02  0.91753475746E+02 0.  0.
         23    2    1    2    0    0  0.90292369189E+01  0.31141404875E+02 -0.17082494347E+03  0.19696481563E+03  0.92534658728E+02 0.  0.
        -11    1    4    4    0    0 -0.32952319547E+02 -0.13606267306E+02 -0.77075334232E+02  0.84921098794E+02  0.00000000000E+00 0.  1.
         11    1    4    4    0    0  0.41981556466E+02  0.44747672181E+02 -0.93749609241E+02  0.11204371683E+03  0.00000000000E+00 0. -1.
        -13    1    3    3    0    0 -0.49479081539E+02 -0.70663549958E+01 -0.59646548423E+00  0.49984684194E+02  0.00000000000E+00 0.  1.
         13    1    3    3    0    0  0.41878327001E+02  0.12137108927E+01 -0.81638936246E+01  0.42683914132E+02  0.00000000000E+00 0. -1.
         21    1    1    2  502  501 -0.14284823811E+01 -0.25288760772E+02 -0.85713168752E+01  0.26740034709E+02  0.00000000000E+00 0.  1.
<scales pt_clust_5="13000.00000" pt_clust_6="13000.00000" pt_clust_7="13000.00000" pt_clust_8="13000.00000" pt_clust_9="25.32907"></scales>
<clustering>
<clus scale="   25.329">  1  9  2 -1</clus>
<clus scale="   91.753">  7  8 -1 -1</clus>
<clus scale="   92.535">  5  6 -1 -1</clus>
<clus scale="   95.530">  1  7  2 -1</clus>
<clus scale="   96.280">  2  5  1 -1</clus>
</clustering>
</event>
<event>
 9    1  0.1296032E-005  0.1726524E+03  0.7546771E-02  0.1175403E+00
         -2   -1    0    0    0  501 -0.00000000000E+00  0.00000000000E+00  0.80357011334E+02  0.80357011334E+02  0.00000000000E+00 0.  1.
          2   -1    0    0  502    0  0.00000000000E+00 -0.00000000000E+00 -0.59999803571E+03  0.59999803571E+03  0.00000000000E+00 0. -1.
         23    2    1    2    0    0  0.82553742063E+02 -0.80105040310E+02 -0.17035802560E+03  0.22527966949E+03  0.92179904455E+02 0.  0.
         23    2    1    2    0    0 -0.10830618579E+03  0.14718124948E+03 -0.18260703234E+03  0.27357252914E+03  0.90022499207E+02 0.  0.
        -13    1    3    3    0    0  0.57223939706E+02 -0.91035507829E+02 -0.16535551579E+03  0.19724221040E+03  0.00000000000E+00 0. -1.
         13    1    3    3    0    0  0.25329802357E+02  0.10930467519E+02 -0.50025098123E+01  0.28037459087E+02  0.00000000000E+00 0.  1.
        -13    1    4    4    0    0 -0.91302101002E+02  0.15871188290E+03 -0.16209934645E+03  0.24454392967E+03  0.00000000000E+00 0.  1.
         13    1    4    4    0    0 -0.17004084790E+02 -0.11530633421E+02 -0.20507685890E+02  0.29028599470E+02  0.00000000000E+00 0. -1.
         21    1    1    2  502  501  0.25752443728E+02 -0.67076209171E+02 -0.16667596644E+03  0.18150284841E+03  0.00000000000E+00 0.  1.
<scales pt_clust_5="13000.00000" pt_clust_6="13000.00000" pt_clust_7="13000.00000" pt_clust_8="13000.00000" pt_clust_9="71.84989"></scales>
<clustering>
<clus scale="   71.850">  2  9  1 -1</clus>
<clus scale="   90.022">  7  8 -1 -1</clus>
<clus scale="   92.180">  5  6 -1 -1</clus>
<clus scale="  171.510">  2  7  1 -1</clus>
<clus scale="   71.850">  2  5  1 -1</clus>
</clustering>
</event>
<event>
 9    1  0.1296032E-005  0.2007685E+03  0.7546771E-02  0.1149256E+00
         -1   -1    0    0    0  501 -0.00000000000E+00  0.00000000000E+00  0.17147707699E+04  0.17147707699E+04  0.00000000000E+00 0.  1.
          1   -1    0    0  502    0  0.00000000000E+00 -0.00000000000E+00 -0.47291026773E+02  0.47291026773E+02  0.00000000000E+00 0. -1.
         23    2    1    2    0    0  0.13224215890E+03  0.10362002452E+03  0.90659999213E+03  0.92646769679E+03  0.90519331582E+02 0.  0.
         23    2    1    2    0    0 -0.12496369632E+03 -0.15223267771E+03  0.75546128408E+03  0.78614184156E+03  0.92230850303E+02 0.  0.
        -11    1    4    4    0    0 -0.17965491337E+02 -0.21101691709E+02  0.28552597743E+02  0.39790590720E+02  0.00000000000E+00 0.  1.
         11    1    4    4    0    0 -0.10699820499E+03 -0.13113098600E+03  0.72690868634E+03  0.74635125084E+03  0.00000000000E+00 0. -1.
        -11    1    3    3    0    0  0.10394161749E+03  0.10966631984E+03  0.84507193732E+03  0.85847372749E+03  0.00000000000E+00 0.  1.
         11    1    3    3    0    0  0.28300541418E+02 -0.60462953230E+01  0.61528054814E+02  0.67993969298E+02  0.00000000000E+00 0. -1.
         21    1    1    2  502  501 -0.72784625802E+01  0.48612653191E+02  0.54184668974E+01  0.49452258303E+02  0.00000000000E+00 0.  1.
<scales pt_clust_5="13000.00000" pt_clust_6="13000.00000" pt_clust_7="13000.00000" pt_clust_8="13000.00000" pt_clust_9="49.15451"></scales>
<clustering>
<clus scale="   49.155">  2  9  1 -1</clus>
<clus scale="   90.519">  7  8 -1 -1</clus>
<clus scale="   92.231">  5  6 -1 -1</clus>
<clus scale="  199.988">  1  7  2 -1</clus>
<clus scale="   49.155">  2  5  1 -1</clus>
</clustering>
</event>
<event>
 9    1  0.1296032E-005  0.1324654E+03  0.7546771E-02  0.1223901E+00
          1   -1    0    0  502    0  0.00000000000E+00  0.00000000000E+00  0.93060263677E+02  0.93060263677E+02  0.00000000000E+00 0. -1.
         -1   -1    0    0    0  501 -0.00000000000E+00 -0.00000000000E+00 -0.26819812002E+03  0.26819812002E+03  0.00000000000E+00 0.  1.
         23    2    1    2    0    0  0.64086706883E+02  0.76129256088E+02 -0.16016211629E+03  0.20942322879E+03  0.91123079581E+02 0.  0.
         23    2    1    2    0    0 -0.70137149665E+02 -0.54980091912E+02 -0.42516163879E+01  0.12736268401E+03  0.90890850840E+02 0.  0.
        -11    1    4    4    0    0 -0.36678208252E+02  0.75233339737E+01 -0.33908436315E+02  0.50514092766E+02  0.00000000000E+00 0.  1.
         11    1    4    4    0    0 -0.33458941413E+02 -0.62503425885E+02  0.29656819927E+02  0.76848591243E+02  0.00000000000E+00 0. -1.
        -13    1    3    3    0    0  0.17620291274E+02  0.79070931401E+02 -0.13239333085E+03  0.15521172929E+03  0.00000000000E+00 0.  1.
         13    1    3    3    0    0  0.46466415609E+02 -0.29416753134E+01 -0.27768785443E+02  0.54211499501E+02  0.00000000000E+00 0. -1.
         21    1    1    2  502  501  0.60504427821E+01 -0.21149164176E+02 -0.10724123663E+02  0.24472470892E+02  0.00000000000E+00 0.  1.
<scales pt_clust_5="13000.00000" pt_clust_6="13000.00000" pt_clust_7="13000.00000" pt_clust_8="13000.00000" pt_clust_9="21.99761"></scales>
<clustering>
<clus scale="   21.998">  1  9  2 -1</clus>
<clus scale="   90.891">  5  6 -1 -1</clus>
<clus scale="   91.123">  7  8 -1 -1</clus>
<clus scale="  132.306">  1  5  2 -1</clus>
<clus scale="   21.998">  1  5  2 -1</clus>
</clustering>
</event>
<event>
 9    1  0.1296032E-005  0.1236144E+03  0.7546771E-02  0.1246331E+00
          2   -1    0    0  502    0  0.00000000000E+00  0.00000000000E+00  0.69880621673E+03  0.69880621673E+03  0.00000000000E+00 0. -1.
         -2   -1    0    0    0  501 -0.00000000000E+00 -0.00000000000E+00 -0.57568803156E+02  0.57568803156E+02  0.00000000000E+00 0.  1.
         23    2    1    2    0    0 -0.40225775945E+02  0.86149933895E+01  0.32787595970E+02  0.12902612787E+03  0.11781504175E+03 0.  0.
         23    2    1    2    0    0  0.13342355856E+02 -0.34335238345E+02  0.30911782786E+03  0.32571353374E+03  0.95804736369E+02 0.  0.
        -11    1    4    4    0    0  0.48026895881E+02  0.19342107404E+00  0.99864354130E+02  0.11081294764E+03  0.00000000000E+00 0. -1.
         11    1    4    4    0    0 -0.34684540025E+02 -0.34528659419E+02  0.20925347373E+03  0.21490058610E+03  0.00000000000E+00 0.  1.
        -13    1    3    3    0    0  0.22587203095E+02 -0.12430057940E+02  0.53692228067E+02  0.59561257868E+02  0.00000000000E+00 0. -1.
         13    1    3    3    0    0 -0.62812979040E+02  0.21045051329E+02 -0.20904632097E+02  0.69464870002E+02  0.00000000000E+00 0.  1.
         21    1    1    2  502  501  0.26883420090E+02  0.25720244955E+02  0.29933198975E+03  0.30163535828E+03  0.00000000000E+00 0. -1.
<scales pt_clust_5="13000.00000" pt_clust_6="13000.00000" pt_clust_7="13000.00000" pt_clust_8="13000.00000" pt_clust_9="37.20550"></scales>
<clustering>
<clus scale="   37.206">  1  9  2 -1</clus>
<clus scale="   95.805">  5  6 -1 -1</clus>
<clus scale="  102.853">  1  5  2 -1</clus>
<clus scale="  117.815">  7  8 -1 -1</clus>
<clus scale="   37.206">  1  5  2 -1</clus>
</clustering>
</event>
<event>
 9    1  0.1296032E-005  0.9961576E+02  0.7546771E-02  0.1281419E+00
          1   -1    0    0  502    0  0.00000000000E+00  0.00000000000E+00  0.19032901447E+03  0.19032901447E+03  0.00000000000E+00 0. -1.
         -1   -1    0    0    0  501 -0.00000000000E+00 -0.00000000000E+00 -0.22944828716E+03  0.22944828716E+03  0.00000000000E+00 0.  1.
         23    2    1    2    0    0  0.40758580026E+02 -0.15082371573E+02 -0.19202186963E+03  0.21647747023E+03  0.90007538146E+02 0.  0.
         23    2    1    2    0    0 -0.16338311487E+02  0.23681884823E+02  0.74750931601E+02  0.12097131909E+03  0.90656418287E+02 0.  0.
        -11    1    4    4    0    0  0.24565413611E+02  0.38946571966E+02  0.18164362198E+02  0.49499889574E+02  0.00000000000E+00 0.  1.
         11    1    4    4    0    0 -0.40903725099E+02 -0.15264687143E+02  0.56586569403E+02  0.71471429518E+02  0.00000000000E+00 0. -1.
        -11    1    3    3    0    0 -0.17902513271E+02 -0.26509472210E+02 -0.30278121121E+02  0.44045620859E+02  0.00000000000E+00 0. -1.
         11    1    3    3    0    0  0.58661093297E+02  0.11427100638E+02 -0.16174374851E+03  0.17243184937E+03  0.00000000000E+00 0.  1.
         21    1    1    2  502  501 -0.24420268539E+02 -0.85995132501E+01  0.78151665337E+02  0.82328512307E+02  0.00000000000E+00 0. -1.
<scales pt_clust_5="13000.00000" pt_clust_6="13000.00000" pt_clust_7="13000.00000" pt_clust_8="13000.00000" pt_clust_9="25.89017"></scales>
<clustering>
<clus scale="   25.890">  1  9  2 -1</clus>
<clus scale="   90.008">  7  8 -1 -1</clus>
<clus scale="   90.656">  5  6 -1 -1</clus>
<clus scale="   99.026">  2  7  1 -1</clus>
<clus scale="   25.890">  1  5  2 -1</clus>
</clustering>
</event>
<event>
 9    1  0.1296032E-005  0.9283789E+02  0.7546771E-02  0.1296659E+00
          2   -1    0    0  502    0  0.00000000000E+00  0.00000000000E+00  0.10559821288E+03  0.10559821288E+03  0.00000000000E+00 0. -1.
         -2   -1    0    0    0  501 -0.00000000000E+00 -0.00000000000E+00 -0.18839775566E+03  0.18839775566E+03  0.00000000000E+00 0.  1.
         23    2    1    2    0    0  0.13101891928E+02 -0.44886288079E+01 -0.11570274930E+03  0.14869222274E+03  0.92360400320E+02 0.  0.
         23    2    1    2    0    0  0.19542145106E+02  0.18757142677E+02 -0.20639533726E+01  0.95384551956E+02  0.91434277006E+02 0.  0.
        -13    1    3    3    0    0 -0.30155971421E+01 -0.28796640392E+02  0.42568862081E+00  0.28957236312E+02  0.00000000000E+00 0. -1.
         13    1    3    3    0    0  0.16117489070E+02  0.24308011584E+02 -0.11612843792E+03  0.11973498643E+03  0.00000000000E+00 0.  1.
        -13    1    4    4    0    0 -0.27075538928E+02 -0.10110410375E+02  0.21177763042E+02  0.35830194720E+02  0.00000000000E+00 0. -1.
         13    1    4    4    0    0  0.46617684034E+02  0.28867553053E+02 -0.23241716415E+02  0.59554357236E+02  0.00000000000E+00 0.  1.
         21    1    1    2  502  501 -0.32644037034E+02 -0.14268513869E+02  0.34967159900E+02  0.49919193838E+02  0.00000000000E+00 0. -1.
<scales pt_clust_5="13000.00000" pt_clust_6="13000.00000" pt_clust_7="13000.00000" pt_clust_8="13000.00000" pt_clust_9="35.62617"></scales>
<clustering>
<clus scale="   35.626">  1  9  2 -1</clus>
<clus scale="   91.434">  7  8 -1 -1</clus>
<clus scale="   91.917">  1  7  2 -1</clus>
<clus scale="   92.360">  5  6 -1 -1</clus>
<clus scale="   35.626">  1  5  2 -1</clus>
</clustering>
</event>
<event>
 9    1  0.1296032E-005  0.9717214E+02  0.7546771E-02  0.1287312E+00
         -1   -1    0    0    0  501 -0.00000000000E+00  0.00000000000E+00  0.56076403187E+03  0.56076403187E+03  0.00000000000E+00 0.  1.
          1   -1    0    0  502    0  0.00000000000E+00 -0.00000000000E+00 -0.31231345354E+02  0.31231345354E+02  0.00000000000E+00 0. -1.
         23    2    1    2    0    0 -0.23590109285E+01  0.25709653625E+02  0.27610138155E+03  0.29149528353E+03  0.89838612005E+02 0.  0.
         23    2    1    2    0    0 -0.85471864378E+01 -0.51517616631E+02  0.25253502722E+03  0.27246797980E+03  0.87964429301E+02 0.  0.
        -11    1    4    4    0    0  0.29195274986E+02  0.39081141795E+01  0.40475408079E+02  0.50058926248E+02  0.00000000000E+00 0. -1.
         11    1    4    4    0    0 -0.37742461424E+02 -0.55425730810E+02  0.21205961914E+03  0.22240905355E+03  0.00000000000E+00 0.  1.
        -13    1    3    3    0    0 -0.94325461308E+01  0.53667572861E+02  0.23532542690E+03  0.24155172913E+03  0.00000000000E+00 0.  1.
         13    1    3    3    0    0  0.70735352023E+01 -0.27957919236E+02  0.40775954650E+02  0.49943554398E+02  0.00000000000E+00 0. -1.
         21    1    1    2  502  501  0.10906197366E+02  0.25807963006E+02  0.89627774619E+00  0.28032113893E+02  0.00000000000E+00 0.  1.
<scales pt_clust_5="13000.00000" pt_clust_6="13000.00000" pt_clust_7="13000.00000" pt_clust_8="13000.00000" pt_clust_9="28.01778"></scales>
<clustering>
<clus scale="   28.018">  2  9  1 -1</clus>
<clus scale="   87.964">  5  6 -1 -1</clus>
<clus scale="   89.839">  7  8 -1 -1</clus>
<clus scale="   95.442">  2  5  1 -1</clus>
<clus scale="   28.018">  2  5  1 -1</clus>
</clustering>
</event>
<event>
 9    1  0.1296032E-005  0.1241331E+03  0.7546771E-02  0.1237959E+00
         -2   -1    0    0    0  501 -0.00000000000E+00  0.00000000000E+00  0.12947801214E+03  0.12947801214E+03  0.00000000000E+00 0.  1.
          2   -1    0    0  502    0  0.00000000000E+00 -0.00000000000E+00 -0.18703121699E+03  0.18703121699E+03  0.00000000000E+00 0. -1.
         23    2    1    2    0    0 -0.58378069127E+02  0.72039166263E+02  0.14950100081E+02  0.13368568267E+03  0.95135250182E+02 0.  0.
         23    2    1    2    0    0  0.27088033267E+02 -0.61915381901E+02 -0.11114545014E+02  0.11318062006E+03  0.90105735579E+02 0.  0.
        -11    1    3    3    0    0 -0.26057004714E+02  0.61034743033E+02  0.51251462595E+02  0.83850580021E+02  0.00000000000E+00 0.  1.
         11    1    3    3    0    0 -0.32321064414E+02  0.11004423230E+02 -0.36301362514E+02  0.49835102647E+02  0.00000000000E+00 0. -1.
        -13    1    4    4    0    0 -0.28623376715E+02 -0.35857185264E+02  0.12086080912E+02  0.47445851046E+02  0.00000000000E+00 0. -1.
         13    1    4    4    0    0  0.55711409981E+02 -0.26058196637E+02 -0.23200625926E+02  0.65734769015E+02  0.00000000000E+00 0.  1.
         21    1    1    2  502  501  0.31290035861E+02 -0.10123784362E+02 -0.61388759919E+02  0.69642926406E+02  0.00000000000E+00 0. -1.
<scales pt_clust_5="13000.00000" pt_clust_6="13000.00000" pt_clust_7="13000.00000" pt_clust_8="13000.00000" pt_clust_9="32.88704"></scales>
<clustering>
<clus scale="   32.887">  2  9  1 -1</clus>
<clus scale="   90.106">  7  8 -1 -1</clus>
<clus scale="   95.135">  5  6 -1 -1</clus>
<clus scale="  120.322">  2  7  1 -1</clus>
<clus scale="   32.887">  2  5  1 -1</clus>
</clustering>
</event>
<event>
 9    1  0.1296032E-005  0.1428553E+03  0.7546771E-02  0.1210588E+00
         -2   -1    0    0    0  501 -0.00000000000E+00  0.00000000000E+00  0.66383608361E+02  0.66383608361E+02  0.00000000000E+00 0.  1.
          2   -1    0    0  502    0  0.00000000000E+00 -0.00000000000E+00 -0.83798759246E+03  0.83798759246E+03  0.00000000000E+00 0. -1.
         23    2    1    2    0    0 -0.79851077001E+01  0.11102489794E+03 -0.10950420761E+03  0.18084945375E+03  0.91241786098E+02 0.  0.
         23    2    1    2    0    0 -0.10703738938E+03 -0.82190824530E+02 -0.30250980198E+03  0.34488401996E+03  0.96023291794E+02 0.  0.
        -13    1    3    3    0    0 -0.36219574384E+02  0.76987251676E+02 -0.30637421463E+02  0.90429785376E+02  0.00000000000E+00 0.  1.
         13    1    3    3    0    0  0.28234466684E+02  0.34037646265E+02 -0.78866786144E+02  0.90419668374E+02  0.00000000000E+00 0. -1.
        -13    1    4    4    0    0 -0.12349035200E+02 -0.50193371912E+02 -0.17725998785E+03  0.18464283508E+03  0.00000000000E+00 0. -1.
         13    1    4    4    0    0 -0.94688354179E+02 -0.31997452619E+02 -0.12524981413E+03  0.16024118488E+03  0.00000000000E+00 0.  1.
         21    1    1    2  502  501  0.11502249708E+03 -0.28834073410E+02 -0.35958997451E+03  0.37863772711E+03  0.00000000000E+00 0. -1.
<scales pt_clust_5="13000.00000" pt_clust_6="13000.00000" pt_clust_7="13000.00000" pt_clust_8="13000.00000" pt_clust_9="118.58153"></scales>
<clustering>
<clus scale="   91.242">  5  6 -1 -1</clus>
<clus scale="   96.023">  7  8 -1 -1</clus>
<clus scale="  118.582">  2  9  1 -1</clus>
<clus scale="  139.686">  1  5  2 -1</clus>
<clus scale="  118.582">  2  5  1 -1</clus>
</clustering>
</event>
<event>
 9    1  0.1296032E-005  0.2108589E+03  0.7546771E-02  0.1140904E+00
          1   -1    0    0  502    0  0.00000000000E+00  0.00000000000E+00  0.15583974658E+04  0.15583974658E+04  0.00000000000E+00 0. -1.
         -1   -1    0    0    0  501 -0.00000000000E+00 -0.00000000000E+00 -0.40377827908E+02  0.40377827908E+02  0.00000000000E+00 0.  1.
         23    2    1    2    0    0 -0.12039794631E+03 -0.14709445137E+03  0.37373833746E+03  0.42901533039E+03  0.90781968048E+02 0.  0.
         23    2    1    2    0    0  0.10139085726E+03  0.16148132174E+03  0.10927115278E+04  0.11129471750E+04  0.90975865122E+02 0.  0.
        -11    1    3    3    0    0 -0.52864591988E+02 -0.38248373090E+02  0.54430870604E+02  0.84972482633E+02  0.00000000000E+00 0.  1.
         11    1    3    3    0    0 -0.67533354325E+02 -0.10884607828E+03  0.31930746686E+03  0.34404284776E+03  0.00000000000E+00 0. -1.
        -11    1    4    4    0    0  0.16949409077E+02  0.10858514935E+03  0.50181048335E+03  0.51370397928E+03  0.00000000000E+00 0.  1.
         11    1    4    4    0    0  0.84441448185E+02  0.52896172389E+02  0.59090104446E+03  0.59924319568E+03  0.00000000000E+00 0. -1.
         21    1    1    2  502  501  0.19007089051E+02 -0.14386870372E+02  0.51569772669E+02  0.56812788406E+02  0.00000000000E+00 0.  1.
<scales pt_clust_5="13000.00000" pt_clust_6="13000.00000" pt_clust_7="13000.00000" pt_clust_8="13000.00000" pt_clust_9="23.83803"></scales>
<clustering>
<clus scale="   23.838">  2  9  1 -1</clus>
<clus scale="   90.782">  5  6 -1 -1</clus>
<clus scale="   90.976">  7  8 -1 -1</clus>
<clus scale="  210.775">  2  5  1 -1</clus>
<clus scale="  210.859">  1  5  2 -1</clus>
</clustering>
</event>
<event>
 9    1  0.1296032E-005  0.9716494E+02  0.7546771E-02  0.1287023E+00
          3   -1    0    0  502    0  0.00000000000E+00  0.00000000000E+00  0.19205251653E+03  0.19205251653E+03  0.00000000000E+00 0. -1.
         -3   -1    0    0    0  501 -0.00000000000E+00 -0.00000000000E+00 -0.74864072499E+02  0.74864072499E+02  0.00000000000E+00 0.  1.
         23    2    1    2    0    0  0.42928026504E+02 -0.81967315617E+01  0.13402784947E+02  0.10112847736E+03  0.90207163912E+02 0.  0.
         23    2    1    2    0    0 -0.18094421886E+02 -0.96198234819E+01  0.56372318348E+02  0.10937745282E+03  0.91463871569E+02 0.  0.
        -11    1    4    4    0    0 -0.23898951492E+02 -0.42965994053E+02  0.57319470414E+02  0.75516608874E+02  0.00000000000E+00 0. -1.
         11    1    4    4    0    0  0.58045296057E+01  0.33346170571E+02 -0.94715206574E+00  0.33860843946E+02  0.00000000000E+00 0.  1.
        -13    1    3    3    0    0  0.89389902888E+01 -0.33582102765E+02 -0.25865931272E+02  0.43321006153E+02  0.00000000000E+00 0. -1.
         13    1    3    3    0    0  0.33989036215E+02  0.25385371203E+02  0.39268716219E+02  0.57807471208E+02  0.00000000000E+00 0.  1.
         21    1    1    2  502  501 -0.24833604618E+02  0.17816555044E+02  0.47413340739E+02  0.56410658851E+02  0.00000000000E+00 0. -1.
<scales pt_clust_5="13000.00000" pt_clust_6="13000.00000" pt_clust_7="13000.00000" pt_clust_8="13000.00000" pt_clust_9="30.56366"></scales>
<clustering>
<clus scale="   30.564">  1  9  2 -1</clus>
<clus scale="   90.207">  7  8 -1 -1</clus>
<clus scale="   91.464">  5  6 -1 -1</clus>
<clus scale="   95.983">  2  7  1 -1</clus>
<clus scale="   30.564">  1  5  2 -1</clus>
</clustering>
</event>
<event>
 9    1  0.1296032E-005  0.1034895E+03  0.7546771E-02  0.1273882E+00
         -1   -1    0    0    0  501 -0.00000000000E+00  0.00000000000E+00  0.31001541684E+03  0.31001541684E+03  0.00000000000E+00 0.  1.
          1   -1    0    0  502    0  0.00000000000E+00 -0.00000000000E+00 -0.52989697105E+02  0.52989697105E+02  0.00000000000E+00 0. -1.
         23    2    1    2    0    0  0.20621761392E+02  0.27909757124E+02  0.10896091526E+03  0.14532061998E+03  0.89673797471E+02 0.  0.
         23    2    1    2    0    0 -0.93562532541E+01 -0.70201287406E+02  0.11218460310E+03  0.16109055384E+03  0.91372978153E+02 0.  0.
        -11    1    4    4    0    0 -0.35941002511E+02 -0.40704721668E+02  0.15348053045E+02  0.56428651941E+02  0.00000000000E+00 0. -1.
         11    1    4    4    0    0  0.26584749257E+02 -0.29496565738E+02  0.96836550053E+02  0.10466190190E+03  0.00000000000E+00 0.  1.
        -13    1    3    3    0    0 -0.34203303123E+02  0.52949658909E+01  0.25753826131E+02  0.43141188772E+02  0.00000000000E+00 0. -1.
         13    1    3    3    0    0  0.54825064515E+02  0.22614791233E+02  0.83207089129E+02  0.10217943121E+03  0.00000000000E+00 0.  1.
         21    1    1    2  502  501 -0.11265508138E+02  0.42291530282E+02  0.35880201380E+02  0.56593940120E+02  0.00000000000E+00 0. -1.
<scales pt_clust_5="13000.00000" pt_clust_6="13000.00000" pt_clust_7="13000.00000" pt_clust_8="13000.00000" pt_clust_9="43.76626"></scales>
<clustering>
<clus scale="   43.766">  2  9  1 -1</clus>
<clus scale="   89.674">  7  8 -1 -1</clus>
<clus scale="   91.373">  5  6 -1 -1</clus>
<clus scale="  101.992">  1  7  2 -1</clus>
<clus scale="   43.766">  2  5  1 -1</clus>
</clustering>
</event>
<event>
 9    1  0.1296032E-005  0.1095728E+03  0.7546771E-02  0.1262089E+00
         -1   -1    0    0    0  501 -0.00000000000E+00  0.00000000000E+00  0.44895903846E+03  0.44895903846E+03  0.00000000000E+00 0.  1.
          1   -1    0    0  502    0  0.00000000000E+00 -0.00000000000E+00 -0.59160220111E+02  0.59160220111E+02  0.00000000000E+00 0. -1.
         23    2    1    2    0    0 -0.40118827040E+02 -0.39121137734E+02  0.28181501845E+03  0.30218522522E+03  0.93574686828E+02 0.  0.
         23    2    1    2    0    0  0.20892734553E+01  0.76780865897E+02  0.59150927098E+02  0.13348300481E+03  0.91756274798E+02 0.  0.
        -11    1    3    3    0    0 -0.36614820134E+02  0.42958553818E+01  0.32662455431E+02  0.49253785862E+02  0.00000000000E+00 0.  1.
         11    1    3    3    0    0 -0.35040069063E+01 -0.43416993116E+02  0.24915256302E+03  0.25293143936E+03  0.00000000000E+00 0. -1.
        -11    1    4    4    0    0  0.28085530579E+02  0.32438885472E+02 -0.13055607453E+02  0.44850052448E+02  0.00000000000E+00 0. -1.
         11    1    4    4    0    0 -0.25996257124E+02  0.44341980425E+02  0.72206534551E+02  0.88632952361E+02  0.00000000000E+00 0.  1.
         21    1    1    2  502  501  0.38029553585E+02 -0.37659728163E+02  0.48832872800E+02  0.72451028544E+02  0.00000000000E+00 0.  1.
<scales pt_clust_5="13000.00000" pt_clust_6="13000.00000" pt_clust_7="13000.00000" pt_clust_8="13000.00000" pt_clust_9="53.52104"></scales>
<clustering>
<clus scale="   53.521">  2  9  1 -1</clus>
<clus scale="   91.756">  7  8 -1 -1</clus>
<clus scale="   93.575">  5  6 -1 -1</clus>
<clus scale="  108.024">  2  7  1 -1</clus>
<clus scale="   53.521">  2  5  1 -1</clus>
</clustering>
</event>
<event>
 9    1  0.1296032E-005  0.9941779E+02  0.7546771E-02  0.1282158E+00
          1   -1    0    0  502    0  0.00000000000E+00  0.00000000000E+00  0.83896954316E+02  0.83896954316E+02  0.00000000000E+00 0. -1.
         -1   -1    0    0    0  501 -0.00000000000E+00 -0.00000000000E+00 -0.15949232516E+03  0.15949232516E+03  0.00000000000E+00 0.  1.
         23    2    1    2    0    0  0.28246927139E+02  0.40677167385E+01 -0.64565154416E+02  0.11647785408E+03  0.92649857600E+02 0.  0.
         23    2    1    2    0    0 -0.49166835127E+02 -0.10665318987E+02 -0.64891450070E+01  0.10451070587E+03  0.91374241085E+02 0.  0.
        -11    1    4    4    0    0 -0.68640949924E+02 -0.29512541467E+01  0.19226448975E+02  0.71343859215E+02  0.00000000000E+00 0. -1.
         11    1    4    4    0    0  0.19474114797E+02 -0.77140648401E+01 -0.25715593982E+02  0.33166846659E+02  0.00000000000E+00 0.  1.
        -11    1    3    3    0    0  0.46122952863E+02  0.27329815949E+02 -0.10015283262E+02  0.54539449203E+02  0.00000000000E+00 0.  1.
         11    1    3    3    0    0 -0.17876025724E+02 -0.23262099210E+02 -0.54549871154E+02  0.61938404874E+02  0.00000000000E+00 0. -1.
         21    1    1    2  502  501  0.20919907988E+02  0.65976022482E+01 -0.45410714242E+01  0.22400719527E+02  0.00000000000E+00 0.  1.
<scales pt_clust_5="13000.00000" pt_clust_6="13000.00000" pt_clust_7="13000.00000" pt_clust_8="13000.00000" pt_clust_9="21.93561"></scales>
<clustering>
<clus scale="   21.936">  1  9  2 -1</clus>
<clus scale="   91.374">  5  6 -1 -1</clus>
<clus scale="   92.650">  7  8 -1 -1</clus>
<clus scale="   98.230">  1  5  2 -1</clus>
<clus scale="   21.936">  1  5  2 -1</clus>
</clustering>
</event>
<event>
 9    1  0.1296032E-005  0.9550480E+02  0.7546771E-02  0.1291250E+00
          2   -1    0    0  502    0  0.00000000000E+00  0.00000000000E+00  0.25460251843E+03  0.25460251843E+03  0.00000000000E+00 0. -1.
         -2   -1    0    0    0  501 -0.00000000000E+00 -0.00000000000E+00 -0.12830146758E+03  0.12830146758E+03  0.00000000000E+00 0.  1.
         23    2    1    2    0    0 -0.36528489520E+01 -0.13521626296E+02 -0.75728660891E+02  0.12092356867E+03  0.93228223716E+02 0.  0.
         23    2    1    2    0    0  0.16105161293E+02  0.47154562852E+02  0.70049907971E+02  0.12521454766E+03  0.91042651111E+02 0.  0.
        -13    1    3    3    0    0 -0.28674650507E+02 -0.32152528049E+02 -0.46890073016E+01  0.43335983099E+02  0.00000000000E+00 0.  1.
         13    1    3    3    0    0  0.25021801555E+02  0.18630901754E+02 -0.71039653589E+02  0.77587585574E+02  0.00000000000E+00 0. -1.
        -13    1    4    4    0    0 -0.31089798011E+02  0.39104671150E+02  0.56580893517E+02  0.75479456525E+02  0.00000000000E+00 0. -1.
         13    1    4    4    0    0  0.47194959303E+02  0.80498917026E+01  0.13469014454E+02  0.49735091137E+02  0.00000000000E+00 0.  1.
         21    1    1    2  502  501 -0.12452312341E+02 -0.33632936557E+02  0.13197980377E+03  0.13676586967E+03  0.00000000000E+00 0. -1.
<scales pt_clust_5="13000.00000" pt_clust_6="13000.00000" pt_clust_7="13000.00000" pt_clust_8="13000.00000" pt_clust_9="35.86411"></scales>
<clustering>
<clus scale="   35.864">  1  9  2 -1</clus>
<clus scale="   91.043">  7  8 -1 -1</clus>
<clus scale="   93.228">  5  6 -1 -1</clus>
<clus scale="   93.373">  1  7  2 -1</clus>
<clus scale="   35.864">  1  5  2 -1</clus>
</clustering>
</event>
<event>
 9    1  0.1296032E-005  0.9847943E+02  0.7546771E-02  0.1283797E+00
          2   -1    0    0  502    0  0.00000000000E+00  0.00000000000E+00  0.52560018991E+03  0.52560018991E+03  0.00000000000E+00 0. -1.
         -2   -1    0    0    0  501 -0.00000000000E+00 -0.00000000000E+00 -0.40777402193E+02  0.40777402193E+02  0.00000000000E+00 0.  1.
         23    2    1    2    0    0 -0.28868199248E+02  0.99618056161E+01  0.47682834175E+02  0.10780898805E+03  0.91741564905E+02 0.  0.
         23    2    1    2    0    0  0.50639037618E+02 -0.27034274917E+02  0.30266843929E+03  0.32128048818E+03  0.91201994479E+02 0.  0.
        -11    1    3    3    0    0  0.21048800935E+02 -0.15932740138E+02 -0.90709324474E+01  0.27913904144E+02  0.00000000000E+00 0.  1.
         11    1    3    3    0    0 -0.49917000182E+02  0.25894545754E+02  0.56753766623E+02  0.79895083909E+02  0.00000000000E+00 0. -1.
        -11    1    4    4    0    0 -0.23315154883E+02 -0.68480074269E+01  0.33348512188E+02  0.41262754611E+02  0.00000000000E+00 0.  1.
         11    1    4    4    0    0  0.73954192500E+02 -0.20186267490E+02  0.26931992710E+03  0.28001773357E+03  0.00000000000E+00 0. -1.
         21    1    1    2  502  501 -0.21770838370E+02  0.17072469301E+02  0.13447151426E+03  0.13728811587E+03  0.00000000000E+00 0.  1.
<scales pt_clust_5="13000.00000" pt_clust_6="13000.00000" pt_clust_7="13000.00000" pt_clust_8="13000.00000" pt_clust_9="27.66656"></scales>
<clustering>
<clus scale="   27.667">  1  9  2 -1</clus>
<clus scale="   91.202">  7  8 -1 -1</clus>
<clus scale="   91.742">  5  6 -1 -1</clus>
<clus scale="   97.977">  1  7  2 -1</clus>
<clus scale="   27.667">  1  5  2 -1</clus>
</clustering>
</event>
<event>
 9    1  0.1296032E-005  0.1688398E+03  0.7546771E-02  0.1179693E+00
         -3   -1    0    0    0  501 -0.00000000000E+00  0.00000000000E+00  0.10227496343E+04  0.10227496343E+04  0.00000000000E+00 0.  1.
          3   -1    0    0  502    0  0.00000000000E+00 -0.00000000000E+00 -0.37119910353E+02  0.37119910353E+02  0.00000000000E+00 0. -1.
         23    2    1    2    0    0 -0.12225218725E+03 -0.25734939700E+02  0.45232429202E+03  0.47815994753E+03  0.91824756261E+02 0.  0.
         23    2    1    2    0    0  0.15451776856E+03  0.22971968264E+02  0.50954919728E+03  0.54154667349E+03  0.96067491852E+02 0.  0.
        -11    1    4    4    0    0  0.13876211321E+03 -0.15846800643E+02  0.35693392836E+03  0.38328563026E+03  0.00000000000E+00 0. -1.
         11    1    4    4    0    0  0.15755655356E+02  0.38818768907E+02  0.15261526892E+03  0.15826104322E+03  0.00000000000E+00 0.  1.
        -13    1    3    3    0    0 -0.80988123324E+02 -0.60431028452E+02  0.28731647889E+03  0.30456812762E+03  0.00000000000E+00 0.  1.
         13    1    3    3    0    0 -0.41264063926E+02  0.34696088753E+02  0.16500781314E+03  0.17359181992E+03  0.00000000000E+00 0. -1.
         21    1    1    2  502  501 -0.32265581314E+02  0.27629714352E+01  0.23756234601E+02  0.40162923588E+02  0.00000000000E+00 0.  1.
<scales pt_clust_5="13000.00000" pt_clust_6="13000.00000" pt_clust_7="13000.00000" pt_clust_8="13000.00000" pt_clust_9="32.38366"></scales>
<clustering>
<clus scale="   32.384">  2  9  1 -1</clus>
<clus scale="   91.825">  7  8 -1 -1</clus>
<clus scale="   96.067">  5  6 -1 -1</clus>
<clus scale="  166.462">  1  7  2 -1</clus>
<clus scale="   32.384">  2  5  1 -1</clus>
</clustering>
</event>
<event>
 9    1  0.1296032E-005  0.1082101E+03  0.7546771E-02  0.1264491E+00
         -2   -1    0    0    0  501 -0.00000000000E+00  0.00000000000E+00  0.41957268283E+02  0.41957268283E+02  0.00000000000E+00 0.  1.
          2   -1    0    0  502    0  0.00000000000E+00 -0.00000000000E+00 -0.68333253353E+03  0.68333253353E+03  0.00000000000E+00 0. -1.
         23    2    1    2    0    0 -0.77998940363E+02 -0.17551371880E+02 -0.14038532357E+03  0.18655587330E+03  0.93290778958E+02 0.  0.
         23    2    1    2    0    0 -0.69861853358E+01  0.52179913947E+02 -0.25084873589E+03  0.27229025651E+03  0.91898559758E+02 0.  0.
        -13    1    4    4    0    0 -0.45019106098E+02  0.46962771631E+02 -0.12800645521E+03  0.14358925590E+03  0.00000000000E+00 0. -1.
         13    1    4    4    0    0  0.38032920763E+02  0.52171423164E+01 -0.12284228068E+03  0.12870100061E+03  0.00000000000E+00 0.  1.
        -13    1    3    3    0    0 -0.57427811453E+02  0.97358606417E-01 -0.16515827013E+02  0.59755631943E+02  0.00000000000E+00 0.  1.
         13    1    3    3    0    0 -0.20571128910E+02 -0.17648730486E+02 -0.12386949656E+03  0.12680024136E+03  0.00000000000E+00 0. -1.
         21    1    1    2  502  501  0.84985125699E+02 -0.34628542068E+02 -0.25014120578E+03  0.26644367200E+03  0.00000000000E+00 0.  1.
<scales pt_clust_5="13000.00000" pt_clust_6="13000.00000" pt_clust_7="13000.00000" pt_clust_8="13000.00000" pt_clust_9="91.76932"></scales>
<clustering>
<clus scale="   91.769">  2  9  1 -1</clus>
<clus scale="   91.899">  5  6 -1 -1</clus>
<clus scale="   93.291">  7  8 -1 -1</clus>
<clus scale="  107.012">  2  5  1 -1</clus>
<clus scale="   91.769">  2  5  1 -1</clus>
</clustering>
</event>
<event>
 9    1  0.1296032E-005  0.1797641E+03  0.7546771E-02  0.1168572E+00
          1   -1    0    0  502    0  0.00000000000E+00  0.00000000000E+00  0.15411854439E+03  0.15411854439E+03  0.00000000000E+00 0. -1.
         -1   -1    0    0    0  501 -0.00000000000E+00 -0.00000000000E+00 -0.62165060024E+03  0.62165060024E+03  0.00000000000E+00 0.  1.
         23    2    1    2    0    0 -0.86143697516E+02 -0.12349519080E+03 -0.52034750251E+03  0.54916183042E+03  0.90251835716E+02 0.  0.
         23    2    1    2    0    0  0.98954447359E+02  0.14234379357E+03  0.49575422842E+02  0.20358812891E+03  0.94533938151E+02 0.  0.
        -11    1    3    3    0    0 -0.52793746735E+02 -0.13066661843E+03 -0.43457586267E+03  0.45685569415E+03  0.00000000000E+00 0.  1.
         11    1    3    3    0    0 -0.33349950781E+02  0.71714276326E+01 -0.85771639839E+02  0.92306136265E+02  0.00000000000E+00 0. -1.
        -13    1    4    4    0    0  0.25501322709E+02  0.69616806769E+02  0.65589351179E+02  0.98988788419E+02  0.00000000000E+00 0. -1.
         13    1    4    4    0    0  0.73453124650E+02  0.72726986797E+02 -0.16013928336E+02  0.10459934049E+03  0.00000000000E+00 0.  1.
         21    1    1    2  502  501 -0.12810749844E+02 -0.18848602767E+02  0.32400238121E+01  0.23019185305E+02  0.00000000000E+00 0.  1.
<scales pt_clust_5="13000.00000" pt_clust_6="13000.00000" pt_clust_7="13000.00000" pt_clust_8="13000.00000" pt_clust_9="22.79002"></scales>
<clustering>
<clus scale="   22.790">  1  9  2 -1</clus>
<clus scale="   90.252">  5  6 -1 -1</clus>
<clus scale="   94.534">  7  8 -1 -1</clus>
<clus scale="  177.550">  2  5  1 -1</clus>
<clus scale="   22.790">  1  5  2 -1</clus>
</clustering>
</event>
<event>
 9    1  0.1296032E-005  0.1100879E+03  0.7546771E-02  0.1260514E+00
         -1   -1    0    0    0  501 -0.00000000000E+00  0.00000000000E+00  0.11730037914E+03  0.11730037914E+03  0.00000000000E+00 0.  1.
          1   -1    0    0  502    0  0.00000000000E+00 -0.00000000000E+00 -0.19085742853E+03  0.19085742853E+03  0.00000000000E+00 0. -1.
         23    2    1    2    0    0 -0.48613856439E+02 -0.42643222838E+01  0.78582054575E+01  0.10370542363E+03  0.91167823351E+02 0.  0.
         23    2    1    2    0    0  0.76020412006E+02  0.13996553287E+02 -0.18666933758E+01  0.11975404144E+03  0.91446920954E+02 0.  0.
        -11    1    4    4    0    0  0.70610250682E+02 -0.21582413032E+02  0.21431945842E+02  0.76882614135E+02  0.00000000000E+00 0.  1.
         11    1    4    4    0    0  0.54101613240E+01  0.35578966319E+02 -0.23298639218E+02  0.42871427307E+02  0.00000000000E+00 0. -1.
        -11    1    3    3    0    0  0.38304330861E+01 -0.25202538161E+02  0.33160355717E+02  0.41826419147E+02  0.00000000000E+00 0.  1.
         11    1    3    3    0    0 -0.52444289525E+02  0.20938215877E+02 -0.25302150260E+02  0.61879004482E+02  0.00000000000E+00 0. -1.
         21    1    1    2  502  501 -0.27406555567E+02 -0.97322310031E+01 -0.79548561467E+02  0.84698342603E+02  0.00000000000E+00 0. -1.
<scales pt_clust_5="13000.00000" pt_clust_6="13000.00000" pt_clust_7="13000.00000" pt_clust_8="13000.00000" pt_clust_9="29.08325"></scales>
<clustering>
<clus scale="   29.083">  2  9  1 -1</clus>
<clus scale="   91.168">  7  8 -1 -1</clus>
<clus scale="   91.447">  5  6 -1 -1</clus>
<clus scale="  109.856">  1  7  2 -1</clus>
<clus scale="   29.083">  2  5  1 -1</clus>
</clustering>
</event>
<event>
 9    1  0.1296032E-005  0.1016212E+03  0.7546771E-02  0.1280343E+00
          1   -1    0    0  502    0  0.00000000000E+00  0.00000000000E+00  0.41747493768E+03  0.41747493768E+03  0.00000000000E+00 0. -1.
         -1   -1    0    0    0  501 -0.00000000000E+00 -0.00000000000E+00 -0.60900424297E+02  0.60900424297E+02  0.00000000000E+00 0.  1.
         23    2    1    2    0    0  0.26011736178E+02  0.11858758769E+02  0.31718276954E+02  0.10063749704E+03  0.91129666619E+02 0.  0.
         23    2    1    2    0    0  0.24151391681E+02 -0.57955018737E+02  0.14780071455E+03  0.18802792211E+03  0.97812955973E+02 0.  0.
        -13    1    4    4    0    0  0.34207179759E+02 -0.78505659820E+02  0.82799125864E+02  0.11911744211E+03  0.00000000000E+00 0. -1.
         13    1    4    4    0    0 -0.10055788077E+02  0.20550641083E+02  0.65001588686E+02  0.68910480005E+02  0.00000000000E+00 0.  1.
        -13    1    3    3    0    0 -0.18713975563E+02 -0.99215942360E+01 -0.19818856734E+02  0.29007550669E+02  0.00000000000E+00 0.  1.
         13    1    3    3    0    0  0.44725711741E+02  0.21780353005E+02  0.51537133688E+02  0.71629946367E+02  0.00000000000E+00 0. -1.
         21    1    1    2  502  501 -0.50163127859E+02  0.46096259968E+02  0.17705552188E+03  0.18970994283E+03  0.00000000000E+00 0.  1.
<scales pt_clust_5="13000.00000" pt_clust_6="13000.00000" pt_clust_7="13000.00000" pt_clust_8="13000.00000" pt_clust_9="68.12639"></scales>
<clustering>
<clus scale="   68.126">  1  9  2 -1</clus>
<clus scale="   91.130">  7  8 -1 -1</clus>
<clus scale="   95.206">  2  7  1 -1</clus>
<clus scale="   97.813">  5  6 -1 -1</clus>
<clus scale="   68.126">  1  5  2 -1</clus>
</clustering>
</event>
<event>
 9    1  0.1296032E-005  0.1202280E+03  0.7546771E-02  0.1244693E+00
          1   -1    0    0  502    0  0.00000000000E+00  0.00000000000E+00  0.36923303690E+02  0.36923303690E+02  0.00000000000E+00 0. -1.
         -1   -1    0    0    0  501 -0.00000000000E+00 -0.00000000000E+00 -0.67129760007E+03  0.67129760007E+03  0.00000000000E+00 0.  1.
         23    2    1    2    0    0  0.46676557340E+02 -0.31040913343E+02 -0.26690468453E+03  0.28772839515E+03  0.91691217924E+02 0.  0.
         23    2    1    2    0    0 -0.90203320230E+02 -0.21125024190E+02 -0.21569985024E+03  0.25420984365E+03  0.97536216806E+02 0.  0.
        -11    1    3    3    0    0 -0.24803702904E+02  0.79178524799E+01 -0.67324258801E+02  0.72183598475E+02  0.00000000000E+00 0.  1.
         11    1    3    3    0    0  0.71480260244E+02 -0.38958765823E+02 -0.19958042573E+03  0.21554479667E+03  0.00000000000E+00 0. -1.
        -11    1    4    4    0    0 -0.10440303333E+03  0.12637157548E+01 -0.14482113878E+03  0.17853501780E+03  0.00000000000E+00 0.  1.
         11    1    4    4    0    0  0.14199713099E+02 -0.22388739945E+02 -0.70878711466E+02  0.75674825850E+02  0.00000000000E+00 0. -1.
         21    1    1    2  502  501  0.43526762890E+02  0.52165937533E+02 -0.15176976161E+03  0.16628266496E+03  0.00000000000E+00 0. -1.
<scales pt_clust_5="13000.00000" pt_clust_6="13000.00000" pt_clust_7="13000.00000" pt_clust_8="13000.00000" pt_clust_9="67.94015"></scales>
<clustering>
<clus scale="   67.940">  2  9  1 -1</clus>
<clus scale="   91.691">  5  6 -1 -1</clus>
<clus scale="   97.536">  7  8 -1 -1</clus>
<clus scale="  115.537">  2  5  1 -1</clus>
<clus scale="  120.228">  1  5  2 -1</clus>
</clustering>
</event>
<event>
 9    1  0.1296032E-005  0.1175225E+03  0.7546771E-02  0.1247367E+00
         -1   -1    0    0    0  501 -0.00000000000E+00  0.00000000000E+00  0.52051617590E+02  0.52051617590E+02  0.00000000000E+00 0.  1.
          1   -1    0    0  502    0  0.00000000000E+00 -0.00000000000E+00 -0.50610295664E+03  0.50610295664E+03  0.00000000000E+00 0. -1.
         23    2    1    2    0    0 -0.73059072804E+02  0.22506911188E+02 -0.88170689484E+02  0.14839504296E+03  0.91666946712E+02 0.  0.
         23    2    1    2    0    0  0.52376151146E+02 -0.53414345213E+02 -0.15083666492E+03  0.19152349379E+03  0.91286339093E+02 0.  0.
        -13    1    3    3    0    0 -0.41419709975E+02  0.28212453190E+02 -0.10180670533E+03  0.11347308113E+03  0.00000000000E+00 0. -1.
         13    1    3    3    0    0 -0.31639362829E+02 -0.57055420014E+01  0.13636015849E+02  0.34921961829E+02  0.00000000000E+00 0.  1.
        -13    1    4    4    0    0 -0.22055784782E+02 -0.22816980484E+02 -0.18771531291E+02  0.36870620116E+02  0.00000000000E+00 0. -1.
         13    1    4    4    0    0  0.74431935927E+02 -0.30597364728E+02 -0.13206513363E+03  0.15465287367E+03  0.00000000000E+00 0.  1.
         21    1    1    2  502  501  0.20682921658E+02  0.30907434024E+02 -0.21504398464E+03  0.21823603749E+03  0.00000000000E+00 0.  1.
<scales pt_clust_5="13000.00000" pt_clust_6="13000.00000" pt_clust_7="13000.00000" pt_clust_8="13000.00000" pt_clust_9="37.18942"></scales>
<clustering>
<clus scale="   37.189">  2  9  1 -1</clus>
<clus scale="   91.286">  7  8 -1 -1</clus>
<clus scale="   91.667">  5  6 -1 -1</clus>
<clus scale="  117.226">  2  7  1 -1</clus>
<clus scale="   37.189">  2  5  1 -1</clus>
</clustering>
</event>
<event>
 9    1  0.1296032E-005  0.1216011E+03  0.7546771E-02  0.1243649E+00
         -2   -1    0    0    0  501 -0.00000000000E+00  0.00000000000E+00  0.86223376802E+02  0.86223376802E+02  0.00000000000E+00 0.  1.
          2   -1    0    0  502    0  0.00000000000E+00 -0.00000000000E+00 -0.60621167479E+03  0.60621167479E+03  0.00000000000E+00 0. -1.
         23    2    1    2    0    0 -0.17895308780E+02  0.68609790150E+02  0.29263482308E+02  0.12565704438E+03  0.99527865564E+02 0.  0.
         23    2    1    2    0    0  0.37450031836E+02 -0.53186677863E+02 -0.38780211905E+03  0.40341873230E+03  0.90138018837E+02 0.  0.
        -11    1    4    4    0    0  0.66176238625E+02 -0.29841367860E+02 -0.22330662396E+03  0.23480981688E+03  0.00000000000E+00 0.  1.
         11    1    4    4    0    0 -0.28726206789E+02 -0.23345310003E+02 -0.16449549509E+03  0.16860891542E+03  0.00000000000E+00 0. -1.
        -13    1    3    3    0    0 -0.43883640025E+02  0.60649905333E+02 -0.12430542941E+02  0.75886120448E+02  0.00000000000E+00 0. -1.
         13    1    3    3    0    0  0.25988331245E+02  0.79598848170E+01  0.41694025249E+02  0.49770923928E+02  0.00000000000E+00 0.  1.
         21    1    1    2  502  501 -0.19554723056E+02 -0.15423112288E+02 -0.16144966124E+03  0.16335927492E+03  0.00000000000E+00 0. -1.
<scales pt_clust_5="13000.00000" pt_clust_6="13000.00000" pt_clust_7="13000.00000" pt_clust_8="13000.00000" pt_clust_9="24.90501"></scales>
<clustering>
<clus scale="   24.905">  2  9  1 -1</clus>
<clus scale="   90.138">  5  6 -1 -1</clus>
<clus scale="   99.528">  7  8 -1 -1</clus>
<clus scale="  114.043">  2  5  1 -1</clus>
<clus scale="   24.905">  2  5  1 -1</clus>
</clustering>
</event>
<event>
 9    1  0.1296032E-005  0.1057447E+03  0.7546771E-02  0.1269599E+00
          1   -1    0    0  502    0  0.00000000000E+00  0.00000000000E+00  0.61960896864E+03  0.61960896864E+03  0.00000000000E+00 0. -1.
         -1   -1    0    0    0  501 -0.00000000000E+00 -0.00000000000E+00 -0.49149424911E+02  0.49149424911E+02  0.00000000000E+00 0.  1.
         23    2    1    2    0    0 -0.50492610370E+02 -0.32099892682E+01  0.23155330417E+02  0.10694864677E+03  0.91334746875E+02 0.  0.
         23    2    1    2    0    0  0.39814778495E+02  0.21837016301E+02  0.41762817545E+03  0.43036828823E+03  0.93495982359E+02 0.  0.
        -11    1    3    3    0    0  0.96994451831E+01  0.30098278577E+02 -0.60785163809E+01  0.32201459153E+02  0.00000000000E+00 0. -1.
         11    1    3    3    0    0 -0.60192055553E+02 -0.33308267845E+02  0.29233846798E+02  0.74747187620E+02  0.00000000000E+00 0.  1.
        -13    1    4    4    0    0 -0.20684360108E+02  0.35751546924E+02  0.14549137369E+03  0.15124072097E+03  0.00000000000E+00 0. -1.
         13    1    4    4    0    0  0.60499138603E+02 -0.13914530623E+02  0.27213680175E+03  0.27912756726E+03  0.00000000000E+00 0.  1.
         21    1    1    2  502  501  0.10677831874E+02 -0.18627027033E+02  0.12967603787E+03  0.13144145856E+03  0.00000000000E+00 0.  1.
<scales pt_clust_5="13000.00000" pt_clust_6="13000.00000" pt_clust_7="13000.00000" pt_clust_8="13000.00000" pt_clust_9="21.47050"></scales>
<clustering>
<clus scale="   21.470">  1  9  2 -1</clus>
<clus scale="   91.335">  5  6 -1 -1</clus>
<clus scale="   93.496">  7  8 -1 -1</clus>
<clus scale="  103.839">  2  5  1 -1</clus>
<clus scale="   21.470">  1  5  2 -1</clus>
</clustering>
</event>
<event>
 9    1  0.1296032E-005  0.9978780E+02  0.7546771E-02  0.1281264E+00
         -1   -1    0    0    0  501 -0.00000000000E+00  0.00000000000E+00  0.57997661251E+03  0.57997661251E+03  0.00000000000E+00 0.  1.
          1   -1    0    0  502    0  0.00000000000E+00 -0.00000000000E+00 -0.49100706550E+02  0.49100706550E+02  0.00000000000E+00 0. -1.
         23    2    1    2    0    0  0.44257093246E+01 -0.47844800631E+02  0.39246390177E+03  0.40506696329E+03  0.87992151388E+02 0.  0.
         23    2    1    2    0    0 -0.36391588952E+02  0.38126509233E+02  0.15605942522E+03  0.18622551600E+03  0.86875889389E+02 0.  0.
        -11    1    3    3    0    0 -0.23539678939E+02 -0.62765324844E+02  0.29728101308E+03  0.30474514471E+03  0.00000000000E+00 0.  1.
         11    1    3    3    0    0  0.27965388264E+02  0.14920524213E+02  0.95182888691E+02  0.10032181858E+03  0.00000000000E+00 0. -1.
        -11    1    4    4    0    0 -0.59159355032E+02  0.66062950448E+01  0.70669350159E+02  0.92399293687E+02  0.00000000000E+00 0.  1.
         11    1    4    4    0    0  0.22767766080E+02  0.31520214189E+02  0.85390075061E+02  0.93826222314E+02  0.00000000000E+00 0. -1.
         21    1    1    2  502  501  0.31965879627E+02  0.97182913973E+01 -0.17647421025E+02  0.37784839775E+02  0.00000000000E+00 0. -1.
<scales pt_clust_5="13000.00000" pt_clust_6="13000.00000" pt_clust_7="13000.00000" pt_clust_8="13000.00000" pt_clust_9="33.41052"></scales>
<clustering>
<clus scale="   33.411">  2  9  1 -1</clus>
<clus scale="   86.876">  7  8 -1 -1</clus>
<clus scale="   87.992">  5  6 -1 -1</clus>
<clus scale="   98.805">  2  7  1 -1</clus>
<clus scale="   33.411">  2  5  1 -1</clus>
</clustering>
</event>
<event>
 9    1  0.1296032E-005  0.1572823E+03  0.7546771E-02  0.1193775E+00
          1   -1    0    0  502    0  0.00000000000E+00  0.00000000000E+00  0.30930457524E+03  0.30930457524E+03  0.00000000000E+00 0. -1.
         -1   -1    0    0    0  501 -0.00000000000E+00 -0.00000000000E+00 -0.15437768234E+03  0.15437768234E+03  0.00000000000E+00 0.  1.
         23    2    1    2    0    0  0.87148062194E+02  0.10454340388E+03 -0.72475124705E+02  0.17361790091E+03  0.79789872639E+02 0.  0.
         23    2    1    2    0    0 -0.71664652127E+02 -0.70010830893E+02  0.14139034187E+03  0.19609498428E+03  0.91786029860E+02 0.  0.
        -11    1    4    4    0    0 -0.26359834232E+02 -0.28564734602E+01 -0.66543048876E+01  0.27336423959E+02  0.00000000000E+00 0.  1.
         11    1    4    4    0    0 -0.45304817895E+02 -0.67154357433E+02  0.14804464676E+03  0.16875856032E+03  0.00000000000E+00 0. -1.
        -13    1    3    3    0    0  0.81095393299E+02  0.55893394974E+02 -0.17632406165E+02  0.10005716448E+03  0.00000000000E+00 0.  1.
         13    1    3    3    0    0  0.60526688945E+01  0.48650008904E+02 -0.54842718541E+02  0.73560736429E+02  0.00000000000E+00 0. -1.
         21    1    1    2  502  501 -0.15483410067E+02 -0.34532572985E+02  0.86011675743E+02  0.93969372396E+02  0.00000000000E+00 0. -1.
<scales pt_clust_5="13000.00000" pt_clust_6="13000.00000" pt_clust_7="13000.00000" pt_clust_8="13000.00000" pt_clust_9="37.84488"></scales>
<clustering>
<clus scale="   37.845">  1  9  2 -1</clus>
<clus scale="   79.790">  7  8 -1 -1</clus>
<clus scale="   91.786">  5  6 -1 -1</clus>
<clus scale="  150.597">  2  7  1 -1</clus>
<clus scale="   37.845">  1  5  2 -1</clus>
</clustering>
</event>
<event>
 9    1  0.1296032E-005  0.1009214E+03  0.7546771E-02  0.1283074E+00
         -3   -1    0    0    0  501 -0.00000000000E+00  0.00000000000E+00  0.70016366546E+02  0.70016366546E+02  0.00000000000E+00 0.  1.
          3   -1    0    0  502    0  0.00000000000E+00 -0.00000000000E+00 -0.18980924074E+03  0.18980924074E+03  0.00000000000E+00 0. -1.
         23    2    1    2    0    0 -0.23874921271E+02 -0.38466816616E+02 -0.32373525092E+02  0.97997358070E+02  0.80658100743E+02 0.  0.
         23    2    1    2    0    0  0.46993918917E+02  0.17542077641E+02 -0.56090271049E+02  0.11762594288E+03  0.90407914641E+02 0.  0.
        -11    1    3    3    0    0 -0.41929577760E+01  0.23618044626E+02 -0.21001816456E+02  0.31882114443E+02  0.00000000000E+00 0. -1.
         11    1    3    3    0    0 -0.19681963495E+02 -0.62084861243E+02 -0.11371708636E+02  0.66115243627E+02  0.00000000000E+00 0.  1.
        -13    1    4    4    0    0  0.16540077421E+02  0.45712851596E+02 -0.58510066851E+02  0.76070144505E+02  0.00000000000E+00 0. -1.
         13    1    4    4    0    0  0.30453841496E+02 -0.28170773956E+02  0.24197958022E+01  0.41555798378E+02  0.00000000000E+00 0.  1.
         21    1    1    2  502  501 -0.23118997646E+02  0.20924738976E+02 -0.31329078049E+02  0.44202306329E+02  0.00000000000E+00 0. -1.
<scales pt_clust_5="13000.00000" pt_clust_6="13000.00000" pt_clust_7="13000.00000" pt_clust_8="13000.00000" pt_clust_9="31.18225"></scales>
<clustering>
<clus scale="   31.182">  2  9  1 -1</clus>
<clus scale="   80.658">  5  6 -1 -1</clus>
<clus scale="   90.408">  7  8 -1 -1</clus>
<clus scale="   92.289">  1  5  2 -1</clus>
<clus scale="   31.182">  2  5  1 -1</clus>
</clustering>
</event>
<event>
 9    1  0.1296032E-005  0.1752630E+03  0.7546771E-02  0.1172729E+00
         -1   -1    0    0    0  501 -0.00000000000E+00  0.00000000000E+00  0.12872087094E+03  0.12872087094E+03  0.00000000000E+00 0.  1.
          1   -1    0    0  502    0  0.00000000000E+00 -0.00000000000E+00 -0.42726583774E+03  0.42726583774E+03  0.00000000000E+00 0. -1.
         23    2    1    2    0    0  0.12275426752E+03 -0.75410534389E+02  0.14638337677E+02  0.17015287919E+03  0.89344067939E+02 0.  0.
         23    2    1    2    0    0 -0.13685180846E+03  0.10009357181E+03 -0.24267542939E+03  0.30981177053E+03  0.91350033045E+02 0.  0.
        -11    1    4    4    0    0 -0.21920557098E+02  0.57874159967E+02 -0.42206680277E+02  0.74908831758E+02  0.00000000000E+00 0.  1.
         11    1    4    4    0    0 -0.11493125136E+03  0.42219411839E+02 -0.20046874911E+03  0.23490293877E+03  0.00000000000E+00 0. -1.
        -11    1    3    3    0    0  0.89210101977E+02 -0.25070240840E+01  0.62116538656E+01  0.89461232432E+02  0.00000000000E+00 0.  1.
         11    1    3    3    0    0  0.33544165545E+02 -0.72903510305E+02  0.84266838110E+01  0.80691646761E+02  0.00000000000E+00 0. -1.
         21    1    1    2  502  501  0.14097540935E+02 -0.24683037418E+02 -0.70507875099E+02  0.76022058953E+02  0.00000000000E+00 0. -1.
<scales pt_clust_5="13000.00000" pt_clust_6="13000.00000" pt_clust_7="13000.00000" pt_clust_8="13000.00000" pt_clust_9="28.42522"></scales>
<clustering>
<clus scale="   28.425">  2  9  1 -1</clus>
<clus scale="   89.344">  7  8 -1 -1</clus>
<clus scale="   91.350">  5  6 -1 -1</clus>
<clus scale="  174.226">  1  7  2 -1</clus>
<clus scale="   28.425">  2  5  1 -1</clus>
</clustering>
</event>
<event>
 9    1  0.1296032E-005  0.1041344E+03  0.7546771E-02  0.1272439E+00
         -1   -1    0    0    0  501 -0.00000000000E+00  0.00000000000E+00  0.26243274373E+03  0.26243274373E+03  0.00000000000E+00 0.  1.
          1   -1    0    0  502    0  0.00000000000E+00 -0.00000000000E+00 -0.28404328127E+03  0.28404328127E+03  0.00000000000E+00 0. -1.
         23    2    1    2    0    0  0.58146655623E+02  0.15630140639E+02  0.22142831094E+03  0.24693592331E+03  0.91222357361E+02 0.  0.
         23    2    1    2    0    0 -0.46827150530E+02  0.18306940569E+02 -0.24284124603E+03  0.26376447139E+03  0.89843750443E+02 0.  0.
        -11    1    3    3    0    0  0.48552786023E+02 -0.13280655984E+02  0.20736176735E+03  0.21338381245E+03  0.00000000000E+00 0. -1.
         11    1    3    3    0    0  0.95938696002E+01  0.28910796623E+02  0.14066543580E+02  0.33552110866E+02  0.00000000000E+00 0.  1.
        -13    1    4    4    0    0 -0.34909746719E+02  0.42892034872E+02 -0.22362587600E+03  0.23036264777E+03  0.00000000000E+00 0. -1.
         13    1    4    4    0    0 -0.11917403811E+02 -0.24585094304E+02 -0.19215370028E+02  0.33401823616E+02  0.00000000000E+00 0.  1.
         21    1    1    2  502  501 -0.11319505093E+02 -0.33937081207E+02 -0.19760244549E+00  0.35775630297E+02  0.00000000000E+00 0. -1.
<scales pt_clust_5="13000.00000" pt_clust_6="13000.00000" pt_clust_7="13000.00000" pt_clust_8="13000.00000" pt_clust_9="35.77508"></scales>
<clustering>
<clus scale="   35.775">  1  9  2 -1</clus>
<clus scale="   89.844">  7  8 -1 -1</clus>
<clus scale="   91.222">  5  6 -1 -1</clus>
<clus scale="  102.929">  2  7  1 -1</clus>
<clus scale="  102.929">  2  5  1 -1</clus>
</clustering>
</event>
<event>
 9    1  0.1296032E-005  0.1013140E+03  0.7546771E-02  0.1278620E+00
         -2   -1    0    0    0  501 -0.00000000000E+00  0.00000000000E+00  0.95565296919E+02  0.95565296919E+02  0.00000000000E+00 0.  1.
          2   -1    0    0  502    0  0.00000000000E+00 -0.00000000000E+00 -0.22137030228E+03  0.22137030228E+03  0.00000000000E+00 0. -1.
         23    2    1    2    0    0 -0.56724197966E+02  0.44354206773E+01  0.17744915107E+02  0.11064315819E+03  0.93218661491E+02 0.  0.
         23    2    1    2    0    0  0.46398299030E+01 -0.11102904346E+02 -0.67783437695E+02  0.11410894657E+03  0.91002498624E+02 0.  0.
        -11    1    3    3    0    0 -0.24720288180E+02  0.48371020896E+02  0.34102075128E+01  0.54428648940E+02  0.00000000000E+00 0.  1.
         11    1    3    3    0    0 -0.32003909785E+02 -0.43935600218E+02  0.14334707594E+02  0.56214509247E+02  0.00000000000E+00 0. -1.
        -13    1    4    4    0    0 -0.77664338517E+01  0.38946799531E+02 -0.23546778209E+02  0.46169486162E+02  0.00000000000E+00 0.  1.
         13    1    4    4    0    0  0.12406263755E+02 -0.50049703876E+02 -0.44236659486E+02  0.67939460411E+02  0.00000000000E+00 0. -1.
         21    1    1    2  502  501  0.52084368063E+02  0.66674836682E+01 -0.75766482772E+02  0.92183494437E+02  0.00000000000E+00 0. -1.
<scales pt_clust_5="13000.00000" pt_clust_6="13000.00000" pt_clust_7="13000.00000" pt_clust_8="13000.00000" pt_clust_9="52.50940"></scales>
<clustering>
<clus scale="   52.509">  2  9  1 -1</clus>
<clus scale="   91.002">  7  8 -1 -1</clus>
<clus scale="   93.219">  5  6 -1 -1</clus>
<clus scale="   99.279">  2  7  1 -1</clus>
<clus scale="   52.509">  2  5  1 -1</clus>
</clustering>
</event>
<event>
 9    1  0.1296032E-005  0.1049245E+03  0.7546771E-02  0.1271409E+00
         -1   -1    0    0    0  501 -0.00000000000E+00  0.00000000000E+00  0.63613924528E+02  0.63613924528E+02  0.00000000000E+00 0.  1.
          1   -1    0    0  502    0  0.00000000000E+00 -0.00000000000E+00 -0.64205311847E+03  0.64205311847E+03  0.00000000000E+00 0. -1.
         23    2    1    2    0    0 -0.38295730470E+02  0.46608287887E+02 -0.25014064648E+01  0.10986844962E+03  0.91792830414E+02 0.  0.
         23    2    1    2    0    0  0.14952542709E+01 -0.79960795992E+01 -0.25057892410E+03  0.26609635248E+03  0.89170053969E+02 0.  0.
        -11    1    3    3    0    0  0.15439465256E+02  0.38654628233E+02  0.25440131374E+02  0.48782759819E+02  0.00000000000E+00 0.  1.
         11    1    3    3    0    0 -0.53735195726E+02  0.79536596539E+01 -0.27941537839E+02  0.61085689800E+02  0.00000000000E+00 0. -1.
        -11    1    4    4    0    0 -0.28531587690E+02  0.28007926379E+02 -0.83726287846E+02  0.92782469856E+02  0.00000000000E+00 0.  1.
         11    1    4    4    0    0  0.30026841961E+02 -0.36004005978E+02 -0.16685263626E+03  0.17331388262E+03  0.00000000000E+00 0. -1.
         21    1    1    2  502  501  0.36800476199E+02 -0.38612208288E+02 -0.32535886337E+03  0.32970224089E+03  0.00000000000E+00 0. -1.
<scales pt_clust_5="13000.00000" pt_clust_6="13000.00000" pt_clust_7="13000.00000" pt_clust_8="13000.00000" pt_clust_9="53.34021"></scales>
<clustering>
<clus scale="   53.340">  2  9  1 -1</clus>
<clus scale="   89.170">  7  8 -1 -1</clus>
<clus scale="   91.793">  5  6 -1 -1</clus>
<clus scale="  102.638">  2  7  1 -1</clus>
<clus scale="   53.340">  2  5  1 -1</clus>
</clustering>
</event>
<event>
 9    1  0.1296032E-005  0.1384648E+03  0.7546771E-02  0.1215913E+00
          2   -1    0    0  502    0  0.00000000000E+00  0.00000000000E+00  0.73264363341E+02  0.73264363341E+02  0.00000000000E+00 0. -1.
         -2   -1    0    0    0  501 -0.00000000000E+00 -0.00000000000E+00 -0.36321608067E+03  0.36321608067E+03  0.00000000000E+00 0.  1.
         23    2    1    2    0    0 -0.34533475969E+02  0.79561436124E+02 -0.14791866846E+03  0.19659212398E+03  0.96155850846E+02 0.  0.
         23    2    1    2    0    0  0.25439961450E+02 -0.11660919296E+03 -0.12976874226E+03  0.19981786322E+03  0.94033804951E+02 0.  0.
        -11    1    4    4    0    0 -0.17584728946E+02 -0.30164319265E+02 -0.87882278642E+02  0.94564283682E+02  0.00000000000E+00 0. -1.
         11    1    4    4    0    0  0.43024690396E+02 -0.86444873690E+02 -0.41886463615E+02  0.10525357954E+03  0.00000000000E+00 0.  1.
        -13    1    3    3    0    0 -0.10618034961E+02  0.31899518211E+02 -0.13839843495E+03  0.14242348375E+03  0.00000000000E+00 0.  1.
         13    1    3    3    0    0 -0.23915441009E+02  0.47661917913E+02 -0.95202335091E+01  0.54168640225E+02  0.00000000000E+00 0. -1.
         21    1    1    2  502  501  0.90935145193E+01  0.37047756832E+02 -0.12264306616E+02  0.40070456815E+02  0.00000000000E+00 0.  1.
<scales pt_clust_5="13000.00000" pt_clust_6="13000.00000" pt_clust_7="13000.00000" pt_clust_8="13000.00000" pt_clust_9="38.14745"></scales>
<clustering>
<clus scale="   38.147">  1  9  2 -1</clus>
<clus scale="   94.034">  5  6 -1 -1</clus>
<clus scale="   96.156">  7  8 -1 -1</clus>
<clus scale="  137.000">  1  5  2 -1</clus>
<clus scale="   38.147">  1  5  2 -1</clus>
</clustering>
</event>
<event>
 9    1  0.1296032E-005  0.1337682E+03  0.7546771E-02  0.1222050E+00
          2   -1    0    0  502    0  0.00000000000E+00  0.00000000000E+00  0.97446819419E+03  0.97446819419E+03  0.00000000000E+00 0. -1.
         -2   -1    0    0    0  501 -0.00000000000E+00 -0.00000000000E+00 -0.59129044994E+02  0.59129044994E+02  0.00000000000E+00 0.  1.
         23    2    1    2    0    0  0.13265713157E+02  0.74148572291E+02  0.28445531349E+03  0.30839772447E+03  0.92305694097E+02 0.  0.
         23    2    1    2    0    0 -0.11285319798E+03 -0.67595769726E+02  0.59944292416E+03  0.62056138938E+03  0.91976009244E+02 0.  0.
        -11    1    3    3    0    0 -0.64936149199E+01  0.90759613036E+02  0.24393815538E+03  0.26035609853E+03  0.00000000000E+00 0.  1.
         11    1    3    3    0    0  0.19759328077E+02 -0.16611040745E+02  0.40517158115E+02  0.48041625934E+02  0.00000000000E+00 0. -1.
        -13    1    4    4    0    0 -0.98753868702E+02 -0.86851968592E+02  0.55204593893E+03  0.56749476625E+03  0.00000000000E+00 0. -1.
         13    1    4    4    0    0 -0.14099329282E+02  0.19256198866E+02  0.47396985233E+02  0.53066623127E+02  0.00000000000E+00 0.  1.
         21    1    1    2  502  501  0.99587484827E+02 -0.65528025645E+01  0.31440911535E+02  0.10463812534E+03  0.00000000000E+00 0.  1.
<scales pt_clust_5="13000.00000" pt_clust_6="13000.00000" pt_clust_7="13000.00000" pt_clust_8="13000.00000" pt_clust_9="99.80284"></scales>
<clustering>
<clus scale="   91.976">  7  8 -1 -1</clus>
<clus scale="   92.306">  5  6 -1 -1</clus>
<clus scale="   99.803">  2  9  1 -1</clus>
<clus scale="  133.541">  1  7  2 -1</clus>
<clus scale="  133.541">  1  5  2 -1</clus>
</clustering>
</event>
<event>
 9    1  0.1296032E-005  0.8932984E+02  0.7546771E-02  0.1306281E+00
         -1   -1    0    0    0  501 -0.00000000000E+00  0.00000000000E+00  0.22152058033E+03  0.22152058033E+03  0.00000000000E+00 0.  1.
          1   -1    0    0  502    0  0.00000000000E+00 -0.00000000000E+00 -0.15605345982E+03  0.15605345982E+03  0.00000000000E+00 0. -1.
         23    2    1    2    0    0  0.84741119431E+00 -0.93740056714E+01  0.17105969664E+03  0.19175964448E+03  0.86149587031E+02 0.  0.
         23    2    1    2    0    0 -0.21073895670E+02 -0.13363549869E+02 -0.19514375093E+02  0.94515086804E+02  0.89048286084E+02 0.  0.
        -11    1    4    4    0    0 -0.43290857572E+02 -0.99348637052E+01  0.20266874726E+02  0.48821573892E+02  0.00000000000E+00 0.  1.
         11    1    4    4    0    0  0.22216961903E+02 -0.34286861637E+01 -0.39781249819E+02  0.45693512911E+02  0.00000000000E+00 0. -1.
        -13    1    3    3    0    0 -0.39612722845E+02 -0.13701764346E+02  0.11566740816E+03  0.12302786460E+03  0.00000000000E+00 0.  1.
         13    1    3    3    0    0  0.40460134039E+02  0.43277586743E+01  0.55392288483E+02  0.68731779877E+02  0.00000000000E+00 0. -1.
         21    1    1    2  502  501  0.20226484475E+02  0.22737555540E+02 -0.86078201044E+02  0.91299308876E+02  0.00000000000E+00 0. -1.
<scales pt_clust_5="13000.00000" pt_clust_6="13000.00000" pt_clust_7="13000.00000" pt_clust_8="13000.00000" pt_clust_9="30.43201"></scales>
<clustering>
<clus scale="   30.432">  2  9  1 -1</clus>
<clus scale="   86.150">  7  8 -1 -1</clus>
<clus scale="   86.441">  1  7  2 -1</clus>
<clus scale="   89.048">  5  6 -1 -1</clus>
<clus scale="   30.432">  2  5  1 -1</clus>
</clustering>
</event>
<event>
 9    1  0.1296032E-005  0.9502664E+02  0.7546771E-02  0.1291290E+00
          3   -1    0    0  502    0  0.00000000000E+00  0.00000000000E+00  0.25242532124E+03  0.25242532124E+03  0.00000000000E+00 0. -1.
         -3   -1    0    0    0  501 -0.00000000000E+00 -0.00000000000E+00 -0.71492540362E+02  0.71492540362E+02  0.00000000000E+00 0.  1.
         23    2    1    2    0    0 -0.49422831767E+02  0.71406904512E+01  0.11020577801E+02  0.10216299827E+03  0.88443311336E+02 0.  0.
         23    2    1    2    0    0  0.11396691098E+02  0.18631406166E+01  0.65869693891E+02  0.11061576101E+03  0.88111714028E+02 0.  0.
        -11    1    4    4    0    0  0.17625610237E+02  0.27315595108E+02  0.75891562428E+02  0.82561087203E+02  0.00000000000E+00 0.  1.
         11    1    4    4    0    0 -0.62289191393E+01 -0.25452454492E+02 -0.10021868537E+02  0.28054673804E+02  0.00000000000E+00 0. -1.
        -11    1    3    3    0    0  0.24270725289E+02  0.44977395041E+01 -0.81079454702E+01  0.25981465441E+02  0.00000000000E+00 0. -1.
         11    1    3    3    0    0 -0.73693557057E+02  0.26429509470E+01  0.19128523271E+02  0.76181532827E+02  0.00000000000E+00 0.  1.
         21    1    1    2  502  501  0.38026140670E+02 -0.90038310677E+01  0.10404250919E+03  0.11113910233E+03  0.00000000000E+00 0. -1.
<scales pt_clust_5="13000.00000" pt_clust_6="13000.00000" pt_clust_7="13000.00000" pt_clust_8="13000.00000" pt_clust_9="39.07757"></scales>
<clustering>
<clus scale="   39.078">  1  9  2 -1</clus>
<clus scale="   88.112">  5  6 -1 -1</clus>
<clus scale="   88.443">  7  8 -1 -1</clus>
<clus scale="   94.718">  1  5  2 -1</clus>
<clus scale="   39.078">  1  5  2 -1</clus>
</clustering>
</event>
<event>
 9    1  0.1296032E-005  0.9506720E+02  0.7546771E-02  0.1292153E+00
          1   -1    0    0  502    0  0.00000000000E+00  0.00000000000E+00  0.26535677221E+03  0.26535677221E+03  0.00000000000E+00 0. -1.
         -1   -1    0    0    0  501 -0.00000000000E+00 -0.00000000000E+00 -0.20252168557E+03  0.20252168557E+03  0.00000000000E+00 0.  1.
         23    2    1    2    0    0 -0.33364451552E+02  0.16638829188E+01 -0.13250443398E+03  0.16304598949E+03  0.88941635536E+02 0.  0.
         23    2    1    2    0    0  0.90319310524E+01 -0.18837275936E+02 -0.13082330105E+02  0.94293481775E+02  0.91014804296E+02 0.  0.
        -11    1    3    3    0    0 -0.36613844420E+02 -0.38794686449E+02 -0.87165744936E+02  0.10219328936E+03  0.00000000000E+00 0.  1.
         11    1    3    3    0    0  0.32493928680E+01  0.40458569368E+02 -0.45338689040E+02  0.60852700130E+02  0.00000000000E+00 0. -1.
        -13    1    4    4    0    0 -0.41074256186E+02 -0.12129694404E+02 -0.61611340587E+01  0.43268736756E+02  0.00000000000E+00 0.  1.
         13    1    4    4    0    0  0.50106187238E+02 -0.67075815319E+01 -0.69211960467E+01  0.51024745019E+02  0.00000000000E+00 0. -1.
         21    1    1    2  502  501  0.24332520500E+02  0.17173393017E+02  0.20842185072E+03  0.21053898651E+03  0.00000000000E+00 0. -1.
<scales pt_clust_5="13000.00000" pt_clust_6="13000.00000" pt_clust_7="13000.00000" pt_clust_8="13000.00000" pt_clust_9="29.78249"></scales>
<clustering>
<clus scale="   29.782">  1  9  2 -1</clus>
<clus scale="   88.942">  5  6 -1 -1</clus>
<clus scale="   91.015">  7  8 -1 -1</clus>
<clus scale="   93.084">  2  5  1 -1</clus>
<clus scale="   29.782">  1  5  2 -1</clus>
</clustering>
</event>
<event>
 9    1  0.1296032E-005  0.9339537E+02  0.7546771E-02  0.1294892E+00
         -2   -1    0    0    0  501 -0.00000000000E+00  0.00000000000E+00  0.25727983758E+02  0.25727983758E+02  0.00000000000E+00 0.  1.
          2   -1    0    0  502    0  0.00000000000E+00 -0.00000000000E+00 -0.57331252567E+03  0.57331252567E+03  0.00000000000E+00 0. -1.
         23    2    1    2    0    0  0.40095030871E+01  0.91968320956E+01 -0.13458865459E+03  0.16259384512E+03  0.90675215406E+02 0.  0.
         23    2    1    2    0    0 -0.37605568387E+01 -0.42002377257E+02 -0.23465096461E+03  0.25510947225E+03  0.90782300907E+02 0.  0.
        -11    1    4    4    0    0 -0.65339878767E+01  0.25098149723E+02 -0.29668265427E+02  0.39405787526E+02  0.00000000000E+00 0. -1.
         11    1    4    4    0    0  0.27734310380E+01 -0.67100526980E+02 -0.20498269918E+03  0.21570368473E+03  0.00000000000E+00 0.  1.
        -13    1    3    3    0    0 -0.24379582838E+02  0.15114098174E+02 -0.13012990133E+03  0.13325386014E+03  0.00000000000E+00 0. -1.
         13    1    3    3    0    0  0.28389085925E+02 -0.59172660781E+01 -0.44587532626E+01  0.29339984972E+02  0.00000000000E+00 0.  1.
         21    1    1    2  502  501 -0.24894624844E+00  0.32805545162E+02 -0.17834492271E+03  0.18133719206E+03  0.00000000000E+00 0. -1.
<scales pt_clust_5="13000.00000" pt_clust_6="13000.00000" pt_clust_7="13000.00000" pt_clust_8="13000.00000" pt_clust_9="32.80649"></scales>
<clustering>
<clus scale="   32.806">  2  9  1 -1</clus>
<clus scale="   90.675">  7  8 -1 -1</clus>
<clus scale="   90.782">  5  6 -1 -1</clus>
<clus scale="   93.291">  1  7  2 -1</clus>
<clus scale="   32.806">  2  5  1 -1</clus>
</clustering>
</event>
<event>
 9    1  0.1296032E-005  0.9775462E+02  0.7546771E-02  0.1285110E+00
         -1   -1    0    0    0  501 -0.00000000000E+00  0.00000000000E+00  0.34738684634E+03  0.34738684634E+03  0.00000000000E+00 0.  1.
          1   -1    0    0  502    0  0.00000000000E+00 -0.00000000000E+00 -0.44033877075E+02  0.44033877075E+02  0.00000000000E+00 0. -1.
         23    2    1    2    0    0  0.26549041813E+02  0.21541503833E+02  0.15956366857E+03  0.18722671631E+03  0.91784481062E+02 0.  0.
         23    2    1    2    0    0 -0.37617379222E+02  0.14538470320E+02  0.73042008704E+02  0.12401014369E+03  0.91743917315E+02 0.  0.
        -13    1    4    4    0    0 -0.80179053259E+01 -0.38255423144E+02  0.22111954963E+02  0.44907713792E+02  0.00000000000E+00 0.  1.
         13    1    4    4    0    0 -0.29599473896E+02  0.52793893464E+02  0.50930053741E+02  0.79102429900E+02  0.00000000000E+00 0. -1.
        -13    1    3    3    0    0 -0.15529542157E+02 -0.26212907097E+02  0.29423707081E+02  0.42356082402E+02  0.00000000000E+00 0.  1.
         13    1    3    3    0    0  0.42078583970E+02  0.47754410929E+02  0.13013996149E+03  0.14487063391E+03  0.00000000000E+00 0. -1.
         21    1    1    2  502  501  0.11068337409E+02 -0.36079974153E+02  0.70747291991E+02  0.80183863414E+02  0.00000000000E+00 0.  1.
<scales pt_clust_5="13000.00000" pt_clust_6="13000.00000" pt_clust_7="13000.00000" pt_clust_8="13000.00000" pt_clust_9="37.73954"></scales>
<clustering>
<clus scale="   37.740">  1  9  2 -1</clus>
<clus scale="   91.744">  5  6 -1 -1</clus>
<clus scale="   91.784">  7  8 -1 -1</clus>
<clus scale="   97.717">  2  5  1 -1</clus>
<clus scale="   97.717">  2  5  1 -1</clus>
</clustering>
</event>
<event>
 9    1  0.1296032E-005  0.1354595E+03  0.7546771E-02  0.1219621E+00
          1   -1    0    0  502    0  0.00000000000E+00  0.00000000000E+00  0.32690054856E+03  0.32690054856E+03  0.00000000000E+00 0. -1.
         -1   -1    0    0    0  501 -0.00000000000E+00 -0.00000000000E+00 -0.10578257154E+03  0.10578257154E+03  0.00000000000E+00 0.  1.
         23    2    1    2    0    0  0.24551771367E+02 -0.10002401344E+03 -0.28180860845E+02  0.14026244481E+03  0.90949435215E+02 0.  0.
         23    2    1    2    0    0 -0.36777718705E+02  0.84068006739E+02  0.18897184319E+03  0.22883282877E+03  0.90741807646E+02 0.  0.
        -11    1    4    4    0    0 -0.16093454402E+02 -0.17837170324E+02  0.47813362905E+02  0.53509640179E+02  0.00000000000E+00 0. -1.
         11    1    4    4    0    0 -0.20684264303E+02  0.10190517706E+03  0.14115848029E+03  0.17532318859E+03  0.00000000000E+00 0.  1.
        -11    1    3    3    0    0  0.28537929856E+02 -0.15876732479E+02  0.24570033113E+02  0.40867720782E+02  0.00000000000E+00 0.  1.
         11    1    3    3    0    0 -0.39861584893E+01 -0.84147280956E+02 -0.52750893959E+02  0.99394724031E+02  0.00000000000E+00 0. -1.
         21    1    1    2  502  501  0.12225947337E+02  0.15956006696E+02  0.60326994673E+02  0.63587846514E+02  0.00000000000E+00 0. -1.
<scales pt_clust_5="13000.00000" pt_clust_6="13000.00000" pt_clust_7="13000.00000" pt_clust_8="13000.00000" pt_clust_9="20.10144"></scales>
<clustering>
<clus scale="   20.101">  1  9  2 -1</clus>
<clus scale="   90.742">  5  6 -1 -1</clus>
<clus scale="   90.949">  7  8 -1 -1</clus>
<clus scale="  135.320">  1  5  2 -1</clus>
<clus scale="   20.101">  1  5  2 -1</clus>
</clustering>
</event>
<event>
 9    1  0.1296032E-005  0.1198195E+03  0.7546771E-02  0.1243789E+00
          1   -1    0    0  502    0  0.00000000000E+00  0.00000000000E+00  0.16827011904E+03  0.16827011904E+03  0.00000000000E+00 0. -1.
         -1   -1    0    0    0  501 -0.00000000000E+00 -0.00000000000E+00 -0.20177913755E+03  0.20177913755E+03  0.00000000000E+00 0.  1.
         23    2    1    2    0    0  0.35635285865E+02 -0.33977581065E+02 -0.29309183716E+02  0.10684895275E+03  0.90184925787E+02 0.  0.
         23    2    1    2    0    0 -0.37558841172E+02  0.10989366178E+03 -0.69233614464E+02  0.16321858613E+03  0.91431559311E+02 0.  0.
        -13    1    3    3    0    0  0.61326308974E+02 -0.42824133035E+02 -0.15572067593E+02  0.76402302529E+02  0.00000000000E+00 0. -1.
         13    1    3    3    0    0 -0.25691023109E+02  0.88465519702E+01 -0.13737116123E+02  0.30446650218E+02  0.00000000000E+00 0.  1.
        -13    1    4    4    0    0  0.21034142447E+02  0.62103204923E+02 -0.56477726521E+02  0.86538874519E+02  0.00000000000E+00 0.  1.
         13    1    4    4    0    0 -0.58592983619E+02  0.47790456860E+02 -0.12755887943E+02  0.76679711616E+02  0.00000000000E+00 0. -1.
         21    1    1    2  502  501  0.19235553066E+01 -0.75916080717E+02  0.65033779671E+02  0.99981717703E+02  0.00000000000E+00 0. -1.
<scales pt_clust_5="13000.00000" pt_clust_6="13000.00000" pt_clust_7="13000.00000" pt_clust_8="13000.00000" pt_clust_9="75.94045"></scales>
<clustering>
<clus scale="   75.940">  1  9  2 -1</clus>
<clus scale="   90.185">  5  6 -1 -1</clus>
<clus scale="   91.432">  7  8 -1 -1</clus>
<clus scale="  118.871">  2  5  1 -1</clus>
<clus scale="   75.940">  1  5  2 -1</clus>
</clustering>
</event>
<event>
 9    1  0.1296032E-005  0.9401274E+02  0.7546771E-02  0.1294181E+00
          2   -1    0    0  502    0  0.00000000000E+00  0.00000000000E+00  0.48569478432E+02  0.48569478432E+02  0.00000000000E+00 0. -1.
         -2   -1    0    0    0  501 -0.00000000000E+00 -0.00000000000E+00 -0.42293591066E+03  0.42293591066E+03  0.00000000000E+00 0.  1.
         23    2    1    2    0    0  0.78463366456E+01 -0.15914227473E+02 -0.33280621134E+03  0.34569907258E+03  0.91831622241E+02 0.  0.
         23    2    1    2    0    0 -0.28634976010E+02  0.21271000727E+02 -0.35108444370E+02  0.10339007314E+03  0.90468154815E+02 0.  0.
        -13    1    4    4    0    0  0.15176104486E+02 -0.20562896051E+02 -0.34343271183E+02  0.42808960708E+02  0.00000000000E+00 0.  1.
         13    1    4    4    0    0 -0.43811080496E+02  0.41833896779E+02 -0.76517318694E+00  0.60581112436E+02  0.00000000000E+00 0. -1.
        -13    1    3    3    0    0 -0.28145557805E+02  0.21713930823E+02 -0.79339321770E+02  0.86939031481E+02  0.00000000000E+00 0. -1.
         13    1    3    3    0    0  0.35991894450E+02 -0.37628158296E+02 -0.25346688957E+03  0.25876004110E+03  0.00000000000E+00 0.  1.
         21    1    1    2  502  501  0.20788639364E+02 -0.53567732539E+01 -0.64517765160E+01  0.22416243363E+02  0.00000000000E+00 0.  1.
<scales pt_clust_5="13000.00000" pt_clust_6="13000.00000" pt_clust_7="13000.00000" pt_clust_8="13000.00000" pt_clust_9="21.46771"></scales>
<clustering>
<clus scale="   21.468">  1  9  2 -1</clus>
<clus scale="   90.468">  5  6 -1 -1</clus>
<clus scale="   91.832">  7  8 -1 -1</clus>
<clus scale="   92.681">  1  5  2 -1</clus>
<clus scale="   21.468">  1  5  2 -1</clus>
</clustering>
</event>
<event>
 9    1  0.1296032E-005  0.1061629E+03  0.7546771E-02  0.1267923E+00
         -2   -1    0    0    0  501 -0.00000000000E+00  0.00000000000E+00  0.31757837007E+03  0.31757837007E+03  0.00000000000E+00 0.  1.
          2   -1    0    0  502    0  0.00000000000E+00 -0.00000000000E+00 -0.46506826884E+02  0.46506826884E+02  0.00000000000E+00 0. -1.
         23    2    1    2    0    0  0.53410781801E+02 -0.15115561085E+02  0.16892302668E+03  0.20053896293E+03  0.92734540010E+02 0.  0.
         23    2    1    2    0    0 -0.36797135128E+02  0.30293229684E+02  0.90603639607E+02  0.13825475201E+03  0.92917425839E+02 0.  0.
        -11    1    4    4    0    0 -0.62060700583E+02 -0.35892625364E+01  0.53902685900E+02  0.82279480489E+02  0.00000000000E+00 0.  1.
         11    1    4    4    0    0  0.25263565455E+02  0.33882492221E+02  0.36700953707E+02  0.55975271518E+02  0.00000000000E+00 0. -1.
        -13    1    3    3    0    0 -0.22749390729E+02 -0.18869264294E+02  0.67167599341E+02  0.73383038332E+02  0.00000000000E+00 0.  1.
         13    1    3    3    0    0  0.76160172530E+02  0.37537032084E+01  0.10175542734E+03  0.12715592460E+03  0.00000000000E+00 0. -1.
         21    1    1    2  502  501 -0.16613646673E+02 -0.15177668599E+02  0.11544876899E+02  0.25291482014E+02  0.00000000000E+00 0.  1.
<scales pt_clust_5="13000.00000" pt_clust_6="13000.00000" pt_clust_7="13000.00000" pt_clust_8="13000.00000" pt_clust_9="22.50277"></scales>
<clustering>
<clus scale="   22.503">  2  9  1 -1</clus>
<clus scale="   92.735">  7  8 -1 -1</clus>
<clus scale="   92.917">  5  6 -1 -1</clus>
<clus scale="  106.003">  1  7  2 -1</clus>
<clus scale="   22.503">  2  5  1 -1</clus>
</clustering>
</event>
<event>
 9    1  0.1296032E-005  0.1055165E+03  0.7546771E-02  0.1274729E+00
         -2   -1    0    0    0  501 -0.00000000000E+00  0.00000000000E+00  0.69992946781E+02  0.69992946781E+02  0.00000000000E+00 0.  1.
          2   -1    0    0  502    0  0.00000000000E+00 -0.00000000000E+00 -0.19914637013E+03  0.19914637013E+03  0.00000000000E+00 0. -1.
         23    2    1    2    0    0 -0.71770512420E+00 -0.63076203263E+02 -0.68655316398E+02  0.12347925737E+03  0.80959570234E+02 0.  0.
         23    2    1    2    0    0  0.99026502009E+01  0.33629266984E+02 -0.56217312836E+02  0.11451827940E+03  0.93408029500E+02 0.  0.
        -11    1    3    3    0    0 -0.32328015363E+02 -0.30289453990E+02 -0.41198379973E+01  0.44491849427E+02  0.00000000000E+00 0.  1.
         11    1    3    3    0    0  0.31610310239E+02 -0.32786749273E+02 -0.64535478400E+02  0.78987407944E+02  0.00000000000E+00 0. -1.
        -13    1    4    4    0    0  0.50478253228E+02  0.14707909117E+02 -0.42756579568E+02  0.67767999350E+02  0.00000000000E+00 0. -1.
         13    1    4    4    0    0 -0.40575603027E+02  0.18921357867E+02 -0.13460733268E+02  0.46750280049E+02  0.00000000000E+00 0.  1.
         21    1    1    2  502  501 -0.91849450767E+01  0.29446936279E+02 -0.42807941182E+01  0.31141780144E+02  0.00000000000E+00 0. -1.
<scales pt_clust_5="13000.00000" pt_clust_6="13000.00000" pt_clust_7="13000.00000" pt_clust_8="13000.00000" pt_clust_9="30.84615"></scales>
<clustering>
<clus scale="   30.846">  1  9  2 -1</clus>
<clus scale="   80.960">  5  6 -1 -1</clus>
<clus scale="   93.408">  7  8 -1 -1</clus>
<clus scale="   94.674">  1  5  2 -1</clus>
<clus scale="  105.517">  2  5  1 -1</clus>
</clustering>
</event>
<event>
 9    1  0.1296032E-005  0.9983952E+02  0.7546771E-02  0.1281575E+00
         -1   -1    0    0    0  501 -0.00000000000E+00  0.00000000000E+00  0.11738638007E+03  0.11738638007E+03  0.00000000000E+00 0.  1.
          1   -1    0    0  502    0  0.00000000000E+00 -0.00000000000E+00 -0.30267663618E+03  0.30267663618E+03  0.00000000000E+00 0. -1.
         23    2    1    2    0    0  0.33573973202E+02  0.27713131327E+02  0.80378681453E+02  0.12769361500E+03  0.89161076455E+02 0.  0.
         23    2    1    2    0    0 -0.16437332007E+02 -0.11565241908E+02 -0.17076629476E+03  0.19458939096E+03  0.91104132407E+02 0.  0.
        -13    1    4    4    0    0  0.11849547528E+02  0.27090072621E+02 -0.18293634663E+02  0.34769827156E+02  0.00000000000E+00 0.  1.
         13    1    4    4    0    0 -0.28286879535E+02 -0.38655314530E+02 -0.15247266010E+03  0.15981956380E+03  0.00000000000E+00 0. -1.
        -13    1    3    3    0    0  0.15792556473E+02  0.60085053964E+02  0.53901616210E+02  0.82249636959E+02  0.00000000000E+00 0.  1.
         13    1    3    3    0    0  0.17781416729E+02 -0.32371922637E+02  0.26477065242E+02  0.45443978039E+02  0.00000000000E+00 0. -1.
         21    1    1    2  502  501 -0.17136641195E+02 -0.16147889419E+02 -0.94902642792E+02  0.97780010294E+02  0.00000000000E+00 0. -1.
<scales pt_clust_5="13000.00000" pt_clust_6="13000.00000" pt_clust_7="13000.00000" pt_clust_8="13000.00000" pt_clust_9="23.54610"></scales>
<clustering>
<clus scale="   23.546">  2  9  1 -1</clus>
<clus scale="   89.161">  7  8 -1 -1</clus>
<clus scale="   91.104">  5  6 -1 -1</clus>
<clus scale="   98.070">  1  7  2 -1</clus>
<clus scale="   23.546">  2  5  1 -1</clus>
</clustering>
</event>
<event>
 9    1  0.1296032E-005  0.9473475E+02  0.7546771E-02  0.1292607E+00
          1   -1    0    0  502    0  0.00000000000E+00  0.00000000000E+00  0.13856405757E+03  0.13856405757E+03  0.00000000000E+00 0. -1.
         -1   -1    0    0    0  501 -0.00000000000E+00 -0.00000000000E+00 -0.18295784173E+03  0.18295784173E+03  0.00000000000E+00 0.  1.
         23    2    1    2    0    0 -0.87678690111E+01  0.12425538970E+02 -0.10056055452E+03  0.13614350289E+03  0.90506125251E+02 0.  0.
         23    2    1    2    0    0 -0.26923728386E+02 -0.60226292252E+02  0.18211840835E+02  0.11467211089E+03  0.92010480056E+02 0.  0.
        -11    1    3    3    0    0 -0.36483604460E+02  0.37263862655E+02 -0.73530513585E+02  0.90146465724E+02  0.00000000000E+00 0.  1.
         11    1    3    3    0    0  0.27715735449E+02 -0.24838323686E+02 -0.27030040930E+02  0.45997037162E+02  0.00000000000E+00 0. -1.
        -13    1    4    4    0    0 -0.57095178297E+02 -0.45990279713E+02 -0.58373238974E+01  0.73546173001E+02  0.00000000000E+00 0.  1.
         13    1    4    4    0    0  0.30171449910E+02 -0.14236012538E+02  0.24049164732E+02  0.41125937886E+02  0.00000000000E+00 0. -1.
         21    1    1    2  502  501  0.35691597398E+02  0.47800753282E+02  0.37954929520E+02  0.70706285534E+02  0.00000000000E+00 0. -1.
<scales pt_clust_5="13000.00000" pt_clust_6="13000.00000" pt_clust_7="13000.00000" pt_clust_8="13000.00000" pt_clust_9="59.65570"></scales>
<clustering>
<clus scale="   59.656">  1  9  2 -1</clus>
<clus scale="   90.506">  5  6 -1 -1</clus>
<clus scale="   92.010">  7  8 -1 -1</clus>
<clus scale="   93.274">  2  5  1 -1</clus>
<clus scale="   59.656">  1  5  2 -1</clus>
</clustering>
</event>
<event>
 9    1  0.1296032E-005  0.1058067E+03  0.7546771E-02  0.1269280E+00
          1   -1    0    0  502    0  0.00000000000E+00  0.00000000000E+00  0.50708356389E+02  0.50708356389E+02  0.00000000000E+00 0. -1.
         -1   -1    0    0    0  501 -0.00000000000E+00 -0.00000000000E+00 -0.32934368071E+03  0.32934368071E+03  0.00000000000E+00 0.  1.
         23    2    1    2    0    0 -0.39608682396E+02 -0.61065271738E+01 -0.11202753936E+03  0.15030296946E+03  0.91840490294E+02 0.  0.
         23    2    1    2    0    0  0.53134925277E+02  0.46102094925E+02 -0.13567723534E+03  0.17741071090E+03  0.90097306917E+02 0.  0.
        -11    1    4    4    0    0  0.94371447360E+01  0.65450568206E+02 -0.71453063602E+02  0.97356955978E+02  0.00000000000E+00 0. -1.
         11    1    4    4    0    0  0.43697780541E+02 -0.19348473281E+02 -0.64224171736E+02  0.80053754925E+02  0.00000000000E+00 0.  1.
        -13    1    3    3    0    0 -0.16155428509E+01 -0.25244482831E+02 -0.10397320802E+03  0.10700617682E+03  0.00000000000E+00 0.  1.
         13    1    3    3    0    0 -0.37993139546E+02  0.19137955658E+02 -0.80543313404E+01  0.43296792637E+02  0.00000000000E+00 0. -1.
         21    1    1    2  502  501 -0.13526242880E+02 -0.39995567751E+02 -0.30930549628E+02  0.52338356742E+02  0.00000000000E+00 0. -1.
<scales pt_clust_5="13000.00000" pt_clust_6="13000.00000" pt_clust_7="13000.00000" pt_clust_8="13000.00000" pt_clust_9="42.22090"></scales>
<clustering>
<clus scale="   42.221">  1  9  2 -1</clus>
<clus scale="   90.097">  5  6 -1 -1</clus>
<clus scale="   91.840">  7  8 -1 -1</clus>
<clus scale="  104.297">  1  5  2 -1</clus>
<clus scale="   42.221">  1  5  2 -1</clus>
</clustering>
</event>
<event>
 9    1  0.1296032E-005  0.1658437E+03  0.7546771E-02  0.1186967E+00
         -1   -1    0    0    0  501 -0.00000000000E+00  0.00000000000E+00  0.30301791005E+03  0.30301791005E+03  0.00000000000E+00 0.  1.
          1   -1    0    0  502    0  0.00000000000E+00 -0.00000000000E+00 -0.34387628770E+03  0.34387628770E+03  0.00000000000E+00 0. -1.
         23    2    1    2    0    0 -0.76727874071E+02  0.91800171788E+02  0.25479983438E+03  0.30400985410E+03  0.11482420298E+03 0.  0.
         23    2    1    2    0    0  0.59576052755E+02 -0.10624333923E+03 -0.25146396488E+03  0.29332708847E+03  0.89273187474E+02 0.  0.
        -11    1    3    3    0    0 -0.78880834589E+01  0.74836869665E+02  0.58550817610E+02  0.95346615906E+02  0.00000000000E+00 0. -1.
         11    1    3    3    0    0 -0.68839790613E+02  0.16963302123E+02  0.19624901677E+03  0.20866323819E+03  0.00000000000E+00 0.  1.
        -13    1    4    4    0    0  0.40322323597E+01 -0.45377323729E+02 -0.17528575961E+03  0.18110896700E+03  0.00000000000E+00 0. -1.
         13    1    4    4    0    0  0.55543820395E+02 -0.60866015497E+02 -0.76178205278E+02  0.11221812147E+03  0.00000000000E+00 0.  1.
         21    1    1    2  502  501  0.17151821317E+02  0.14443167438E+02 -0.44194247143E+02  0.49557255177E+02  0.00000000000E+00 0. -1.
<scales pt_clust_5="13000.00000" pt_clust_6="13000.00000" pt_clust_7="13000.00000" pt_clust_8="13000.00000" pt_clust_9="22.42298"></scales>
<clustering>
<clus scale="   22.423">  2  9  1 -1</clus>
<clus scale="   89.273">  7  8 -1 -1</clus>
<clus scale="  114.824">  5  6 -1 -1</clus>
<clus scale="  149.296">  2  7  1 -1</clus>
<clus scale="   22.423">  2  5  1 -1</clus>
</clustering>
</event>
<event>
 9    1  0.1296032E-005  0.1170985E+03  0.7546771E-02  0.1249280E+00
         -2   -1    0    0    0  501 -0.00000000000E+00  0.00000000000E+00  0.11426709047E+03  0.11426709047E+03  0.00000000000E+00 0.  1.
          2   -1    0    0  502    0  0.00000000000E+00 -0.00000000000E+00 -0.32525210075E+03  0.32525210075E+03  0.00000000000E+00 0. -1.
         23    2    1    2    0    0  0.69642066976E+02  0.26940086676E+01  0.37002683402E+02  0.11958950678E+03  0.89861985158E+02 0.  0.
         23    2    1    2    0    0 -0.93786079917E+02 -0.59214116647E+02 -0.16281543974E+03  0.21489745698E+03  0.85848175288E+02 0.  0.
        -11    1    4    4    0    0 -0.58304148027E+02  0.82715430199E+01 -0.10025861527E+03  0.11627373752E+03  0.00000000000E+00 0. -1.
         11    1    4    4    0    0 -0.35481931889E+02 -0.67485659667E+02 -0.62556824469E+02  0.98623719454E+02  0.00000000000E+00 0.  1.
        -13    1    3    3    0    0  0.39189173637E+02  0.46060656493E+02  0.23699694279E+02  0.64954221694E+02  0.00000000000E+00 0.  1.
         13    1    3    3    0    0  0.30452893340E+02 -0.43366647826E+02  0.13302989123E+02  0.54635285082E+02  0.00000000000E+00 0. -1.
         21    1    1    2  502  501  0.24144012940E+02  0.56520107979E+02 -0.85172253937E+02  0.10503222747E+03  0.00000000000E+00 0. -1.
<scales pt_clust_5="13000.00000" pt_clust_6="13000.00000" pt_clust_7="13000.00000" pt_clust_8="13000.00000" pt_clust_9="61.46101"></scales>
<clustering>
<clus scale="   61.461">  2  9  1 -1</clus>
<clus scale="   85.848">  5  6 -1 -1</clus>
<clus scale="   89.862">  7  8 -1 -1</clus>
<clus scale="  114.047">  2  5  1 -1</clus>
<clus scale="   61.461">  2  5  1 -1</clus>
</clustering>
</event>
<event>
 9    1  0.1296032E-005  0.1189533E+03  0.7546771E-02  0.1250551E+00
         -1   -1    0    0    0  501 -0.00000000000E+00  0.00000000000E+00  0.13842648352E+03  0.13842648352E+03  0.00000000000E+00 0.  1.
          1   -1    0    0  502    0  0.00000000000E+00 -0.00000000000E+00 -0.15578658495E+03  0.15578658495E+03  0.00000000000E+00 0. -1.
         23    2    1    2    0    0 -0.53852437619E+02 -0.43633608515E+02 -0.12864450646E+02  0.11528672636E+03  0.91222575908E+02 0.  0.
         23    2    1    2    0    0  0.50174188444E+02 -0.16386273394E+02 -0.85310942742E+01  0.11865860160E+03  0.10592981178E+03 0.  0.
        -13    1    3    3    0    0 -0.67045203142E+01 -0.34907249279E+02 -0.45163885285E+02  0.57473847782E+02  0.00000000000E+00 0. -1.
         13    1    3    3    0    0 -0.47147917305E+02 -0.87263592362E+01  0.32299434639E+02  0.57812878580E+02  0.00000000000E+00 0.  1.
        -13    1    4    4    0    0 -0.19244115084E+02 -0.16035989024E+02 -0.36121599755E+02  0.43957466694E+02  0.00000000000E+00 0. -1.
         13    1    4    4    0    0  0.69418303527E+02 -0.35028436988E+00  0.27590505481E+02  0.74701134907E+02  0.00000000000E+00 0.  1.
         21    1    1    2  502  501  0.36782491750E+01  0.60019881909E+02  0.40354434985E+01  0.60267740505E+02  0.00000000000E+00 0.  1.
<scales pt_clust_5="13000.00000" pt_clust_6="13000.00000" pt_clust_7="13000.00000" pt_clust_8="13000.00000" pt_clust_9="60.13248"></scales>
<clustering>
<clus scale="   60.132">  1  9  2 -1</clus>
<clus scale="   91.223">  5  6 -1 -1</clus>
<clus scale="  105.930">  7  8 -1 -1</clus>
<clus scale="  106.067">  1  5  2 -1</clus>
<clus scale="  118.953">  2  5  1 -1</clus>
</clustering>
</event>
<event>
 9    1  0.1296032E-005  0.1014759E+03  0.7546771E-02  0.1277803E+00
         -2   -1    0    0    0  501 -0.00000000000E+00  0.00000000000E+00  0.53875602802E+02  0.53875602802E+02  0.00000000000E+00 0.  1.
          2   -1    0    0  502    0  0.00000000000E+00 -0.00000000000E+00 -0.40457980170E+03  0.40457980170E+03  0.00000000000E+00 0. -1.
         23    2    1    2    0    0  0.39075680729E+02  0.37471833921E+02 -0.26335292958E+02  0.10833926284E+03  0.90071088902E+02 0.  0.
         23    2    1    2    0    0 -0.28090039342E+02 -0.47868025974E+01 -0.19386844148E+03  0.21513700693E+03  0.88808757217E+02 0.  0.
        -11    1    3    3    0    0  0.28989439536E+01  0.50075494620E+02  0.14632762205E+02  0.52250136528E+02  0.00000000000E+00 0.  1.
         11    1    3    3    0    0  0.36176736775E+02 -0.12603660699E+02 -0.40968055163E+02  0.56089126313E+02  0.00000000000E+00 0. -1.
        -11    1    4    4    0    0 -0.41958822207E+02  0.22944843661E+02 -0.55155612184E+02  0.73001028534E+02  0.00000000000E+00 0.  1.
         11    1    4    4    0    0  0.13868782865E+02 -0.27731646259E+02 -0.13871282930E+03  0.14213597840E+03  0.00000000000E+00 0. -1.
         21    1    1    2  502  501 -0.10985641387E+02 -0.32685031324E+02 -0.13050046446E+03  0.13497913473E+03  0.00000000000E+00 0. -1.
<scales pt_clust_5="13000.00000" pt_clust_6="13000.00000" pt_clust_7="13000.00000" pt_clust_8="13000.00000" pt_clust_9="34.48182"></scales>
<clustering>
<clus scale="   34.482">  2  9  1 -1</clus>
<clus scale="   88.809">  7  8 -1 -1</clus>
<clus scale="   90.071">  5  6 -1 -1</clus>
<clus scale="  100.357">  2  7  1 -1</clus>
<clus scale="   34.482">  2  5  1 -1</clus>
</clustering>
</event>
<event>
 9    1  0.1296032E-005  0.9150501E+02  0.7546771E-02  0.1301578E+00
          2   -1    0    0  502    0  0.00000000000E+00  0.00000000000E+00  0.56852346036E+03  0.56852346036E+03  0.00000000000E+00 0. -1.
         -2   -1    0    0    0  501 -0.00000000000E+00 -0.00000000000E+00 -0.23963903413E+02  0.23963903413E+02  0.00000000000E+00 0.  1.
         23    2    1    2    0    0  0.89974653623E+01 -0.36688390257E+01  0.12281381648E+03  0.15004651953E+03  0.85652260570E+02 0.  0.
         23    2    1    2    0    0 -0.38416175395E+02 -0.10962042147E+02  0.27236290728E+03  0.28948740678E+03  0.89584800710E+02 0.  0.
        -13    1    4    4    0    0 -0.55250811278E+02  0.23154786485E+02  0.15900979486E+03  0.16992030822E+03  0.00000000000E+00 0. -1.
         13    1    4    4    0    0  0.16834635883E+02 -0.34116828632E+02  0.11335311242E+03  0.11956709856E+03  0.00000000000E+00 0.  1.
        -13    1    3    3    0    0 -0.23018503541E+02 -0.31915354073E+02  0.36141911222E+02  0.53429196865E+02  0.00000000000E+00 0. -1.
         13    1    3    3    0    0  0.32015968904E+02  0.28246515047E+02  0.86671905257E+02  0.96617322660E+02  0.00000000000E+00 0.  1.
         21    1    1    2  502  501  0.29418710033E+02  0.14630881172E+02  0.14938283319E+03  0.15295343747E+03  0.00000000000E+00 0.  1.
<scales pt_clust_5="13000.00000" pt_clust_6="13000.00000" pt_clust_7="13000.00000" pt_clust_8="13000.00000" pt_clust_9="32.85610"></scales>
<clustering>
<clus scale="   32.856">  1  9  2 -1</clus>
<clus scale="   85.652">  7  8 -1 -1</clus>
<clus scale="   87.659">  2  7  1 -1</clus>
<clus scale="   89.585">  5  6 -1 -1</clus>
<clus scale="   32.856">  1  5  2 -1</clus>
</clustering>
</event>
<event>
 9    1  0.1296032E-005  0.9343695E+02  0.7546771E-02  0.1297078E+00
         -1   -1    0    0    0  501 -0.00000000000E+00  0.00000000000E+00  0.10169933923E+03  0.10169933923E+03  0.00000000000E+00 0.  1.
          1   -1    0    0  502    0  0.00000000000E+00 -0.00000000000E+00 -0.23496393567E+03  0.23496393567E+03  0.00000000000E+00 0. -1.
         23    2    1    2    0    0  0.64476791031E+01  0.43075637191E+01  0.37927520715E+02  0.99280533922E+02  0.91422097532E+02 0.  0.
         23    2    1    2    0    0 -0.51372860540E+02 -0.24733965167E+02 -0.72492683393E+02  0.12703289716E+03  0.87356900031E+02 0.  0.
        -11    1    4    4    0    0 -0.64050959857E+02 -0.41724475735E+02 -0.73177495263E+02  0.10582250775E+03  0.00000000000E+00 0. -1.
         11    1    4    4    0    0  0.12678099317E+02  0.16990510568E+02  0.68481187021E+00  0.21210389411E+02  0.00000000000E+00 0.  1.
        -13    1    3    3    0    0  0.13389291112E+02 -0.33615416817E+02  0.47350015906E+02  0.59592729175E+02  0.00000000000E+00 0.  1.
         13    1    3    3    0    0 -0.69416120086E+01  0.37922980536E+02 -0.94224951902E+01  0.39687804747E+02  0.00000000000E+00 0. -1.
         21    1    1    2  502  501  0.44925181437E+02  0.20426401448E+02 -0.98699433770E+02  0.11034984381E+03  0.00000000000E+00 0. -1.
<scales pt_clust_5="13000.00000" pt_clust_6="13000.00000" pt_clust_7="13000.00000" pt_clust_8="13000.00000" pt_clust_9="49.35088"></scales>
<clustering>
<clus scale="   49.351">  2  9  1 -1</clus>
<clus scale="   87.357">  5  6 -1 -1</clus>
<clus scale="   89.463">  2  5  1 -1</clus>
<clus scale="   91.422">  7  8 -1 -1</clus>
<clus scale="   49.351">  2  5  1 -1</clus>
</clustering>
</event>
<event>
 9    1  0.1296032E-005  0.1256874E+03  0.7546771E-02  0.1235841E+00
         -1   -1    0    0    0  501 -0.00000000000E+00  0.00000000000E+00  0.12671979684E+03  0.12671979684E+03  0.00000000000E+00 0.  1.
          1   -1    0    0  502    0  0.00000000000E+00 -0.00000000000E+00 -0.27290366236E+03  0.27290366236E+03  0.00000000000E+00 0. -1.
         23    2    1    2    0    0  0.83463218842E+02 -0.10604592438E+02  0.21509302650E+02  0.12951475710E+03  0.96087751174E+02 0.  0.
         23    2    1    2    0    0 -0.77800930334E+02 -0.11687998669E+02 -0.20612266944E+02  0.12124026142E+03  0.89915189851E+02 0.  0.
        -11    1    4    4    0    0 -0.30351896943E+02  0.39342192834E+02 -0.60851512413E+01  0.50060711647E+02  0.00000000000E+00 0.  1.
         11    1    4    4    0    0 -0.47449033392E+02 -0.51030191503E+02 -0.14527115703E+02  0.71179549769E+02  0.00000000000E+00 0. -1.
        -13    1    3    3    0    0  0.10307773028E+03 -0.21474798922E+02  0.17721789191E+02  0.10677194051E+03  0.00000000000E+00 0.  1.
         13    1    3    3    0    0 -0.19614511440E+02  0.10870206484E+02  0.37875134586E+01  0.22742816586E+02  0.00000000000E+00 0. -1.
         21    1    1    2  502  501 -0.56622885073E+01  0.22292591107E+02 -0.14708090122E+03  0.14886844069E+03  0.00000000000E+00 0. -1.
<scales pt_clust_5="13000.00000" pt_clust_6="13000.00000" pt_clust_7="13000.00000" pt_clust_8="13000.00000" pt_clust_9="23.00046"></scales>
<clustering>
<clus scale="   23.000">  2  9  1 -1</clus>
<clus scale="   89.915">  5  6 -1 -1</clus>
<clus scale="   96.088">  7  8 -1 -1</clus>
<clus scale="  121.034">  2  5  1 -1</clus>
<clus scale="   23.000">  2  5  1 -1</clus>
</clustering>
</event>
<event>
 9    1  0.1296032E-005  0.1067240E+03  0.7546771E-02  0.1268768E+00
          2   -1    0    0  502    0  0.00000000000E+00  0.00000000000E+00  0.31114418160E+03  0.31114418160E+03  0.00000000000E+00 0. -1.
         -2   -1    0    0    0  501 -0.00000000000E+00 -0.00000000000E+00 -0.78502618826E+02  0.78502618826E+02  0.00000000000E+00 0.  1.
         23    2    1    2    0    0 -0.30222972832E+02  0.51847784962E+02 -0.77206612677E+01  0.11251316218E+03  0.94857694266E+02 0.  0.
         23    2    1    2    0    0  0.22489317053E+01 -0.16749984027E+02  0.14317504991E+03  0.17008341908E+03  0.90242201163E+02 0.  0.
        -13    1    4    4    0    0 -0.33507251062E+02 -0.21636874480E+02  0.12174364722E+03  0.12811091230E+03  0.00000000000E+00 0. -1.
         13    1    4    4    0    0  0.35756182767E+02  0.48868904526E+01  0.21431402685E+02  0.41972506780E+02  0.00000000000E+00 0.  1.
        -13    1    3    3    0    0  0.33814717152E+02  0.14575009876E+02 -0.10740485750E+02  0.38356538466E+02  0.00000000000E+00 0.  1.
         13    1    3    3    0    0 -0.64037689983E+02  0.37272775085E+02  0.30198244821E+01  0.74156623715E+02  0.00000000000E+00 0. -1.
         21    1    1    2  502  501  0.27974041126E+02 -0.35097800935E+02  0.97187174134E+02  0.10705021917E+03  0.00000000000E+00 0. -1.
<scales pt_clust_5="13000.00000" pt_clust_6="13000.00000" pt_clust_7="13000.00000" pt_clust_8="13000.00000" pt_clust_9="44.88210"></scales>
<clustering>
<clus scale="   44.882">  1  9  2 -1</clus>
<clus scale="   90.242">  5  6 -1 -1</clus>
<clus scale="   94.858">  7  8 -1 -1</clus>
<clus scale="  102.643">  1  5  2 -1</clus>
<clus scale="   44.882">  1  5  2 -1</clus>
</clustering>
</event>
<event>
 9    1  0.1296032E-005  0.1716033E+03  0.7546771E-02  0.1176609E+00
          1   -1    0    0  502    0  0.00000000000E+00  0.00000000000E+00  0.88700475041E+02  0.88700475041E+02  0.00000000000E+00 0. -1.
         -1   -1    0    0    0  501 -0.00000000000E+00 -0.00000000000E+00 -0.67619572661E+03  0.67619572661E+03  0.00000000000E+00 0.  1.
         23    2    1    2    0    0  0.78806675186E+02  0.11011814492E+03 -0.34115253156E+03  0.37768451378E+03  0.89017100997E+02 0.  0.
         23    2    1    2    0    0 -0.84302512211E+02 -0.13455147839E+03 -0.28627969656E+03  0.34007195828E+03  0.92097004528E+02 0.  0.
        -11    1    4    4    0    0 -0.94365806156E+02 -0.94959529886E+02 -0.16727000149E+03  0.21424628605E+03  0.00000000000E+00 0. -1.
         11    1    4    4    0    0  0.10063293945E+02 -0.39591948506E+02 -0.11900969507E+03  0.12582567223E+03  0.00000000000E+00 0.  1.
        -13    1    3    3    0    0  0.61921341701E+02  0.20640524383E+02 -0.95281862019E+02  0.11549422944E+03  0.00000000000E+00 0.  1.
         13    1    3    3    0    0  0.16885333486E+02  0.89477620532E+02 -0.24587066954E+03  0.26219028434E+03  0.00000000000E+00 0. -1.
         21    1    1    2  502  501  0.54958370248E+01  0.24433333477E+02  0.39936976551E+02  0.47139729586E+02  0.00000000000E+00 0. -1.
<scales pt_clust_5="13000.00000" pt_clust_6="13000.00000" pt_clust_7="13000.00000" pt_clust_8="13000.00000" pt_clust_9="25.04380"></scales>
<clustering>
<clus scale="   25.044">  1  9  2 -1</clus>
<clus scale="   89.017">  7  8 -1 -1</clus>
<clus scale="   92.097">  5  6 -1 -1</clus>
<clus scale="  169.970">  2  7  1 -1</clus>
<clus scale="   25.044">  1  5  2 -1</clus>
</clustering>
</event>
<event>
 9    1  0.1296032E-005  0.9461990E+02  0.7546771E-02  0.1293153E+00
          3   -1    0    0  502    0  0.00000000000E+00  0.00000000000E+00  0.50239389524E+03  0.50239389524E+03  0.00000000000E+00 0. -1.
         -3   -1    0    0    0  501 -0.00000000000E+00 -0.00000000000E+00 -0.23940244821E+02  0.23940244821E+02  0.00000000000E+00 0.  1.
         23    2    1    2    0    0 -0.16479840329E+02 -0.16313909503E+02  0.14974511625E+03  0.17656973828E+03  0.90639637318E+02 0.  0.
         23    2    1    2    0    0 -0.74813118478E+01  0.20083166869E+02  0.26942946351E+03  0.28571479342E+03  0.92635866424E+02 0.  0.
        -11    1    3    3    0    0 -0.40537079067E+02 -0.34475778613E+02  0.13017229849E+03  0.14062951818E+03  0.00000000000E+00 0. -1.
         11    1    3    3    0    0  0.24057238739E+02  0.18161869110E+02  0.19572817764E+02  0.35940220096E+02  0.00000000000E+00 0.  1.
        -11    1    4    4    0    0 -0.48531613619E+01 -0.37211625767E+02  0.11575705437E+03  0.12168793656E+03  0.00000000000E+00 0. -1.
         11    1    4    4    0    0 -0.26281504860E+01  0.57294792635E+02  0.15367240914E+03  0.16402685685E+03  0.00000000000E+00 0.  1.
         21    1    1    2  502  501  0.23961152177E+02 -0.37692573661E+01  0.59279070653E+02  0.64049608369E+02  0.00000000000E+00 0. -1.
<scales pt_clust_5="13000.00000" pt_clust_6="13000.00000" pt_clust_7="13000.00000" pt_clust_8="13000.00000" pt_clust_9="24.25581"></scales>
<clustering>
<clus scale="   24.256">  1  9  2 -1</clus>
<clus scale="   90.640">  5  6 -1 -1</clus>
<clus scale="   92.636">  7  8 -1 -1</clus>
<clus scale="   92.666">  2  5  1 -1</clus>
<clus scale="   24.256">  1  5  2 -1</clus>
</clustering>
</event>
<event>
 9    1  0.1296032E-005  0.2622490E+03  0.7546771E-02  0.1105854E+00
          1   -1    0    0  502    0  0.00000000000E+00  0.00000000000E+00  0.35989967800E+03  0.35989967800E+03  0.00000000000E+00 0. -1.
         -1   -1    0    0    0  501 -0.00000000000E+00 -0.00000000000E+00 -0.24719292667E+03  0.24719292667E+03  0.00000000000E+00 0.  1.
         23    2    1    2    0    0  0.10925583233E+03 -0.20947647712E+03 -0.44325050447E+02  0.25699368151E+03  0.90905505212E+02 0.  0.
         23    2    1    2    0    0 -0.13008897293E+03  0.23284444053E+03  0.13797566872E+03  0.31344898907E+03  0.89851595565E+02 0.  0.
        -11    1    3    3    0    0  0.25484105769E+02 -0.44648312426E+01 -0.22797268676E+02  0.34483181755E+02  0.00000000000E+00 0. -1.
         11    1    3    3    0    0  0.83771726559E+02 -0.20501164587E+03 -0.21527781771E+02  0.22251049976E+03  0.00000000000E+00 0.  1.
        -13    1    4    4    0    0 -0.50534080323E+02  0.46563705587E+02  0.74102267908E+02  0.10105947784E+03  0.00000000000E+00 0.  1.
         13    1    4    4    0    0 -0.79554892606E+02  0.18628073494E+03  0.63873400810E+02  0.21238951123E+03  0.00000000000E+00 0. -1.
         21    1    1    2  502  501  0.20833140601E+02 -0.23367963413E+02  0.19056133055E+02  0.36649934085E+02  0.00000000000E+00 0. -1.
<scales pt_clust_5="13000.00000" pt_clust_6="13000.00000" pt_clust_7="13000.00000" pt_clust_8="13000.00000" pt_clust_9="31.30625"></scales>
<clustering>
<clus scale="   31.306">  1  9  2 -1</clus>
<clus scale="   89.852">  7  8 -1 -1</clus>
<clus scale="   90.906">  5  6 -1 -1</clus>
<clus scale="  261.886">  1  7  2 -1</clus>
<clus scale="   31.306">  1  5  2 -1</clus>
</clustering>
</event>
<event>
 9    1  0.1296032E-005  0.1033831E+03  0.7546771E-02  0.1278362E+00
         -2   -1    0    0    0  501 -0.00000000000E+00  0.00000000000E+00  0.48335217044E+03  0.48335217044E+03  0.00000000000E+00 0.  1.
          2   -1    0    0  502    0  0.00000000000E+00 -0.00000000000E+00 -0.43366963745E+02  0.43366963745E+02  0.00000000000E+00 0. -1.
         23    2    1    2    0    0  0.43655113483E+02 -0.45635358280E+02  0.23450568641E+03  0.25808172135E+03  0.87320690996E+02 0.  0.
         23    2    1    2    0    0  0.13348852076E+02  0.60774006543E+02  0.17870534094E+03  0.20386483037E+03  0.75852478246E+02 0.  0.
        -13    1    4    4    0    0  0.33471070083E+02  0.22733162966E+02  0.14086080009E+03  0.14655672701E+03  0.00000000000E+00 0.  1.
         13    1    4    4    0    0 -0.20122218007E+02  0.38040843577E+02  0.37844540851E+02  0.57308103352E+02  0.00000000000E+00 0. -1.
        -13    1    3    3    0    0 -0.17378218356E+02 -0.30413360536E+02  0.37669814820E+02  0.51439186627E+02  0.00000000000E+00 0.  1.
         13    1    3    3    0    0  0.61033331838E+02 -0.15221997744E+02  0.19683587159E+03  0.20664253472E+03  0.00000000000E+00 0. -1.
         21    1    1    2  502  501 -0.57003965559E+02 -0.15138648264E+02  0.26774179342E+02  0.64772582472E+02  0.00000000000E+00 0. -1.
<scales pt_clust_5="13000.00000" pt_clust_6="13000.00000" pt_clust_7="13000.00000" pt_clust_8="13000.00000" pt_clust_9="58.97992"></scales>
<clustering>
<clus scale="   58.980">  2  9  1 -1</clus>
<clus scale="   75.852">  5  6 -1 -1</clus>
<clus scale="   87.321">  7  8 -1 -1</clus>
<clus scale="   93.898">  2  5  1 -1</clus>
<clus scale="   58.980">  2  5  1 -1</clus>
</clustering>
</event>
<event>
 9    1  0.1296032E-005  0.9831587E+02  0.7546771E-02  0.1284693E+00
          1   -1    0    0  502    0  0.00000000000E+00  0.00000000000E+00  0.44015794400E+03  0.44015794400E+03  0.00000000000E+00 0. -1.
         -1   -1    0    0    0  501 -0.00000000000E+00 -0.00000000000E+00 -0.44228115816E+02  0.44228115816E+02  0.00000000000E+00 0.  1.
         23    2    1    2    0    0 -0.19201428994E+02  0.30917228521E+02  0.49871868958E+02  0.10880809213E+03  0.89595913435E+02 0.  0.
         23    2    1    2    0    0  0.71798501983E+01 -0.52723802583E+02  0.17688243245E+03  0.20457971072E+03  0.87943808867E+02 0.  0.
        -11    1    4    4    0    0 -0.30465302956E+02  0.25278262491E+01  0.28343010816E+02  0.41687538328E+02  0.00000000000E+00 0.  1.
         11    1    4    4    0    0  0.37645153154E+02 -0.55251628833E+02  0.14853942164E+03  0.16289217239E+03  0.00000000000E+00 0. -1.
        -13    1    3    3    0    0  0.29983611244E+02  0.20858734224E+02  0.45598290795E+02  0.58423521463E+02  0.00000000000E+00 0. -1.
         13    1    3    3    0    0 -0.49185040238E+02  0.10058494297E+02  0.42735781626E+01  0.50384570664E+02  0.00000000000E+00 0.  1.
         21    1    1    2  502  501  0.12021578796E+02  0.21806574063E+02  0.16917552677E+03  0.17099825697E+03  0.00000000000E+00 0. -1.
<scales pt_clust_5="13000.00000" pt_clust_6="13000.00000" pt_clust_7="13000.00000" pt_clust_8="13000.00000" pt_clust_9="24.90070"></scales>
<clustering>
<clus scale="   24.901">  1  9  2 -1</clus>
<clus scale="   87.944">  5  6 -1 -1</clus>
<clus scale="   89.596">  7  8 -1 -1</clus>
<clus scale="   96.813">  1  5  2 -1</clus>
<clus scale="   24.901">  1  5  2 -1</clus>
</clustering>
</event>
<event>
 9    1  0.1296032E-005  0.9520611E+02  0.7546771E-02  0.1290744E+00
         -1   -1    0    0    0  501 -0.00000000000E+00  0.00000000000E+00  0.53655559346E+03  0.53655559346E+03  0.00000000000E+00 0.  1.
          1   -1    0    0  502    0  0.00000000000E+00 -0.00000000000E+00 -0.26573465230E+02  0.26573465230E+02  0.00000000000E+00 0. -1.
         23    2    1    2    0    0  0.26884454536E+02  0.25357422203E+02  0.29445315316E+03  0.31048408977E+03  0.91279449181E+02 0.  0.
         23    2    1    2    0    0 -0.21210434343E+02  0.11156925891E+02  0.16485559945E+03  0.18992907684E+03  0.91221302549E+02 0.  0.
        -13    1    3    3    0    0 -0.51907269675E+01  0.54064691536E+02  0.14070757340E+03  0.15082624350E+03  0.00000000000E+00 0.  1.
         13    1    3    3    0    0  0.32075181503E+02 -0.28707269333E+02  0.15374557976E+03  0.15965784627E+03  0.00000000000E+00 0. -1.
        -13    1    4    4    0    0 -0.49302745193E+02  0.32272834354E+02  0.96507359416E+02  0.11307505004E+03  0.00000000000E+00 0.  1.
         13    1    4    4    0    0  0.28092310850E+02 -0.21115908463E+02  0.68348240032E+02  0.76854026794E+02  0.00000000000E+00 0. -1.
         21    1    1    2  502  501 -0.56740201926E+01 -0.36514348094E+02  0.50673375628E+02  0.62715892080E+02  0.00000000000E+00 0.  1.
<scales pt_clust_5="13000.00000" pt_clust_6="13000.00000" pt_clust_7="13000.00000" pt_clust_8="13000.00000" pt_clust_9="36.95257"></scales>
<clustering>
<clus scale="   36.953">  2  9  1 -1</clus>
<clus scale="   91.221">  7  8 -1 -1</clus>
<clus scale="   91.279">  5  6 -1 -1</clus>
<clus scale="   95.150">  2  7  1 -1</clus>
<clus scale="   36.953">  2  5  1 -1</clus>
</clustering>
</event>
<event>
 9    1  0.1296032E-005  0.9468986E+02  0.7546771E-02  0.1297089E+00
          1   -1    0    0  502    0  0.00000000000E+00  0.00000000000E+00  0.87468649057E+02  0.87468649057E+02  0.00000000000E+00 0. -1.
         -1   -1    0    0    0  501 -0.00000000000E+00 -0.00000000000E+00 -0.14735188364E+03  0.14735188364E+03  0.00000000000E+00 0.  1.
         23    2    1    2    0    0 -0.94419272796E+01 -0.22776003308E+02 -0.25892819286E+02  0.92908906867E+02  0.85753895347E+02 0.  0.
         23    2    1    2    0    0 -0.13055415618E+02 -0.11774202424E+02 -0.18725959027E+02  0.97947426996E+02  0.94519633907E+02 0.  0.
        -11    1    3    3    0    0 -0.30566768260E+02  0.10104752341E+01 -0.46025900060E+02  0.55260581415E+02  0.00000000000E+00 0.  1.
         11    1    3    3    0    0  0.21124840980E+02 -0.23786478542E+02  0.20133080774E+02  0.37648325452E+02  0.00000000000E+00 0. -1.
        -11    1    4    4    0    0  0.88048954949E+01 -0.34983665335E+02  0.24957244932E+02  0.43866241001E+02  0.00000000000E+00 0. -1.
         11    1    4    4    0    0 -0.21860311113E+02  0.23209462911E+02 -0.43683203959E+02  0.54081185995E+02  0.00000000000E+00 0.  1.
         21    1    1    2  502  501  0.22497342898E+02  0.34550205732E+02 -0.15264456265E+02  0.43964198829E+02  0.00000000000E+00 0.  1.
<scales pt_clust_5="13000.00000" pt_clust_6="13000.00000" pt_clust_7="13000.00000" pt_clust_8="13000.00000" pt_clust_9="41.22920"></scales>
<clustering>
<clus scale="   41.229">  2  9  1 -1</clus>
<clus scale="   85.754">  5  6 -1 -1</clus>
<clus scale="   85.941">  2  5  1 -1</clus>
<clus scale="   94.520">  7  8 -1 -1</clus>
<clus scale="   94.690">  1  5  2 -1</clus>
</clustering>
</event>
<event>
 9    1  0.1296032E-005  0.1293639E+03  0.7546771E-02  0.1229710E+00
          2   -1    0    0  502    0  0.00000000000E+00  0.00000000000E+00  0.11740625248E+03  0.11740625248E+03  0.00000000000E+00 0. -1.
         -2   -1    0    0    0  501 -0.00000000000E+00 -0.00000000000E+00 -0.34300468868E+03  0.34300468868E+03  0.00000000000E+00 0.  1.
         23    2    1    2    0    0 -0.20132075923E+02 -0.85181691429E+02 -0.24652853621E+03  0.27878206170E+03  0.96342605953E+02 0.  0.
         23    2    1    2    0    0 -0.27524959658E+00  0.84428675530E+02 -0.28772485777E+02  0.12789459802E+03  0.91656397765E+02 0.  0.
        -13    1    3    3    0    0 -0.62817443734E-01 -0.10316098199E+03 -0.19198162460E+03  0.21794296579E+03  0.00000000000E+00 0.  1.
         13    1    3    3    0    0 -0.20069258479E+02  0.17979290561E+02 -0.54546911612E+02  0.60839095912E+02  0.00000000000E+00 0. -1.
        -13    1    4    4    0    0  0.68827858393E+01  0.29967923159E+02 -0.58020065362E+02  0.65664123721E+02  0.00000000000E+00 0.  1.
         13    1    4    4    0    0 -0.71580354359E+01  0.54460752371E+02  0.29247579585E+02  0.62230474301E+02  0.00000000000E+00 0. -1.
         21    1    1    2  502  501  0.20407325520E+02  0.75301589893E+00  0.49702585791E+02  0.53734281443E+02  0.00000000000E+00 0. -1.
<scales pt_clust_5="13000.00000" pt_clust_6="13000.00000" pt_clust_7="13000.00000" pt_clust_8="13000.00000" pt_clust_9="20.42121"></scales>
<clustering>
<clus scale="   20.421">  1  9  2 -1</clus>
<clus scale="   91.656">  7  8 -1 -1</clus>
<clus scale="   96.343">  5  6 -1 -1</clus>
<clus scale="  125.913">  1  7  2 -1</clus>
<clus scale="   20.421">  1  5  2 -1</clus>
</clustering>
</event>
<event>
 9    1  0.1725252E-005  0.1672862E+03  0.7546771E-02  0.1186497E+00
         -1   -1    0    0    0  501 -0.00000000000E+00  0.00000000000E+00  0.70774062299E+02  0.70774062299E+02  0.00000000000E+00 0.  1.
          1   -1    0    0  502    0  0.00000000000E+00 -0.00000000000E+00 -0.79133669743E+03  0.79133669743E+03  0.00000000000E+00 0. -1.
         23    2    1    2    0    0 -0.15013735333E+01  0.93990157829E+02 -0.27628654467E+02  0.13476987314E+03  0.92537410103E+02 0.  0.
         23    2    1    2    0    0 -0.14044506708E+02 -0.11753490901E+03 -0.66913258745E+03  0.69042834103E+03  0.12223408484E+03 0.  0.
        -11    1    4    4    0    0 -0.19120342937E+02  0.10218966904E+02 -0.22378775978E+02  0.31158055346E+02  0.00000000000E+00 0.  1.
         11    1    4    4    0    0  0.50758362295E+01 -0.12775387592E+03 -0.64675381147E+03  0.65927028568E+03  0.00000000000E+00 0. -1.
        -13    1    3    3    0    0  0.37665495443E+02  0.10978698335E+02 -0.11918001268E+01  0.39251009562E+02  0.00000000000E+00 0.  1.
         13    1    3    3    0    0 -0.39166868976E+02  0.83011459494E+02 -0.26436854340E+02  0.95518863583E+02  0.00000000000E+00 0. -1.
         21    1    1    2  502  501  0.15545880241E+02  0.23544751182E+02 -0.23801393207E+02  0.36912545554E+02  0.00000000000E+00 0.  1.
<scales pt_clust_5="13000.00000" pt_clust_6="13000.00000" pt_clust_7="13000.00000" pt_clust_8="13000.00000" pt_clust_9="28.21400"></scales>
<clustering>
<clus scale="   28.214">  1  9  2 -1</clus>
<clus scale="   92.537">  7  8 -1 -1</clus>
<clus scale="  122.234">  5  6 -1 -1</clus>
<clus scale="  146.992">  1  7  2 -1</clus>
<clus scale="  167.286">  2  5  1 -1</clus>
</clustering>
</event>
<event>
 9    1  0.1296032E-005  0.1178948E+03  0.7546771E-02  0.1246658E+00
         -1   -1    0    0    0  501 -0.00000000000E+00  0.00000000000E+00  0.42355838345E+03  0.42355838345E+03  0.00000000000E+00 0.  1.
          1   -1    0    0  502    0  0.00000000000E+00 -0.00000000000E+00 -0.54591760290E+02  0.54591760290E+02  0.00000000000E+00 0. -1.
         23    2    1    2    0    0 -0.69245824541E+02 -0.20475349180E+02  0.21829603279E+03  0.24749049380E+03  0.91565072224E+02 0.  0.
         23    2    1    2    0    0  0.66418739890E+02  0.42274070285E+02  0.16501127886E+03  0.20441404086E+03  0.91421178739E+02 0.  0.
        -11    1    4    4    0    0  0.20700333395E+02  0.24930021639E+02  0.14971215332E+03  0.15317877997E+03  0.00000000000E+00 0.  1.
         11    1    4    4    0    0  0.45718406495E+02  0.17344048646E+02  0.15299125539E+02  0.51235260887E+02  0.00000000000E+00 0. -1.
        -13    1    3    3    0    0 -0.98770895840E+01  0.34198484592E+02  0.58755952843E+02  0.68697563578E+02  0.00000000000E+00 0.  1.
         13    1    3    3    0    0 -0.59368734957E+02 -0.54673833771E+02  0.15954007994E+03  0.17879293023E+03  0.00000000000E+00 0. -1.
         21    1    1    2  502  501  0.28270846513E+01 -0.21798721105E+02 -0.14340688490E+02  0.26245609077E+02  0.00000000000E+00 0.  1.
<scales pt_clust_5="13000.00000" pt_clust_6="13000.00000" pt_clust_7="13000.00000" pt_clust_8="13000.00000" pt_clust_9="21.98128"></scales>
<clustering>
<clus scale="   21.981">  2  9  1 -1</clus>
<clus scale="   91.421">  5  6 -1 -1</clus>
<clus scale="   91.565">  7  8 -1 -1</clus>
<clus scale="  117.783">  2  5  1 -1</clus>
<clus scale="   21.981">  2  5  1 -1</clus>
</clustering>
</event>
<event>
 9    1  0.1296032E-005  0.1296881E+03  0.7546771E-02  0.1228462E+00
         -1   -1    0    0    0  501 -0.00000000000E+00  0.00000000000E+00  0.24679961702E+03  0.24679961702E+03  0.00000000000E+00 0.  1.
          1   -1    0    0  502    0  0.00000000000E+00 -0.00000000000E+00 -0.12933178550E+03  0.12933178550E+03  0.00000000000E+00 0. -1.
         23    2    1    2    0    0 -0.76494079296E+02  0.67054330818E+02  0.16085999237E+03  0.21092249620E+03  0.90910586884E+02 0.  0.
         23    2    1    2    0    0  0.48141895914E+02 -0.35732904918E+02 -0.56268760584E+02  0.12104234835E+03  0.88829015762E+02 0.  0.
        -11    1    4    4    0    0  0.21876302881E+02 -0.45425853020E+02  0.78978318381E+01  0.51033875986E+02  0.00000000000E+00 0. -1.
         11    1    4    4    0    0  0.26265593032E+02  0.96929481021E+01 -0.64166592422E+02  0.70008472368E+02  0.00000000000E+00 0.  1.
        -13    1    3    3    0    0 -0.71084064516E+01 -0.21638669310E+02  0.18084404569E+02  0.29082763631E+02  0.00000000000E+00 0. -1.
         13    1    3    3    0    0 -0.69385672844E+02  0.88693000128E+02  0.14277558780E+03  0.18183973256E+03  0.00000000000E+00 0.  1.
         21    1    1    2  502  501  0.28352183382E+02 -0.31321425900E+02  0.12876599733E+02  0.44166557979E+02  0.00000000000E+00 0. -1.
<scales pt_clust_5="13000.00000" pt_clust_6="13000.00000" pt_clust_7="13000.00000" pt_clust_8="13000.00000" pt_clust_9="42.24782"></scales>
<clustering>
<clus scale="   42.248">  2  9  1 -1</clus>
<clus scale="   88.829">  5  6 -1 -1</clus>
<clus scale="   90.911">  7  8 -1 -1</clus>
<clus scale="  128.238">  2  5  1 -1</clus>
<clus scale="   42.248">  2  5  1 -1</clus>
</clustering>
</event>
<event>
 9    1  0.1296032E-005  0.1046368E+03  0.7546771E-02  0.1272653E+00
         -1   -1    0    0    0  501 -0.00000000000E+00  0.00000000000E+00  0.18605096017E+03  0.18605096017E+03  0.00000000000E+00 0.  1.
          1   -1    0    0  502    0  0.00000000000E+00 -0.00000000000E+00 -0.21441311978E+03  0.21441311978E+03  0.00000000000E+00 0. -1.
         23    2    1    2    0    0  0.42429675303E+02 -0.42357205356E+02  0.10610592130E+03  0.14887402409E+03  0.85502036936E+02 0.  0.
         23    2    1    2    0    0  0.13310317096E+02  0.57742695386E+02 -0.25559628935E+01  0.10756065978E+03  0.89729477739E+02 0.  0.
        -13    1    3    3    0    0  0.46045140340E+02 -0.64824188608E+02  0.68655220525E+02  0.10505174764E+03  0.00000000000E+00 0.  1.
         13    1    3    3    0    0 -0.36154650369E+01  0.22466983252E+02  0.37450700780E+02  0.43822276445E+02  0.00000000000E+00 0. -1.
        -13    1    4    4    0    0 -0.34250388648E+02  0.39628634734E+02 -0.16278163566E+02  0.54849762283E+02  0.00000000000E+00 0. -1.
         13    1    4    4    0    0  0.47560705744E+02  0.18114060652E+02  0.13722200673E+02  0.52710897502E+02  0.00000000000E+00 0.  1.
         21    1    1    2  502  501 -0.55739992399E+02 -0.15385490030E+02 -0.13191211801E+03  0.14402939608E+03  0.00000000000E+00 0. -1.
<scales pt_clust_5="13000.00000" pt_clust_6="13000.00000" pt_clust_7="13000.00000" pt_clust_8="13000.00000" pt_clust_9="57.82439"></scales>
<clustering>
<clus scale="   57.824">  2  9  1 -1</clus>
<clus scale="   85.502">  5  6 -1 -1</clus>
<clus scale="   89.729">  7  8 -1 -1</clus>
<clus scale="  101.035">  1  5  2 -1</clus>
<clus scale="   57.824">  2  5  1 -1</clus>
</clustering>
</event>
<event>
 9    1  0.1296032E-005  0.2644472E+03  0.7546771E-02  0.1104608E+00
          1   -1    0    0  502    0  0.00000000000E+00  0.00000000000E+00  0.10516603199E+03  0.10516603199E+03  0.00000000000E+00 0. -1.
         -1   -1    0    0    0  501 -0.00000000000E+00 -0.00000000000E+00 -0.74061356650E+03  0.74061356650E+03  0.00000000000E+00 0.  1.
         23    2    1    2    0    0  0.67711512479E+02  0.22909419830E+03 -0.32502338823E+03  0.41337475529E+03  0.90385202304E+02 0.  0.
         23    2    1    2    0    0 -0.64159190288E+02 -0.25224404615E+03 -0.29974701788E+03  0.40666507788E+03  0.88231232137E+02 0.  0.
        -13    1    4    4    0    0 -0.68396903847E+02 -0.94030371666E+02 -0.13604157959E+03  0.17896133278E+03  0.00000000000E+00 0.  1.
         13    1    4    4    0    0  0.42377135587E+01 -0.15821367448E+03 -0.16370543829E+03  0.22770374510E+03  0.00000000000E+00 0. -1.
        -13    1    3    3    0    0 -0.16821755054E+02  0.11760875027E+02 -0.41278321175E+02  0.46099776827E+02  0.00000000000E+00 0.  1.
         13    1    3    3    0    0  0.84533267533E+02  0.21733332328E+03 -0.28374506706E+03  0.36727497846E+03  0.00000000000E+00 0. -1.
         21    1    1    2  502  501 -0.35523221907E+01  0.23149847843E+02 -0.10677128397E+02  0.25739765324E+02  0.00000000000E+00 0.  1.
<scales pt_clust_5="13000.00000" pt_clust_6="13000.00000" pt_clust_7="13000.00000" pt_clust_8="13000.00000" pt_clust_9="23.42081"></scales>
<clustering>
<clus scale="   23.421">  1  9  2 -1</clus>
<clus scale="   88.231">  5  6 -1 -1</clus>
<clus scale="   90.385">  7  8 -1 -1</clus>
<clus scale="  263.719">  1  5  2 -1</clus>
<clus scale="   23.421">  1  5  2 -1</clus>
</clustering>
</event>
<event>
 9    1  0.1296032E-005  0.1012563E+03  0.7546771E-02  0.1277802E+00
         -1   -1    0    0    0  501 -0.00000000000E+00  0.00000000000E+00  0.42933966856E+02  0.42933966856E+02  0.00000000000E+00 0.  1.
          1   -1    0    0  502    0  0.00000000000E+00 -0.00000000000E+00 -0.39642481623E+03  0.39642481623E+03  0.00000000000E+00 0. -1.
         23    2    1    2    0    0  0.45377410998E+02  0.88765217966E+01 -0.54875884134E+02  0.11566497891E+03  0.90714511615E+02 0.  0.
         23    2    1    2    0    0 -0.34720948103E+02 -0.29828059402E+02 -0.24606377890E+03  0.26612511204E+03  0.90442990909E+02 0.  0.
        -11    1    3    3    0    0 -0.26938385152E+02  0.47895275165E+01 -0.25829102136E+02  0.37626568879E+02  0.00000000000E+00 0. -1.
         11    1    3    3    0    0  0.72315796150E+02  0.40869942801E+01 -0.29046781998E+02  0.78038410027E+02  0.00000000000E+00 0.  1.
        -11    1    4    4    0    0 -0.62782060855E+02 -0.35578848153E+02 -0.18817099967E+03  0.20153353746E+03  0.00000000000E+00 0. -1.
         11    1    4    4    0    0  0.28061112753E+02  0.57507887509E+01 -0.57892779226E+02  0.64591574580E+02  0.00000000000E+00 0.  1.
         21    1    1    2  502  501 -0.10656462896E+02  0.20951537606E+02 -0.52551186344E+02  0.57568692149E+02  0.00000000000E+00 0. -1.
<scales pt_clust_5="13000.00000" pt_clust_6="13000.00000" pt_clust_7="13000.00000" pt_clust_8="13000.00000" pt_clust_9="23.50590"></scales>
<clustering>
<clus scale="   23.506">  2  9  1 -1</clus>
<clus scale="   90.443">  7  8 -1 -1</clus>
<clus scale="   90.715">  5  6 -1 -1</clus>
<clus scale="  101.013">  2  7  1 -1</clus>
<clus scale="   23.506">  2  5  1 -1</clus>
</clustering>
</event>
<event>
 9    1  0.1296032E-005  0.1315687E+03  0.7546771E-02  0.1225329E+00
         -4   -1    0    0    0  501 -0.00000000000E+00  0.00000000000E+00  0.10730160653E+03  0.10730160653E+03  0.00000000000E+00 0.  1.
          4   -1    0    0  502    0  0.00000000000E+00 -0.00000000000E+00 -0.25329561374E+03  0.25329561374E+03  0.00000000000E+00 0. -1.
         23    2    1    2    0    0 -0.74251868006E+02 -0.58357650121E+02  0.20545936739E+02  0.13421441990E+03  0.93125827586E+02 0.  0.
         23    2    1    2    0    0  0.55407970513E+02  0.71932570087E+02 -0.13386346217E+03  0.18629385693E+03  0.92420975905E+02 0.  0.
        -11    1    4    4    0    0  0.26874005665E+02 -0.19617272529E+02 -0.41041431052E+02  0.52834161532E+02  0.00000000000E+00 0.  1.
         11    1    4    4    0    0  0.28533964848E+02  0.91549842616E+02 -0.92822031122E+02  0.13345969539E+03  0.00000000000E+00 0. -1.
        -13    1    3    3    0    0 -0.83601858288E+01  0.24842737580E+02  0.76278487470E+01  0.27299054820E+02  0.00000000000E+00 0. -1.
         13    1    3    3    0    0 -0.65891682177E+02 -0.83200387701E+02  0.12918087992E+02  0.10691536508E+03  0.00000000000E+00 0.  1.
         21    1    1    2  502  501  0.18843897493E+02 -0.13574919966E+02 -0.32676481773E+02  0.40088943437E+02  0.00000000000E+00 0.  1.
<scales pt_clust_5="13000.00000" pt_clust_6="13000.00000" pt_clust_7="13000.00000" pt_clust_8="13000.00000" pt_clust_9="23.22436"></scales>
<clustering>
<clus scale="   23.224">  2  9  1 -1</clus>
<clus scale="   92.421">  5  6 -1 -1</clus>
<clus scale="   93.126">  7  8 -1 -1</clus>
<clus scale="  131.071">  2  5  1 -1</clus>
<clus scale="   23.224">  2  5  1 -1</clus>
</clustering>
</event>
<event>
 9    1  0.1296032E-005  0.1247847E+03  0.7546771E-02  0.1236113E+00
          2   -1    0    0  502    0  0.00000000000E+00  0.00000000000E+00  0.44644004561E+03  0.44644004561E+03  0.00000000000E+00 0. -1.
         -2   -1    0    0    0  501 -0.00000000000E+00 -0.00000000000E+00 -0.42664738592E+02  0.42664738592E+02  0.00000000000E+00 0.  1.
         23    2    1    2    0    0 -0.34677016438E+01 -0.93078662695E+02  0.13814592046E+03  0.18910341669E+03  0.89443526659E+02 0.  0.
         23    2    1    2    0    0 -0.32605974864E+01  0.72378649177E+02  0.21255530988E+03  0.24263745739E+03  0.91890563269E+02 0.  0.
        -11    1    4    4    0    0 -0.39262347899E+02  0.70736809491E+02  0.15103700074E+03  0.17134002385E+03  0.00000000000E+00 0.  1.
         11    1    4    4    0    0  0.36001750413E+02  0.16418396859E+01  0.61518309139E+02  0.71297433542E+02  0.00000000000E+00 0. -1.
        -13    1    3    3    0    0 -0.45109476048E+02 -0.60646900044E+02  0.71050284514E+02  0.10373550137E+03  0.00000000000E+00 0.  1.
         13    1    3    3    0    0  0.41641774404E+02 -0.32431762651E+02  0.67095635943E+02  0.85367915324E+02  0.00000000000E+00 0. -1.
         21    1    1    2  502  501  0.67282991302E+01  0.20700013518E+02  0.53074076677E+02  0.57363910117E+02  0.00000000000E+00 0. -1.
<scales pt_clust_5="13000.00000" pt_clust_6="13000.00000" pt_clust_7="13000.00000" pt_clust_8="13000.00000" pt_clust_9="21.76604"></scales>
<clustering>
<clus scale="   21.766">  1  9  2 -1</clus>
<clus scale="   89.444">  7  8 -1 -1</clus>
<clus scale="   91.891">  5  6 -1 -1</clus>
<clus scale="  122.994">  2  7  1 -1</clus>
<clus scale="   21.766">  1  5  2 -1</clus>
</clustering>
</event>
<event>
 9    1  0.1296032E-005  0.1900769E+03  0.7546771E-02  0.1158674E+00
          1   -1    0    0  502    0  0.00000000000E+00  0.00000000000E+00  0.59033730946E+03  0.59033730946E+03  0.00000000000E+00 0. -1.
         -1   -1    0    0    0  501 -0.00000000000E+00 -0.00000000000E+00 -0.12733684043E+03  0.12733684043E+03  0.00000000000E+00 0.  1.
         23    2    1    2    0    0 -0.64909249772E+02 -0.15082501184E+03 -0.16426791951E+02  0.18848732602E+03  0.91083685001E+02 0.  0.
         23    2    1    2    0    0  0.84573078785E+02  0.15967751334E+03  0.41389961704E+03  0.46020200614E+03  0.88450435584E+02 0.  0.
        -11    1    3    3    0    0 -0.56962375362E+02 -0.11841024184E+03  0.26569168409E+02  0.13405826454E+03  0.00000000000E+00 0.  1.
         11    1    3    3    0    0 -0.79468744105E+01 -0.32414770000E+02 -0.42995960359E+02  0.54429061487E+02  0.00000000000E+00 0. -1.
        -11    1    4    4    0    0 -0.18019801963E+02  0.22503104571E+02  0.77779303306E+02  0.82950123574E+02  0.00000000000E+00 0.  1.
         11    1    4    4    0    0  0.10259288075E+03  0.13717440877E+03  0.33612031373E+03  0.37725188257E+03  0.00000000000E+00 0. -1.
         21    1    1    2  502  501 -0.19663829012E+02 -0.88525014952E+01  0.65527643949E+02  0.68984817718E+02  0.00000000000E+00 0.  1.
<scales pt_clust_5="13000.00000" pt_clust_6="13000.00000" pt_clust_7="13000.00000" pt_clust_8="13000.00000" pt_clust_9="21.56462"></scales>
<clustering>
<clus scale="   21.565">  1  9  2 -1</clus>
<clus scale="   88.450">  7  8 -1 -1</clus>
<clus scale="   91.084">  5  6 -1 -1</clus>
<clus scale="  188.829">  1  7  2 -1</clus>
<clus scale="   21.565">  1  5  2 -1</clus>
</clustering>
</event>
<event>
 9    1  0.1296032E-005  0.1073356E+03  0.7546771E-02  0.1266972E+00
         -2   -1    0    0    0  501 -0.00000000000E+00  0.00000000000E+00  0.38189710157E+03  0.38189710157E+03  0.00000000000E+00 0.  1.
          2   -1    0    0  502    0  0.00000000000E+00 -0.00000000000E+00 -0.44255963361E+02  0.44255963361E+02  0.00000000000E+00 0. -1.
         23    2    1    2    0    0  0.34833444587E+01  0.31982586774E+02  0.20056179716E+03  0.22593333301E+03  0.98923288161E+02 0.  0.
         23    2    1    2    0    0 -0.24565755785E+02 -0.56244494697E+02  0.10771068542E+03  0.15668094259E+03  0.95814437712E+02 0.  0.
        -13    1    3    3    0    0 -0.24697022114E+02  0.58752057884E+02  0.14200502291E+03  0.15565080706E+03  0.00000000000E+00 0. -1.
         13    1    3    3    0    0  0.28180366572E+02 -0.26769471109E+02  0.58556774250E+02  0.70282525952E+02  0.00000000000E+00 0.  1.
        -13    1    4    4    0    0 -0.55922636453E+02 -0.58901650896E+02  0.86934121908E+02  0.11897179203E+03  0.00000000000E+00 0.  1.
         13    1    4    4    0    0  0.31356880668E+02  0.26571561992E+01  0.20776563515E+02  0.37709150558E+02  0.00000000000E+00 0. -1.
         21    1    1    2  502  501  0.21082411326E+02  0.24261907923E+02  0.29368655628E+02  0.43538789335E+02  0.00000000000E+00 0. -1.
<scales pt_clust_5="13000.00000" pt_clust_6="13000.00000" pt_clust_7="13000.00000" pt_clust_8="13000.00000" pt_clust_9="32.14200"></scales>
<clustering>
<clus scale="   32.142">  2  9  1 -1</clus>
<clus scale="   95.814">  7  8 -1 -1</clus>
<clus scale="   98.923">  5  6 -1 -1</clus>
<clus scale="  104.477">  2  7  1 -1</clus>
<clus scale="   32.142">  2  5  1 -1</clus>
</clustering>
</event>
<event>
 9    1  0.3234883E-005  0.9235649E+02  0.7546771E-02  0.1297347E+00
          4   -1    0    0  502    0  0.00000000000E+00  0.00000000000E+00  0.31827078724E+03  0.31827078724E+03  0.00000000000E+00 0. -1.
         -4   -1    0    0    0  501 -0.00000000000E+00 -0.00000000000E+00 -0.26129354697E+03  0.26129354697E+03  0.00000000000E+00 0.  1.
         23    2    1    2    0    0 -0.52414972089E+01  0.83580478184E+01 -0.23362875797E+03  0.25120117849E+03  0.91773118431E+02 0.  0.
         23    2    1    2    0    0  0.49797298344E+02  0.87255672746E+01  0.21193150430E+03  0.23634823673E+03  0.91594869105E+02 0.  0.
        -11    1    4    4    0    0 -0.14674625346E+02  0.25548306839E+02  0.11507098431E+03  0.11878296191E+03  0.00000000000E+00 0.  1.
         11    1    4    4    0    0  0.64471923690E+02 -0.16822739564E+02  0.96860519988E+02  0.11756527482E+03  0.00000000000E+00 0. -1.
        -13    1    3    3    0    0 -0.31934823690E+02 -0.21943275195E+02 -0.50386537340E+02  0.63562122648E+02  0.00000000000E+00 0. -1.
         13    1    3    3    0    0  0.26693326481E+02  0.30301323013E+02 -0.18324222063E+03  0.18763905584E+03  0.00000000000E+00 0.  1.
         21    1    1    2  502  501 -0.44555801135E+02 -0.17083615093E+02  0.78674493943E+02  0.92014918990E+02  0.00000000000E+00 0. -1.
<scales pt_clust_5="13000.00000" pt_clust_6="13000.00000" pt_clust_7="13000.00000" pt_clust_8="13000.00000" pt_clust_9="47.71865"></scales>
<clustering>
<clus scale="   47.719">  1  9  2 -1</clus>
<clus scale="   91.595">  5  6 -1 -1</clus>
<clus scale="   91.773">  7  8 -1 -1</clus>
<clus scale="   92.179">  1  5  2 -1</clus>
<clus scale="   47.719">  1  5  2 -1</clus>
</clustering>
</event>
<event>
 9    1  0.1296032E-005  0.9284087E+02  0.7546771E-02  0.1296180E+00
          1   -1    0    0  502    0  0.00000000000E+00  0.00000000000E+00  0.20476030618E+03  0.20476030618E+03  0.00000000000E+00 0. -1.
         -1   -1    0    0    0  501 -0.00000000000E+00 -0.00000000000E+00 -0.99639775658E+02  0.99639775658E+02  0.00000000000E+00 0.  1.
         23    2    1    2    0    0  0.13097916150E+02 -0.14037068635E+01 -0.50936165319E+02  0.10527503932E+03  0.91185608329E+02 0.  0.
         23    2    1    2    0    0 -0.32204753081E+02  0.76114176883E+01  0.99191709176E+02  0.13881556068E+03  0.91299972164E+02 0.  0.
        -13    1    3    3    0    0  0.31727383207E+02  0.35467087781E+02 -0.40936299178E+02  0.62771982215E+02  0.00000000000E+00 0.  1.
         13    1    3    3    0    0 -0.18629467058E+02 -0.36870794645E+02 -0.99998661412E+01  0.42503057107E+02  0.00000000000E+00 0. -1.
        -13    1    4    4    0    0  0.23834586160E+01 -0.25981314008E+02  0.84461407799E+02  0.88399315382E+02  0.00000000000E+00 0. -1.
         13    1    4    4    0    0 -0.34588211697E+02  0.33592731696E+02  0.14730301377E+02  0.50416245297E+02  0.00000000000E+00 0.  1.
         21    1    1    2  502  501  0.19106836932E+02 -0.62077108248E+01  0.56864986662E+02  0.60309481836E+02  0.00000000000E+00 0. -1.
<scales pt_clust_5="13000.00000" pt_clust_6="13000.00000" pt_clust_7="13000.00000" pt_clust_8="13000.00000" pt_clust_9="20.08997"></scales>
<clustering>
<clus scale="   20.090">  1  9  2 -1</clus>
<clus scale="   91.186">  5  6 -1 -1</clus>
<clus scale="   91.300">  7  8 -1 -1</clus>
<clus scale="   92.728">  2  5  1 -1</clus>
<clus scale="   20.090">  1  5  2 -1</clus>
</clustering>
</event>
<event>
 9    1  0.1296032E-005  0.1192887E+03  0.7546771E-02  0.1247210E+00
         -1   -1    0    0    0  501 -0.00000000000E+00  0.00000000000E+00  0.54272840450E+02  0.54272840450E+02  0.00000000000E+00 0.  1.
          1   -1    0    0  502    0  0.00000000000E+00 -0.00000000000E+00 -0.35268967970E+03  0.35268967970E+03  0.00000000000E+00 0. -1.
         23    2    1    2    0    0  0.67963524637E+02  0.19935527371E+02 -0.61625620848E+02  0.13605373107E+03  0.98470476086E+02 0.  0.
         23    2    1    2    0    0 -0.62095077736E+02  0.11382295493E+01 -0.18970999336E+03  0.21899363087E+03  0.90062392475E+02 0.  0.
        -11    1    4    4    0    0 -0.68856852356E+02  0.32010147853E+02 -0.11424389470E+03  0.13717719620E+03  0.00000000000E+00 0. -1.
         11    1    4    4    0    0  0.67617746200E+01 -0.30871918304E+02 -0.75466098655E+02  0.81816434669E+02  0.00000000000E+00 0.  1.
        -13    1    3    3    0    0 -0.13042446974E+02  0.33507907496E+02 -0.33756636641E+02  0.49319324865E+02  0.00000000000E+00 0. -1.
         13    1    3    3    0    0  0.81005971612E+02 -0.13572380126E+02 -0.27868984207E+02  0.86734406205E+02  0.00000000000E+00 0.  1.
         21    1    1    2  502  501 -0.58684469011E+01 -0.21073756920E+02 -0.47081225044E+02  0.51915158205E+02  0.00000000000E+00 0.  1.
<scales pt_clust_5="13000.00000" pt_clust_6="13000.00000" pt_clust_7="13000.00000" pt_clust_8="13000.00000" pt_clust_9="21.87560"></scales>
<clustering>
<clus scale="   21.876">  2  9  1 -1</clus>
<clus scale="   90.062">  5  6 -1 -1</clus>
<clus scale="   98.470">  7  8 -1 -1</clus>
<clus scale="  112.448">  2  5  1 -1</clus>
<clus scale="   21.876">  2  5  1 -1</clus>
</clustering>
</event>
<event>
 9    1  0.1296032E-005  0.9428436E+02  0.7546771E-02  0.1295014E+00
         -1   -1    0    0    0  501 -0.00000000000E+00  0.00000000000E+00  0.16833596497E+03  0.16833596497E+03  0.00000000000E+00 0.  1.
          1   -1    0    0  502    0  0.00000000000E+00 -0.00000000000E+00 -0.39005436268E+03  0.39005436268E+03  0.00000000000E+00 0. -1.
         23    2    1    2    0    0 -0.20202948027E+01  0.26214181279E+02  0.14327231407E+03  0.16950794085E+03  0.86687491265E+02 0.  0.
         23    2    1    2    0    0 -0.26775733850E+02 -0.17313545117E+02 -0.32433029687E+03  0.33826912834E+03  0.90659599353E+02 0.  0.
        -11    1    3    3    0    0  0.16554850345E+02 -0.28062667946E+02  0.61829623086E+02  0.69889045588E+02  0.00000000000E+00 0. -1.
         11    1    3    3    0    0 -0.18575145148E+02  0.54276849225E+02  0.81442690984E+02  0.99618895265E+02  0.00000000000E+00 0.  1.
        -13    1    4    4    0    0 -0.37975265973E+02 -0.43944811046E+02 -0.27530328505E+03  0.28136305017E+03  0.00000000000E+00 0. -1.
         13    1    4    4    0    0  0.11199532123E+02  0.26631265929E+02 -0.49027011821E+02  0.56906078171E+02  0.00000000000E+00 0.  1.
         21    1    1    2  502  501  0.28796028652E+02 -0.89006361619E+01 -0.40660414909E+02  0.50613258449E+02  0.00000000000E+00 0.  1.
<scales pt_clust_5="13000.00000" pt_clust_6="13000.00000" pt_clust_7="13000.00000" pt_clust_8="13000.00000" pt_clust_9="30.14022"></scales>
<clustering>
<clus scale="   30.140">  2  9  1 -1</clus>
<clus scale="   86.687">  5  6 -1 -1</clus>
<clus scale="   90.472">  1  5  2 -1</clus>
<clus scale="   90.660">  7  8 -1 -1</clus>
<clus scale="   30.140">  2  5  1 -1</clus>
</clustering>
</event>
<event>
 9    1  0.1296032E-005  0.1088000E+03  0.7546771E-02  0.1262916E+00
          2   -1    0    0  502    0  0.00000000000E+00  0.00000000000E+00  0.26048910557E+03  0.26048910557E+03  0.00000000000E+00 0. -1.
         -2   -1    0    0    0  501 -0.00000000000E+00 -0.00000000000E+00 -0.65501431512E+02  0.65501431512E+02  0.00000000000E+00 0.  1.
         23    2    1    2    0    0 -0.49876459489E+02  0.30383916681E+02  0.32763014687E+02  0.11322277593E+03  0.91296978337E+02 0.  0.
         23    2    1    2    0    0  0.34085925230E+02 -0.50932283356E+02  0.14418372395E+03  0.18119163574E+03  0.91024803346E+02 0.  0.
        -11    1    4    4    0    0  0.26257720902E+02 -0.22868267751E+01  0.12591264925E+03  0.12864172233E+03  0.00000000000E+00 0. -1.
         11    1    4    4    0    0  0.78282043272E+01 -0.48645456580E+02  0.18271074706E+02  0.52549913414E+02  0.00000000000E+00 0.  1.
        -11    1    3    3    0    0 -0.36482659252E+02 -0.28989186212E+02  0.69625785625E+01  0.47115123300E+02  0.00000000000E+00 0.  1.
         11    1    3    3    0    0 -0.13393800237E+02  0.59373102892E+02  0.25800436125E+02  0.66107652629E+02  0.00000000000E+00 0. -1.
         21    1    1    2  502  501  0.15790534260E+02  0.20548366675E+02  0.18040935420E+02  0.31576125412E+02  0.00000000000E+00 0. -1.
<scales pt_clust_5="13000.00000" pt_clust_6="13000.00000" pt_clust_7="13000.00000" pt_clust_8="13000.00000" pt_clust_9="25.91479"></scales>
<clustering>
<clus scale="   25.915">  2  9  1 -1</clus>
<clus scale="   91.025">  5  6 -1 -1</clus>
<clus scale="   91.297">  7  8 -1 -1</clus>
<clus scale="  108.572">  1  5  2 -1</clus>
<clus scale="  108.572">  1  5  2 -1</clus>
</clustering>
</event>
<event>
 9    1  0.1296032E-005  0.2311830E+03  0.7546771E-02  0.1125832E+00
         -1   -1    0    0    0  501 -0.00000000000E+00  0.00000000000E+00  0.63279906826E+02  0.63279906826E+02  0.00000000000E+00 0.  1.
          1   -1    0    0  502    0  0.00000000000E+00 -0.00000000000E+00 -0.10962329182E+04  0.10962329182E+04  0.00000000000E+00 0. -1.
         23    2    1    2    0    0  0.19647191889E+03 -0.80288324814E+02 -0.30166846773E+03  0.37992444603E+03  0.91056522287E+02 0.  0.
         23    2    1    2    0    0 -0.20796605628E+03  0.47618834466E+02 -0.67172728445E+03  0.71069369186E+03  0.91381316536E+02 0.  0.
        -11    1    3    3    0    0  0.44484206154E+02 -0.62331144412E+02 -0.81971190028E+02  0.11217527426E+03  0.00000000000E+00 0.  1.
         11    1    3    3    0    0  0.15198771274E+03 -0.17957180402E+02 -0.21969727770E+03  0.26774917177E+03  0.00000000000E+00 0. -1.
        -11    1    4    4    0    0 -0.94939283742E+02  0.60995739624E+02 -0.41093647350E+03  0.42614872181E+03  0.00000000000E+00 0. -1.
         11    1    4    4    0    0 -0.11302677254E+03 -0.13376905158E+02 -0.26079081095E+03  0.28454497004E+03  0.00000000000E+00 0.  1.
         21    1    1    2  502  501  0.11494137392E+02  0.32669490349E+02 -0.59557259221E+02  0.68894687168E+02  0.00000000000E+00 0.  1.
<scales pt_clust_5="13000.00000" pt_clust_6="13000.00000" pt_clust_7="13000.00000" pt_clust_8="13000.00000" pt_clust_9="34.63251"></scales>
<clustering>
<clus scale="   34.633">  1  9  2 -1</clus>
<clus scale="   91.057">  5  6 -1 -1</clus>
<clus scale="   91.381">  7  8 -1 -1</clus>
<clus scale="  231.055">  1  5  2 -1</clus>
<clus scale="  231.183">  2  5  1 -1</clus>
</clustering>
</event>
<event>
 9    1  0.1296032E-005  0.9796571E+02  0.7546771E-02  0.1287658E+00
         -1   -1    0    0    0  501 -0.00000000000E+00  0.00000000000E+00  0.18029813114E+03  0.18029813114E+03  0.00000000000E+00 0.  1.
          1   -1    0    0  502    0  0.00000000000E+00 -0.00000000000E+00 -0.10759787256E+03  0.10759787256E+03  0.00000000000E+00 0. -1.
         23    2    1    2    0    0 -0.19333003879E+02  0.11678982727E+02  0.11625267986E+03  0.14918429182E+03  0.90725430137E+02 0.  0.
         23    2    1    2    0    0 -0.11360023052E+01 -0.94183013740E+01 -0.72742644699E+01  0.96996060658E+02  0.96256563193E+02 0.  0.
        -11    1    4    4    0    0  0.43415316933E+02  0.13907166304E+02 -0.98562981673E+01  0.46641672704E+02  0.00000000000E+00 0.  1.
         11    1    4    4    0    0 -0.44551319238E+02 -0.23325467678E+02  0.25820336974E+01  0.50354387955E+02  0.00000000000E+00 0. -1.
        -11    1    3    3    0    0  0.29924848728E+02  0.28617299001E+02  0.51390196934E+02  0.65995444649E+02  0.00000000000E+00 0.  1.
         11    1    3    3    0    0 -0.49257852608E+02 -0.16938316274E+02  0.64862482930E+02  0.83188847170E+02  0.00000000000E+00 0. -1.
         21    1    1    2  502  501  0.20469006184E+02 -0.22606813529E+01 -0.36278156817E+02  0.41715651216E+02  0.00000000000E+00 0. -1.
<scales pt_clust_5="13000.00000" pt_clust_6="13000.00000" pt_clust_7="13000.00000" pt_clust_8="13000.00000" pt_clust_9="20.59347"></scales>
<clustering>
<clus scale="   20.593">  2  9  1 -1</clus>
<clus scale="   90.725">  7  8 -1 -1</clus>
<clus scale="   92.537">  1  7  2 -1</clus>
<clus scale="   96.257">  5  6 -1 -1</clus>
<clus scale="   20.593">  2  5  1 -1</clus>
</clustering>
</event>
<event>
 9    1  0.1296032E-005  0.1024104E+03  0.7546771E-02  0.1276142E+00
          1   -1    0    0  502    0  0.00000000000E+00  0.00000000000E+00  0.31112176563E+03  0.31112176563E+03  0.00000000000E+00 0. -1.
         -1   -1    0    0    0  501 -0.00000000000E+00 -0.00000000000E+00 -0.72135359077E+02  0.72135359077E+02  0.00000000000E+00 0.  1.
         23    2    1    2    0    0 -0.39464132215E+02  0.33618205651E+02 -0.22915370753E+01  0.10466068767E+03  0.90890081517E+02 0.  0.
         23    2    1    2    0    0  0.23944664596E+02 -0.26571171911E+01  0.12621834345E+03  0.15843756527E+03  0.92687564585E+02 0.  0.
        -11    1    3    3    0    0 -0.14956232915E+02 -0.25755115616E+02 -0.22497428660E+02  0.37324913660E+02  0.00000000000E+00 0. -1.
         11    1    3    3    0    0 -0.24507899300E+02  0.59373321267E+02  0.20205891585E+02  0.67335774007E+02  0.00000000000E+00 0.  1.
        -11    1    4    4    0    0  0.65955972617E+01 -0.41229293229E+02  0.24823570968E+02  0.48575366175E+02  0.00000000000E+00 0.  1.
         11    1    4    4    0    0  0.17349067335E+02  0.38572176038E+02  0.10139477249E+03  0.10986219909E+03  0.00000000000E+00 0. -1.
         21    1    1    2  502  501  0.15519467619E+02 -0.30961088460E+02  0.11505960017E+03  0.12015887177E+03  0.00000000000E+00 0. -1.
<scales pt_clust_5="13000.00000" pt_clust_6="13000.00000" pt_clust_7="13000.00000" pt_clust_8="13000.00000" pt_clust_9="34.63297"></scales>
<clustering>
<clus scale="   34.633">  1  9  2 -1</clus>
<clus scale="   90.890">  5  6 -1 -1</clus>
<clus scale="   92.688">  7  8 -1 -1</clus>
<clus scale="  100.786">  2  5  1 -1</clus>
<clus scale="   34.633">  1  5  2 -1</clus>
</clustering>
</event>
<event>
 9    1  0.1296032E-005  0.1762997E+03  0.7546771E-02  0.1171624E+00
          2   -1    0    0  502    0  0.00000000000E+00  0.00000000000E+00  0.43896819446E+03  0.43896819446E+03  0.00000000000E+00 0. -1.
         -2   -1    0    0    0  501 -0.00000000000E+00 -0.00000000000E+00 -0.90137949478E+03  0.90137949478E+03  0.00000000000E+00 0.  1.
         23    2    1    2    0    0 -0.28766000384E+02 -0.14615443857E+03 -0.86020643650E+03  0.87782768549E+03  0.91857113664E+02 0.  0.
         23    2    1    2    0    0  0.17147601902E+02  0.17157855106E+03  0.28240434384E+03  0.34379171043E+03  0.93312846396E+02 0.  0.
        -11    1    4    4    0    0  0.30773815033E+02  0.80637862829E+01  0.51280862441E+02  0.60347155638E+02  0.00000000000E+00 0.  1.
         11    1    4    4    0    0 -0.13626213131E+02  0.16351476478E+03  0.23112348140E+03  0.28344455479E+03  0.00000000000E+00 0. -1.
        -13    1    3    3    0    0  0.10734758122E+02 -0.13151704287E+03 -0.68836152232E+03  0.70089482307E+03  0.00000000000E+00 0.  1.
         13    1    3    3    0    0 -0.39500758505E+02 -0.14637395701E+02 -0.17184491418E+03  0.17693286242E+03  0.00000000000E+00 0. -1.
         21    1    1    2  502  501  0.11618398482E+02 -0.25424112491E+02  0.11539079233E+03  0.11872829331E+03  0.00000000000E+00 0. -1.
<scales pt_clust_5="13000.00000" pt_clust_6="13000.00000" pt_clust_7="13000.00000" pt_clust_8="13000.00000" pt_clust_9="27.95304"></scales>
<clustering>
<clus scale="   27.953">  1  9  2 -1</clus>
<clus scale="   91.857">  7  8 -1 -1</clus>
<clus scale="   93.313">  5  6 -1 -1</clus>
<clus scale="  175.534">  2  7  1 -1</clus>
<clus scale="   27.953">  1  5  2 -1</clus>
</clustering>
</event>
<event>
 9    1  0.1296032E-005  0.1003959E+03  0.7546771E-02  0.1280019E+00
         -1   -1    0    0    0  501 -0.00000000000E+00  0.00000000000E+00  0.33640757638E+02  0.33640757638E+02  0.00000000000E+00 0.  1.
          1   -1    0    0  502    0  0.00000000000E+00 -0.00000000000E+00 -0.37017228420E+03  0.37017228420E+03  0.00000000000E+00 0. -1.
         23    2    1    2    0    0 -0.39841925084E+02  0.11960220941E+02 -0.14901513661E+03  0.18016048832E+03  0.92313946568E+02 0.  0.
         23    2    1    2    0    0  0.39067608371E+02  0.10032452563E+02 -0.14854810619E+03  0.17889985089E+03  0.91168463111E+02 0.  0.
        -11    1    4    4    0    0  0.58320786395E+02  0.57096529089E+00 -0.14609622224E+03  0.15730780744E+03  0.00000000000E+00 0. -1.
         11    1    4    4    0    0 -0.19253178025E+02  0.94614872722E+01 -0.24518839493E+01  0.21592043450E+02  0.00000000000E+00 0.  1.
        -13    1    3    3    0    0 -0.30954938966E+02  0.41370406097E+02 -0.13827575065E+03  0.14761403038E+03  0.00000000000E+00 0.  1.
         13    1    3    3    0    0 -0.88869861171E+01 -0.29410185156E+02 -0.10739385959E+02  0.32546457932E+02  0.00000000000E+00 0. -1.
         21    1    1    2  502  501  0.77431671277E+00 -0.21992673504E+02 -0.38968283761E+02  0.44752702639E+02  0.00000000000E+00 0. -1.
<scales pt_clust_5="13000.00000" pt_clust_6="13000.00000" pt_clust_7="13000.00000" pt_clust_8="13000.00000" pt_clust_9="22.00630"></scales>
<clustering>
<clus scale="   22.006">  2  9  1 -1</clus>
<clus scale="   91.168">  5  6 -1 -1</clus>
<clus scale="   92.314">  7  8 -1 -1</clus>
<clus scale="   99.344">  2  5  1 -1</clus>
<clus scale="   22.006">  2  5  1 -1</clus>
</clustering>
</event>
<event>
 9    1  0.1296032E-005  0.9457431E+02  0.7546771E-02  0.1293300E+00
         -1   -1    0    0    0  501 -0.00000000000E+00  0.00000000000E+00  0.79710450511E+02  0.79710450511E+02  0.00000000000E+00 0.  1.
          1   -1    0    0  502    0  0.00000000000E+00 -0.00000000000E+00 -0.50305075149E+03  0.50305075149E+03  0.00000000000E+00 0. -1.
         23    2    1    2    0    0  0.23909708638E+02 -0.71308514652E+01  0.30238398853E+02  0.10015398032E+03  0.92162550958E+02 0.  0.
         23    2    1    2    0    0  0.24745359295E+02  0.41444837043E+02 -0.23926875193E+03  0.26018078662E+03  0.90080512624E+02 0.  0.
        -11    1    4    4    0    0  0.15395349951E+02 -0.16330111169E+02 -0.11905055583E+02  0.25405111283E+02  0.00000000000E+00 0.  1.
         11    1    4    4    0    0  0.93500093441E+01  0.57774948212E+02 -0.22736369634E+03  0.23477567534E+03  0.00000000000E+00 0. -1.
        -13    1    3    3    0    0  0.51693224724E+02  0.42308553373E+01 -0.69864612833E+01  0.52334503538E+02  0.00000000000E+00 0. -1.
         13    1    3    3    0    0 -0.27783516087E+02 -0.11361706802E+02  0.37224860136E+02  0.47819476782E+02  0.00000000000E+00 0.  1.
         21    1    1    2  502  501 -0.48655067933E+02 -0.34313985578E+02 -0.21430994791E+03  0.22242643506E+03  0.00000000000E+00 0. -1.
<scales pt_clust_5="13000.00000" pt_clust_6="13000.00000" pt_clust_7="13000.00000" pt_clust_8="13000.00000" pt_clust_9="59.53793"></scales>
<clustering>
<clus scale="   59.538">  2  9  1 -1</clus>
<clus scale="   90.081">  5  6 -1 -1</clus>
<clus scale="   92.163">  7  8 -1 -1</clus>
<clus scale="   92.547">  2  5  1 -1</clus>
<clus scale="   59.538">  2  5  1 -1</clus>
</clustering>
</event>
<event>
 9    1  0.1296032E-005  0.1210178E+03  0.7546771E-02  0.1244316E+00
          3   -1    0    0  502    0  0.00000000000E+00  0.00000000000E+00  0.77022631159E+02  0.77022631159E+02  0.00000000000E+00 0. -1.
         -3   -1    0    0    0  501 -0.00000000000E+00 -0.00000000000E+00 -0.49502394646E+03  0.49502394646E+03  0.00000000000E+00 0.  1.
         23    2    1    2    0    0 -0.65293977125E+02  0.13694944243E+02 -0.38855536201E+03  0.40533123270E+03  0.94166256713E+02 0.  0.
         23    2    1    2    0    0  0.40226694545E+02 -0.41641197851E+02  0.21683810443E+01  0.11763553357E+03  0.10237793009E+03 0.  0.
        -11    1    4    4    0    0 -0.13580445624E+02 -0.41382584319E+02 -0.31866871814E+02  0.53967066879E+02  0.00000000000E+00 0.  1.
         11    1    4    4    0    0  0.53807140169E+02 -0.25861353203E+00  0.34035252859E+02  0.63668466695E+02  0.00000000000E+00 0. -1.
        -13    1    3    3    0    0 -0.81732517297E+02 -0.14007527496E+02 -0.26706283669E+03  0.27964079450E+03  0.00000000000E+00 0.  1.
         13    1    3    3    0    0  0.16438540171E+02  0.27702471740E+02 -0.12149252532E+03  0.12569043819E+03  0.00000000000E+00 0. -1.
         21    1    1    2  502  501  0.25067282580E+02  0.27946253608E+02 -0.31614334328E+02  0.49079811345E+02  0.00000000000E+00 0. -1.
<scales pt_clust_5="13000.00000" pt_clust_6="13000.00000" pt_clust_7="13000.00000" pt_clust_8="13000.00000" pt_clust_9="37.54147"></scales>
<clustering>
<clus scale="   37.541">  1  9  2 -1</clus>
<clus scale="   94.166">  7  8 -1 -1</clus>
<clus scale="  102.378">  5  6 -1 -1</clus>
<clus scale="  114.155">  2  7  1 -1</clus>
<clus scale="   37.541">  1  5  2 -1</clus>
</clustering>
</event>
<event>
 9    1  0.1296032E-005  0.2176615E+03  0.7546771E-02  0.1136601E+00
         -1   -1    0    0    0  501 -0.00000000000E+00  0.00000000000E+00  0.15981158688E+03  0.15981158688E+03  0.00000000000E+00 0.  1.
          1   -1    0    0  502    0  0.00000000000E+00 -0.00000000000E+00 -0.34371225034E+03  0.34371225034E+03  0.00000000000E+00 0. -1.
         23    2    1    2    0    0 -0.12164111470E+03  0.16321556913E+03 -0.20741463499E+02  0.22621906705E+03  0.96483030607E+02 0.  0.
         23    2    1    2    0    0  0.11324635362E+03 -0.14264717868E+03 -0.13746984015E+03  0.24334193892E+03  0.84524482207E+02 0.  0.
        -11    1    4    4    0    0  0.33621763799E+02 -0.81956151313E+02 -0.23511731128E+02  0.91651706147E+02  0.00000000000E+00 0.  1.
         11    1    4    4    0    0  0.79624589817E+02 -0.60691027369E+02 -0.11395810902E+03  0.15169023277E+03  0.00000000000E+00 0. -1.
        -11    1    3    3    0    0 -0.82517980787E+02  0.51194007917E+02  0.22933229829E+02  0.99779640359E+02  0.00000000000E+00 0.  1.
         11    1    3    3    0    0 -0.39123133915E+02  0.11202156121E+03 -0.43674693328E+02  0.12643942669E+03  0.00000000000E+00 0. -1.
         21    1    1    2  502  501  0.83947610851E+01 -0.20568390446E+02 -0.25689359813E+02  0.33962831255E+02  0.00000000000E+00 0.  1.
<scales pt_clust_5="13000.00000" pt_clust_6="13000.00000" pt_clust_7="13000.00000" pt_clust_8="13000.00000" pt_clust_9="22.21555"></scales>
<clustering>
<clus scale="   22.216">  2  9  1 -1</clus>
<clus scale="   84.524">  5  6 -1 -1</clus>
<clus scale="   96.483">  7  8 -1 -1</clus>
<clus scale="  212.631">  2  5  1 -1</clus>
<clus scale="   22.216">  2  5  1 -1</clus>
</clustering>
</event>
<event>
 9    1  0.1296032E-005  0.1715926E+03  0.7546771E-02  0.1176793E+00
         -1   -1    0    0    0  501 -0.00000000000E+00  0.00000000000E+00  0.39601674145E+03  0.39601674145E+03  0.00000000000E+00 0.  1.
          1   -1    0    0  502    0  0.00000000000E+00 -0.00000000000E+00 -0.12478098580E+03  0.12478098580E+03  0.00000000000E+00 0. -1.
         23    2    1    2    0    0 -0.15247091716E+03  0.97473081897E+01  0.26719497934E+03  0.32124636874E+03  0.91998270926E+02 0.  0.
         23    2    1    2    0    0  0.11735358090E+03 -0.32517431295E+02 -0.19880366614E+02  0.15134423361E+03  0.87639042567E+02 0.  0.
        -11    1    4    4    0    0  0.95593689988E+01 -0.25630337558E+02  0.22393897660E+02  0.35352261475E+02  0.00000000000E+00 0.  1.
         11    1    4    4    0    0  0.10779421190E+03 -0.68870937368E+01 -0.42274264275E+02  0.11599197214E+03  0.00000000000E+00 0. -1.
        -11    1    3    3    0    0 -0.15197531114E+03  0.32552240016E+02  0.23664478819E+03  0.28311993801E+03  0.00000000000E+00 0. -1.
         11    1    3    3    0    0 -0.49560601861E+00 -0.22804931826E+02  0.30550191150E+02  0.38126430730E+02  0.00000000000E+00 0.  1.
         21    1    1    2  502  501  0.35117336255E+02  0.22770123105E+02  0.23921142927E+02  0.48207124897E+02  0.00000000000E+00 0. -1.
<scales pt_clust_5="13000.00000" pt_clust_6="13000.00000" pt_clust_7="13000.00000" pt_clust_8="13000.00000" pt_clust_9="41.85338"></scales>
<clustering>
<clus scale="   41.853">  2  9  1 -1</clus>
<clus scale="   87.639">  5  6 -1 -1</clus>
<clus scale="   91.998">  7  8 -1 -1</clus>
<clus scale="  169.295">  2  5  1 -1</clus>
<clus scale="   41.853">  2  5  1 -1</clus>
</clustering>
</event>
<event>
 9    1  0.1296032E-005  0.1041198E+03  0.7546771E-02  0.1272068E+00
         -1   -1    0    0    0  501 -0.00000000000E+00  0.00000000000E+00  0.88311456388E+02  0.88311456388E+02  0.00000000000E+00 0.  1.
          1   -1    0    0  502    0  0.00000000000E+00 -0.00000000000E+00 -0.23837566012E+03  0.23837566012E+03  0.00000000000E+00 0. -1.
         23    2    1    2    0    0 -0.90441219344E+00  0.52497829081E+02 -0.32485709568E+02  0.10988319632E+03  0.90896399750E+02 0.  0.
         23    2    1    2    0    0  0.56212534029E+02 -0.30149064575E+02 -0.38802399135E+02  0.11799031402E+03  0.91363411425E+02 0.  0.
        -13    1    3    3    0    0 -0.21033058659E+02  0.56411529304E+02  0.11553913668E+02  0.61303695778E+02  0.00000000000E+00 0.  1.
         13    1    3    3    0    0  0.20128646466E+02 -0.39137002234E+01 -0.44039623237E+02  0.48579500541E+02  0.00000000000E+00 0. -1.
        -13    1    4    4    0    0 -0.15681582959E+02 -0.33775409822E+02 -0.24563568288E+02  0.44610080024E+02  0.00000000000E+00 0. -1.
         13    1    4    4    0    0  0.71894116989E+02  0.36263452467E+01 -0.14238830847E+02  0.73380233996E+02  0.00000000000E+00 0.  1.
         21    1    1    2  502  501 -0.55308121836E+02 -0.22348764506E+02 -0.78776095029E+02  0.98813606169E+02  0.00000000000E+00 0. -1.
<scales pt_clust_5="13000.00000" pt_clust_6="13000.00000" pt_clust_7="13000.00000" pt_clust_8="13000.00000" pt_clust_9="59.65279"></scales>
<clustering>
<clus scale="   59.653">  2  9  1 -1</clus>
<clus scale="   90.896">  5  6 -1 -1</clus>
<clus scale="   91.363">  7  8 -1 -1</clus>
<clus scale="  103.710">  1  5  2 -1</clus>
<clus scale="   59.653">  2  5  1 -1</clus>
</clustering>
</event>
<event>
 9    1  0.1296032E-005  0.9329431E+02  0.7546771E-02  0.1296008E+00
         -2   -1    0    0    0  501 -0.00000000000E+00  0.00000000000E+00  0.25140361719E+02  0.25140361719E+02  0.00000000000E+00 0.  1.
          2   -1    0    0  502    0  0.00000000000E+00 -0.00000000000E+00 -0.59190582942E+03  0.59190582942E+03  0.00000000000E+00 0. -1.
         23    2    1    2    0    0  0.86463142220E+01  0.11139168301E+02 -0.15925280746E+03  0.18489379042E+03  0.92873124367E+02 0.  0.
         23    2    1    2    0    0  0.29822477438E+02  0.50809567806E+01 -0.22061830998E+03  0.24065190843E+03  0.91245307007E+02 0.  0.
        -11    1    4    4    0    0  0.44762176862E+01  0.35524359513E+02 -0.18143152178E+03  0.18493083502E+03  0.00000000000E+00 0. -1.
         11    1    4    4    0    0  0.25346259751E+02 -0.30443402732E+02 -0.39186788200E+02  0.55721073416E+02  0.00000000000E+00 0.  1.
        -11    1    3    3    0    0 -0.26623579149E+02 -0.94693232807E+01 -0.97211272122E+01  0.29882827248E+02  0.00000000000E+00 0.  1.
         11    1    3    3    0    0  0.35269893371E+02  0.20608491581E+02 -0.14953168025E+03  0.15501096317E+03  0.00000000000E+00 0. -1.
         21    1    1    2  502  501 -0.38468791660E+02 -0.16220125081E+02 -0.18689435026E+03  0.19150049229E+03  0.00000000000E+00 0.  1.
<scales pt_clust_5="13000.00000" pt_clust_6="13000.00000" pt_clust_7="13000.00000" pt_clust_8="13000.00000" pt_clust_9="41.74854"></scales>
<clustering>
<clus scale="   41.749">  2  9  1 -1</clus>
<clus scale="   91.245">  5  6 -1 -1</clus>
<clus scale="   91.674">  2  5  1 -1</clus>
<clus scale="   92.873">  7  8 -1 -1</clus>
<clus scale="   41.749">  2  5  1 -1</clus>
</clustering>
</event>
<event>
 9    1  0.1296032E-005  0.1519950E+03  0.7546771E-02  0.1215248E+00
         -1   -1    0    0    0  501 -0.00000000000E+00  0.00000000000E+00  0.73507253495E+02  0.73507253495E+02  0.00000000000E+00 0.  1.
          1   -1    0    0  502    0  0.00000000000E+00 -0.00000000000E+00 -0.91232882596E+03  0.91232882596E+03  0.00000000000E+00 0. -1.
         23    2    1    2    0    0  0.66342271264E+01 -0.48558315801E+02 -0.76247640830E+01  0.10531590481E+03  0.92905219317E+02 0.  0.
         23    2    1    2    0    0 -0.18135782850E+02 -0.90547699057E+02 -0.22536554129E+03  0.25881743753E+03  0.87573091422E+02 0.  0.
        -11    1    4    4    0    0  0.21648535348E+02 -0.79174327598E+02 -0.17741207618E+03  0.19547961021E+03  0.00000000000E+00 0.  1.
         11    1    4    4    0    0 -0.39784318198E+02 -0.11373371460E+02 -0.47953465111E+02  0.63337827315E+02  0.00000000000E+00 0. -1.
        -11    1    3    3    0    0 -0.19572762732E+00  0.25662628502E+02 -0.16108592520E+02  0.30300091813E+02  0.00000000000E+00 0. -1.
         11    1    3    3    0    0  0.68299547538E+01 -0.74220944303E+02  0.84838284370E+01  0.75015813000E+02  0.00000000000E+00 0.  1.
         21    1    1    2  502  501  0.11501555723E+02  0.13910601486E+03 -0.60583126709E+03  0.62170273712E+03  0.00000000000E+00 0. -1.
<scales pt_clust_5="13000.00000" pt_clust_6="13000.00000" pt_clust_7="13000.00000" pt_clust_8="13000.00000" pt_clust_9="124.23140"></scales>
<clustering>
<clus scale="   87.573">  5  6 -1 -1</clus>
<clus scale="   92.905">  7  8 -1 -1</clus>
<clus scale="  105.040">  1  7  2 -1</clus>
<clus scale="  124.231">  2  9  1 -1</clus>
<clus scale="  124.231">  2  5  1 -1</clus>
</clustering>
</event>
<event>
 9    1  0.1296032E-005  0.1462516E+03  0.7546771E-02  0.1222562E+00
         -2   -1    0    0    0  501 -0.00000000000E+00  0.00000000000E+00  0.79895328323E+02  0.79895328323E+02  0.00000000000E+00 0.  1.
          2   -1    0    0  502    0  0.00000000000E+00 -0.00000000000E+00 -0.81039936055E+03  0.81039936055E+03  0.00000000000E+00 0. -1.
         23    2    1    2    0    0 -0.37134680354E+02  0.20105469934E+02 -0.13715062365E+03  0.17038279904E+03  0.91852001811E+02 0.  0.
         23    2    1    2    0    0 -0.61120339127E+02 -0.61873662972E+02 -0.18658324160E+02  0.13538381449E+03  0.10206173691E+03 0.  0.
        -11    1    4    4    0    0 -0.33325302148E+02  0.24117717087E+02 -0.18268998484E+02  0.45011069154E+02  0.00000000000E+00 0.  1.
         11    1    4    4    0    0 -0.27795036979E+02 -0.85991380059E+02 -0.38932567597E+00  0.90372745336E+02  0.00000000000E+00 0. -1.
        -13    1    3    3    0    0 -0.40448081282E+02  0.52780337846E+02 -0.10591084671E+03  0.12505566278E+03  0.00000000000E+00 0.  1.
         13    1    3    3    0    0  0.33134009276E+01 -0.32674867912E+02 -0.31239776938E+02  0.45327136264E+02  0.00000000000E+00 0. -1.
         21    1    1    2  502  501  0.98255019482E+02  0.41768193038E+02 -0.57469508442E+03  0.58452807534E+03  0.00000000000E+00 0. -1.
<scales pt_clust_5="13000.00000" pt_clust_6="13000.00000" pt_clust_7="13000.00000" pt_clust_8="13000.00000" pt_clust_9="104.75170"></scales>
<clustering>
<clus scale="   91.852">  7  8 -1 -1</clus>
<clus scale="  101.094">  1  7  2 -1</clus>
<clus scale="  102.062">  5  6 -1 -1</clus>
<clus scale="  104.752">  2  9  1 -1</clus>
<clus scale="  104.752">  2  5  1 -1</clus>
</clustering>
</event>
<event>
 9    1  0.1296032E-005  0.1705439E+03  0.7546771E-02  0.1201267E+00
          1   -1    0    0  502    0  0.00000000000E+00  0.00000000000E+00  0.41501098566E+03  0.41501098566E+03  0.00000000000E+00 0. -1.
         -1   -1    0    0    0  501 -0.00000000000E+00 -0.00000000000E+00 -0.10596979728E+03  0.10596979728E+03  0.00000000000E+00 0.  1.
         23    2    1    2    0    0 -0.20410381823E+02 -0.37132498199E+02  0.56558632952E+02  0.11516360580E+03  0.90930583584E+02 0.  0.
         23    2    1    2    0    0  0.14680746672E+03  0.68821305922E+02  0.16784992517E+03  0.25043672242E+03  0.90863359619E+02 0.  0.
        -13    1    3    3    0    0 -0.28155213427E+02  0.21234519344E+02  0.27014613942E+01  0.35368329739E+02  0.00000000000E+00 0.  1.
         13    1    3    3    0    0  0.77448316043E+01 -0.58367017543E+02  0.53857171557E+02  0.79795276061E+02  0.00000000000E+00 0. -1.
        -13    1    4    4    0    0  0.15138953003E+02 -0.20904854509E+02  0.16218895906E+02  0.30483658319E+02  0.00000000000E+00 0.  1.
         13    1    4    4    0    0  0.13166851372E+03  0.89726160431E+02  0.15163102927E+03  0.21995306410E+03  0.00000000000E+00 0. -1.
         21    1    1    2  502  501 -0.12639708490E+03 -0.31688807724E+02  0.84632630253E+02  0.15538045472E+03  0.00000000000E+00 0.  1.
<scales pt_clust_5="13000.00000" pt_clust_6="13000.00000" pt_clust_7="13000.00000" pt_clust_8="13000.00000" pt_clust_9="144.32282"></scales>
<clustering>
<clus scale="   90.863">  7  8 -1 -1</clus>
<clus scale="   90.931">  5  6 -1 -1</clus>
<clus scale="  100.318">  2  5  1 -1</clus>
<clus scale="  144.323">  2  9  1 -1</clus>
<clus scale="  170.544">  1  5  2 -1</clus>
</clustering>
</event>
<event>
 9    1  0.1296032E-005  0.1086844E+03  0.7546771E-02  0.1264079E+00
          1   -1    0    0  502    0  0.00000000000E+00  0.00000000000E+00  0.81981945002E+02  0.81981945002E+02  0.00000000000E+00 0. -1.
         -1   -1    0    0    0  501 -0.00000000000E+00 -0.00000000000E+00 -0.18082875044E+03  0.18082875044E+03  0.00000000000E+00 0.  1.
         23    2    1    2    0    0 -0.18186057508E+02  0.43193040769E+02 -0.50920496413E+02  0.11722963664E+03  0.94623037852E+02 0.  0.
         23    2    1    2    0    0  0.42603803723E+02 -0.34013303859E+02 -0.39719104130E+02  0.11823417394E+03  0.97106764555E+02 0.  0.
        -11    1    4    4    0    0  0.36620646964E+01  0.20852841497E+02 -0.46022016008E+02  0.50658441288E+02  0.00000000000E+00 0.  1.
         11    1    4    4    0    0  0.38941739027E+02 -0.54866145357E+02  0.63029118778E+01  0.67575732648E+02  0.00000000000E+00 0. -1.
        -11    1    3    3    0    0  0.18815345932E+02  0.19226402250E+02 -0.65489613522E+02  0.70799443962E+02  0.00000000000E+00 0.  1.
         11    1    3    3    0    0 -0.37001403440E+02  0.23966638519E+02  0.14569117110E+02  0.46430192674E+02  0.00000000000E+00 0. -1.
         21    1    1    2  502  501 -0.24417746216E+02 -0.91797369097E+01 -0.82072048982E+01  0.27346884872E+02  0.00000000000E+00 0. -1.
<scales pt_clust_5="13000.00000" pt_clust_6="13000.00000" pt_clust_7="13000.00000" pt_clust_8="13000.00000" pt_clust_9="26.08628"></scales>
<clustering>
<clus scale="   26.086">  1  9  2 -1</clus>
<clus scale="   94.623">  7  8 -1 -1</clus>
<clus scale="   97.107">  5  6 -1 -1</clus>
<clus scale="  106.471">  2  7  1 -1</clus>
<clus scale="   26.086">  1  5  2 -1</clus>
</clustering>
</event>
<event>
 9    1  0.1296032E-005  0.1227320E+03  0.7546771E-02  0.1247937E+00
          1   -1    0    0  502    0  0.00000000000E+00  0.00000000000E+00  0.29513047305E+03  0.29513047305E+03  0.00000000000E+00 0. -1.
         -1   -1    0    0    0  501 -0.00000000000E+00 -0.00000000000E+00 -0.12445981493E+03  0.12445981493E+03  0.00000000000E+00 0.  1.
         23    2    1    2    0    0 -0.73425355365E+02  0.26690343706E+01 -0.60805715255E+02  0.14213488208E+03  0.10538777510E+03 0.  0.
         23    2    1    2    0    0  0.19413500982E+02  0.30691916581E+02  0.15400939796E+03  0.17729869998E+03  0.79981601578E+02 0.  0.
        -11    1    3    3    0    0 -0.46332611291E+02 -0.42491355082E+02 -0.63560716538E+02  0.89399053757E+02  0.00000000000E+00 0.  1.
         11    1    3    3    0    0 -0.27092744073E+02  0.45160389452E+02  0.27550012826E+01  0.52735828324E+02  0.00000000000E+00 0. -1.
        -13    1    4    4    0    0 -0.20630393750E+02  0.40340679775E+02  0.65149667648E+02  0.79356554774E+02  0.00000000000E+00 0.  1.
         13    1    4    4    0    0  0.40043894732E+02 -0.96487631940E+01  0.88859730315E+02  0.97942145209E+02  0.00000000000E+00 0. -1.
         21    1    1    2  502  501  0.54011854383E+02 -0.33360950951E+02  0.77466975412E+02  0.10015670592E+03  0.00000000000E+00 0. -1.
<scales pt_clust_5="13000.00000" pt_clust_6="13000.00000" pt_clust_7="13000.00000" pt_clust_8="13000.00000" pt_clust_9="63.48412"></scales>
<clustering>
<clus scale="   63.484">  1  9  2 -1</clus>
<clus scale="   79.982">  7  8 -1 -1</clus>
<clus scale="  101.753">  1  7  2 -1</clus>
<clus scale="  105.388">  5  6 -1 -1</clus>
<clus scale="   63.484">  1  5  2 -1</clus>
</clustering>
</event>
<event>
 9    1  0.1296032E-005  0.1075139E+03  0.7546771E-02  0.1266287E+00
          2   -1    0    0  502    0  0.00000000000E+00  0.00000000000E+00  0.32831471633E+02  0.32831471633E+02  0.00000000000E+00 0. -1.
         -2   -1    0    0    0  501 -0.00000000000E+00 -0.00000000000E+00 -0.56950245553E+03  0.56950245553E+03  0.00000000000E+00 0.  1.
         23    2    1    2    0    0  0.15279403001E+02 -0.33208977894E+02 -0.39652406441E+03  0.40917430233E+03  0.94106214811E+02 0.  0.
         23    2    1    2    0    0 -0.31842547880E+02  0.46992734740E+02 -0.97340646005E+02  0.14523565618E+03  0.91629304749E+02 0.  0.
        -11    1    3    3    0    0 -0.38439835591E+02 -0.30079384750E+01 -0.12870919583E+03  0.13436043222E+03  0.00000000000E+00 0.  1.
         11    1    3    3    0    0  0.53719238592E+02 -0.30201039419E+02 -0.26781486858E+03  0.27481387012E+03  0.00000000000E+00 0. -1.
        -11    1    4    4    0    0 -0.37270830234E+02 -0.14571392081E+02 -0.62712201851E+02  0.74392610618E+02  0.00000000000E+00 0.  1.
         11    1    4    4    0    0  0.54282823544E+01  0.61564126822E+02 -0.34628444154E+02  0.70843045567E+02  0.00000000000E+00 0. -1.
         21    1    1    2  502  501  0.16563144879E+02 -0.13783756846E+02 -0.42806273477E+02  0.47923968639E+02  0.00000000000E+00 0. -1.
<scales pt_clust_5="13000.00000" pt_clust_6="13000.00000" pt_clust_7="13000.00000" pt_clust_8="13000.00000" pt_clust_9="21.54831"></scales>
<clustering>
<clus scale="   21.548">  2  9  1 -1</clus>
<clus scale="   91.629">  7  8 -1 -1</clus>
<clus scale="   94.106">  5  6 -1 -1</clus>
<clus scale="  105.353">  1  7  2 -1</clus>
<clus scale="  105.353">  1  5  2 -1</clus>
</clustering>
</event>
<event>
 9    1  0.1296032E-005  0.9636168E+02  0.7546771E-02  0.1289405E+00
         -3   -1    0    0    0  501 -0.00000000000E+00  0.00000000000E+00  0.27404628178E+03  0.27404628178E+03  0.00000000000E+00 0.  1.
          3   -1    0    0  502    0  0.00000000000E+00 -0.00000000000E+00 -0.60164239721E+02  0.60164239721E+02  0.00000000000E+00 0. -1.
         23    2    1    2    0    0  0.17460468952E+02 -0.20505412532E+02  0.11075086706E+03  0.14638646994E+03  0.91858065016E+02 0.  0.
         23    2    1    2    0    0  0.36358025472E+02  0.19656912225E+02  0.62077238533E+02  0.12012932507E+03  0.94176276124E+02 0.  0.
        -11    1    3    3    0    0 -0.18638189101E+02 -0.45152540089E+02  0.76891980569E+02  0.91096161528E+02  0.00000000000E+00 0.  1.
         11    1    3    3    0    0  0.36098658053E+02  0.24647127556E+02  0.33858886489E+02  0.55290308412E+02  0.00000000000E+00 0. -1.
        -13    1    4    4    0    0  0.37310017948E+02 -0.22318564242E+02 -0.19996909493E+01  0.43521885448E+02  0.00000000000E+00 0.  1.
         13    1    4    4    0    0 -0.95199247577E+00  0.41975476467E+02  0.64076929482E+02  0.76607439627E+02  0.00000000000E+00 0. -1.
         21    1    1    2  502  501 -0.53818494423E+02  0.84850030735E+00  0.41053936472E+02  0.67694726490E+02  0.00000000000E+00 0. -1.
<scales pt_clust_5="13000.00000" pt_clust_6="13000.00000" pt_clust_7="13000.00000" pt_clust_8="13000.00000" pt_clust_9="53.82518"></scales>
<clustering>
<clus scale="   53.825">  2  9  1 -1</clus>
<clus scale="   91.858">  5  6 -1 -1</clus>
<clus scale="   94.097">  1  5  2 -1</clus>
<clus scale="   94.176">  7  8 -1 -1</clus>
<clus scale="   53.825">  2  5  1 -1</clus>
</clustering>
</event>
<event>
 9    1  0.1296032E-005  0.1970916E+03  0.7546771E-02  0.1153193E+00
          2   -1    0    0  502    0  0.00000000000E+00  0.00000000000E+00  0.28398977469E+03  0.28398977469E+03  0.00000000000E+00 0. -1.
         -2   -1    0    0    0  501 -0.00000000000E+00 -0.00000000000E+00 -0.50288937834E+03  0.50288937834E+03  0.00000000000E+00 0.  1.
         23    2    1    2    0    0  0.13728887415E+03  0.11425735234E+03 -0.38395858475E+03  0.43348239319E+03  0.92627279341E+02 0.  0.
         23    2    1    2    0    0 -0.11662375314E+03 -0.10680090543E+03 -0.83256271485E+01  0.17862585779E+03  0.82645918261E+02 0.  0.
        -11    1    3    3    0    0  0.11968302825E+03  0.12843432866E+03 -0.31130468806E+03  0.35739335869E+03  0.00000000000E+00 0.  1.
         11    1    3    3    0    0  0.17605845902E+02 -0.14176976320E+02 -0.72653896687E+02  0.76089034501E+02  0.00000000000E+00 0. -1.
        -13    1    4    4    0    0 -0.16655304332E+02  0.13869448117E+02 -0.24935885922E+01  0.21816936942E+02  0.00000000000E+00 0.  1.
         13    1    4    4    0    0 -0.99968448810E+02 -0.12067035355E+03 -0.58320385563E+01  0.15680892085E+03  0.00000000000E+00 0. -1.
         21    1    1    2  502  501 -0.20665121009E+02 -0.74564469078E+01  0.17338460824E+03  0.17477090205E+03  0.00000000000E+00 0. -1.
<scales pt_clust_5="13000.00000" pt_clust_6="13000.00000" pt_clust_7="13000.00000" pt_clust_8="13000.00000" pt_clust_9="21.96920"></scales>
<clustering>
<clus scale="   21.969">  1  9  2 -1</clus>
<clus scale="   82.646">  7  8 -1 -1</clus>
<clus scale="   92.627">  5  6 -1 -1</clus>
<clus scale="  192.602">  1  7  2 -1</clus>
<clus scale="   21.969">  1  5  2 -1</clus>
</clustering>
</event>
<event>
 9    1  0.1296032E-005  0.1185854E+03  0.7546771E-02  0.1245983E+00
          1   -1    0    0  502    0  0.00000000000E+00  0.00000000000E+00  0.35620416834E+03  0.35620416834E+03  0.00000000000E+00 0. -1.
         -1   -1    0    0    0  501 -0.00000000000E+00 -0.00000000000E+00 -0.75326120288E+02  0.75326120288E+02  0.00000000000E+00 0.  1.
         23    2    1    2    0    0 -0.80877205347E+02  0.34064130568E+01  0.80571997064E+01  0.12237429031E+03  0.91421127033E+02 0.  0.
         23    2    1    2    0    0  0.45404051635E+02 -0.14613531295E+02  0.22855073266E+03  0.25133050846E+03  0.93040334720E+02 0.  0.
        -11    1    3    3    0    0 -0.42448508756E+02 -0.38335731971E+02  0.26052857101E+02  0.62851058897E+02  0.00000000000E+00 0.  1.
         11    1    3    3    0    0 -0.38428696591E+02  0.41742145028E+02 -0.17995657395E+02  0.59523231417E+02  0.00000000000E+00 0. -1.
        -13    1    4    4    0    0  0.99821177589E+01  0.36201281914E+02  0.12646071009E+03  0.13191848500E+03  0.00000000000E+00 0. -1.
         13    1    4    4    0    0  0.35421933876E+02 -0.50814813209E+02  0.10209002257E+03  0.11941202347E+03  0.00000000000E+00 0.  1.
         21    1    1    2  502  501  0.35473153712E+02  0.11207118238E+02  0.44270115690E+02  0.57825489852E+02  0.00000000000E+00 0. -1.
<scales pt_clust_5="13000.00000" pt_clust_6="13000.00000" pt_clust_7="13000.00000" pt_clust_8="13000.00000" pt_clust_9="37.20140"></scales>
<clustering>
<clus scale="   37.201">  1  9  2 -1</clus>
<clus scale="   91.421">  5  6 -1 -1</clus>
<clus scale="   93.040">  7  8 -1 -1</clus>
<clus scale="  117.319">  2  5  1 -1</clus>
<clus scale="   37.201">  1  5  2 -1</clus>
</clustering>
</event>
<event>
 9    1  0.1296032E-005  0.1912724E+03  0.7546771E-02  0.1187530E+00
         -1   -1    0    0    0  501 -0.00000000000E+00  0.00000000000E+00  0.12115165952E+03  0.12115165952E+03  0.00000000000E+00 0.  1.
          1   -1    0    0  502    0  0.00000000000E+00 -0.00000000000E+00 -0.74501761602E+03  0.74501761602E+03  0.00000000000E+00 0. -1.
         23    2    1    2    0    0  0.32593859361E+02 -0.15942989224E+03 -0.59092432505E+02  0.19532578864E+03  0.90443340945E+02 0.  0.
         23    2    1    2    0    0  0.32659511249E+02 -0.56539787481E+01 -0.44840389571E+03  0.45858756302E+03  0.90210243935E+02 0.  0.
        -11    1    3    3    0    0 -0.28253784506E+02 -0.62933253486E+02 -0.52647708151E+01  0.69185175761E+02  0.00000000000E+00 0.  1.
         11    1    3    3    0    0  0.60847643867E+02 -0.96496638753E+02 -0.53827661690E+02  0.12614061288E+03  0.00000000000E+00 0. -1.
        -13    1    4    4    0    0  0.48472135732E+02 -0.36971519507E+02 -0.27667408561E+03  0.28331076726E+03  0.00000000000E+00 0. -1.
         13    1    4    4    0    0 -0.15812624483E+02  0.31317540759E+02 -0.17172981010E+03  0.17527679575E+03  0.00000000000E+00 0.  1.
         21    1    1    2  502  501 -0.65253370610E+02  0.16508387099E+03 -0.11636962828E+03  0.21225592388E+03  0.00000000000E+00 0.  1.
<scales pt_clust_5="13000.00000" pt_clust_6="13000.00000" pt_clust_7="13000.00000" pt_clust_8="13000.00000" pt_clust_9="168.53824"></scales>
<clustering>
<clus scale="   90.210">  7  8 -1 -1</clus>
<clus scale="   90.443">  5  6 -1 -1</clus>
<clus scale="   96.107">  2  7  1 -1</clus>
<clus scale="  168.538">  2  9  1 -1</clus>
<clus scale="   96.107">  2  5  1 -1</clus>
</clustering>
</event>
<event>
 9    1  0.1296032E-005  0.1392962E+03  0.7546771E-02  0.1229285E+00
          1   -1    0    0  502    0  0.00000000000E+00  0.00000000000E+00  0.83781895686E+03  0.83781895686E+03  0.00000000000E+00 0. -1.
         -1   -1    0    0    0  501 -0.00000000000E+00 -0.00000000000E+00 -0.56227020150E+02  0.56227020150E+02  0.00000000000E+00 0.  1.
         23    2    1    2    0    0 -0.57975427617E+02 -0.29146897098E+02  0.38236216025E+02  0.10869151219E+03  0.78365456604E+02 0.  0.
         23    2    1    2    0    0  0.52364006444E-01 -0.71482780143E+02  0.23819540348E+03  0.26702217823E+03  0.97231696631E+02 0.  0.
        -11    1    3    3    0    0  0.11218422953E+02 -0.29566712871E+02  0.18918606323E+02  0.36850470672E+02  0.00000000000E+00 0.  1.
         11    1    3    3    0    0 -0.69193850570E+02  0.41981577321E+00  0.19317609702E+02  0.71841041519E+02  0.00000000000E+00 0. -1.
        -11    1    4    4    0    0 -0.14915227100E+02 -0.92779753522E+02  0.17408112791E+03  0.19782513934E+03  0.00000000000E+00 0.  1.
         11    1    4    4    0    0  0.14967591107E+02  0.21296973379E+02  0.64114275573E+02  0.69197038888E+02  0.00000000000E+00 0. -1.
         21    1    1    2  502  501  0.57923063610E+02  0.10062967724E+03  0.50516031721E+03  0.51833228659E+03  0.00000000000E+00 0. -1.
<scales pt_clust_5="13000.00000" pt_clust_6="13000.00000" pt_clust_7="13000.00000" pt_clust_8="13000.00000" pt_clust_9="99.74680"></scales>
<clustering>
<clus scale="   78.365">  5  6 -1 -1</clus>
<clus scale="   97.232">  7  8 -1 -1</clus>
<clus scale="  101.744">  2  5  1 -1</clus>
<clus scale="   99.747">  1  9  2 -1</clus>
<clus scale="   99.747">  1  5  2 -1</clus>
</clustering>
</event>
<event>
 9    1  0.1296032E-005  0.1019483E+03  0.7546771E-02  0.1277225E+00
          2   -1    0    0  502    0  0.00000000000E+00  0.00000000000E+00  0.27047722953E+03  0.27047722953E+03  0.00000000000E+00 0. -1.
         -2   -1    0    0    0  501 -0.00000000000E+00 -0.00000000000E+00 -0.11142453170E+03  0.11142453170E+03  0.00000000000E+00 0.  1.
         23    2    1    2    0    0  0.25649020774E+02  0.40666677749E+02 -0.67647000134E+02  0.12289680543E+03  0.90641365900E+02 0.  0.
         23    2    1    2    0    0 -0.37116271388E+02 -0.18360400107E+02  0.19858457647E+03  0.22132833286E+03  0.88519348304E+02 0.  0.
        -13    1    4    4    0    0  0.96480565662E+01  0.27898705733E+02  0.40603843929E+02  0.50200546998E+02  0.00000000000E+00 0.  1.
         13    1    4    4    0    0 -0.46764327954E+02 -0.46259105841E+02  0.15798073254E+03  0.17112778587E+03  0.00000000000E+00 0. -1.
        -13    1    3    3    0    0  0.39065622947E+01  0.64474097143E+02 -0.24609149135E+02  0.69121491972E+02  0.00000000000E+00 0. -1.
         13    1    3    3    0    0  0.21742458479E+02 -0.23807419394E+02 -0.43037851000E+02  0.53775313459E+02  0.00000000000E+00 0.  1.
         21    1    1    2  502  501  0.11467250614E+02 -0.22306277641E+02  0.28115121493E+02  0.37676622930E+02  0.00000000000E+00 0. -1.
<scales pt_clust_5="13000.00000" pt_clust_6="13000.00000" pt_clust_7="13000.00000" pt_clust_8="13000.00000" pt_clust_9="25.08123"></scales>
<clustering>
<clus scale="   25.081">  1  9  2 -1</clus>
<clus scale="   88.519">  5  6 -1 -1</clus>
<clus scale="   90.641">  7  8 -1 -1</clus>
<clus scale="  100.066">  1  5  2 -1</clus>
<clus scale="   25.081">  1  5  2 -1</clus>
</clustering>
</event>
<event>
 9    1  0.1296032E-005  0.9594282E+02  0.7546771E-02  0.1289793E+00
         -2   -1    0    0    0  501 -0.00000000000E+00  0.00000000000E+00  0.18746414901E+03  0.18746414901E+03  0.00000000000E+00 0.  1.
          2   -1    0    0  502    0  0.00000000000E+00 -0.00000000000E+00 -0.10908293673E+03  0.10908293673E+03  0.00000000000E+00 0. -1.
         23    2    1    2    0    0  0.23897944206E+02  0.17816223722E+02  0.53108272740E+02  0.10955280535E+03  0.91064806387E+02 0.  0.
         23    2    1    2    0    0  0.46348700102E+01  0.53165028226E+02  0.94835005668E+00  0.10671884660E+03  0.92412177804E+02 0.  0.
        -11    1    3    3    0    0  0.53806503371E+02 -0.90790844620E+01  0.22569725311E+02  0.59050504488E+02  0.00000000000E+00 0.  1.
         11    1    3    3    0    0 -0.29908559165E+02  0.26895308184E+02  0.30538547429E+02  0.50502300865E+02  0.00000000000E+00 0. -1.
        -13    1    4    4    0    0 -0.30752973047E+02  0.13590973716E+02 -0.30177014007E+02  0.45178668552E+02  0.00000000000E+00 0. -1.
         13    1    4    4    0    0  0.35387843057E+02  0.39574054510E+02  0.31125364064E+02  0.61540178052E+02  0.00000000000E+00 0.  1.
         21    1    1    2  502  501 -0.28532814216E+02 -0.70981251948E+02  0.24324589484E+02  0.80275433781E+02  0.00000000000E+00 0. -1.
<scales pt_clust_5="13000.00000" pt_clust_6="13000.00000" pt_clust_7="13000.00000" pt_clust_8="13000.00000" pt_clust_9="76.50137"></scales>
<clustering>
<clus scale="   76.501">  1  9  2 -1</clus>
<clus scale="   91.065">  5  6 -1 -1</clus>
<clus scale="   92.412">  7  8 -1 -1</clus>
<clus scale="   94.646">  1  5  2 -1</clus>
<clus scale="   95.943">  2  5  1 -1</clus>
</clustering>
</event>
<event>
 9    1  0.1296032E-005  0.9962922E+02  0.7546771E-02  0.1281691E+00
         -3   -1    0    0    0  501 -0.00000000000E+00  0.00000000000E+00  0.26428494982E+03  0.26428494982E+03  0.00000000000E+00 0.  1.
          3   -1    0    0  502    0  0.00000000000E+00 -0.00000000000E+00 -0.23957628098E+03  0.23957628098E+03  0.00000000000E+00 0. -1.
         23    2    1    2    0    0 -0.20199121973E+02 -0.26757033690E+02  0.22261502599E+03  0.24356910810E+03  0.92975896032E+02 0.  0.
         23    2    1    2    0    0  0.51515460830E+02  0.57505176426E+02 -0.17087931935E+03  0.20874969228E+03  0.91738782550E+02 0.  0.
        -13    1    3    3    0    0 -0.44936532647E+02 -0.43903556850E+02  0.18510806978E+03  0.19547841766E+03  0.00000000000E+00 0. -1.
         13    1    3    3    0    0  0.24737410674E+02  0.17146523160E+02  0.37506956207E+02  0.48090690443E+02  0.00000000000E+00 0.  1.
        -13    1    4    4    0    0  0.19740180869E+00  0.61590109643E+02 -0.12683885116E+03  0.14100168345E+03  0.00000000000E+00 0. -1.
         13    1    4    4    0    0  0.51318059022E+02 -0.40849332168E+01 -0.44040468194E+02  0.67748008826E+02  0.00000000000E+00 0.  1.
         21    1    1    2  502  501 -0.31316338858E+02 -0.30748142736E+02 -0.27027037804E+02  0.51542430420E+02  0.00000000000E+00 0.  1.
<scales pt_clust_5="13000.00000" pt_clust_6="13000.00000" pt_clust_7="13000.00000" pt_clust_8="13000.00000" pt_clust_9="43.88805"></scales>
<clustering>
<clus scale="   43.888">  2  9  1 -1</clus>
<clus scale="   91.739">  7  8 -1 -1</clus>
<clus scale="   92.976">  5  6 -1 -1</clus>
<clus scale="   98.476">  2  7  1 -1</clus>
<clus scale="   43.888">  2  5  1 -1</clus>
</clustering>
</event>
<event>
 9    1  0.1296032E-005  0.9294826E+02  0.7546771E-02  0.1298493E+00
          2   -1    0    0  502    0  0.00000000000E+00  0.00000000000E+00  0.32426795038E+03  0.32426795038E+03  0.00000000000E+00 0. -1.
         -2   -1    0    0    0  501 -0.00000000000E+00 -0.00000000000E+00 -0.41325691798E+02  0.41325691798E+02  0.00000000000E+00 0.  1.
         23    2    1    2    0    0  0.89550638435E+01 -0.27902137267E+02  0.59309915564E+02  0.10877640281E+03  0.86347653649E+02 0.  0.
         23    2    1    2    0    0 -0.12893461949E+02 -0.49158043528E+01  0.14710924754E+03  0.17346070146E+03  0.90868463970E+02 0.  0.
        -11    1    3    3    0    0  0.20659894160E+02 -0.53944572672E+02  0.55256359433E+02  0.79938184902E+02  0.00000000000E+00 0. -1.
         11    1    3    3    0    0 -0.11704830317E+02  0.26042435406E+02  0.40535561308E+01  0.28838217905E+02  0.00000000000E+00 0.  1.
        -13    1    4    4    0    0 -0.33390051503E+02  0.31515512467E+02  0.50819791861E+02  0.68489227694E+02  0.00000000000E+00 0.  1.
         13    1    4    4    0    0  0.20496589554E+02 -0.36431316820E+02  0.96289455682E+02  0.10497147376E+03  0.00000000000E+00 0. -1.
         21    1    1    2  502  501  0.39383981053E+01  0.32817941619E+02  0.76523095472E+02  0.83356537910E+02  0.00000000000E+00 0.  1.
<scales pt_clust_5="13000.00000" pt_clust_6="13000.00000" pt_clust_7="13000.00000" pt_clust_8="13000.00000" pt_clust_9="33.05342"></scales>
<clustering>
<clus scale="   33.053">  1  9  2 -1</clus>
<clus scale="   86.348">  5  6 -1 -1</clus>
<clus scale="   88.534">  2  5  1 -1</clus>
<clus scale="   90.868">  7  8 -1 -1</clus>
<clus scale="   33.053">  1  5  2 -1</clus>
</clustering>
</event>
<event>
 9    1  0.1296032E-005  0.9169686E+02  0.7546771E-02  0.1298976E+00
         -1   -1    0    0    0  501 -0.00000000000E+00  0.00000000000E+00  0.24365142241E+03  0.24365142241E+03  0.00000000000E+00 0.  1.
          1   -1    0    0  502    0  0.00000000000E+00 -0.00000000000E+00 -0.10013843759E+03  0.10013843759E+03  0.00000000000E+00 0. -1.
         23    2    1    2    0    0  0.32917307149E+02 -0.37759917995E+02  0.13027880876E+03  0.16667792155E+03  0.91102145994E+02 0.  0.
         23    2    1    2    0    0  0.11029576487E+02 -0.17693834447E+02 -0.24522407421E+02  0.96912145201E+02  0.91410568791E+02 0.  0.
        -11    1    3    3    0    0 -0.22126875973E+02 -0.33004474009E+02  0.89764516593E+02  0.98165994031E+02  0.00000000000E+00 0.  1.
         11    1    3    3    0    0  0.55044183122E+02 -0.47554439859E+01  0.40514292166E+02  0.68511927523E+02  0.00000000000E+00 0. -1.
        -11    1    4    4    0    0  0.48645421601E+02 -0.22788555025E+02 -0.42700062350E+01  0.53888108486E+02  0.00000000000E+00 0. -1.
         11    1    4    4    0    0 -0.37615845115E+02  0.50947205780E+01 -0.20252401186E+02  0.43024036715E+02  0.00000000000E+00 0.  1.
         21    1    1    2  502  501 -0.43946883636E+02  0.55453752442E+02  0.37756583473E+02  0.80199793247E+02  0.00000000000E+00 0. -1.
<scales pt_clust_5="13000.00000" pt_clust_6="13000.00000" pt_clust_7="13000.00000" pt_clust_8="13000.00000" pt_clust_9="70.75625"></scales>
<clustering>
<clus scale="   70.756">  1  9  2 -1</clus>
<clus scale="   91.102">  5  6 -1 -1</clus>
<clus scale="   91.389">  1  5  2 -1</clus>
<clus scale="   91.411">  7  8 -1 -1</clus>
<clus scale="   91.697">  2  5  1 -1</clus>
</clustering>
</event>
<event>
 9    1  0.1296032E-005  0.9715775E+02  0.7546771E-02  0.1288985E+00
         -2   -1    0    0    0  501 -0.00000000000E+00  0.00000000000E+00  0.14251044278E+03  0.14251044278E+03  0.00000000000E+00 0.  1.
          2   -1    0    0  502    0  0.00000000000E+00 -0.00000000000E+00 -0.10599886983E+03  0.10599886983E+03  0.00000000000E+00 0. -1.
         23    2    1    2    0    0  0.16590174353E+02  0.14204640344E+02  0.26878813021E+02  0.99213847042E+02  0.92972636636E+02 0.  0.
         23    2    1    2    0    0 -0.32269853034E+02  0.30600530543E+02 -0.70920457953E+01  0.98965804456E+02  0.88126031647E+02 0.  0.
        -11    1    4    4    0    0  0.15148265156E+01  0.44432693578E+02  0.24434217592E+02  0.50730562261E+02  0.00000000000E+00 0. -1.
         11    1    4    4    0    0 -0.33784679550E+02 -0.13832163035E+02 -0.31526263387E+02  0.48235242196E+02  0.00000000000E+00 0.  1.
        -13    1    3    3    0    0  0.34980314186E+02 -0.23074726958E+02  0.37582255290E+02  0.56289353499E+02  0.00000000000E+00 0.  1.
         13    1    3    3    0    0 -0.18390139833E+02  0.37279367302E+02 -0.10703442269E+02  0.42924493543E+02  0.00000000000E+00 0. -1.
         21    1    1    2  502  501  0.15679678681E+02 -0.44805170887E+02  0.16724805720E+02  0.50329661117E+02  0.00000000000E+00 0.  1.
<scales pt_clust_5="13000.00000" pt_clust_6="13000.00000" pt_clust_7="13000.00000" pt_clust_8="13000.00000" pt_clust_9="47.46952"></scales>
<clustering>
<clus scale="   47.470">  1  9  2 -1</clus>
<clus scale="   88.126">  5  6 -1 -1</clus>
<clus scale="   92.531">  2  5  1 -1</clus>
<clus scale="   92.973">  7  8 -1 -1</clus>
<clus scale="   92.531">  2  5  1 -1</clus>
</clustering>
</event>
<event>
 9    1  0.1296032E-005  0.1054418E+03  0.7546771E-02  0.1269578E+00
         -1   -1    0    0    0  501 -0.00000000000E+00  0.00000000000E+00  0.35436878326E+02  0.35436878326E+02  0.00000000000E+00 0.  1.
          1   -1    0    0  502    0  0.00000000000E+00 -0.00000000000E+00 -0.47396291455E+03  0.47396291455E+03  0.00000000000E+00 0. -1.
         23    2    1    2    0    0 -0.21412776675E+02  0.25847098356E+02 -0.10771107961E+03  0.14523671297E+03  0.91462815541E+02 0.  0.
         23    2    1    2    0    0  0.57943345041E+02 -0.24180083597E+02 -0.28123434534E+03  0.30255546367E+03  0.92222252850E+02 0.  0.
        -11    1    4    4    0    0  0.50277128654E+02  0.28622410301E+02 -0.15834512697E+03  0.16858295072E+03  0.00000000000E+00 0. -1.
         11    1    4    4    0    0  0.76662163862E+01 -0.52802493898E+02 -0.12288921837E+03  0.13397251295E+03  0.00000000000E+00 0.  1.
        -13    1    3    3    0    0 -0.28612856469E+02  0.53070005432E+02 -0.98723503879E+02  0.11567822289E+03  0.00000000000E+00 0. -1.
         13    1    3    3    0    0  0.72000797948E+01 -0.27222907077E+02 -0.89875757294E+01  0.29558490088E+02  0.00000000000E+00 0.  1.
         21    1    1    2  502  501 -0.36530568366E+02 -0.16670147586E+01 -0.49580611282E+02  0.61607616237E+02  0.00000000000E+00 0. -1.
<scales pt_clust_5="13000.00000" pt_clust_6="13000.00000" pt_clust_7="13000.00000" pt_clust_8="13000.00000" pt_clust_9="36.56858"></scales>
<clustering>
<clus scale="   36.569">  1  9  2 -1</clus>
<clus scale="   91.463">  7  8 -1 -1</clus>
<clus scale="   92.222">  5  6 -1 -1</clus>
<clus scale="  104.778">  1  7  2 -1</clus>
<clus scale="  105.442">  2  5  1 -1</clus>
</clustering>
</event>
<event>
 9    1  0.1296032E-005  0.1660264E+03  0.7546771E-02  0.1182828E+00
         -4   -1    0    0    0  501 -0.00000000000E+00  0.00000000000E+00  0.66403843774E+03  0.66403843774E+03  0.00000000000E+00 0.  1.
          4   -1    0    0  502    0  0.00000000000E+00 -0.00000000000E+00 -0.62226276243E+02  0.62226276243E+02  0.00000000000E+00 0. -1.
         23    2    1    2    0    0 -0.36328445944E+02  0.11984214326E+03  0.36278267901E+03  0.39385087669E+03  0.88460983461E+02 0.  0.
         23    2    1    2    0    0  0.46165750700E+02 -0.15811799838E+03  0.21313058685E+03  0.28516379554E+03  0.93601096628E+02 0.  0.
        -11    1    4    4    0    0  0.17541865196E+02 -0.10218603982E+03  0.60344879327E+02  0.11996336203E+03  0.00000000000E+00 0. -1.
         11    1    4    4    0    0  0.28623885504E+02 -0.55931958553E+02  0.15278570752E+03  0.16520043351E+03  0.00000000000E+00 0.  1.
        -13    1    3    3    0    0 -0.48240013328E+02  0.85561545786E+02  0.33212049011E+03  0.34634072379E+03  0.00000000000E+00 0.  1.
         13    1    3    3    0    0  0.11911567384E+02  0.34280597475E+02  0.30662188900E+02  0.47510152904E+02  0.00000000000E+00 0. -1.
         21    1    1    2  502  501 -0.98373047558E+01  0.38275855116E+02  0.25898895638E+02  0.47250041746E+02  0.00000000000E+00 0. -1.
<scales pt_clust_5="13000.00000" pt_clust_6="13000.00000" pt_clust_7="13000.00000" pt_clust_8="13000.00000" pt_clust_9="39.51979"></scales>
<clustering>
<clus scale="   39.520">  2  9  1 -1</clus>
<clus scale="   88.461">  7  8 -1 -1</clus>
<clus scale="   93.601">  5  6 -1 -1</clus>
<clus scale="  163.184">  1  7  2 -1</clus>
<clus scale="   39.520">  2  5  1 -1</clus>
</clustering>
</event>
<event>
 9    1  0.1296032E-005  0.1145849E+03  0.7546771E-02  0.1252836E+00
          1   -1    0    0  502    0  0.00000000000E+00  0.00000000000E+00  0.40041129829E+03  0.40041129829E+03  0.00000000000E+00 0. -1.
         -1   -1    0    0    0  501 -0.00000000000E+00 -0.00000000000E+00 -0.11518611990E+03  0.11518611990E+03  0.00000000000E+00 0.  1.
         23    2    1    2    0    0  0.33576427234E+02  0.75211219727E+02 -0.50967488019E+02  0.12888465666E+03  0.85026265646E+02 0.  0.
         23    2    1    2    0    0 -0.95842273707E+01 -0.54930006794E+02  0.84977055394E+02  0.13354041613E+03  0.86618587706E+02 0.  0.
        -11    1    4    4    0    0  0.27637506949E+02 -0.19309788178E+02 -0.52180191225E+00  0.33719015215E+02  0.00000000000E+00 0.  1.
         11    1    4    4    0    0 -0.37221734320E+02 -0.35620218616E+02  0.85498857306E+02  0.99821400915E+02  0.00000000000E+00 0. -1.
        -13    1    3    3    0    0 -0.23551336063E+02 -0.42230919758E+00 -0.88210948355E+01  0.25152643788E+02  0.00000000000E+00 0. -1.
         13    1    3    3    0    0  0.57127763297E+02  0.75633528924E+02 -0.42146393183E+02  0.10373201288E+03  0.00000000000E+00 0.  1.
         21    1    1    2  502  501 -0.23992199863E+02 -0.20281212933E+02  0.25121561102E+03  0.25317234539E+03  0.00000000000E+00 0. -1.
<scales pt_clust_5="13000.00000" pt_clust_6="13000.00000" pt_clust_7="13000.00000" pt_clust_8="13000.00000" pt_clust_9="31.41581"></scales>
<clustering>
<clus scale="   31.416">  1  9  2 -1</clus>
<clus scale="   85.026">  7  8 -1 -1</clus>
<clus scale="   86.619">  5  6 -1 -1</clus>
<clus scale="  113.386">  2  7  1 -1</clus>
<clus scale="   31.416">  1  5  2 -1</clus>
</clustering>
</event>
<event>
 9    1  0.1296032E-005  0.1483969E+03  0.7546771E-02  0.1202856E+00
         -3   -1    0    0    0  501 -0.00000000000E+00  0.00000000000E+00  0.54784093614E+03  0.54784093614E+03  0.00000000000E+00 0.  1.
          3   -1    0    0  502    0  0.00000000000E+00 -0.00000000000E+00 -0.62247571225E+02  0.62247571225E+02  0.00000000000E+00 0. -1.
         23    2    1    2    0    0 -0.52104724163E+02 -0.71459115007E+02  0.16012478092E+03  0.20434740912E+03  0.91085732987E+02 0.  0.
         23    2    1    2    0    0  0.10401778473E+03  0.10302336661E+03  0.28174370511E+03  0.33088702106E+03  0.93129972245E+02 0.  0.
        -11    1    3    3    0    0 -0.71830662114E+02 -0.38977944968E+02  0.74156788633E+02  0.11035467146E+03  0.00000000000E+00 0. -1.
         11    1    3    3    0    0  0.19725937951E+02 -0.32481170039E+02  0.85967992284E+02  0.93992737658E+02  0.00000000000E+00 0.  1.
        -13    1    4    4    0    0  0.39247199375E+02  0.57896117419E+02  0.49758223824E+02  0.85838126198E+02  0.00000000000E+00 0. -1.
         13    1    4    4    0    0  0.64770585351E+02  0.45127249196E+02  0.23198548129E+03  0.24504889487E+03  0.00000000000E+00 0.  1.
         21    1    1    2  502  501 -0.51913060564E+02 -0.31564251608E+02  0.43724878884E+02  0.74854077177E+02  0.00000000000E+00 0. -1.
<scales pt_clust_5="13000.00000" pt_clust_6="13000.00000" pt_clust_7="13000.00000" pt_clust_8="13000.00000" pt_clust_9="60.75580"></scales>
<clustering>
<clus scale="   60.756">  2  9  1 -1</clus>
<clus scale="   91.086">  5  6 -1 -1</clus>
<clus scale="   93.130">  7  8 -1 -1</clus>
<clus scale="  147.123">  1  5  2 -1</clus>
<clus scale="   60.756">  2  5  1 -1</clus>
</clustering>
</event>
<event>
 9    1  0.1296032E-005  0.9803834E+02  0.7546771E-02  0.1285260E+00
          1   -1    0    0  502    0  0.00000000000E+00  0.00000000000E+00  0.28861939923E+03  0.28861939923E+03  0.00000000000E+00 0. -1.
         -1   -1    0    0    0  501 -0.00000000000E+00 -0.00000000000E+00 -0.19182005414E+03  0.19182005414E+03  0.00000000000E+00 0.  1.
         23    2    1    2    0    0  0.33426052235E+02  0.15018955076E+02 -0.14275952890E+03  0.17318702374E+03  0.90942795873E+02 0.  0.
         23    2    1    2    0    0  0.26176759861E+02 -0.50323880772E+02  0.84793064025E+02  0.13769008439E+03  0.92471508587E+02 0.  0.
        -13    1    3    3    0    0 -0.69098742304E+01  0.42973569984E+02 -0.95977771931E+02  0.10538598950E+03  0.00000000000E+00 0.  1.
         13    1    3    3    0    0  0.40335926465E+02 -0.27954614908E+02 -0.46781756966E+02  0.67801034234E+02  0.00000000000E+00 0. -1.
        -13    1    4    4    0    0  0.40402053635E+02 -0.71742600148E+02  0.69688876036E+02  0.10786967163E+03  0.00000000000E+00 0. -1.
         13    1    4    4    0    0 -0.14225293774E+02  0.21418719376E+02  0.15104187989E+02  0.29820412765E+02  0.00000000000E+00 0.  1.
         21    1    1    2  502  501 -0.59602812096E+02  0.35304925696E+02  0.15476580996E+03  0.16956234524E+03  0.00000000000E+00 0. -1.
<scales pt_clust_5="13000.00000" pt_clust_6="13000.00000" pt_clust_7="13000.00000" pt_clust_8="13000.00000" pt_clust_9="69.27433"></scales>
<clustering>
<clus scale="   69.274">  1  9  2 -1</clus>
<clus scale="   90.943">  5  6 -1 -1</clus>
<clus scale="   92.472">  7  8 -1 -1</clus>
<clus scale="   96.598">  2  5  1 -1</clus>
<clus scale="   69.274">  1  5  2 -1</clus>
</clustering>
</event>
<event>
 9    1  0.1296032E-005  0.9887870E+02  0.7546771E-02  0.1284512E+00
         -2   -1    0    0    0  501 -0.00000000000E+00  0.00000000000E+00  0.40787673536E+02  0.40787673536E+02  0.00000000000E+00 0.  1.
          2   -1    0    0  502    0  0.00000000000E+00 -0.00000000000E+00 -0.55410742137E+03  0.55410742137E+03  0.00000000000E+00 0. -1.
         23    2    1    2    0    0 -0.17732938300E+02  0.25493310800E+02 -0.44150232686E+02  0.10857576323E+03  0.94207681841E+02 0.  0.
         23    2    1    2    0    0 -0.48040979896E+01 -0.32899776443E+02 -0.29154405303E+03  0.30711671303E+03  0.90649136327E+02 0.  0.
        -11    1    4    4    0    0 -0.37467384594E+02 -0.41044194193E+02 -0.11923419927E+03  0.13154932558E+03  0.00000000000E+00 0.  1.
         11    1    4    4    0    0  0.32663286604E+02  0.81444177508E+01 -0.17230985376E+03  0.17556738745E+03  0.00000000000E+00 0. -1.
        -13    1    3    3    0    0  0.16019758092E+02  0.35408794381E+02 -0.58787942804E+02  0.70472956430E+02  0.00000000000E+00 0. -1.
         13    1    3    3    0    0 -0.33752696392E+02 -0.99154835806E+01  0.14637710118E+02  0.38102806798E+02  0.00000000000E+00 0.  1.
         21    1    1    2  502  501  0.22537036290E+02  0.74064656425E+01 -0.17762546212E+03  0.17920261865E+03  0.00000000000E+00 0. -1.
<scales pt_clust_5="13000.00000" pt_clust_6="13000.00000" pt_clust_7="13000.00000" pt_clust_8="13000.00000" pt_clust_9="23.72285"></scales>
<clustering>
<clus scale="   23.723">  2  9  1 -1</clus>
<clus scale="   90.649">  5  6 -1 -1</clus>
<clus scale="   94.208">  7  8 -1 -1</clus>
<clus scale="   95.494">  2  5  1 -1</clus>
<clus scale="   23.723">  2  5  1 -1</clus>
</clustering>
</event>
<event>
 9    1  0.1296032E-005  0.1074448E+03  0.7546771E-02  0.1266587E+00
         -1   -1    0    0    0  501 -0.00000000000E+00  0.00000000000E+00  0.25673429554E+03  0.25673429554E+03  0.00000000000E+00 0.  1.
          1   -1    0    0  502    0  0.00000000000E+00 -0.00000000000E+00 -0.15399957855E+03  0.15399957855E+03  0.00000000000E+00 0. -1.
         23    2    1    2    0    0  0.47718523256E+02  0.31808437546E+02  0.20635683198E+03  0.23400489323E+03  0.94267246645E+02 0.  0.
         23    2    1    2    0    0 -0.29804452418E+01 -0.11549995309E+02 -0.80774655339E+02  0.12256343352E+03  0.91405496796E+02 0.  0.
        -13    1    3    3    0    0  0.22556086022E+02 -0.32187675302E+02  0.53435410431E+02  0.66333751182E+02  0.00000000000E+00 0. -1.
         13    1    3    3    0    0  0.25162437235E+02  0.63996112848E+02  0.15292142155E+03  0.16767114205E+03  0.00000000000E+00 0.  1.
        -13    1    4    4    0    0  0.33370260985E+02  0.24157219474E+02 -0.37652943435E+02  0.55811197087E+02  0.00000000000E+00 0.  1.
         13    1    4    4    0    0 -0.36350706227E+02 -0.35707214783E+02 -0.43121711904E+02  0.66752236429E+02  0.00000000000E+00 0. -1.
         21    1    1    2  502  501 -0.44738078015E+02 -0.20258442238E+02 -0.22847459652E+02  0.54165547342E+02  0.00000000000E+00 0. -1.
<scales pt_clust_5="13000.00000" pt_clust_6="13000.00000" pt_clust_7="13000.00000" pt_clust_8="13000.00000" pt_clust_9="49.11110"></scales>
<clustering>
<clus scale="   49.111">  2  9  1 -1</clus>
<clus scale="   91.405">  7  8 -1 -1</clus>
<clus scale="   94.267">  5  6 -1 -1</clus>
<clus scale="  104.943">  2  7  1 -1</clus>
<clus scale="   49.111">  2  5  1 -1</clus>
</clustering>
</event>
<event>
 9    1  0.1296032E-005  0.1387208E+03  0.7546771E-02  0.1215942E+00
          2   -1    0    0  502    0  0.00000000000E+00  0.00000000000E+00  0.63836102074E+03  0.63836102074E+03  0.00000000000E+00 0. -1.
         -2   -1    0    0    0  501 -0.00000000000E+00 -0.00000000000E+00 -0.37400802034E+03  0.37400802034E+03  0.00000000000E+00 0.  1.
         23    2    1    2    0    0 -0.95949556599E+02  0.47342144243E+02 -0.34005651619E+03  0.36646484075E+03  0.84914364364E+02 0.  0.
         23    2    1    2    0    0  0.90422068453E+02 -0.86919198081E+00  0.57883379000E+03  0.59257122546E+03  0.88967380789E+02 0.  0.
        -11    1    4    4    0    0  0.94844787871E+02 -0.27524738477E+02  0.48346616127E+03  0.49344976857E+03  0.00000000000E+00 0. -1.
         11    1    4    4    0    0 -0.44227194181E+01  0.26655546496E+02  0.95367628731E+02  0.99121456890E+02  0.00000000000E+00 0.  1.
        -11    1    3    3    0    0 -0.88429762662E+02  0.12456037847E+02 -0.29907283885E+03  0.31212103220E+03  0.00000000000E+00 0.  1.
         11    1    3    3    0    0 -0.75197939377E+01  0.34886106396E+02 -0.40983677338E+02  0.54343808557E+02  0.00000000000E+00 0. -1.
         21    1    1    2  502  501  0.55274881461E+01 -0.46472952262E+02  0.25575726583E+02  0.53332974860E+02  0.00000000000E+00 0.  1.
<scales pt_clust_5="13000.00000" pt_clust_6="13000.00000" pt_clust_7="13000.00000" pt_clust_8="13000.00000" pt_clust_9="46.80052"></scales>
<clustering>
<clus scale="   46.801">  1  9  2 -1</clus>
<clus scale="   84.914">  7  8 -1 -1</clus>
<clus scale="   88.967">  5  6 -1 -1</clus>
<clus scale="  136.157">  2  7  1 -1</clus>
<clus scale="   46.801">  1  5  2 -1</clus>
</clustering>
</event>
<event>
 9    1  0.1296032E-005  0.1007150E+03  0.7546771E-02  0.1280524E+00
          4   -1    0    0  502    0  0.00000000000E+00  0.00000000000E+00  0.25195896147E+03  0.25195896147E+03  0.00000000000E+00 0. -1.
         -4   -1    0    0    0  501 -0.00000000000E+00 -0.00000000000E+00 -0.62645702727E+02  0.62645702727E+02  0.00000000000E+00 0.  1.
         23    2    1    2    0    0 -0.32260611255E+02 -0.16585470984E+02  0.31725029176E+02  0.10712429872E+03  0.95672948186E+02 0.  0.
         23    2    1    2    0    0  0.28907553557E+02 -0.10403893325E+02  0.82127816674E+02  0.12726850416E+03  0.92241022489E+02 0.  0.
        -11    1    4    4    0    0  0.43686625642E+02 -0.27628626036E+02  0.11323881123E+02  0.52915900449E+02  0.00000000000E+00 0.  1.
         11    1    4    4    0    0 -0.14779072084E+02  0.17224732711E+02  0.70803935552E+02  0.74352603709E+02  0.00000000000E+00 0. -1.
        -11    1    3    3    0    0  0.62349608837E+01  0.35798742997E+02  0.18535252029E+02  0.40791914704E+02  0.00000000000E+00 0. -1.
         11    1    3    3    0    0 -0.38495572139E+02 -0.52384213981E+02  0.13189777147E+02  0.66332384021E+02  0.00000000000E+00 0.  1.
         21    1    1    2  502  501  0.33530576982E+01  0.26989364309E+02  0.75460412897E+02  0.80211861320E+02  0.00000000000E+00 0. -1.
<scales pt_clust_5="13000.00000" pt_clust_6="13000.00000" pt_clust_7="13000.00000" pt_clust_8="13000.00000" pt_clust_9="27.19685"></scales>
<clustering>
<clus scale="   27.197">  1  9  2 -1</clus>
<clus scale="   92.241">  5  6 -1 -1</clus>
<clus scale="   95.673">  7  8 -1 -1</clus>
<clus scale="   97.461">  1  5  2 -1</clus>
<clus scale="   27.197">  1  5  2 -1</clus>
</clustering>
</event>
<event>
 9    1  0.1296032E-005  0.1028691E+03  0.7546771E-02  0.1275082E+00
          3   -1    0    0  502    0  0.00000000000E+00  0.00000000000E+00  0.12925749701E+03  0.12925749701E+03  0.00000000000E+00 0. -1.
         -3   -1    0    0    0  501 -0.00000000000E+00 -0.00000000000E+00 -0.15452866820E+03  0.15452866820E+03  0.00000000000E+00 0.  1.
         23    2    1    2    0    0  0.37936576679E+02 -0.14489130002E+02 -0.58867213352E+02  0.11574923894E+03  0.91013288971E+02 0.  0.
         23    2    1    2    0    0 -0.59701284710E+02  0.83632165415E+01 -0.20149083265E+02  0.10972939812E+03  0.89444778882E+02 0.  0.
        -13    1    3    3    0    0  0.35465797390E+02 -0.39014350919E+02 -0.70870885686E+02  0.88332467417E+02  0.00000000000E+00 0.  1.
         13    1    3    3    0    0  0.24707792888E+01  0.24525220917E+02  0.12003672333E+02  0.27416771524E+02  0.00000000000E+00 0. -1.
        -13    1    4    4    0    0 -0.38410503784E+02  0.48754521069E+02 -0.88728131559E+01  0.62698460419E+02  0.00000000000E+00 0. -1.
         13    1    4    4    0    0 -0.21290780926E+02 -0.40391304527E+02 -0.11276270109E+02  0.47030937705E+02  0.00000000000E+00 0.  1.
         21    1    1    2  502  501  0.21764708031E+02  0.61259134602E+01  0.53745125427E+02  0.58307528147E+02  0.00000000000E+00 0. -1.
<scales pt_clust_5="13000.00000" pt_clust_6="13000.00000" pt_clust_7="13000.00000" pt_clust_8="13000.00000" pt_clust_9="22.61038"></scales>
<clustering>
<clus scale="   22.610">  1  9  2 -1</clus>
<clus scale="   89.445">  7  8 -1 -1</clus>
<clus scale="   91.013">  5  6 -1 -1</clus>
<clus scale="  101.484">  1  7  2 -1</clus>
<clus scale="   22.610">  1  5  2 -1</clus>
</clustering>
</event>
<event>
 9    1  0.1296032E-005  0.9483924E+02  0.7546771E-02  0.1291923E+00
         -2   -1    0    0    0  501 -0.00000000000E+00  0.00000000000E+00  0.47885111495E+02  0.47885111495E+02  0.00000000000E+00 0.  1.
          2   -1    0    0  502    0  0.00000000000E+00 -0.00000000000E+00 -0.54446924536E+03  0.54446924536E+03  0.00000000000E+00 0. -1.
         23    2    1    2    0    0 -0.34094899433E+02 -0.35092116954E+02 -0.74866654392E+02  0.12843910453E+03  0.92182800962E+02 0.  0.
         23    2    1    2    0    0 -0.41419523166E+02 -0.19635371827E+01 -0.15907756108E+03  0.18813404148E+03  0.91483958950E+02 0.  0.
        -11    1    3    3    0    0 -0.53264267524E+02 -0.54513289782E+02 -0.47574435155E+02  0.89844909917E+02  0.00000000000E+00 0. -1.
         11    1    3    3    0    0  0.19169368091E+02  0.19421172828E+02 -0.27292219237E+02  0.38594194614E+02  0.00000000000E+00 0.  1.
        -11    1    4    4    0    0 -0.26850566091E+02 -0.20403485095E+02 -0.16105731052E+03  0.16455003000E+03  0.00000000000E+00 0. -1.
         11    1    4    4    0    0 -0.14568957075E+02  0.18439947913E+02  0.19797494364E+01  0.23584011472E+02  0.00000000000E+00 0.  1.
         21    1    1    2  502  501  0.75514422598E+02  0.37055654137E+02 -0.26263991839E+03  0.27578121085E+03  0.00000000000E+00 0.  1.
<scales pt_clust_5="13000.00000" pt_clust_6="13000.00000" pt_clust_7="13000.00000" pt_clust_8="13000.00000" pt_clust_9="84.11629"></scales>
<clustering>
<clus scale="   84.116">  2  9  1 -1</clus>
<clus scale="   91.484">  7  8 -1 -1</clus>
<clus scale="   92.183">  5  6 -1 -1</clus>
<clus scale="   94.160">  2  7  1 -1</clus>
<clus scale="   84.116">  2  5  1 -1</clus>
</clustering>
</event>
<event>
 9    1  0.1296032E-005  0.1065182E+03  0.7546771E-02  0.1268517E+00
         -2   -1    0    0    0  501 -0.00000000000E+00  0.00000000000E+00  0.51023838970E+02  0.51023838970E+02  0.00000000000E+00 0.  1.
          2   -1    0    0  502    0  0.00000000000E+00 -0.00000000000E+00 -0.37611587865E+03  0.37611587865E+03  0.00000000000E+00 0. -1.
         23    2    1    2    0    0 -0.40162995112E+02  0.42072896476E+02 -0.49198504905E+02  0.11662688855E+03  0.88307097410E+02 0.  0.
         23    2    1    2    0    0  0.52690446917E+02 -0.77185479208E+01 -0.20430482105E+03  0.23012562707E+03  0.91550451397E+02 0.  0.
        -11    1    3    3    0    0 -0.14115926013E+02  0.53340692076E+02 -0.64096382476E+02  0.84574434937E+02  0.00000000000E+00 0.  1.
         11    1    3    3    0    0 -0.26047069099E+02 -0.11267795601E+02  0.14897877570E+02  0.32052453610E+02  0.00000000000E+00 0. -1.
        -13    1    4    4    0    0  0.20217260308E+02  0.41642134448E+02 -0.10136204846E+03  0.11143190676E+03  0.00000000000E+00 0.  1.
         13    1    4    4    0    0  0.32473186609E+02 -0.49360682369E+02 -0.10294277259E+03  0.11869372031E+03  0.00000000000E+00 0. -1.
         21    1    1    2  502  501 -0.12527451805E+02 -0.34354348555E+02 -0.71588713728E+02  0.80387202008E+02  0.00000000000E+00 0. -1.
<scales pt_clust_5="13000.00000" pt_clust_6="13000.00000" pt_clust_7="13000.00000" pt_clust_8="13000.00000" pt_clust_9="36.56718"></scales>
<clustering>
<clus scale="   36.567">  2  9  1 -1</clus>
<clus scale="   88.307">  5  6 -1 -1</clus>
<clus scale="   91.550">  7  8 -1 -1</clus>
<clus scale="  103.744">  1  5  2 -1</clus>
<clus scale="   36.567">  2  5  1 -1</clus>
</clustering>
</event>
<event>
 9    1  0.1296032E-005  0.1009325E+03  0.7546771E-02  0.1286813E+00
         -1   -1    0    0    0  501 -0.00000000000E+00  0.00000000000E+00  0.19677072622E+02  0.19677072622E+02  0.00000000000E+00 0.  1.
          1   -1    0    0  502    0  0.00000000000E+00 -0.00000000000E+00 -0.81329604564E+03  0.81329604564E+03  0.00000000000E+00 0. -1.
         23    2    1    2    0    0  0.25093451260E+01 -0.19986386361E+02 -0.18318632944E+03  0.20311764562E+03  0.85403713145E+02 0.  0.
         23    2    1    2    0    0 -0.20610419191E+02 -0.25898847205E+02 -0.40458281384E+03  0.41817822789E+03  0.10045017350E+03 0.  0.
        -11    1    3    3    0    0  0.99974528071E+01  0.32499594204E+02 -0.59172492303E+02  0.68246293170E+02  0.00000000000E+00 0.  1.
         11    1    3    3    0    0 -0.74881076811E+01 -0.52485980565E+02 -0.12401383713E+03  0.13487135245E+03  0.00000000000E+00 0. -1.
        -11    1    4    4    0    0  0.34051790310E+02  0.27967992305E+01 -0.69366844681E+02  0.77324676852E+02  0.00000000000E+00 0.  1.
         11    1    4    4    0    0 -0.54662209500E+02 -0.28695646435E+02 -0.33521596916E+03  0.34085355104E+03  0.00000000000E+00 0. -1.
         21    1    1    2  502  501  0.18101074065E+02  0.45885233566E+02 -0.20584982974E+03  0.21167724475E+03  0.00000000000E+00 0. -1.
<scales pt_clust_5="13000.00000" pt_clust_6="13000.00000" pt_clust_7="13000.00000" pt_clust_8="13000.00000" pt_clust_9="49.32650"></scales>
<clustering>
<clus scale="   49.326">  2  9  1 -1</clus>
<clus scale="   85.404">  5  6 -1 -1</clus>
<clus scale="   85.971">  1  5  2 -1</clus>
<clus scale="  100.450">  7  8 -1 -1</clus>
<clus scale="   49.326">  2  5  1 -1</clus>
</clustering>
</event>
<event>
 9    1  0.2131001E-005  0.9398906E+02  0.7546771E-02  0.1293678E+00
          2   -1    0    0  502    0  0.00000000000E+00  0.00000000000E+00  0.23350976310E+03  0.23350976310E+03  0.00000000000E+00 0. -1.
         -2   -1    0    0    0  501 -0.00000000000E+00 -0.00000000000E+00 -0.37675502476E+03  0.37675502476E+03  0.00000000000E+00 0.  1.
         23    2    1    2    0    0  0.65084131871E+02  0.39040322086E+02 -0.12480180651E+02  0.11679795855E+03  0.87897197014E+02 0.  0.
         23    2    1    2    0    0  0.25381797729E+01  0.25712070800E+02  0.16079506062E+03  0.18724311109E+03  0.92397933900E+02 0.  0.
        -11    1    3    3    0    0  0.57969381501E+02 -0.28305505250E+00 -0.38062512987E+02  0.69349002925E+02  0.00000000000E+00 0.  1.
         11    1    3    3    0    0  0.71147503707E+01  0.39323377138E+02  0.25582332336E+02  0.47448955628E+02  0.00000000000E+00 0. -1.
        -13    1    4    4    0    0 -0.31360145577E+02 -0.15314318116E+02  0.29949633105E+02  0.45988776817E+02  0.00000000000E+00 0.  1.
         13    1    4    4    0    0  0.33898325350E+02  0.41026388916E+02  0.13084542751E+03  0.14125433427E+03  0.00000000000E+00 0. -1.
         21    1    1    2  502  501 -0.67622311644E+02 -0.64752392886E+02 -0.29156014163E+03  0.30622371823E+03  0.00000000000E+00 0.  1.
<scales pt_clust_5="13000.00000" pt_clust_6="13000.00000" pt_clust_7="13000.00000" pt_clust_8="13000.00000" pt_clust_9="93.62505"></scales>
<clustering>
<clus scale="   87.897">  5  6 -1 -1</clus>
<clus scale="   92.398">  7  8 -1 -1</clus>
<clus scale="   93.625">  2  9  1 -1</clus>
<clus scale="   93.625">  2  5  1 -1</clus>
<clus scale="   93.989">  1  5  2 -1</clus>
</clustering>
</event>
<event>
 9    1  0.1296032E-005  0.9968708E+02  0.7546771E-02  0.1281827E+00
         -2   -1    0    0    0  501 -0.00000000000E+00  0.00000000000E+00  0.74721339101E+02  0.74721339101E+02  0.00000000000E+00 0. -1.
          2   -1    0    0  502    0  0.00000000000E+00 -0.00000000000E+00 -0.27964879649E+03  0.27964879649E+03  0.00000000000E+00 0.  1.
         23    2    1    2    0    0  0.15884133739E+02  0.19696779273E+02  0.13055306636E+02  0.95530878997E+02  0.91189028903E+02 0.  0.
         23    2    1    2    0    0 -0.69905409986E+00 -0.39306805517E+02 -0.20964925656E+03  0.23267464080E+03  0.92947103550E+02 0.  0.
        -11    1    3    3    0    0  0.17714105364E+01  0.43406952115E+02  0.38462264787E+02  0.58022816199E+02  0.00000000000E+00 0. -1.
         11    1    3    3    0    0  0.14112723202E+02 -0.23710172842E+02 -0.25406958150E+02  0.37508062798E+02  0.00000000000E+00 0.  1.
        -13    1    4    4    0    0 -0.35149110392E+02 -0.39431017347E+02 -0.63885963772E+02  0.82895605779E+02  0.00000000000E+00 0. -1.
         13    1    4    4    0    0  0.34450056292E+02  0.12421183025E+00 -0.14576329279E+03  0.14977903502E+03  0.00000000000E+00 0.  1.
         21    1    1    2  502  501 -0.15185079639E+02  0.19610026244E+02 -0.83335074618E+01  0.26164615792E+02  0.00000000000E+00 0. -1.
<scales pt_clust_5="13000.00000" pt_clust_6="13000.00000" pt_clust_7="13000.00000" pt_clust_8="13000.00000" pt_clust_9="24.80201"></scales>
<clustering>
<clus scale="   24.802">  1  9  2 -1</clus>
<clus scale="   91.189">  5  6 -1 -1</clus>
<clus scale="   92.947">  7  8 -1 -1</clus>
<clus scale="   98.050">  1  5  2 -1</clus>
<clus scale="   99.687">  2  5  1 -1</clus>
</clustering>
</event>
<event>
 9    1  0.1296032E-005  0.9778207E+02  0.7546771E-02  0.1288073E+00
          2   -1    0    0  502    0  0.00000000000E+00  0.00000000000E+00  0.20362414487E+02  0.20362414487E+02  0.00000000000E+00 0. -1.
         -2   -1    0    0    0  501 -0.00000000000E+00 -0.00000000000E+00 -0.62661470126E+03  0.62661470126E+03  0.00000000000E+00 0.  1.
         23    2    1    2    0    0  0.16569003762E+02  0.63855210397E+01 -0.25001497933E+03  0.26616882511E+03  0.89571462015E+02 0.  0.
         23    2    1    2    0    0 -0.25381701317E+02  0.25109326838E+02 -0.27849275893E+03  0.29646492157E+03  0.95176277983E+02 0.  0.
        -11    1    4    4    0    0 -0.30820749832E+02  0.56925143086E+02 -0.22363979973E+03  0.23281999605E+03  0.00000000000E+00 0.  1.
         11    1    4    4    0    0  0.54390485145E+01 -0.31815816248E+02 -0.54852959197E+02  0.63644925524E+02  0.00000000000E+00 0. -1.
        -13    1    3    3    0    0  0.31887204270E+02  0.23220349670E+02 -0.23635394757E+03  0.23962296836E+03  0.00000000000E+00 0.  1.
         13    1    3    3    0    0 -0.15318200509E+02 -0.16834828630E+02 -0.13661031761E+02  0.26545856751E+02  0.00000000000E+00 0. -1.
         21    1    1    2  502  501  0.88126975557E+01 -0.31494847878E+02 -0.77744548509E+02  0.84343369058E+02  0.00000000000E+00 0. -1.
<scales pt_clust_5="13000.00000" pt_clust_6="13000.00000" pt_clust_7="13000.00000" pt_clust_8="13000.00000" pt_clust_9="32.70457"></scales>
<clustering>
<clus scale="   32.705">  1  9  2 -1</clus>
<clus scale="   89.571">  7  8 -1 -1</clus>
<clus scale="   92.336">  2  7  1 -1</clus>
<clus scale="   95.176">  5  6 -1 -1</clus>
<clus scale="   32.705">  1  5  2 -1</clus>
</clustering>
</event>
<event>
 9    1  0.1296032E-005  0.1987860E+03  0.7546771E-02  0.1178262E+00
          2   -1    0    0  502    0  0.00000000000E+00  0.00000000000E+00  0.60604503191E+03  0.60604503191E+03  0.00000000000E+00 0. -1.
         -2   -1    0    0    0  501 -0.00000000000E+00 -0.00000000000E+00 -0.10815663915E+03  0.10815663915E+03  0.00000000000E+00 0.  1.
         23    2    1    2    0    0 -0.19879976937E+03  0.18358360899E+02  0.10314097048E+03  0.24254760837E+03  0.91284745800E+02 0.  0.
         23    2    1    2    0    0  0.54799917966E+02  0.20067900332E+02  0.20395336212E+03  0.22954890342E+03  0.87692494021E+02 0.  0.
        -11    1    3    3    0    0 -0.14715120942E+03  0.25692120522E+01  0.27684939523E+02  0.14975491698E+03  0.00000000000E+00 0.  1.
         11    1    3    3    0    0 -0.51648559954E+02  0.15789148847E+02  0.75456030959E+02  0.92792691386E+02  0.00000000000E+00 0. -1.
        -13    1    4    4    0    0  0.35978635967E+02  0.41321610068E+02  0.53986834134E+02  0.76918892117E+02  0.00000000000E+00 0.  1.
         13    1    4    4    0    0  0.18821281999E+02 -0.21253709736E+02  0.14996652799E+03  0.15263001130E+03  0.00000000000E+00 0. -1.
         21    1    1    2  502  501  0.14399985140E+03 -0.38426261232E+02  0.19079406016E+03  0.24210515928E+03  0.00000000000E+00 0. -1.
<scales pt_clust_5="13000.00000" pt_clust_6="13000.00000" pt_clust_7="13000.00000" pt_clust_8="13000.00000" pt_clust_9="176.58700"></scales>
<clustering>
<clus scale="   87.692">  7  8 -1 -1</clus>
<clus scale="   91.285">  5  6 -1 -1</clus>
<clus scale="  105.336">  1  7  2 -1</clus>
<clus scale="  176.587">  1  9  2 -1</clus>
<clus scale="  105.336">  1  5  2 -1</clus>
</clustering>
</event>
<event>
 9    1  0.1296032E-005  0.1750243E+03  0.7546771E-02  0.1173000E+00
          1   -1    0    0  502    0  0.00000000000E+00  0.00000000000E+00  0.26382082055E+03  0.26382082055E+03  0.00000000000E+00 0. -1.
         -1   -1    0    0    0  501 -0.00000000000E+00 -0.00000000000E+00 -0.35962022850E+03  0.35962022850E+03  0.00000000000E+00 0.  1.
         23    2    1    2    0    0 -0.61709332099E+02 -0.11033230990E+03 -0.18249726403E+03  0.23945059905E+03  0.89722225400E+02 0.  0.
         23    2    1    2    0    0  0.11527408278E+03  0.10167925286E+03  0.19382032551E+03  0.26391013783E+03  0.91953562448E+02 0.  0.
        -11    1    3    3    0    0 -0.33370871939E+02 -0.73242170754E+02 -0.40746747347E+02  0.90212682534E+02  0.00000000000E+00 0. -1.
         11    1    3    3    0    0 -0.28338460161E+02 -0.37090139151E+02 -0.14175051668E+03  0.14923791652E+03  0.00000000000E+00 0.  1.
        -11    1    4    4    0    0  0.10142051215E+03  0.11771505808E+03  0.15380341336E+03  0.21862855519E+03  0.00000000000E+00 0.  1.
         11    1    4    4    0    0  0.13853570637E+02 -0.16035805225E+02  0.40016912151E+02  0.45281582644E+02  0.00000000000E+00 0. -1.
         21    1    1    2  502  501 -0.53564750683E+02  0.86530570475E+01 -0.10712246943E+03  0.12008031217E+03  0.00000000000E+00 0.  1.
<scales pt_clust_5="13000.00000" pt_clust_6="13000.00000" pt_clust_7="13000.00000" pt_clust_8="13000.00000" pt_clust_9="54.25917"></scales>
<clustering>
<clus scale="   54.259">  2  9  1 -1</clus>
<clus scale="   89.722">  5  6 -1 -1</clus>
<clus scale="   91.954">  7  8 -1 -1</clus>
<clus scale="  173.862">  2  5  1 -1</clus>
<clus scale="  175.024">  1  5  2 -1</clus>
</clustering>
</event>
<event>
 9    1  0.1296032E-005  0.1029218E+03  0.7546771E-02  0.1276124E+00
         -1   -1    0    0    0  501 -0.00000000000E+00  0.00000000000E+00  0.20155351824E+03  0.20155351824E+03  0.00000000000E+00 0.  1.
          1   -1    0    0  502    0  0.00000000000E+00 -0.00000000000E+00 -0.87570480790E+02  0.87570480790E+02  0.00000000000E+00 0. -1.
         23    2    1    2    0    0 -0.15031587494E+01 -0.53792462137E+02  0.99161457370E+02  0.14619948188E+03  0.92980672219E+02 0.  0.
         23    2    1    2    0    0 -0.67291342597E+01  0.31700342275E+02  0.44818947025E+02  0.10477121543E+03  0.88983575011E+02 0.  0.
        -11    1    4    4    0    0 -0.18151698754E+02 -0.16212760738E+02  0.49634621472E+02  0.55280497710E+02  0.00000000000E+00 0.  1.
         11    1    4    4    0    0  0.11422564494E+02  0.47913103012E+02 -0.48156744474E+01  0.49490717718E+02  0.00000000000E+00 0. -1.
        -13    1    3    3    0    0  0.19536645693E+02 -0.62548531299E+02  0.10398070096E+03  0.12290640937E+03  0.00000000000E+00 0.  1.
         13    1    3    3    0    0 -0.21039804443E+02  0.87560691629E+01 -0.48192435913E+01  0.23293072510E+02  0.00000000000E+00 0. -1.
         21    1    1    2  502  501  0.82322930091E+01  0.22092119862E+02 -0.29997366946E+02  0.38153301717E+02  0.00000000000E+00 0. -1.
<scales pt_clust_5="13000.00000" pt_clust_6="13000.00000" pt_clust_7="13000.00000" pt_clust_8="13000.00000" pt_clust_9="23.57610"></scales>
<clustering>
<clus scale="   23.576">  2  9  1 -1</clus>
<clus scale="   88.984">  5  6 -1 -1</clus>
<clus scale="   92.981">  7  8 -1 -1</clus>
<clus scale="   99.326">  2  5  1 -1</clus>
<clus scale="   23.576">  2  5  1 -1</clus>
</clustering>
</event>
<event>
 9    1  0.1296032E-005  0.9113268E+02  0.7546771E-02  0.1302417E+00
         -3   -1    0    0    0  501 -0.00000000000E+00  0.00000000000E+00  0.13012020586E+03  0.13012020586E+03  0.00000000000E+00 0.  1.
          3   -1    0    0  502    0  0.00000000000E+00 -0.00000000000E+00 -0.16367048619E+03  0.16367048619E+03  0.00000000000E+00 0. -1.
         23    2    1    2    0    0  0.12838473494E+02  0.31980303065E+02  0.59850951508E+02  0.11419045453E+03  0.90938206070E+02 0.  0.
         23    2    1    2    0    0  0.25939830753E+01  0.13356617110E+02 -0.97544616306E+02  0.13152982374E+03  0.87178061427E+02 0.  0.
        -11    1    3    3    0    0  0.22624184424E+02  0.59742575868E+02  0.55121327331E+02  0.84376476692E+02  0.00000000000E+00 0.  1.
         11    1    3    3    0    0 -0.97857109301E+01 -0.27762272803E+02  0.47296241768E+01  0.29813977837E+02  0.00000000000E+00 0. -1.
        -13    1    4    4    0    0 -0.19172704412E+02  0.32359295800E+02 -0.93991787402E+01  0.38769332985E+02  0.00000000000E+00 0.  1.
         13    1    4    4    0    0  0.21766687487E+02 -0.19002678690E+02 -0.88145437566E+02  0.92760490756E+02  0.00000000000E+00 0. -1.
         21    1    1    2  502  501 -0.15432456569E+02 -0.45336920175E+02  0.41433844643E+01  0.48070413785E+02  0.00000000000E+00 0. -1.
<scales pt_clust_5="13000.00000" pt_clust_6="13000.00000" pt_clust_7="13000.00000" pt_clust_8="13000.00000" pt_clust_9="47.89151"></scales>
<clustering>
<clus scale="   47.892">  1  9  2 -1</clus>
<clus scale="   87.178">  7  8 -1 -1</clus>
<clus scale="   87.381">  2  7  1 -1</clus>
<clus scale="   90.938">  5  6 -1 -1</clus>
<clus scale="   87.381">  2  5  1 -1</clus>
</clustering>
</event>
<event>
 9    1  0.1296032E-005  0.1582388E+03  0.7546771E-02  0.1190868E+00
         -1   -1    0    0    0  501 -0.00000000000E+00  0.00000000000E+00  0.15607757708E+03  0.15607757708E+03  0.00000000000E+00 0.  1.
          1   -1    0    0  502    0  0.00000000000E+00 -0.00000000000E+00 -0.20779082523E+03  0.20779082523E+03  0.00000000000E+00 0. -1.
         23    2    1    2    0    0  0.12285668240E+03 -0.56816850958E+02  0.30979369873E+02  0.16623437687E+03  0.91390523208E+02 0.  0.
         23    2    1    2    0    0 -0.97880995852E+02  0.69882236425E+02 -0.62210857021E+02  0.16279164106E+03  0.90369858645E+02 0.  0.
        -11    1    3    3    0    0  0.23537722947E+02  0.90897226652E+01 -0.24131298748E+02  0.34913708467E+02  0.00000000000E+00 0. -1.
         11    1    3    3    0    0  0.99318959456E+02 -0.65906573623E+02  0.55110668621E+02  0.13132066840E+03  0.00000000000E+00 0.  1.
        -11    1    4    4    0    0 -0.44132741094E+02  0.76405641132E+02 -0.63374744271E+02  0.10863645357E+03  0.00000000000E+00 0. -1.
         11    1    4    4    0    0 -0.53748254758E+02 -0.65234047064E+01  0.11638872502E+01  0.54155187490E+02  0.00000000000E+00 0.  1.
         21    1    1    2  502  501 -0.24975686550E+02 -0.13065385467E+02 -0.20481761002E+02  0.34842384387E+02  0.00000000000E+00 0.  1.
<scales pt_clust_5="13000.00000" pt_clust_6="13000.00000" pt_clust_7="13000.00000" pt_clust_8="13000.00000" pt_clust_9="28.18669"></scales>
<clustering>
<clus scale="   28.187">  2  9  1 -1</clus>
<clus scale="   90.370">  7  8 -1 -1</clus>
<clus scale="   91.391">  5  6 -1 -1</clus>
<clus scale="  157.652">  2  7  1 -1</clus>
<clus scale="   28.187">  2  5  1 -1</clus>
</clustering>
</event>
<event>
 9    1  0.1296032E-005  0.1058652E+03  0.7546771E-02  0.1269223E+00
         -1   -1    0    0    0  501 -0.00000000000E+00  0.00000000000E+00  0.49373270126E+03  0.49373270126E+03  0.00000000000E+00 0.  1.
          1   -1    0    0  502    0  0.00000000000E+00 -0.00000000000E+00 -0.35840521495E+02  0.35840521495E+02  0.00000000000E+00 0. -1.
         23    2    1    2    0    0  0.22638668551E+02 -0.73326672769E+02  0.22128860185E+03  0.25122871312E+03  0.90873047327E+02 0.  0.
         23    2    1    2    0    0 -0.23146457394E+02  0.25944700011E+02  0.15331935128E+03  0.18252399201E+03  0.92732401218E+02 0.  0.
        -13    1    3    3    0    0 -0.24452846627E+02 -0.58796187206E+02  0.16240659623E+03  0.17444436315E+03  0.00000000000E+00 0.  1.
         13    1    3    3    0    0  0.47091515179E+02 -0.14530485563E+02  0.58882005629E+02  0.76784349964E+02  0.00000000000E+00 0. -1.
        -13    1    4    4    0    0 -0.67900978372E+01  0.60145200339E+02  0.10381404372E+03  0.12017032174E+03  0.00000000000E+00 0.  1.
         13    1    4    4    0    0 -0.16356359557E+02 -0.34200500329E+02  0.49505307552E+02  0.62353670273E+02  0.00000000000E+00 0. -1.
         21    1    1    2  502  501  0.50778884295E+00  0.47381972759E+02  0.83284226630E+02  0.95820517622E+02  0.00000000000E+00 0.  1.
<scales pt_clust_5="13000.00000" pt_clust_6="13000.00000" pt_clust_7="13000.00000" pt_clust_8="13000.00000" pt_clust_9="47.38469"></scales>
<clustering>
<clus scale="   47.385">  1  9  2 -1</clus>
<clus scale="   90.873">  5  6 -1 -1</clus>
<clus scale="   92.732">  7  8 -1 -1</clus>
<clus scale="  104.240">  1  5  2 -1</clus>
<clus scale="  105.865">  2  5  1 -1</clus>
</clustering>
</event>
<event>
 9    1  0.1296032E-005  0.1790243E+03  0.7546771E-02  0.1169478E+00
         -1   -1    0    0    0  501 -0.00000000000E+00  0.00000000000E+00  0.12712650659E+03  0.12712650659E+03  0.00000000000E+00 0.  1.
          1   -1    0    0  502    0  0.00000000000E+00 -0.00000000000E+00 -0.35460538310E+03  0.35460538310E+03  0.00000000000E+00 0. -1.
         23    2    1    2    0    0 -0.89561160588E+02 -0.11541015768E+03 -0.16394636017E+02  0.17365969894E+03  0.92456481457E+02 0.  0.
         23    2    1    2    0    0  0.86764728565E+02  0.14592410818E+03 -0.16160514911E+03  0.24987337898E+03  0.86593982656E+02 0.  0.
        -11    1    3    3    0    0 -0.22777571185E+02 -0.98889684109E+02 -0.24479049007E+02  0.10438970836E+03  0.00000000000E+00 0.  1.
         11    1    3    3    0    0 -0.66783589404E+02 -0.16520473573E+02  0.80844129895E+01  0.69269990574E+02  0.00000000000E+00 0. -1.
        -13    1    4    4    0    0 -0.16552658384E+02  0.22115880473E+02 -0.12777400148E+02  0.30436238651E+02  0.00000000000E+00 0.  1.
         13    1    4    4    0    0  0.10331738695E+03  0.12380822771E+03 -0.14882774897E+03  0.21943714033E+03  0.00000000000E+00 0. -1.
         21    1    1    2  502  501  0.27964320234E+01 -0.30513950498E+02 -0.49479091379E+02  0.58198811764E+02  0.00000000000E+00 0.  1.
<scales pt_clust_5="13000.00000" pt_clust_6="13000.00000" pt_clust_7="13000.00000" pt_clust_8="13000.00000" pt_clust_9="30.64182"></scales>
<clustering>
<clus scale="   30.642">  2  9  1 -1</clus>
<clus scale="   86.594">  7  8 -1 -1</clus>
<clus scale="   92.456">  5  6 -1 -1</clus>
<clus scale="  176.068">  2  7  1 -1</clus>
<clus scale="   30.642">  2  5  1 -1</clus>
</clustering>
</event>
<event>
 9    1  0.1296032E-005  0.1167123E+03  0.7546771E-02  0.1249114E+00
         -1   -1    0    0    0  501 -0.00000000000E+00  0.00000000000E+00  0.72247564335E+02  0.72247564335E+02  0.00000000000E+00 0.  1.
          1   -1    0    0  502    0  0.00000000000E+00 -0.00000000000E+00 -0.36936170427E+03  0.36936170427E+03  0.00000000000E+00 0. -1.
         23    2    1    2    0    0  0.41891439291E+02 -0.67472399615E+02 -0.30648191728E+02  0.12260340838E+03  0.88231891599E+02 0.  0.
         23    2    1    2    0    0 -0.62990060000E+01  0.71034195768E+02 -0.11127320194E+03  0.15974413791E+03  0.89726972993E+02 0.  0.
        -11    1    3    3    0    0  0.88057908344E+01  0.20501786419E+02 -0.16051708077E+02  0.27486770105E+02  0.00000000000E+00 0. -1.
         11    1    3    3    0    0  0.33085648457E+02 -0.87974186035E+02 -0.14596483651E+02  0.95116638278E+02  0.00000000000E+00 0.  1.
        -13    1    4    4    0    0  0.19098374906E+02 -0.75658561025E+01  0.75478730149E+00  0.20556259545E+02  0.00000000000E+00 0.  1.
         13    1    4    4    0    0 -0.25397380906E+02  0.78600051870E+02 -0.11202798924E+03  0.13918787837E+03  0.00000000000E+00 0. -1.
         21    1    1    2  502  501 -0.35592433291E+02 -0.35617961521E+01 -0.15519274627E+03  0.15926172231E+03  0.00000000000E+00 0. -1.
<scales pt_clust_5="13000.00000" pt_clust_6="13000.00000" pt_clust_7="13000.00000" pt_clust_8="13000.00000" pt_clust_9="35.77021"></scales>
<clustering>
<clus scale="   35.770">  2  9  1 -1</clus>
<clus scale="   88.232">  5  6 -1 -1</clus>
<clus scale="   89.727">  7  8 -1 -1</clus>
<clus scale="  115.567">  1  5  2 -1</clus>
<clus scale="   35.770">  2  5  1 -1</clus>
</clustering>
</event>
<event>
 9    1  0.1296032E-005  0.1728918E+03  0.7546771E-02  0.1178593E+00
          2   -1    0    0  502    0  0.00000000000E+00  0.00000000000E+00  0.38859934860E+03  0.38859934860E+03  0.00000000000E+00 0. -1.
         -2   -1    0    0    0  501 -0.00000000000E+00 -0.00000000000E+00 -0.32973485160E+03  0.32973485160E+03  0.00000000000E+00 0.  1.
         23    2    1    2    0    0  0.11680590361E+03  0.63355131702E+02 -0.27693941942E+03  0.32068362087E+03  0.92114335651E+02 0.  0.
         23    2    1    2    0    0 -0.83468013602E+02 -0.53803246829E+02  0.16794998414E+03  0.22625164118E+03  0.11454653771E+03 0.  0.
        -13    1    4    4    0    0 -0.51980499778E+01 -0.38692273511E+02 -0.14139258190E+01  0.39065469909E+02  0.00000000000E+00 0.  1.
         13    1    4    4    0    0 -0.78269963624E+02 -0.15110973318E+02  0.16936390996E+03  0.18718617127E+03  0.00000000000E+00 0. -1.
        -13    1    3    3    0    0  0.90203862617E+02  0.49408844685E+02 -0.27127590969E+03  0.29011823442E+03  0.00000000000E+00 0.  1.
         13    1    3    3    0    0  0.26602040991E+02  0.13946287016E+02 -0.56635097357E+01  0.30565386452E+02  0.00000000000E+00 0. -1.
         21    1    1    2  502  501 -0.33337890006E+02 -0.95518848724E+01  0.16785393228E+03  0.17139893815E+03  0.00000000000E+00 0. -1.
<scales pt_clust_5="13000.00000" pt_clust_6="13000.00000" pt_clust_7="13000.00000" pt_clust_8="13000.00000" pt_clust_9="34.67929"></scales>
<clustering>
<clus scale="   34.679">  1  9  2 -1</clus>
<clus scale="   92.114">  7  8 -1 -1</clus>
<clus scale="  114.547">  5  6 -1 -1</clus>
<clus scale="  158.921">  2  7  1 -1</clus>
<clus scale="   34.679">  1  5  2 -1</clus>
</clustering>
</event>
<event>
 9    1  0.1296032E-005  0.1426269E+03  0.7546771E-02  0.1212073E+00
          2   -1    0    0  502    0  0.00000000000E+00  0.00000000000E+00  0.55184473278E+03  0.55184473278E+03  0.00000000000E+00 0. -1.
         -2   -1    0    0    0  501 -0.00000000000E+00 -0.00000000000E+00 -0.29976089476E+03  0.29976089476E+03  0.00000000000E+00 0.  1.
         23    2    1    2    0    0  0.37220644160E+02 -0.10503550907E+03 -0.26314049442E+03  0.29705404898E+03  0.81119379275E+02 0.  0.
         23    2    1    2    0    0  0.36680052795E+02  0.79355535305E+02  0.32692335004E+03  0.35064465363E+03  0.91815407529E+02 0.  0.
        -13    1    4    4    0    0  0.42424964978E+01  0.69767169906E+02  0.29816120862E+03  0.30624428664E+03  0.00000000000E+00 0. -1.
         13    1    4    4    0    0  0.32437556297E+02  0.95883653991E+01  0.28762141416E+02  0.44400366985E+02  0.00000000000E+00 0.  1.
        -13    1    3    3    0    0  0.28138615062E+02 -0.14665071746E+02 -0.20011552913E+02  0.37514107172E+02  0.00000000000E+00 0. -1.
         13    1    3    3    0    0  0.90820290982E+01 -0.90370437320E+02 -0.24312894151E+03  0.25953994181E+03  0.00000000000E+00 0.  1.
         21    1    1    2  502  501 -0.73900696955E+02  0.25679973761E+02  0.18830098240E+03  0.20390692493E+03  0.00000000000E+00 0. -1.
<scales pt_clust_5="13000.00000" pt_clust_6="13000.00000" pt_clust_7="13000.00000" pt_clust_8="13000.00000" pt_clust_9="78.23538"></scales>
<clustering>
<clus scale="   78.235">  1  9  2 -1</clus>
<clus scale="   81.119">  7  8 -1 -1</clus>
<clus scale="   91.815">  5  6 -1 -1</clus>
<clus scale="  135.988">  2  7  1 -1</clus>
<clus scale="   78.235">  1  5  2 -1</clus>
</clustering>
</event>
<event>
 9    1  0.1296032E-005  0.1193145E+03  0.7546771E-02  0.1246928E+00
          1   -1    0    0  502    0  0.00000000000E+00  0.00000000000E+00  0.84578372501E+02  0.84578372501E+02  0.00000000000E+00 0. -1.
         -1   -1    0    0    0  501 -0.00000000000E+00 -0.00000000000E+00 -0.38161811524E+03  0.38161811524E+03  0.00000000000E+00 0.  1.
         23    2    1    2    0    0 -0.19431011033E+02  0.57721558936E+02 -0.20899104238E+03  0.23552063266E+03  0.89907563972E+02 0.  0.
         23    2    1    2    0    0  0.17380675957E+02 -0.82176103142E+02 -0.12938748923E+03  0.18260170327E+03  0.97710080563E+02 0.  0.
        -11    1    4    4    0    0 -0.69625979071E+01 -0.80394644542E+02 -0.40238320947E+02  0.90171498342E+02  0.00000000000E+00 0. -1.
         11    1    4    4    0    0  0.24343273864E+02 -0.17814585992E+01 -0.89149168286E+02  0.92430204930E+02  0.00000000000E+00 0.  1.
        -13    1    3    3    0    0  0.31358146907E+02  0.23053327367E+02 -0.12827161572E+03  0.13404624829E+03  0.00000000000E+00 0. -1.
         13    1    3    3    0    0 -0.50789157941E+02  0.34668231568E+02 -0.80719426658E+02  0.10147438438E+03  0.00000000000E+00 0.  1.
         21    1    1    2  502  501  0.20503350762E+01  0.24454544206E+02  0.41338788874E+02  0.48074151805E+02  0.00000000000E+00 0. -1.
<scales pt_clust_5="13000.00000" pt_clust_6="13000.00000" pt_clust_7="13000.00000" pt_clust_8="13000.00000" pt_clust_9="24.54035"></scales>
<clustering>
<clus scale="   24.540">  1  9  2 -1</clus>
<clus scale="   89.908">  7  8 -1 -1</clus>
<clus scale="   97.710">  5  6 -1 -1</clus>
<clus scale="  113.014">  2  7  1 -1</clus>
<clus scale="   24.540">  1  5  2 -1</clus>
</clustering>
</event>
<event>
 9    1  0.1296032E-005  0.1202903E+03  0.7546771E-02  0.1245945E+00
         -1   -1    0    0    0  501 -0.00000000000E+00  0.00000000000E+00  0.88088598869E+02  0.88088598869E+02  0.00000000000E+00 0.  1.
          1   -1    0    0  502    0  0.00000000000E+00 -0.00000000000E+00 -0.38283515243E+03  0.38283515243E+03  0.00000000000E+00 0. -1.
         23    2    1    2    0    0 -0.51240233815E+02  0.75186357618E+02 -0.12247466426E+02  0.13418424264E+03  0.97861435749E+02 0.  0.
         23    2    1    2    0    0  0.61407227322E+01 -0.43242329189E+02 -0.79775401841E+02  0.12661745024E+03  0.88092317814E+02 0.  0.
        -11    1    3    3    0    0  0.25064825297E+02  0.72341583387E+01 -0.18240835644E+02  0.31832477112E+02  0.00000000000E+00 0. -1.
         11    1    3    3    0    0 -0.76305059112E+02  0.67952199279E+02  0.59933692186E+01  0.10235176553E+03  0.00000000000E+00 0.  1.
        -13    1    4    4    0    0 -0.33362876647E+02 -0.35454564709E+02 -0.16094226897E+02  0.51275060569E+02  0.00000000000E+00 0.  1.
         13    1    4    4    0    0  0.39503599379E+02 -0.77877644792E+01 -0.63681174944E+02  0.75342389674E+02  0.00000000000E+00 0. -1.
         21    1    1    2  502  501  0.45099511083E+02 -0.31944028429E+02 -0.20272368530E+03  0.21012205841E+03  0.00000000000E+00 0. -1.
<scales pt_clust_5="13000.00000" pt_clust_6="13000.00000" pt_clust_7="13000.00000" pt_clust_8="13000.00000" pt_clust_9="55.26651"></scales>
<clustering>
<clus scale="   55.267">  2  9  1 -1</clus>
<clus scale="   88.092">  7  8 -1 -1</clus>
<clus scale="   97.861">  5  6 -1 -1</clus>
<clus scale="  112.486">  2  7  1 -1</clus>
<clus scale="   55.267">  2  5  1 -1</clus>
</clustering>
</event>
<event>
 9    1  0.1296032E-005  0.1011144E+03  0.7546771E-02  0.1278464E+00
          1   -1    0    0  502    0  0.00000000000E+00  0.00000000000E+00  0.36807497717E+03  0.36807497717E+03  0.00000000000E+00 0. -1.
         -1   -1    0    0    0  501 -0.00000000000E+00 -0.00000000000E+00 -0.75306692829E+02  0.75306692829E+02  0.00000000000E+00 0.  1.
         23    2    1    2    0    0 -0.17832092786E+02  0.31553605070E+02 -0.10552846306E+02  0.99009781898E+02  0.91531201349E+02 0.  0.
         23    2    1    2    0    0 -0.34789723103E+01 -0.66731772547E+02  0.16943015312E+03  0.20430597924E+03  0.92569561143E+02 0.  0.
        -11    1    3    3    0    0 -0.44304922476E+02  0.49476321457E+01  0.21646606549E+02  0.49557853006E+02  0.00000000000E+00 0.  1.
         11    1    3    3    0    0  0.26472829690E+02  0.26605972924E+02 -0.32199452855E+02  0.49451928893E+02  0.00000000000E+00 0. -1.
        -13    1    4    4    0    0 -0.38984224338E+02 -0.75674645439E+01  0.33863729742E+02  0.52189926795E+02  0.00000000000E+00 0.  1.
         13    1    4    4    0    0  0.35505252028E+02 -0.59164308003E+02  0.13556642338E+03  0.15211605244E+03  0.00000000000E+00 0. -1.
         21    1    1    2  502  501  0.21311065097E+02  0.35178167477E+02  0.13389097752E+03  0.14006590886E+03  0.00000000000E+00 0. -1.
<scales pt_clust_5="13000.00000" pt_clust_6="13000.00000" pt_clust_7="13000.00000" pt_clust_8="13000.00000" pt_clust_9="41.12985"></scales>
<clustering>
<clus scale="   41.130">  1  9  2 -1</clus>
<clus scale="   91.531">  5  6 -1 -1</clus>
<clus scale="   92.570">  7  8 -1 -1</clus>
<clus scale="  100.165">  2  5  1 -1</clus>
<clus scale="   41.130">  1  5  2 -1</clus>
</clustering>
</event>
<event>
 9    1  0.1296032E-005  0.9879035E+02  0.7546771E-02  0.1283893E+00
          1   -1    0    0  502    0  0.00000000000E+00  0.00000000000E+00  0.51281694763E+03  0.51281694763E+03  0.00000000000E+00 0. -1.
         -1   -1    0    0    0  501 -0.00000000000E+00 -0.00000000000E+00 -0.36054701928E+02  0.36054701928E+02  0.00000000000E+00 0.  1.
         23    2    1    2    0    0  0.24895804567E+02 -0.36537179771E+02  0.76824653036E+02  0.12657107574E+03  0.90351775352E+02 0.  0.
         23    2    1    2    0    0  0.25053859689E+00  0.17210940684E+02  0.21475177210E+03  0.23441861558E+03  0.92398508983E+02 0.  0.
        -13    1    3    3    0    0  0.40256616324E+02 -0.59941759270E+02  0.50236387137E+02  0.87961947767E+02  0.00000000000E+00 0.  1.
         13    1    3    3    0    0 -0.15360811757E+02  0.23404579500E+02  0.26588265899E+02  0.38609127974E+02  0.00000000000E+00 0. -1.
        -13    1    4    4    0    0  0.32527235701E+02  0.41675450043E+02  0.13474478908E+03  0.14474467998E+03  0.00000000000E+00 0. -1.
         13    1    4    4    0    0 -0.32276697104E+02 -0.24464509359E+02  0.80006983023E+02  0.89673935603E+02  0.00000000000E+00 0.  1.
         21    1    1    2  502  501 -0.25146343164E+02  0.19326239086E+02  0.18518582057E+03  0.18788195824E+03  0.00000000000E+00 0.  1.
<scales pt_clust_5="13000.00000" pt_clust_6="13000.00000" pt_clust_7="13000.00000" pt_clust_8="13000.00000" pt_clust_9="31.71501"></scales>
<clustering>
<clus scale="   31.715">  1  9  2 -1</clus>
<clus scale="   90.352">  5  6 -1 -1</clus>
<clus scale="   92.399">  7  8 -1 -1</clus>
<clus scale="   96.879">  2  5  1 -1</clus>
<clus scale="   31.715">  1  5  2 -1</clus>
</clustering>
</event>
<event>
 9    1  0.1296032E-005  0.1190662E+03  0.7546771E-02  0.1245781E+00
          1   -1    0    0  502    0  0.00000000000E+00  0.00000000000E+00  0.10142128175E+03  0.10142128175E+03  0.00000000000E+00 0. -1.
         -1   -1    0    0    0  501 -0.00000000000E+00 -0.00000000000E+00 -0.25758515609E+03  0.25758515609E+03  0.00000000000E+00 0.  1.
         23    2    1    2    0    0  0.37246511513E+02 -0.50592998419E+02 -0.14184531441E+03  0.18069656836E+03  0.92650971328E+02 0.  0.
         23    2    1    2    0    0 -0.77395607527E+02  0.57656389284E+02 -0.18271217241E+02  0.13735300313E+03  0.96008701685E+02 0.  0.
        -11    1    4    4    0    0 -0.43423855906E+02  0.45979479359E+02  0.35621453265E+02  0.72585340921E+02  0.00000000000E+00 0. -1.
         11    1    4    4    0    0 -0.33971751620E+02  0.11676909925E+02 -0.53892670506E+02  0.64767662207E+02  0.00000000000E+00 0.  1.
        -11    1    3    3    0    0  0.35952995593E+02 -0.50669277634E+01 -0.12806579440E+03  0.13311325758E+03  0.00000000000E+00 0.  1.
         11    1    3    3    0    0  0.12935159193E+01 -0.45526070656E+02 -0.13779520011E+02  0.47583310777E+02  0.00000000000E+00 0. -1.
         21    1    1    2  502  501  0.40149096014E+02 -0.70633908647E+01  0.39526573198E+01  0.40956866349E+02  0.00000000000E+00 0. -1.
<scales pt_clust_5="13000.00000" pt_clust_6="13000.00000" pt_clust_7="13000.00000" pt_clust_8="13000.00000" pt_clust_9="40.76569"></scales>
<clustering>
<clus scale="   40.766">  1  9  2 -1</clus>
<clus scale="   92.651">  7  8 -1 -1</clus>
<clus scale="   96.009">  5  6 -1 -1</clus>
<clus scale="  116.376">  2  7  1 -1</clus>
<clus scale="   40.766">  1  5  2 -1</clus>
</clustering>
</event>
<event>
 9    1  0.1296032E-005  0.1334137E+03  0.7546771E-02  0.1225924E+00
          2   -1    0    0  502    0  0.00000000000E+00  0.00000000000E+00  0.30304834548E+03  0.30304834548E+03  0.00000000000E+00 0. -1.
         -2   -1    0    0    0  501 -0.00000000000E+00 -0.00000000000E+00 -0.73712801375E+02  0.73712801375E+02  0.00000000000E+00 0.  1.
         23    2    1    2    0    0  0.54250996651E+02 -0.10044725562E+03  0.92556301102E+02  0.16695713235E+03  0.79216118130E+02 0.  0.
         23    2    1    2    0    0 -0.28634449698E+02  0.77056622786E+02  0.11153335673E+03  0.16690082166E+03  0.93051275023E+02 0.  0.
        -11    1    4    4    0    0  0.21708127262E+01  0.90222260387E+02  0.87217894259E+02  0.12550589538E+03  0.00000000000E+00 0. -1.
         11    1    4    4    0    0 -0.30805262424E+02 -0.13165637600E+02  0.24315462471E+02  0.41394926278E+02  0.00000000000E+00 0.  1.
        -13    1    3    3    0    0  0.41546422215E+01 -0.49651634220E+02 -0.34035372318E+00  0.49826315069E+02  0.00000000000E+00 0.  1.
         13    1    3    3    0    0  0.50096354429E+02 -0.50795621399E+02  0.92896654825E+02  0.11713081729E+03  0.00000000000E+00 0. -1.
         21    1    1    2  502  501 -0.25616546953E+02  0.23390632832E+02  0.25245886275E+02  0.42903192841E+02  0.00000000000E+00 0.  1.
<scales pt_clust_5="13000.00000" pt_clust_6="13000.00000" pt_clust_7="13000.00000" pt_clust_8="13000.00000" pt_clust_9="34.68904"></scales>
<clustering>
<clus scale="   34.689">  2  9  1 -1</clus>
<clus scale="   79.216">  7  8 -1 -1</clus>
<clus scale="   93.051">  5  6 -1 -1</clus>
<clus scale="  124.161">  2  7  1 -1</clus>
<clus scale="  133.414">  1  5  2 -1</clus>
</clustering>
</event>
